 Entering Gaussian System, Link 0=/g100_work/pMI24_ChiCa/g09d1/g09d01/d01/build-node-6-2-59348/src/main/g09
 Input=geom.com
 Output=geom.log
 Initial command:
 /g100_work/pMI24_ChiCa/g09d1/g09d01/d01/build-node-6-2-59348/src/main/l1.exe "/g100_scratch/userexternal/ecabiati/g16_14399128/Gau-56002.inp" -scrdir="/g100_scratch/userexternal/ecabiati/g16_14399128/"
 Entering Link 1 = /g100_work/pMI24_ChiCa/g09d1/g09d01/d01/build-node-6-2-59348/src/main/l1.exe PID=     56003.
  
 Copyright (c) 1988,1990,1992,1993,1995,1998,2003,2009,2013,
            Gaussian, Inc.  All Rights Reserved.
  
 This is part of the Gaussian(R) 09 program.  It is based on
 the Gaussian(R) 03 system (copyright 2003, Gaussian, Inc.),
 the Gaussian(R) 98 system (copyright 1998, Gaussian, Inc.),
 the Gaussian(R) 94 system (copyright 1995, Gaussian, Inc.),
 the Gaussian 92(TM) system (copyright 1992, Gaussian, Inc.),
 the Gaussian 90(TM) system (copyright 1990, Gaussian, Inc.),
 the Gaussian 88(TM) system (copyright 1988, Gaussian, Inc.),
 the Gaussian 86(TM) system (copyright 1986, Carnegie Mellon
 University), and the Gaussian 82(TM) system (copyright 1983,
 Carnegie Mellon University). Gaussian is a federally registered
 trademark of Gaussian, Inc.
  
 This software contains proprietary and confidential information,
 including trade secrets, belonging to Gaussian, Inc.
  
 This software is provided under written license and may be
 used, copied, transmitted, or stored only in accord with that
 written license.
  
 The following legend is applicable only to US Government
 contracts under FAR:
  
                    RESTRICTED RIGHTS LEGEND
  
 Use, reproduction and disclosure by the US Government is
 subject to restrictions as set forth in subparagraphs (a)
 and (c) of the Commercial Computer Software - Restricted
 Rights clause in FAR 52.227-19.
  
 Gaussian, Inc.
 340 Quinnipiac St., Bldg. 40, Wallingford CT 06492
  
  
 ---------------------------------------------------------------
 Warning -- This program may not be used in any manner that
 competes with the business of Gaussian, Inc. or will provide
 assistance to any competitor of Gaussian, Inc.  The licensee
 of this program is prohibited from giving any competitor of
 Gaussian, Inc. access to this program.  By using this program,
 the user acknowledges that Gaussian, Inc. is engaged in the
 business of creating and licensing software in the field of
 computational chemistry and represents and warrants to the
 licensee that it is not a competitor of Gaussian, Inc. and that
 it will not use this program in any manner prohibited above.
 ---------------------------------------------------------------
  

 Cite this work as:
 Gaussian 09, Revision D.01,
 M. J. Frisch, G. W. Trucks, H. B. Schlegel, G. E. Scuseria, 
 M. A. Robb, J. R. Cheeseman, G. Scalmani, V. Barone, B. Mennucci, 
 G. A. Petersson, H. Nakatsuji, M. Caricato, X. Li, H. P. Hratchian, 
 A. F. Izmaylov, J. Bloino, G. Zheng, J. L. Sonnenberg, M. Hada, 
 M. Ehara, K. Toyota, R. Fukuda, J. Hasegawa, M. Ishida, T. Nakajima, 
 Y. Honda, O. Kitao, H. Nakai, T. Vreven, J. A. Montgomery, Jr., 
 J. E. Peralta, F. Ogliaro, M. Bearpark, J. J. Heyd, E. Brothers, 
 K. N. Kudin, V. N. Staroverov, T. Keith, R. Kobayashi, J. Normand, 
 K. Raghavachari, A. Rendell, J. C. Burant, S. S. Iyengar, J. Tomasi, 
 M. Cossi, N. Rega, J. M. Millam, M. Klene, J. E. Knox, J. B. Cross, 
 V. Bakken, C. Adamo, J. Jaramillo, R. Gomperts, R. E. Stratmann, 
 O. Yazyev, A. J. Austin, R. Cammi, C. Pomelli, J. W. Ochterski, 
 R. L. Martin, K. Morokuma, V. G. Zakrzewski, G. A. Voth, 
 P. Salvador, J. J. Dannenberg, S. Dapprich, A. D. Daniels, 
 O. Farkas, J. B. Foresman, J. V. Ortiz, J. Cioslowski, 
 and D. J. Fox, Gaussian, Inc., Wallingford CT, 2013.
 
 ******************************************
 Gaussian 09:  EM64L-G09RevD.01 24-Apr-2013
                13-Sep-2024 
 ******************************************
 %nproc=24
 Will use up to   24 processors via shared memory.
 %mem=2Gb
 %chk=ch4+h_to_ch3+h2.chk
 ----------------------------------------------------------------------
 #p B3LYP/6-31g(d,p) opt=Z-Matrix nosym temperature=300 pop=full gfinpu
 t
 ----------------------------------------------------------------------
 1/10=7,14=-1,18=40,26=3,38=1,112=300000/1,3;
 2/12=2,15=1,17=6,18=5,29=3,40=1/2;
 3/5=1,6=6,7=101,11=2,16=1,24=10,25=1,30=1,71=1,74=-5/1,2,3;
 4//1;
 5/5=2,38=5/2;
 6/7=3,28=1/1;
 7/29=1,30=1/1,2,3,16;
 1/10=7,14=-1,18=40,26=3/3(2);
 2/15=1,29=3/2;
 99//99;
 2/15=1,29=3/2;
 3/5=1,6=6,7=101,11=2,16=1,25=1,30=1,71=1,74=-5/1,2,3;
 4/5=5,16=3,69=1/1;
 5/5=2,38=5/2;
 7/30=1/1,2,3,16;
 1/14=-1,18=40,26=3/3(-5);
 2/15=1,29=3/2;
 6/7=3,19=2,28=1/1;
 99/9=1/99;
 Leave Link    1 at Fri Sep 13 21:36:02 2024, MaxMem=   268435456 cpu:         0.2
 (Enter /g100_work/pMI24_ChiCa/g09d1/g09d01/d01/build-node-6-2-59348/src/main/l101.exe)
 ---------------------------
 ch4+h to ch3+h2 pulling hh7
 ---------------------------
 Symbolic Z-matrix:
 Charge =  0 Multiplicity = 2
 c
 h                    1    hc2
 h                    1    hc3      2    hch3
 h                    1    hc4      2    hch4     3    dih4     0
 h                    1    hc5      2    hch5     3    dih5     0
 xx                   5    xxh6     1    xxhc6    4    dih6     0
 h                    5    hh7      6    hhxx7    1    dih7     0
       Variables:
  hc2                   1.0928                   
  hc3                   1.0928                   
  hch3                109.48                     
  hc4                   1.0928                   
  hch4                109.4852                   
  dih4                120.0262                   
  hc5                   1.0929                   
  hch5                109.457                    
  dih5               -119.985                    
  xxh6                  1.      -1        0.     
  xxhc6                89.9651  -1        0.     
  dih6                 70.1542  -1        0.     
  hh7                   2.6061 Scan 20   -0.1    
  hhxx7                90.0151                   
  dih7                180.1237                   
 
 NAtoms=      6 NQM=        6 NQMF=       0 NMMI=      0 NMMIF=      0
                NMic=       0 NMicF=      0.
                    Isotopes and Nuclear Properties:
 (Nuclear quadrupole moments (NQMom) in fm**2, nuclear magnetic moments (NMagM)
  in nuclear magnetons)

  Atom         1           2           3           4           5           6
 IAtWgt=          12           1           1           1           1           1
 AtmWgt=  12.0000000   1.0078250   1.0078250   1.0078250   1.0078250   1.0078250
 NucSpn=           0           1           1           1           1           1
 AtZEff=   0.0000000   0.0000000   0.0000000   0.0000000   0.0000000   0.0000000
 NQMom=    0.0000000   0.0000000   0.0000000   0.0000000   0.0000000   0.0000000
 NMagM=    0.0000000   2.7928460   2.7928460   2.7928460   2.7928460   2.7928460
 AtZNuc=   6.0000000   1.0000000   1.0000000   1.0000000   1.0000000   1.0000000
 Leave Link  101 at Fri Sep 13 21:36:02 2024, MaxMem=   268435456 cpu:         0.2
 (Enter /g100_work/pMI24_ChiCa/g09d1/g09d01/d01/build-node-6-2-59348/src/main/l103.exe)

 GradGradGradGradGradGradGradGradGradGradGradGradGradGradGradGradGradGrad
 Berny optimization.
 Initialization pass.
                       ----------------------------
                       !    Initial Parameters    !
                       ! (Angstroms and Degrees)  !
 ----------------------                            ----------------------
 !      Name          Value   Derivative information (Atomic Units)     !
 ------------------------------------------------------------------------
 !       hc2         1.0928   estimate D2E/DX2                          !
 !       hc3         1.0928   estimate D2E/DX2                          !
 !      hch3       109.48     estimate D2E/DX2                          !
 !       hc4         1.0928   estimate D2E/DX2                          !
 !      hch4       109.4852   estimate D2E/DX2                          !
 !      dih4       120.0262   estimate D2E/DX2                          !
 !       hc5         1.0929   estimate D2E/DX2                          !
 !      hch5       109.457    estimate D2E/DX2                          !
 !      dih5      -119.985    estimate D2E/DX2                          !
 !      xxh6         1.0      Frozen                                    !
 !      xxhc6       89.9651   Frozen                                    !
 !      dih6        70.1542   Frozen                                    !
 !       hh7         2.6061   Scan                                      !
 !      hhxx7       90.0151   estimate D2E/DX2                          !
 !      dih7       180.1237   estimate D2E/DX2                          !
 ------------------------------------------------------------------------
 Trust Radius=3.00D-01 FncErr=1.00D-07 GrdErr=1.00D-06
 Number of optimizations in scan=  21
 Number of steps in this run=     25 maximum allowed number of steps=    100.
 GradGradGradGradGradGradGradGradGradGradGradGradGradGradGradGradGradGrad

 Leave Link  103 at Fri Sep 13 21:36:02 2024, MaxMem=   268435456 cpu:         0.1
 (Enter /g100_work/pMI24_ChiCa/g09d1/g09d01/d01/build-node-6-2-59348/src/main/l202.exe)
 ---------------------------------------------------------------------------------------------------
                            Z-MATRIX (ANGSTROMS AND DEGREES)
   CD    Cent   Atom    N1       Length/X        N2       Alpha/Y        N3        Beta/Z          J
 ---------------------------------------------------------------------------------------------------
      1      1  C 
      2      2  H        1   1.092800(     1)
      3      3  H        1   1.092800(     2)      2  109.480(     7)
      4      4  H        1   1.092800(     3)      2  109.485(     8)      3  120.026(    12)      0
      5      5  H        1   1.092900(     4)      2  109.457(     9)      3 -119.985(    13)      0
      6         X        5   1.000000(     5)      1   89.965(    10)      4   70.154(    14)      0
      7      6  H        5   2.606100(     6)      6   90.015(    11)      1  180.124(    15)      0
 ---------------------------------------------------------------------------------------------------
                         Z-Matrix orientation:                         
 ---------------------------------------------------------------------
 Center     Atomic      Atomic             Coordinates (Angstroms)
 Number     Number       Type             X           Y           Z
 ---------------------------------------------------------------------
      1          6           0        0.000000    0.000000    0.000000
      2          1           0        0.000000    0.000000    1.092800
      3          1           0        1.030246    0.000000   -0.364425
      4          1           0       -0.515514   -0.891955   -0.364518
      5          1           0       -0.515010    0.892562   -0.364044
      6         -1           0       -1.284108    0.696104    0.244143
      7          1           0       -1.741351    3.023815   -1.227530
 ---------------------------------------------------------------------
                    Distance matrix (angstroms):
                    1          2          3          4          5
     1  C    0.000000
     2  H    1.092800   0.000000
     3  H    1.092800   1.784632   0.000000
     4  H    1.092800   1.784689   1.784645   0.000000
     5  H    1.092900   1.784460   1.784512   1.784517   0.000000
     6  X    1.480912   1.689293   2.492217   1.866316   1.000000
     7  H    3.698998   4.190428   4.191677   4.192936   2.606100
                    6          7
     6  X    0.000000
     7  H    2.791618   0.000000
 Symmetry turned off by external request.
 Stoichiometry    CH5(2)
 Framework group  C1[X(CH5)]
 Deg. of freedom    12
 Full point group                 C1      NOp   1
 Rotational constants (GHZ):    157.4430317     31.2287166     31.2284769
 Leave Link  202 at Fri Sep 13 21:36:02 2024, MaxMem=   268435456 cpu:         0.2
 (Enter /g100_work/pMI24_ChiCa/g09d1/g09d01/d01/build-node-6-2-59348/src/main/l301.exe)
 Standard basis: 6-31G(d,p) (6D, 7F)
 Ernie: Thresh=  0.10000D-02 Tol=  0.10000D-05 Strict=F.
 AO basis set in the form of general basis input (Overlap normalization):
      1 0
 S   6 1.00       0.000000000000
      0.3047524880D+04  0.1834737132D-02
      0.4573695180D+03  0.1403732281D-01
      0.1039486850D+03  0.6884262226D-01
      0.2921015530D+02  0.2321844432D+00
      0.9286662960D+01  0.4679413484D+00
      0.3163926960D+01  0.3623119853D+00
 SP   3 1.00       0.000000000000
      0.7868272350D+01 -0.1193324198D+00  0.6899906659D-01
      0.1881288540D+01 -0.1608541517D+00  0.3164239610D+00
      0.5442492580D+00  0.1143456438D+01  0.7443082909D+00
 SP   1 1.00       0.000000000000
      0.1687144782D+00  0.1000000000D+01  0.1000000000D+01
 D   1 1.00       0.000000000000
      0.8000000000D+00  0.1000000000D+01
 ****
      2 0
 S   3 1.00       0.000000000000
      0.1873113696D+02  0.3349460434D-01
      0.2825394365D+01  0.2347269535D+00
      0.6401216923D+00  0.8137573261D+00
 S   1 1.00       0.000000000000
      0.1612777588D+00  0.1000000000D+01
 P   1 1.00       0.000000000000
      0.1100000000D+01  0.1000000000D+01
 ****
      3 0
 S   3 1.00       0.000000000000
      0.1873113696D+02  0.3349460434D-01
      0.2825394365D+01  0.2347269535D+00
      0.6401216923D+00  0.8137573261D+00
 S   1 1.00       0.000000000000
      0.1612777588D+00  0.1000000000D+01
 P   1 1.00       0.000000000000
      0.1100000000D+01  0.1000000000D+01
 ****
      4 0
 S   3 1.00       0.000000000000
      0.1873113696D+02  0.3349460434D-01
      0.2825394365D+01  0.2347269535D+00
      0.6401216923D+00  0.8137573261D+00
 S   1 1.00       0.000000000000
      0.1612777588D+00  0.1000000000D+01
 P   1 1.00       0.000000000000
      0.1100000000D+01  0.1000000000D+01
 ****
      5 0
 S   3 1.00       0.000000000000
      0.1873113696D+02  0.3349460434D-01
      0.2825394365D+01  0.2347269535D+00
      0.6401216923D+00  0.8137573261D+00
 S   1 1.00       0.000000000000
      0.1612777588D+00  0.1000000000D+01
 P   1 1.00       0.000000000000
      0.1100000000D+01  0.1000000000D+01
 ****
      6 0
 S   3 1.00       0.000000000000
      0.1873113696D+02  0.3349460434D-01
      0.2825394365D+01  0.2347269535D+00
      0.6401216923D+00  0.8137573261D+00
 S   1 1.00       0.000000000000
      0.1612777588D+00  0.1000000000D+01
 P   1 1.00       0.000000000000
      0.1100000000D+01  0.1000000000D+01
 ****

    40 basis functions,    63 primitive gaussians,    40 cartesian basis functions
     6 alpha electrons        5 beta electrons
       nuclear repulsion energy        14.8408030536 Hartrees.
 IExCor=  402 DFT=T Ex+Corr=B3LYP ExCW=0 ScaHFX=  0.200000
 ScaDFX=  0.800000  0.720000  1.000000  0.810000 ScalE2=  1.000000  1.000000
 IRadAn=      0 IRanWt=     -1 IRanGd=            0 ICorTp=0 IEmpDi=  4
 NAtoms=    6 NActive=    6 NUniq=    6 SFac= 1.00D+00 NAtFMM=   60 NAOKFM=F Big=F
 Integral buffers will be    131072 words long.
 Raffenetti 2 integral format.
 Two-electron integral symmetry is turned off.
 Leave Link  301 at Fri Sep 13 21:36:02 2024, MaxMem=   268435456 cpu:         0.1
 (Enter /g100_work/pMI24_ChiCa/g09d1/g09d01/d01/build-node-6-2-59348/src/main/l302.exe)
 NPDir=0 NMtPBC=     1 NCelOv=     1 NCel=       1 NClECP=     1 NCelD=      1
         NCelK=      1 NCelE2=     1 NClLst=     1 CellRange=     0.0.
 One-electron integrals computed using PRISM.
 NBasis=    40 RedAO= T EigKep=  1.74D-02  NBF=    40
 NBsUse=    40 1.00D-06 EigRej= -1.00D+00 NBFU=    40
 Precomputing XC quadrature grid using
 IXCGrd= 4 IRadAn=           0 IRanWt=          -1 IRanGd=           0 AccXCQ= 0.00D+00.
 Generated NRdTot=       0 NPtTot=           0 NUsed=           0 NTot=          32
 NSgBfM=    40    40    40    40    40 MxSgAt=     6 MxSgA2=     6.
 Leave Link  302 at Fri Sep 13 21:36:02 2024, MaxMem=   268435456 cpu:         1.2
 (Enter /g100_work/pMI24_ChiCa/g09d1/g09d01/d01/build-node-6-2-59348/src/main/l303.exe)
 DipDrv:  MaxL=1.
 Leave Link  303 at Fri Sep 13 21:36:03 2024, MaxMem=   268435456 cpu:         0.2
 (Enter /g100_work/pMI24_ChiCa/g09d1/g09d01/d01/build-node-6-2-59348/src/main/l401.exe)
 ExpMin= 1.61D-01 ExpMax= 3.05D+03 ExpMxC= 4.57D+02 IAcc=1 IRadAn=         1 AccDes= 0.00D+00
 Harris functional with IExCor=  402 and IRadAn=       1 diagonalized for initial guess.
 HarFok:  IExCor=  402 AccDes= 0.00D+00 IRadAn=         1 IDoV= 1 UseB2=F ITyADJ=14
 ICtDFT=  3500011 ScaDFX=  1.000000  1.000000  1.000000  1.000000
 FoFCou: FMM=F IPFlag=           0 FMFlag=      100000 FMFlg1=           0
         NFxFlg=           0 DoJE=T BraDBF=F KetDBF=T FulRan=T
         wScrn=  0.000000 ICntrl=     500 IOpCl=  0 I1Cent=   200000004 NGrid=           0
         NMat0=    1 NMatS0=      1 NMatT0=    0 NMatD0=    1 NMtDS0=    0 NMtDT0=    0
 Symmetry not used in FoFCou.
 Harris En= -41.0289938925083    
 JPrj=0 DoOrth=F DoCkMO=F.
 Initial guess <Sx>= 0.0000 <Sy>= 0.0000 <Sz>= 0.5000 <S**2>= 0.7500 S= 0.5000
 Leave Link  401 at Fri Sep 13 21:36:03 2024, MaxMem=   268435456 cpu:         1.2
 (Enter /g100_work/pMI24_ChiCa/g09d1/g09d01/d01/build-node-6-2-59348/src/main/l502.exe)
 UHF open shell SCF:
 Using DIIS extrapolation, IDIIS=  1040.
 Two-electron integral symmetry not used.
 Keep R1 and R2 ints in memory in canonical form, NReq=1558450.
 IVT=       24562 IEndB=       24562 NGot=   268435456 MDV=   267737675
 LenX=   267737675 LenY=   267735634
 Requested convergence on RMS density matrix=1.00D-08 within 128 cycles.
 Requested convergence on MAX density matrix=1.00D-06.
 Requested convergence on             energy=1.00D-06.
 No special actions if energy rises.
 FoFCou: FMM=F IPFlag=           0 FMFlag=           0 FMFlg1=           0
         NFxFlg=           0 DoJE=F BraDBF=F KetDBF=F FulRan=T
         wScrn=  0.000000 ICntrl=     600 IOpCl=  0 I1Cent=           0 NGrid=           0
         NMat0=    1 NMatS0=    820 NMatT0=    0 NMatD0=    1 NMtDS0=    0 NMtDT0=    0
 Symmetry not used in FoFCou.
 Integral accuracy reduced to 1.0D-05 until final iterations.

 Cycle   1  Pass 0  IDiag  1:
 E= -40.9316674143170    
 DIIS: error= 4.54D-02 at cycle   1 NSaved=   1.
 NSaved= 1 IEnMin= 1 EnMin= -40.9316674143170     IErMin= 1 ErrMin= 4.54D-02
 ErrMax= 4.54D-02  0.00D+00 EMaxC= 1.00D-01 BMatC= 3.36D-01 BMatP= 3.36D-01
 IDIUse=3 WtCom= 5.46D-01 WtEn= 4.54D-01
 Coeff-Com:  0.100D+01
 Coeff-En:   0.100D+01
 Coeff:      0.100D+01
 Gap=     0.506 Goal=   None    Shift=    0.000
 Gap=     0.200 Goal=   None    Shift=    0.000
 GapD=    0.200 DampG=1.000 DampE=0.500 DampFc=0.5000 IDamp=-1.
 Damping current iteration by 5.00D-01
 RMSDP=1.31D-02 MaxDP=1.51D-01              OVMax= 2.00D-01

 Cycle   2  Pass 0  IDiag  1:
 E= -40.9746724954431     Delta-E=       -0.043005081126 Rises=F Damp=T
 DIIS: error= 1.23D-02 at cycle   2 NSaved=   2.
 NSaved= 2 IEnMin= 2 EnMin= -40.9746724954431     IErMin= 2 ErrMin= 1.23D-02
 ErrMax= 1.23D-02  0.00D+00 EMaxC= 1.00D-01 BMatC= 7.73D-03 BMatP= 3.36D-01
 IDIUse=3 WtCom= 8.77D-01 WtEn= 1.23D-01
 Coeff-Com:  0.704D-01 0.930D+00
 Coeff-En:   0.103D+00 0.897D+00
 Coeff:      0.744D-01 0.926D+00
 Gap=     0.492 Goal=   None    Shift=    0.000
 Gap=     0.312 Goal=   None    Shift=    0.000
 RMSDP=1.58D-03 MaxDP=2.42D-02 DE=-4.30D-02 OVMax= 1.06D-01

 Cycle   3  Pass 0  IDiag  1:
 E= -41.0244692930264     Delta-E=       -0.049796797583 Rises=F Damp=F
 DIIS: error= 5.90D-04 at cycle   3 NSaved=   3.
 NSaved= 3 IEnMin= 3 EnMin= -41.0244692930264     IErMin= 3 ErrMin= 5.90D-04
 ErrMax= 5.90D-04  0.00D+00 EMaxC= 1.00D-01 BMatC= 4.42D-05 BMatP= 7.73D-03
 IDIUse=3 WtCom= 9.94D-01 WtEn= 5.90D-03
 Coeff-Com:  0.887D-02-0.249D-01 0.102D+01
 Coeff-En:   0.000D+00 0.000D+00 0.100D+01
 Coeff:      0.881D-02-0.248D-01 0.102D+01
 Gap=     0.438 Goal=   None    Shift=    0.000
 Gap=     0.334 Goal=   None    Shift=    0.000
 RMSDP=1.06D-04 MaxDP=1.78D-03 DE=-4.98D-02 OVMax= 2.32D-03

 Cycle   4  Pass 0  IDiag  1:
 E= -41.0244822289464     Delta-E=       -0.000012935920 Rises=F Damp=F
 DIIS: error= 4.77D-05 at cycle   4 NSaved=   4.
 NSaved= 4 IEnMin= 4 EnMin= -41.0244822289464     IErMin= 4 ErrMin= 4.77D-05
 ErrMax= 4.77D-05  0.00D+00 EMaxC= 1.00D-01 BMatC= 9.88D-08 BMatP= 4.42D-05
 IDIUse=1 WtCom= 1.00D+00 WtEn= 0.00D+00
 Coeff-Com: -0.251D-03 0.490D-03-0.473D-01 0.105D+01
 Coeff:     -0.251D-03 0.490D-03-0.473D-01 0.105D+01
 Gap=     0.438 Goal=   None    Shift=    0.000
 Gap=     0.335 Goal=   None    Shift=    0.000
 RMSDP=1.05D-05 MaxDP=1.89D-04 DE=-1.29D-05 OVMax= 3.08D-04

 Cycle   5  Pass 0  IDiag  1:
 E= -41.0244822990931     Delta-E=       -0.000000070147 Rises=F Damp=F
 DIIS: error= 9.13D-06 at cycle   5 NSaved=   5.
 NSaved= 5 IEnMin= 5 EnMin= -41.0244822990931     IErMin= 5 ErrMin= 9.13D-06
 ErrMax= 9.13D-06  0.00D+00 EMaxC= 1.00D-01 BMatC= 7.88D-09 BMatP= 9.88D-08
 IDIUse=1 WtCom= 1.00D+00 WtEn= 0.00D+00
 Coeff-Com: -0.134D-03 0.328D-03-0.172D-01 0.133D+00 0.884D+00
 Coeff:     -0.134D-03 0.328D-03-0.172D-01 0.133D+00 0.884D+00
 Gap=     0.438 Goal=   None    Shift=    0.000
 Gap=     0.336 Goal=   None    Shift=    0.000
 RMSDP=1.61D-06 MaxDP=2.31D-05 DE=-7.01D-08 OVMax= 5.54D-05

 Initial convergence to 1.0D-05 achieved.  Increase integral accuracy.
 Cycle   6  Pass 1  IDiag  1:
 E= -41.0244945889751     Delta-E=       -0.000012289882 Rises=F Damp=F
 DIIS: error= 2.69D-06 at cycle   1 NSaved=   1.
 NSaved= 1 IEnMin= 1 EnMin= -41.0244945889751     IErMin= 1 ErrMin= 2.69D-06
 ErrMax= 2.69D-06  0.00D+00 EMaxC= 1.00D-01 BMatC= 1.64D-09 BMatP= 1.64D-09
 IDIUse=1 WtCom= 1.00D+00 WtEn= 0.00D+00
 Coeff-Com:  0.100D+01
 Coeff:      0.100D+01
 Gap=     0.438 Goal=   None    Shift=    0.000
 Gap=     0.336 Goal=   None    Shift=    0.000
 RMSDP=1.61D-06 MaxDP=2.31D-05 DE=-1.23D-05 OVMax= 1.59D-05

 Cycle   7  Pass 1  IDiag  1:
 E= -41.0244945895128     Delta-E=       -0.000000000538 Rises=F Damp=F
 DIIS: error= 1.25D-06 at cycle   2 NSaved=   2.
 NSaved= 2 IEnMin= 2 EnMin= -41.0244945895128     IErMin= 2 ErrMin= 1.25D-06
 ErrMax= 1.25D-06  0.00D+00 EMaxC= 1.00D-01 BMatC= 1.31D-10 BMatP= 1.64D-09
 IDIUse=1 WtCom= 1.00D+00 WtEn= 0.00D+00
 Coeff-Com:  0.530D-01 0.947D+00
 Coeff:      0.530D-01 0.947D+00
 Gap=     0.438 Goal=   None    Shift=    0.000
 Gap=     0.336 Goal=   None    Shift=    0.000
 RMSDP=2.06D-07 MaxDP=2.90D-06 DE=-5.38D-10 OVMax= 6.11D-06

 Cycle   8  Pass 1  IDiag  1:
 E= -41.0244945895702     Delta-E=       -0.000000000057 Rises=F Damp=F
 DIIS: error= 6.06D-07 at cycle   3 NSaved=   3.
 NSaved= 3 IEnMin= 3 EnMin= -41.0244945895702     IErMin= 3 ErrMin= 6.06D-07
 ErrMax= 6.06D-07  0.00D+00 EMaxC= 1.00D-01 BMatC= 2.37D-11 BMatP= 1.31D-10
 IDIUse=1 WtCom= 1.00D+00 WtEn= 0.00D+00
 Coeff-Com: -0.683D-01 0.135D+00 0.933D+00
 Coeff:     -0.683D-01 0.135D+00 0.933D+00
 Gap=     0.438 Goal=   None    Shift=    0.000
 Gap=     0.336 Goal=   None    Shift=    0.000
 RMSDP=9.59D-08 MaxDP=1.50D-06 DE=-5.74D-11 OVMax= 2.79D-06

 Cycle   9  Pass 1  IDiag  1:
 E= -41.0244945895817     Delta-E=       -0.000000000012 Rises=F Damp=F
 DIIS: error= 2.70D-07 at cycle   4 NSaved=   4.
 NSaved= 4 IEnMin= 4 EnMin= -41.0244945895817     IErMin= 4 ErrMin= 2.70D-07
 ErrMax= 2.70D-07  0.00D+00 EMaxC= 1.00D-01 BMatC= 4.03D-12 BMatP= 2.37D-11
 IDIUse=1 WtCom= 1.00D+00 WtEn= 0.00D+00
 Coeff-Com: -0.209D-01-0.673D-01 0.201D+00 0.887D+00
 Coeff:     -0.209D-01-0.673D-01 0.201D+00 0.887D+00
 Gap=     0.438 Goal=   None    Shift=    0.000
 Gap=     0.336 Goal=   None    Shift=    0.000
 RMSDP=4.16D-08 MaxDP=6.83D-07 DE=-1.16D-11 OVMax= 1.05D-06

 Cycle  10  Pass 1  IDiag  1:
 E= -41.0244945895830     Delta-E=       -0.000000000001 Rises=F Damp=F
 DIIS: error= 1.25D-07 at cycle   5 NSaved=   5.
 NSaved= 5 IEnMin= 5 EnMin= -41.0244945895830     IErMin= 5 ErrMin= 1.25D-07
 ErrMax= 1.25D-07  0.00D+00 EMaxC= 1.00D-01 BMatC= 1.51D-12 BMatP= 4.03D-12
 IDIUse=1 WtCom= 1.00D+00 WtEn= 0.00D+00
 Coeff-Com:  0.545D-02-0.623D-01-0.109D+00 0.456D+00 0.710D+00
 Coeff:      0.545D-02-0.623D-01-0.109D+00 0.456D+00 0.710D+00
 Gap=     0.438 Goal=   None    Shift=    0.000
 Gap=     0.336 Goal=   None    Shift=    0.000
 RMSDP=1.65D-08 MaxDP=2.72D-07 DE=-1.29D-12 OVMax= 3.49D-07

 Cycle  11  Pass 1  IDiag  1:
 E= -41.0244945895835     Delta-E=       -0.000000000001 Rises=F Damp=F
 DIIS: error= 6.91D-09 at cycle   6 NSaved=   6.
 NSaved= 6 IEnMin= 6 EnMin= -41.0244945895835     IErMin= 6 ErrMin= 6.91D-09
 ErrMax= 6.91D-09  0.00D+00 EMaxC= 1.00D-01 BMatC= 5.25D-15 BMatP= 1.51D-12
 IDIUse=1 WtCom= 1.00D+00 WtEn= 0.00D+00
 Coeff-Com: -0.362D-03 0.116D-01 0.106D-01-0.866D-01-0.136D+00 0.120D+01
 Coeff:     -0.362D-03 0.116D-01 0.106D-01-0.866D-01-0.136D+00 0.120D+01
 Gap=     0.438 Goal=   None    Shift=    0.000
 Gap=     0.336 Goal=   None    Shift=    0.000
 RMSDP=2.08D-09 MaxDP=2.27D-08 DE=-5.12D-13 OVMax= 3.56D-08

 SCF Done:  E(UB3LYP) =  -41.0244945896     A.U. after   11 cycles
            NFock= 11  Conv=0.21D-08     -V/T= 2.0108
 <Sx>= 0.0000 <Sy>= 0.0000 <Sz>= 0.5000 <S**2>= 0.7500 S= 0.5000
 <L.S>=  0.00000000000    
 KE= 4.058658330265D+01 PE=-1.237502579439D+02 EE= 2.729837699810D+01
 Annihilation of the first spin contaminant:
 S**2 before annihilation     0.7500,   after     0.7500
 Leave Link  502 at Fri Sep 13 21:36:03 2024, MaxMem=   268435456 cpu:         5.1
 (Enter /g100_work/pMI24_ChiCa/g09d1/g09d01/d01/build-node-6-2-59348/src/main/l601.exe)
 Copying SCF densities to generalized density rwf, IOpCl= 1 IROHF=0.

 **********************************************************************

            Population analysis using the SCF density.

 **********************************************************************

 Alpha  occ. eigenvalues --  -10.16705  -0.68999  -0.38925  -0.38791  -0.38790
 Alpha  occ. eigenvalues --   -0.31693
 Alpha virt. eigenvalues --    0.12078   0.17676   0.17677   0.18434   0.52698
 Alpha virt. eigenvalues --    0.52975   0.52975   0.72037   0.87416   0.87417
 Alpha virt. eigenvalues --    0.90864   0.93858   1.11546   1.36375   1.36376
 Alpha virt. eigenvalues --    1.94738   1.94739   1.96753   2.04808   2.04823
 Alpha virt. eigenvalues --    2.04824   2.05079   2.05082   2.05322   2.62909
 Alpha virt. eigenvalues --    2.62914   2.63441   2.90958   2.90961   3.11553
 Alpha virt. eigenvalues --    3.41898   3.41900   3.42577   4.42808
  Beta  occ. eigenvalues --  -10.16690  -0.68963  -0.38789  -0.38782  -0.38781
  Beta virt. eigenvalues --   -0.05212   0.12281   0.17683   0.17684   0.19042
  Beta virt. eigenvalues --    0.52927   0.52967   0.52967   0.85418   0.87426
  Beta virt. eigenvalues --    0.87427   0.91856   1.00477   1.12742   1.36402
  Beta virt. eigenvalues --    1.36404   2.04807   2.04819   2.04820   2.05041
  Beta virt. eigenvalues --    2.05092   2.05094   2.18761   2.18762   2.20038
  Beta virt. eigenvalues --    2.62906   2.62911   2.63523   2.90968   2.90972
  Beta virt. eigenvalues --    3.11567   3.41910   3.41912   3.42602   4.42842
     Alpha Molecular Orbital Coefficients:
                           1         2         3         4         5
                           O         O         O         O         O
     Eigenvalues --   -10.16705  -0.68999  -0.38925  -0.38791  -0.38790
   1 1   C  1S          0.99285  -0.19945   0.00061   0.00000   0.00000
   2        2S          0.04958   0.38679  -0.00124  -0.00000  -0.00001
   3        2PX        -0.00000  -0.00015  -0.20641   0.17780   0.34724
   4        2PY         0.00000   0.00027   0.35718   0.23526   0.09766
   5        2PZ        -0.00000  -0.00011  -0.14332   0.33014  -0.25660
   6        3S         -0.01472   0.34535  -0.00185   0.00000  -0.00001
   7        3PX         0.00005  -0.00019  -0.09346   0.08040   0.15703
   8        3PY        -0.00008   0.00033   0.16173   0.10639   0.04417
   9        3PZ         0.00003  -0.00013  -0.06490   0.14929  -0.11604
  10        4XX        -0.00911  -0.00954  -0.00386  -0.00205   0.01926
  11        4YY        -0.00912  -0.00946   0.01132  -0.01497  -0.00603
  12        4ZZ        -0.00911  -0.00956  -0.00745   0.01701  -0.01323
  13        4XY         0.00000  -0.00008  -0.01514  -0.00991  -0.00410
  14        4XZ        -0.00000   0.00003   0.00618  -0.00531  -0.01035
  15        4YZ         0.00000  -0.00005  -0.01070  -0.00700  -0.00292
  16 2   H  1S         -0.00022   0.13768  -0.09586   0.21975  -0.17081
  17        2S          0.00255   0.04543  -0.08464   0.19528  -0.15180
  18        3PX        -0.00000   0.00000  -0.00394   0.00341   0.00664
  19        3PY         0.00000  -0.00001   0.00681   0.00449   0.00188
  20        3PZ         0.00018  -0.01312   0.00236  -0.00539   0.00419
  21 3   H  1S         -0.00022   0.13768  -0.09817   0.03829   0.27487
  22        2S          0.00255   0.04543  -0.08668   0.03403   0.24426
  23        3PX         0.00017  -0.01236   0.00098   0.00148  -0.00716
  24        3PY         0.00000  -0.00001   0.00681   0.00450   0.00185
  25        3PZ        -0.00006   0.00438  -0.00447   0.00700  -0.00002
  26 4   H  1S         -0.00022   0.13767  -0.09788  -0.25695  -0.10513
  27        2S          0.00255   0.04543  -0.08642  -0.22834  -0.09342
  28        3PX        -0.00009   0.00619  -0.00639  -0.00306   0.00400
  29        3PY        -0.00014   0.01070   0.00257  -0.00666  -0.00270
  30        3PZ        -0.00006   0.00438  -0.00447   0.00174  -0.00678
  31 5   H  1S         -0.00025   0.13785   0.29114  -0.00109   0.00107
  32        2S          0.00276   0.04447   0.25875  -0.00097   0.00096
  33        3PX        -0.00008   0.00617   0.00322   0.00337   0.00667
  34        3PY         0.00013  -0.01069  -0.00558   0.00455   0.00182
  35        3PZ        -0.00005   0.00436   0.00232   0.00630  -0.00489
  36 6   H  1S          0.00011   0.00152   0.05274  -0.00017   0.00019
  37        2S         -0.00027   0.00354   0.08235  -0.00025   0.00030
  38        3PX        -0.00002   0.00012   0.00076   0.00002   0.00004
  39        3PY         0.00003  -0.00021  -0.00132   0.00003   0.00001
  40        3PZ        -0.00001   0.00008   0.00054   0.00004  -0.00003
                           6         7         8         9        10
                           O         V         V         V         V
     Eigenvalues --    -0.31693   0.12078   0.17676   0.17677   0.18434
   1 1   C  1S          0.00636  -0.16270   0.00000  -0.00000   0.01147
   2        2S         -0.00960   0.20084  -0.00001   0.00001  -0.02176
   3        2PX         0.03923   0.01292  -0.31827  -0.10950   0.17983
   4        2PY        -0.06805  -0.02239  -0.11068  -0.19050  -0.31143
   5        2PZ         0.02771   0.00913   0.17923  -0.31208   0.12701
   6        3S         -0.05397   2.58956  -0.00008  -0.00002  -0.16952
   7        3PX         0.02585   0.04580  -1.11988  -0.38530   0.63013
   8        3PY        -0.04478  -0.07932  -0.38943  -0.67032  -1.09130
   9        3PZ         0.01829   0.03240   0.63064  -1.09811   0.44496
  10        4XX         0.00109  -0.01666   0.01663  -0.00414  -0.00323
  11        4YY        -0.00137  -0.01644  -0.00716  -0.01234   0.01187
  12        4ZZ         0.00170  -0.01671  -0.00947   0.01648  -0.00699
  13        4XY         0.00246  -0.00022  -0.00480  -0.00821  -0.01508
  14        4XZ        -0.00100   0.00009  -0.00970  -0.00332   0.00615
  15        4YZ         0.00174  -0.00015  -0.00335  -0.00583  -0.01066
  16 2   H  1S          0.01428  -0.01970  -0.05926   0.10314  -0.04352
  17        2S          0.01876  -1.03099  -0.87258   1.51931  -0.54702
  18        3PX         0.00074   0.00025  -0.00963  -0.00331   0.00574
  19        3PY        -0.00129  -0.00043  -0.00335  -0.00577  -0.00995
  20        3PZ        -0.00018  -0.00524  -0.00171   0.00298  -0.00091
  21 3   H  1S          0.01431  -0.01969   0.11894  -0.00028  -0.04356
  22        2S          0.01880  -1.03096   1.75180  -0.00410  -0.54789
  23        3PX         0.00007  -0.00486   0.00387  -0.00334   0.00105
  24        3PY        -0.00129  -0.00043  -0.00336  -0.00576  -0.00995
  25        3PZ         0.00076   0.00198   0.00065  -0.00943   0.00572
  26 4   H  1S          0.01435  -0.01970  -0.05974  -0.10287  -0.04351
  27        2S          0.01884  -1.03095  -0.87968  -1.51524  -0.54704
  28        3PX         0.00108   0.00280  -0.00624   0.00253   0.00809
  29        3PY        -0.00071   0.00399   0.00252   0.00435  -0.00589
  30        3PZ         0.00076   0.00198   0.00782  -0.00531   0.00571
  31 5   H  1S         -0.04694  -0.01464   0.00005  -0.00001   0.13892
  32        2S          0.01107  -0.84997   0.00060   0.00007   1.91398
  33        3PX        -0.00146   0.00267  -0.00962  -0.00331  -0.00265
  34        3PY         0.00253  -0.00462  -0.00334  -0.00575   0.00459
  35        3PZ        -0.00103   0.00188   0.00541  -0.00942  -0.00187
  36 6   H  1S          0.42820   0.06000  -0.00004   0.00006  -0.12054
  37        2S          0.65235   0.04135  -0.00002  -0.00001  -0.06926
  38        3PX         0.00004  -0.00400  -0.00025  -0.00009   0.00893
  39        3PY        -0.00007   0.00695  -0.00009  -0.00015  -0.01552
  40        3PZ         0.00003  -0.00281   0.00015  -0.00025   0.00629
                          11        12        13        14        15
                           V         V         V         V         V
     Eigenvalues --     0.52698   0.52975   0.52975   0.72037   0.87416
   1 1   C  1S         -0.00134   0.00000  -0.00000   0.01275   0.00001
   2        2S          0.00602   0.00000   0.00002  -0.21185  -0.00006
   3        2PX         0.34311  -0.61434  -0.23784   0.18326   0.62594
   4        2PY        -0.59727  -0.20183  -0.37889  -0.31783   0.19997
   5        2PZ         0.24223   0.37261  -0.59738   0.12944  -0.39536
   6        3S          0.01741  -0.00002   0.00002   0.21576   0.00010
   7        3PX        -0.68267   1.19423   0.46233  -0.18748  -1.07045
   8        3PY         1.18820   0.39227   0.73665   0.32556  -0.34198
   9        3PZ        -0.48190  -0.72427   1.16127  -0.13220   0.67612
  10        4XX         0.01297  -0.06314   0.01332  -0.01952  -0.20580
  11        4YY        -0.03824   0.02523   0.04746   0.02888   0.07871
  12        4ZZ         0.02571   0.03792  -0.06077  -0.03170   0.12709
  13        4XY         0.05137   0.01678   0.03152  -0.04827   0.05258
  14        4XZ        -0.02086   0.03612   0.01399   0.01973   0.11620
  15        4YZ         0.03631   0.01187   0.02228  -0.03413   0.03706
  16 2   H  1S          0.16486   0.24683  -0.39567  -0.05101   0.43793
  17        2S          0.08119   0.12378  -0.19857   0.07991  -0.93069
  18        3PX        -0.00959   0.01664   0.00644   0.00799   0.04147
  19        3PY         0.01669   0.00547   0.01027  -0.01380   0.01323
  20        3PZ        -0.01412  -0.02159   0.03461  -0.00690   0.05514
  21 3   H  1S          0.16515  -0.46595  -0.01655  -0.05072  -0.79955
  22        2S          0.08145  -0.23374  -0.00831   0.07986   1.69932
  23        3PX        -0.01653   0.03710   0.00717  -0.00384  -0.09853
  24        3PY         0.01669   0.00547   0.01027  -0.01380   0.01328
  25        3PZ        -0.00431  -0.01733   0.01593   0.00985   0.02331
  26 4   H  1S          0.16657   0.21877   0.41117  -0.05043   0.36179
  27        2S          0.08213   0.10972   0.20635   0.07986  -0.76888
  28        3PX        -0.00608   0.02145   0.01547   0.01388   0.00978
  29        3PY         0.02276   0.01378   0.02589  -0.00358  -0.04160
  30        3PZ        -0.00429  -0.00670   0.02257   0.00984  -0.04859
  31 5   H  1S         -0.49746   0.00037   0.00108   0.26477  -0.00002
  32        2S         -0.28077   0.00026   0.00043  -0.29084   0.00012
  33        3PX        -0.02012   0.01660   0.00645  -0.02289   0.04150
  34        3PY         0.03494   0.00544   0.01020   0.03965   0.01325
  35        3PZ        -0.01421  -0.01006   0.01615  -0.01619  -0.02621
  36 6   H  1S         -0.15542   0.00012  -0.00021   1.14148   0.00005
  37        2S          0.12595  -0.00010   0.00015  -1.04072  -0.00006
  38        3PX         0.00096   0.00058   0.00023  -0.00222  -0.00056
  39        3PY        -0.00166   0.00019   0.00035   0.00386  -0.00018
  40        3PZ         0.00068  -0.00035   0.00057  -0.00156   0.00035
                          16        17        18        19        20
                           V         V         V         V         V
     Eigenvalues --     0.87417   0.90864   0.93858   1.11546   1.36375
   1 1   C  1S         -0.00001   0.05965  -0.08079  -0.09995   0.00001
   2        2S          0.00001  -0.70635   0.39873  -2.05354   0.00006
   3        2PX        -0.25614  -0.25082  -0.19674   0.03232   0.00001
   4        2PY        -0.39505   0.43425   0.34074  -0.05595   0.00005
   5        2PZ        -0.60534  -0.17739  -0.13918   0.02289   0.00013
   6        3S          0.00003   1.18228  -0.46668   5.50616  -0.00017
   7        3PX         0.43804   0.47118   0.39731  -0.08942  -0.00003
   8        3PY         0.67560  -0.81579  -0.68805   0.15497  -0.00003
   9        3PZ         1.03523   0.33324   0.28109  -0.06330  -0.00016
  10        4XX        -0.03913   0.04204  -0.01567  -0.10433   0.24010
  11        4YY        -0.15544  -0.07968  -0.11568  -0.08467  -0.24010
  12        4ZZ         0.19455   0.07243   0.00929  -0.10922   0.00002
  13        4XY        -0.10376   0.12148   0.09989  -0.01958   0.26839
  14        4XZ        -0.04750  -0.04958  -0.04073   0.00798   0.39191
  15        4YZ        -0.07343   0.08589   0.07058  -0.01390  -0.38025
  16 2   H  1S          0.67035   0.58468  -0.32715  -0.31775  -0.00011
  17        2S         -1.42479  -0.90763  -0.03779  -0.96882   0.00026
  18        3PX        -0.01695  -0.01703  -0.01354   0.00197   0.17651
  19        3PY        -0.02620   0.02950   0.02347  -0.00343  -0.17126
  20        3PZ         0.08440   0.07874  -0.03900   0.01341  -0.00002
  21 3   H  1S          0.04381   0.58465  -0.32718  -0.31774   0.00006
  22        2S         -0.09320  -0.90746  -0.03755  -0.96892  -0.00001
  23        3PX        -0.00929   0.06855  -0.04129   0.01330   0.05887
  24        3PY        -0.02617   0.02950   0.02348  -0.00340   0.17107
  25        3PZ        -0.04281  -0.04231   0.00026  -0.00262   0.16639
  26 4   H  1S         -0.71461   0.58434  -0.32724  -0.31769   0.00013
  27        2S          1.51865  -0.90672  -0.03720  -0.96899  -0.00012
  28        3PX         0.04562  -0.05983   0.00035  -0.00371  -0.21646
  29        3PY         0.08217  -0.04454   0.04751  -0.01323   0.10199
  30        3PZ         0.00416  -0.04230   0.00026  -0.00261   0.05650
  31 5   H  1S          0.00024  -0.25244  -1.01503  -0.18495   0.00006
  32        2S         -0.00058   1.00244   1.61519  -1.36684  -0.00005
  33        3PX        -0.01701   0.01023   0.05566  -0.01174  -0.01891
  34        3PY        -0.02615  -0.01778  -0.09648   0.02040  -0.10184
  35        3PZ        -0.04015   0.00723   0.03932  -0.00831  -0.22296
  36 6   H  1S          0.00007   0.28466   0.39617  -0.20562  -0.00008
  37        2S         -0.00005  -0.33462  -0.48420   0.28378   0.00009
  38        3PX         0.00023   0.01417   0.02552  -0.02659  -0.00000
  39        3PY         0.00036  -0.02464  -0.04435   0.04623   0.00000
  40        3PZ         0.00054   0.00998   0.01797  -0.01872  -0.00001
                          21        22        23        24        25
                           V         V         V         V         V
     Eigenvalues --     1.36376   1.94738   1.94739   1.96753   2.04808
   1 1   C  1S         -0.00001   0.00000   0.00000   0.00249   0.00000
   2        2S         -0.00016   0.00000   0.00001   0.20507   0.00001
   3        2PX         0.00013   0.00077  -0.00045  -0.04544   0.00013
   4        2PY         0.00005   0.00058   0.00011   0.07872   0.00054
   5        2PZ        -0.00004   0.00032   0.00090  -0.03213   0.00121
   6        3S          0.00046  -0.00000  -0.00002  -0.48062  -0.00001
   7        3PX        -0.00015   0.00058  -0.00035   0.12306  -0.00069
   8        3PY        -0.00005   0.00045   0.00009  -0.21331  -0.00282
   9        3PZ         0.00004   0.00024   0.00069   0.08697  -0.00632
  10        4XX         0.23281   0.00163  -0.00323   0.00796   0.00315
  11        4YY        -0.23284  -0.00295  -0.00055  -0.07203   0.00430
  12        4ZZ         0.00000   0.00132   0.00377   0.02784  -0.00745
  13        4XY        -0.27742  -0.00199  -0.00037   0.08002   0.00272
  14        4XZ         0.37993  -0.00184   0.00110  -0.03260   0.00048
  15        4YZ         0.39179  -0.00140  -0.00029   0.05657   0.00192
  16 2   H  1S         -0.00001  -0.00138  -0.00393  -0.00288   0.00670
  17        2S         -0.00014   0.00091   0.00258   0.03241  -0.00073
  18        3PX         0.17111  -0.00165   0.00103  -0.00671   0.49327
  19        3PY         0.17646  -0.00129  -0.00033   0.01171   0.31414
  20        3PZ         0.00000  -0.00060  -0.00171  -0.02040   0.00390
  21 3   H  1S         -0.00019  -0.00271   0.00318  -0.00296  -0.00154
  22        2S          0.00014   0.00178  -0.00208   0.03245   0.00017
  23        3PX         0.05704  -0.00150   0.00079  -0.02149  -0.16436
  24        3PY        -0.17664  -0.00132  -0.00017   0.01170  -0.28990
  25        3PZ         0.16134  -0.00071  -0.00193   0.00052  -0.46198
  26 4   H  1S          0.00006   0.00411   0.00077  -0.00307  -0.00502
  27        2S         -0.00023  -0.00270  -0.00050   0.03251   0.00055
  28        3PX        -0.01222  -0.00162   0.00099   0.00071  -0.32538
  29        3PY         0.09890  -0.00099  -0.00019   0.02447  -0.00901
  30        3PZ        -0.22476  -0.00065  -0.00195   0.00053   0.49097
  31 5   H  1S         -0.00003  -0.00002  -0.00002  -0.00403  -0.00015
  32        2S         -0.00012   0.00000   0.00001   0.38850   0.00003
  33        3PX        -0.21600  -0.00151   0.00089  -0.03838  -0.00217
  34        3PY        -0.09876  -0.00114  -0.00022   0.06653  -0.00974
  35        3PZ         0.06345  -0.00062  -0.00177  -0.02712  -0.02057
  36 6   H  1S         -0.00003   0.00000   0.00000   0.04341  -0.00000
  37        2S          0.00004  -0.00000  -0.00000  -0.06976  -0.00000
  38        3PX        -0.00001   0.76234  -0.44433  -0.46327  -0.00001
  39        3PY         0.00000   0.56580   0.10475   0.80527   0.00006
  40        3PZ        -0.00000   0.31411   0.88969  -0.32617   0.00007
                          26        27        28        29        30
                           V         V         V         V         V
     Eigenvalues --     2.04823   2.04824   2.05079   2.05082   2.05322
   1 1   C  1S         -0.00000  -0.00000   0.00000   0.00000  -0.00045
   2        2S         -0.00007  -0.00017   0.00011   0.00008  -0.03979
   3        2PX        -0.00469   0.00243  -0.07903   0.05774  -0.04460
   4        2PY        -0.00348  -0.00055  -0.06396  -0.00542   0.07703
   5        2PZ        -0.00273  -0.00627  -0.04449  -0.09461  -0.03163
   6        3S          0.00015   0.00040  -0.00025  -0.00018   0.09318
   7        3PX         0.02470  -0.01267   0.41080  -0.30019   0.25368
   8        3PY         0.01822   0.00272   0.33265   0.02824  -0.43822
   9        3PZ         0.01437   0.03307   0.23123   0.49179   0.17984
  10        4XX         0.01195  -0.02986   0.20605  -0.54058   0.11447
  11        4YY        -0.02883  -0.00896  -0.47871  -0.03958  -0.33370
  12        4ZZ         0.01689   0.03885   0.27264   0.58014   0.22736
  13        4XY        -0.01739  -0.00258  -0.32078  -0.02717   0.44625
  14        4XZ        -0.01686   0.00850  -0.27985   0.20462  -0.18259
  15        4YZ        -0.01233  -0.00164  -0.22681  -0.01943   0.31547
  16 2   H  1S         -0.01522  -0.03503  -0.24523  -0.52179  -0.20851
  17        2S          0.00162   0.00373   0.02745   0.05849   0.01754
  18        3PX        -0.05546   0.37270  -0.17205   0.11010  -0.11898
  19        3PY        -0.28378  -0.45352  -0.11847   0.01830   0.20597
  20        3PZ        -0.00886  -0.02039  -0.14350  -0.30534  -0.11832
  21 3   H  1S         -0.01956   0.02420  -0.32905   0.47434  -0.20771
  22        2S          0.00208  -0.00261   0.03688  -0.05316   0.01738
  23        3PX         0.00108  -0.11304  -0.23291   0.21597  -0.14972
  24        3PY        -0.43280   0.33654  -0.12256  -0.03487   0.20206
  25        3PZ         0.03720  -0.36188  -0.08105  -0.22176  -0.06991
  26 4   H  1S          0.03306   0.00761   0.57555   0.04825  -0.20647
  27        2S         -0.00354  -0.00084  -0.06445  -0.00536   0.01723
  28        3PX        -0.44607   0.04398  -0.20246   0.11866  -0.09995
  29        3PY         0.33821   0.05523  -0.24925  -0.02303   0.22973
  30        3PZ        -0.25449  -0.21069  -0.11335  -0.19608  -0.06969
  31 5   H  1S          0.00173   0.00324  -0.00129  -0.00081   0.62547
  32        2S         -0.00030  -0.00068   0.00038   0.00021  -0.14810
  33        3PX         0.45219  -0.27903  -0.19887   0.14463  -0.16435
  34        3PY         0.34290   0.05669  -0.16285  -0.01587   0.28315
  35        3PZ         0.19808   0.52833  -0.11587  -0.24222  -0.12000
  36 6   H  1S          0.00003  -0.00003   0.00008   0.00005  -0.01744
  37        2S         -0.00001   0.00009  -0.00013  -0.00008   0.03281
  38        3PX        -0.00027   0.00062  -0.00496   0.00332   0.07148
  39        3PY        -0.00065  -0.00070  -0.00344  -0.00008  -0.12420
  40        3PZ        -0.00011  -0.00032  -0.00282  -0.00576   0.05035
                          31        32        33        34        35
                           V         V         V         V         V
     Eigenvalues --     2.62909   2.62914   2.63441   2.90958   2.90961
   1 1   C  1S         -0.00000  -0.00000  -0.00087   0.00001  -0.00001
   2        2S         -0.00002   0.00008   0.03760  -0.00006   0.00009
   3        2PX        -0.07980   0.11974   0.07020   0.00026  -0.00000
   4        2PY         0.01173   0.09289  -0.12271   0.00013   0.00015
   5        2PZ         0.14153   0.05980   0.04977  -0.00011   0.00028
   6        3S          0.00003  -0.00014  -0.06299  -0.00007   0.00003
   7        3PX        -0.32397   0.48617   0.32286   0.00008   0.00001
   8        3PY         0.04771   0.37686  -0.56369   0.00003   0.00002
   9        3PZ         0.57453   0.24287   0.22883  -0.00003   0.00009
  10        4XX         0.37014  -0.15918  -0.08492   0.31204   0.33282
  11        4YY         0.04165   0.33316   0.23503  -0.31205  -0.33285
  12        4ZZ        -0.41179  -0.17405  -0.16541  -0.00002   0.00004
  13        4XY         0.02793   0.22077  -0.32200  -0.38457   0.35967
  14        4XZ        -0.13415   0.20129   0.13035   0.50917   0.54332
  15        4YZ         0.01983   0.15610  -0.22762   0.54313  -0.50965
  16 2   H  1S          0.04798   0.02028   0.02353   0.00004  -0.00007
  17        2S         -0.46405  -0.19612  -0.17674   0.00012  -0.00025
  18        3PX         0.31846  -0.47790  -0.30450  -0.34609  -0.36917
  19        3PY        -0.04689  -0.37054   0.53181  -0.36911   0.34624
  20        3PZ         0.15600   0.06591   0.06155  -0.00022   0.00044
  21 3   H  1S         -0.04151   0.03152   0.02346  -0.00005   0.00002
  22        2S          0.40144  -0.30477  -0.17610  -0.00020   0.00005
  23        3PX        -0.26938  -0.03160  -0.04392  -0.11508  -0.12321
  24        3PY        -0.04690  -0.37050   0.53184   0.36938  -0.34594
  25        3PZ        -0.35686  -0.39658  -0.30804  -0.32631  -0.34810
  26 4   H  1S         -0.00649  -0.05158   0.02374   0.00006   0.00004
  27        2S          0.06278   0.49915  -0.17885   0.00018   0.00014
  28        3PX         0.36450  -0.11212  -0.43696   0.01771   0.44597
  29        3PY         0.03272   0.26230   0.30273  -0.19972  -0.21315
  30        3PZ        -0.53230   0.01989  -0.30950   0.46463  -0.10848
  31 5   H  1S          0.00002  -0.00026  -0.07676   0.00000  -0.00004
  32        2S         -0.00019   0.00194   0.60000   0.00002  -0.00000
  33        3PX         0.31833  -0.47660   0.08126   0.44405   0.04639
  34        3PY        -0.04666  -0.37268  -0.13675   0.19975   0.21319
  35        3PZ        -0.56485  -0.23780   0.05687  -0.13836   0.45676
  36 6   H  1S         -0.00002   0.00009   0.02966   0.00001   0.00004
  37        2S          0.00002  -0.00019  -0.06154  -0.00002  -0.00006
  38        3PX         0.00051  -0.00085  -0.02478  -0.00002  -0.00000
  39        3PY        -0.00008  -0.00044   0.04308  -0.00001  -0.00001
  40        3PZ        -0.00090  -0.00044  -0.01744   0.00001  -0.00002
                          36        37        38        39        40
                           V         V         V         V         V
     Eigenvalues --     3.11553   3.41898   3.41900   3.42577   4.42808
   1 1   C  1S         -0.13954   0.00000   0.00000  -0.00055  -0.47786
   2        2S          0.92377  -0.00006   0.00001  -0.02033   2.81957
   3        2PX         0.00650   0.35179   0.72515  -0.42878  -0.00167
   4        2PY        -0.01118   0.48617   0.20653   0.74285   0.00288
   5        2PZ         0.00461   0.68898  -0.51600  -0.30522  -0.00118
   6        3S          1.24041   0.00006  -0.00009   0.06785   2.14985
   7        3PX        -0.00810   0.20711   0.42700  -0.26922  -0.01263
   8        3PY         0.01411   0.28630   0.12154   0.46637   0.02191
   9        3PZ        -0.00573   0.40568  -0.30381  -0.19155  -0.00894
  10        4XX        -0.06844  -0.12421   0.99501  -0.18550  -2.04811
  11        4YY        -0.08096  -0.76522  -0.32872   0.60021  -2.04302
  12        4ZZ        -0.06531   0.88949  -0.66631  -0.38580  -2.04939
  13        4XY         0.01243  -0.51310  -0.21777  -0.78447  -0.00510
  14        4XZ        -0.00511  -0.26268  -0.54104   0.32003   0.00207
  15        4YZ         0.00900  -0.36266  -0.15434  -0.55455  -0.00364
  16 2   H  1S         -0.26522  -0.61678   0.46199   0.26628   0.25294
  17        2S         -0.33642  -0.41590   0.31151   0.18204  -0.37635
  18        3PX         0.00271   0.00638   0.01292  -0.00488   0.00113
  19        3PY        -0.00480   0.00860   0.00382   0.00851  -0.00193
  20        3PZ         0.65582   0.91759  -0.68730  -0.39855  -0.31123
  21 3   H  1S         -0.26521  -0.09122  -0.76609   0.26373   0.25293
  22        2S         -0.33642  -0.06149  -0.51656   0.18035  -0.37636
  23        3PX         0.61917   0.13250   1.07304  -0.37382  -0.29304
  24        3PY        -0.00466   0.00869   0.00356   0.00854  -0.00195
  25        3PZ        -0.21614  -0.03231  -0.38412   0.12699   0.10485
  26 4   H  1S         -0.26519   0.70954   0.30311   0.26355   0.25294
  27        2S         -0.33639   0.47845   0.20436   0.18019  -0.37635
  28        3PX        -0.30576   0.49747   0.22280   0.17953   0.14832
  29        3PY        -0.53838   0.85878   0.36686   0.32771   0.25273
  30        3PZ        -0.21611   0.35966   0.13910   0.12690   0.10487
  31 5   H  1S         -0.24073  -0.00154   0.00102  -0.81220   0.25494
  32        2S         -0.37330  -0.00112   0.00079  -0.62123  -0.42854
  33        3PX        -0.30078   0.00507   0.01334  -0.58056   0.14026
  34        3PY         0.52131   0.01033   0.00237   1.00616  -0.24310
  35        3PZ        -0.21271   0.01121  -0.00844  -0.41042   0.09916
  36 6   H  1S         -0.01658  -0.00001   0.00003  -0.02541  -0.02398
  37        2S          0.03773   0.00005  -0.00007   0.05874   0.04935
  38        3PX         0.01195  -0.00015  -0.00038   0.01600   0.00791
  39        3PY        -0.02078  -0.00028  -0.00007  -0.02782  -0.01376
  40        3PZ         0.00842  -0.00032   0.00024   0.01127   0.00557
     Beta Molecular Orbital Coefficients:
                           1         2         3         4         5
                           O         O         O         O         O
     Eigenvalues --   -10.16690  -0.68963  -0.38789  -0.38782  -0.38781
   1 1   C  1S          0.99285  -0.19933   0.00032  -0.00002   0.00002
   2        2S          0.04955   0.38665  -0.00005  -0.00000  -0.00001
   3        2PX         0.00000   0.00018  -0.21793   0.19882   0.32936
   4        2PY        -0.00000  -0.00030   0.36793   0.21517   0.11510
   5        2PZ         0.00000   0.00013  -0.10782   0.33161  -0.27215
   6        3S         -0.01473   0.34362  -0.00535   0.00034  -0.00036
   7        3PX         0.00005   0.00020  -0.09748   0.08989   0.14910
   8        3PY        -0.00009  -0.00034   0.16452   0.09748   0.05195
   9        3PZ         0.00003   0.00014  -0.04799   0.14998  -0.12308
  10        4XX        -0.00910  -0.00948  -0.00507  -0.00130   0.01908
  11        4YY        -0.00911  -0.00955   0.01079  -0.01584  -0.00500
  12        4ZZ        -0.00910  -0.00946  -0.00544   0.01712  -0.01405
  13        4XY         0.00001   0.00008  -0.01543  -0.00909  -0.00487
  14        4XZ        -0.00000  -0.00003   0.00646  -0.00590  -0.00982
  15        4YZ         0.00001   0.00005  -0.01091  -0.00644  -0.00340
  16 2   H  1S         -0.00022   0.13784  -0.07197   0.22086  -0.18128
  17        2S          0.00255   0.04562  -0.06384   0.19629  -0.16111
  18        3PX        -0.00000  -0.00000  -0.00419   0.00380   0.00631
  19        3PY         0.00000   0.00001   0.00708   0.00412   0.00220
  20        3PZ         0.00018  -0.01312   0.00178  -0.00541   0.00444
  21 3   H  1S         -0.00022   0.13784  -0.11304   0.05120   0.26725
  22        2S          0.00255   0.04562  -0.10034   0.04550   0.23753
  23        3PX         0.00017  -0.01237   0.00151   0.00124  -0.00711
  24        3PY         0.00000   0.00001   0.00708   0.00412   0.00221
  25        3PZ        -0.00006   0.00437  -0.00410   0.00726  -0.00047
  26 4   H  1S         -0.00022   0.13784  -0.10773  -0.25310  -0.10561
  27        2S          0.00255   0.04562  -0.09563  -0.22495  -0.09385
  28        3PX        -0.00009   0.00618  -0.00691  -0.00254   0.00365
  29        3PY        -0.00014   0.01071   0.00237  -0.00689  -0.00239
  30        3PZ        -0.00006   0.00437  -0.00400   0.00186  -0.00709
  31 5   H  1S         -0.00024   0.13757   0.29283  -0.01896   0.01964
  32        2S          0.00276   0.04643   0.26720  -0.01731   0.01793
  33        3PX        -0.00007   0.00617   0.00317   0.00333   0.00679
  34        3PY         0.00013  -0.01070  -0.00568   0.00494   0.00135
  35        3PZ        -0.00005   0.00437   0.00313   0.00600  -0.00485
  36 6   H  1S          0.00011   0.00022   0.00490  -0.00032   0.00033
  37        2S         -0.00027   0.00225   0.01727  -0.00110   0.00116
  38        3PX        -0.00002   0.00007   0.00047  -0.00001   0.00006
  39        3PY         0.00003  -0.00013  -0.00083   0.00007  -0.00005
  40        3PZ        -0.00001   0.00005   0.00034   0.00001  -0.00000
                           6         7         8         9        10
                           V         V         V         V         V
     Eigenvalues --    -0.05212   0.12281   0.17683   0.17684   0.19042
   1 1   C  1S          0.02172  -0.16105   0.00000  -0.00000   0.01895
   2        2S         -0.01665   0.19945  -0.00001   0.00001  -0.03331
   3        2PX         0.03612   0.02391  -0.31927  -0.10587   0.17680
   4        2PY        -0.06264  -0.04144  -0.11266  -0.18919  -0.30617
   5        2PZ         0.02551   0.01691   0.17563  -0.31381   0.12497
   6        3S         -0.32402   2.56536  -0.00008  -0.00002  -0.29013
   7        3PX         0.07910   0.07956  -1.12470  -0.37294   0.62820
   8        3PY        -0.13694  -0.13778  -0.39687  -0.66650  -1.08807
   9        3PZ         0.05600   0.05629   0.61869  -1.10547   0.44393
  10        4XX         0.00365  -0.01647   0.01647  -0.00435  -0.00292
  11        4YY         0.00172  -0.01591  -0.00723  -0.01215   0.01291
  12        4ZZ         0.00413  -0.01661  -0.00924   0.01650  -0.00688
  13        4XY         0.00193  -0.00056  -0.00481  -0.00815  -0.01581
  14        4XZ        -0.00079   0.00023  -0.00973  -0.00326   0.00645
  15        4YZ         0.00136  -0.00040  -0.00347  -0.00572  -0.01118
  16 2   H  1S          0.00642  -0.02089  -0.05809   0.10375  -0.04438
  17        2S          0.04190  -1.05591  -0.85580   1.52905  -0.49651
  18        3PX         0.00040   0.00050  -0.00967  -0.00321   0.00585
  19        3PY        -0.00069  -0.00088  -0.00341  -0.00573  -0.01013
  20        3PZ         0.00049  -0.00526  -0.00167   0.00298  -0.00065
  21 3   H  1S          0.00646  -0.02088   0.11889  -0.00160  -0.04440
  22        2S          0.04200  -1.05584   1.75207  -0.02361  -0.49674
  23        3PX         0.00059  -0.00480   0.00381  -0.00339   0.00134
  24        3PY        -0.00070  -0.00088  -0.00341  -0.00573  -0.01013
  25        3PZ         0.00021   0.00223   0.00055  -0.00944   0.00573
  26 4   H  1S          0.00649  -0.02087  -0.06084  -0.10217  -0.04436
  27        2S          0.04210  -1.05580  -0.89649  -1.50583  -0.49597
  28        3PX         0.00031   0.00316  -0.00622   0.00259   0.00810
  29        3PY        -0.00086   0.00371   0.00256   0.00430  -0.00623
  30        3PZ         0.00021   0.00223   0.00776  -0.00540   0.00573
  31 5   H  1S         -0.01854  -0.01027   0.00003   0.00001   0.14526
  32        2S          0.33255  -0.74131   0.00034   0.00042   1.95177
  33        3PX        -0.00076   0.00240  -0.00964  -0.00320  -0.00257
  34        3PY         0.00133  -0.00415  -0.00340  -0.00571   0.00446
  35        3PZ        -0.00053   0.00170   0.00530  -0.00948  -0.00182
  36 6   H  1S          0.23895   0.05278  -0.00002   0.00003  -0.10101
  37        2S          0.78130   0.13042  -0.00004   0.00001  -0.22638
  38        3PX         0.00093  -0.00238  -0.00020  -0.00007   0.00624
  39        3PY        -0.00162   0.00413  -0.00007  -0.00012  -0.01085
  40        3PZ         0.00065  -0.00168   0.00011  -0.00020   0.00440
                          11        12        13        14        15
                           V         V         V         V         V
     Eigenvalues --     0.52927   0.52967   0.52967   0.85418   0.87426
   1 1   C  1S          0.00005   0.00000   0.00000  -0.00741   0.00001
   2        2S         -0.00270   0.00002  -0.00000   0.13746  -0.00006
   3        2PX         0.34936  -0.61778  -0.23214  -0.31847   0.62558
   4        2PY        -0.61120  -0.20190  -0.37956   0.55171   0.19908
   5        2PZ         0.25174   0.36713  -0.59937  -0.22551  -0.39651
   6        3S          0.00714  -0.00005   0.00004  -0.20792   0.00009
   7        3PX        -0.67735   1.20049   0.45113   0.50627  -1.06941
   8        3PY         1.18499   0.39231   0.73765  -0.87712  -0.34033
   9        3PZ        -0.48801  -0.71340   1.16477   0.35849   0.67783
  10        4XX         0.01191  -0.06304   0.01381   0.03593  -0.20576
  11        4YY        -0.03756   0.02573   0.04712  -0.09949   0.07835
  12        4ZZ         0.02499   0.03732  -0.06092   0.06997   0.12741
  13        4XY         0.04989   0.01678   0.03153   0.13518   0.05220
  14        4XZ        -0.02015   0.03627   0.01363  -0.05518   0.11618
  15        4YZ         0.03527   0.01186   0.02230   0.09556   0.03706
  16 2   H  1S          0.16571   0.24315  -0.39690   0.19761   0.43921
  17        2S          0.08273   0.12180  -0.19897  -0.42148  -0.93316
  18        3PX        -0.00926   0.01671   0.00628  -0.01996   0.04148
  19        3PY         0.01620   0.00546   0.01027   0.03455   0.01322
  20        3PZ        -0.01457  -0.02128   0.03474   0.02389   0.05530
  21 3   H  1S          0.16151  -0.46676  -0.01256   0.19695  -0.79961
  22        2S          0.08074  -0.23390  -0.00630  -0.42020   1.69895
  23        3PX        -0.01652   0.03725   0.00683   0.01579  -0.09857
  24        3PY         0.01620   0.00546   0.01027   0.03455   0.01318
  25        3PZ        -0.00410  -0.01719   0.01602  -0.02679   0.02326
  26 4   H  1S          0.16461   0.22104   0.41008   0.19664   0.36037
  27        2S          0.08226   0.11074   0.20558  -0.41971  -0.76566
  28        3PX        -0.00556   0.02158   0.01531  -0.03782   0.00990
  29        3PY         0.02261   0.01388   0.02589   0.00365  -0.04144
  30        3PZ        -0.00405  -0.00649   0.02260  -0.02677  -0.04864
  31 5   H  1S         -0.49019   0.00258  -0.00057  -0.73303   0.00016
  32        2S         -0.25367   0.00139  -0.00040   1.45073  -0.00027
  33        3PX        -0.02069   0.01676   0.00626   0.04543   0.04140
  34        3PY         0.03601   0.00535   0.01029  -0.07875   0.01321
  35        3PZ        -0.01475  -0.00988   0.01619   0.03210  -0.02626
  36 6   H  1S         -0.07636   0.00040  -0.00036  -0.65753   0.00014
  37        2S          0.02810  -0.00015   0.00011   0.41106  -0.00009
  38        3PX         0.00099   0.00045   0.00018   0.01299  -0.00042
  39        3PY        -0.00171   0.00016   0.00027  -0.02257  -0.00013
  40        3PZ         0.00070  -0.00027   0.00044   0.00914   0.00026
                          16        17        18        19        20
                           V         V         V         V         V
     Eigenvalues --     0.87427   0.91856   1.00477   1.12742   1.36402
   1 1   C  1S         -0.00001   0.09211  -0.05377  -0.09350   0.00001
   2        2S          0.00001  -0.88736  -0.51802  -1.96372   0.00004
   3        2PX        -0.25726  -0.06793  -0.14900   0.05024  -0.00001
   4        2PY        -0.39567   0.11750   0.25792  -0.08696  -0.00008
   5        2PZ        -0.60454  -0.04808  -0.10548   0.03559  -0.00015
   6        3S          0.00002   1.41778   1.42806   5.28633  -0.00012
   7        3PX         0.43979   0.13304   0.35419  -0.14361  -0.00002
   8        3PY         0.67639  -0.23017  -0.61310   0.24875   0.00007
   9        3PZ         1.03346   0.09415   0.25073  -0.10167   0.00003
  10        4XX        -0.03884   0.03614  -0.03074  -0.09884   0.24117
  11        4YY        -0.15539   0.00181  -0.11569  -0.06729  -0.24106
  12        4ZZ         0.19422   0.04471  -0.00956  -0.10669  -0.00009
  13        4XY        -0.10394   0.03422   0.08484  -0.03146   0.26708
  14        4XZ        -0.04787  -0.01398  -0.03457   0.01281   0.39359
  15        4YZ        -0.07342   0.02422   0.05993  -0.02229  -0.37832
  16 2   H  1S          0.66948   0.63745  -0.12524  -0.30362   0.00024
  17        2S         -1.42253  -0.73095  -0.52476  -0.88524  -0.00014
  18        3PX        -0.01707  -0.00479  -0.01063   0.00311   0.17736
  19        3PY        -0.02623   0.00830   0.01845  -0.00544  -0.17050
  20        3PZ         0.08430   0.08492  -0.00001   0.01295   0.00006
  21 3   H  1S          0.04528   0.63741  -0.12528  -0.30360  -0.00003
  22        2S         -0.09629  -0.73081  -0.52441  -0.88540   0.00008
  23        3PX        -0.00913   0.07845  -0.00356   0.01325   0.05913
  24        3PY        -0.02624   0.00829   0.01847  -0.00541   0.17030
  25        3PZ        -0.04291  -0.03283  -0.00999  -0.00140   0.16719
  26 4   H  1S         -0.71547   0.63722  -0.12533  -0.30355  -0.00014
  27        2S          1.52005  -0.73042  -0.52397  -0.88554   0.00017
  28        3PX         0.04566  -0.04643  -0.01418  -0.00195  -0.21655
  29        3PY         0.08225  -0.06374   0.01234  -0.01420   0.10253
  30        3PZ         0.00426  -0.03283  -0.01000  -0.00137   0.05548
  31 5   H  1S          0.00050   0.40098  -0.70690  -0.09163   0.00006
  32        2S         -0.00113  -0.17743   1.03120  -1.53226  -0.00009
  33        3PX        -0.01708  -0.02674   0.02949  -0.01491  -0.01992
  34        3PY        -0.02611   0.04631  -0.05116   0.02591  -0.10233
  35        3PZ        -0.04006  -0.01891   0.02081  -0.01054  -0.22273
  36 6   H  1S          0.00019   0.22106   1.00951  -0.48490  -0.00013
  37        2S         -0.00010  -0.16307  -0.90760   0.51589   0.00013
  38        3PX         0.00017  -0.00216   0.01428  -0.02196  -0.00000
  39        3PY         0.00027   0.00376  -0.02482   0.03817  -0.00000
  40        3PZ         0.00040  -0.00152   0.01005  -0.01546  -0.00002
                          21        22        23        24        25
                           V         V         V         V         V
     Eigenvalues --     1.36404   2.04807   2.04819   2.04820   2.05041
   1 1   C  1S         -0.00001  -0.00000  -0.00000  -0.00000  -0.00007
   2        2S         -0.00017  -0.00001  -0.00006   0.00009   0.00632
   3        2PX        -0.00015   0.00017   0.00518   0.00238  -0.05307
   4        2PY        -0.00007   0.00053   0.00343   0.00012   0.09425
   5        2PZ         0.00004   0.00128   0.00308  -0.00684  -0.03634
   6        3S          0.00048   0.00001   0.00014  -0.00018  -0.01150
   7        3PX         0.00004  -0.00086  -0.02728  -0.01270   0.26946
   8        3PY         0.00005  -0.00279  -0.01821  -0.00047  -0.47884
   9        3PZ        -0.00002  -0.00670  -0.01616   0.03602   0.18434
  10        4XX         0.23156   0.00324  -0.01319  -0.03189   0.11499
  11        4YY        -0.23162   0.00467   0.03226  -0.01063  -0.33244
  12        4ZZ         0.00003  -0.00791  -0.01906   0.04251   0.21589
  13        4XY        -0.27856   0.00270   0.01760   0.00039   0.45828
  14        4XZ         0.37809   0.00059   0.01862   0.00868  -0.18228
  15        4YZ         0.39349   0.00191   0.01245   0.00031   0.32397
  16 2   H  1S         -0.00011   0.00711   0.01714  -0.03823  -0.19374
  17        2S         -0.00003  -0.00078  -0.00190   0.00424   0.02277
  18        3PX         0.17034   0.49012   0.04619   0.37803  -0.11693
  19        3PY         0.17730   0.32081   0.28852  -0.44434   0.20773
  20        3PZ        -0.00002   0.00414   0.00998  -0.02227  -0.11394
  21 3   H  1S          0.00018  -0.00151   0.02157   0.02552  -0.20237
  22        2S         -0.00026   0.00016  -0.00240  -0.00281   0.02368
  23        3PX         0.05686  -0.16322   0.00387  -0.11448  -0.14803
  24        3PY        -0.17750  -0.28957   0.42951   0.34190   0.20009
  25        3PZ         0.16059  -0.45879  -0.02675  -0.36815  -0.06171
  26 4   H  1S         -0.00021  -0.00522  -0.03521   0.00602  -0.21262
  27        2S          0.00005   0.00057   0.00388  -0.00065   0.02483
  28        3PX        -0.01121  -0.32200   0.44925   0.04834  -0.09322
  29        3PY         0.09851  -0.01250  -0.33846   0.05071   0.23195
  30        3PZ        -0.22506   0.49508   0.25428  -0.20293  -0.06107
  31 5   H  1S         -0.00003  -0.00037  -0.00349   0.00668   0.60744
  32        2S         -0.00013   0.00003   0.00027  -0.00060  -0.06032
  33        3PX        -0.21599  -0.00323  -0.44605  -0.28701  -0.16703
  34        3PY        -0.09832  -0.01330  -0.34392   0.05255   0.29372
  35        3PZ         0.06451  -0.02737  -0.20599   0.52302  -0.12261
  36 6   H  1S         -0.00005  -0.00000  -0.00004  -0.00003  -0.00846
  37        2S          0.00006  -0.00000   0.00000   0.00011   0.01771
  38        3PX        -0.00002   0.00001  -0.00012  -0.00059  -0.03816
  39        3PY        -0.00000  -0.00007  -0.00059   0.00074   0.06617
  40        3PZ         0.00000  -0.00005  -0.00003   0.00012  -0.02693
                          26        27        28        29        30
                           V         V         V         V         V
     Eigenvalues --     2.05092   2.05094   2.18761   2.18762   2.20038
   1 1   C  1S         -0.00000  -0.00000   0.00000   0.00000  -0.00002
   2        2S          0.00009   0.00006  -0.00002   0.00016   0.18204
   3        2PX        -0.08049   0.05653   0.00152  -0.00123  -0.03270
   4        2PY        -0.06235  -0.00500   0.00127   0.00011   0.05662
   5        2PZ        -0.04432  -0.09544   0.00095   0.00182  -0.02315
   6        3S         -0.00014  -0.00012   0.00005  -0.00033  -0.38448
   7        3PX         0.41802  -0.29368  -0.00339   0.00272   0.03756
   8        3PY         0.32410   0.02609  -0.00284  -0.00020  -0.06499
   9        3PZ         0.23018   0.49570  -0.00212  -0.00408   0.02662
  10        4XX         0.21264  -0.53727  -0.00097   0.00292  -0.02220
  11        4YY        -0.48398  -0.04731   0.00255   0.00012   0.00254
  12        4ZZ         0.27133   0.58456  -0.00157  -0.00307  -0.02832
  13        4XY        -0.31240  -0.02506   0.00174   0.00008  -0.02476
  14        4XZ        -0.28467   0.20012   0.00147  -0.00114   0.01007
  15        4YZ        -0.22088  -0.01795   0.00123   0.00002  -0.01750
  16 2   H  1S         -0.24406  -0.52577   0.00111   0.00221   0.03995
  17        2S          0.02729   0.05888   0.00059   0.00115   0.02310
  18        3PX        -0.17489   0.10560   0.00022  -0.00021   0.02822
  19        3PY        -0.11383   0.02117   0.00025   0.00004  -0.04893
  20        3PZ        -0.14286  -0.30778   0.00101   0.00197   0.00716
  21 3   H  1S         -0.33655   0.46904   0.00131  -0.00203   0.03999
  22        2S          0.03768  -0.05251   0.00069  -0.00106   0.02313
  23        3PX        -0.23738   0.21288   0.00119  -0.00166   0.01618
  24        3PY        -0.11679  -0.03543   0.00026  -0.00009  -0.04890
  25        3PZ        -0.08032  -0.22149  -0.00021   0.00089   0.02418
  26 4   H  1S          0.57117   0.05099  -0.00246  -0.00008   0.04003
  27        2S         -0.06389  -0.00567  -0.00128  -0.00004   0.02316
  28        3PX        -0.20316   0.11546   0.00119  -0.00013   0.03419
  29        3PY        -0.24651  -0.02274   0.00170   0.00005  -0.03849
  30        3PZ        -0.11176  -0.19710   0.00082   0.00035   0.02416
  31 5   H  1S          0.00942   0.00572   0.00004  -0.00011  -0.13872
  32        2S         -0.00094  -0.00059  -0.00005   0.00028   0.32639
  33        3PX        -0.20534   0.14279   0.00017  -0.00015  -0.00610
  34        3PY        -0.15933  -0.01420   0.00016   0.00002   0.01060
  35        3PZ        -0.11693  -0.24701   0.00011   0.00021  -0.00429
  36 6   H  1S         -0.00009  -0.00005  -0.00001   0.00004   0.04459
  37        2S          0.00022   0.00013   0.00001  -0.00006  -0.06613
  38        3PX         0.00282  -0.00275   0.69373  -0.54575  -0.46659
  39        3PY         0.00367   0.00083   0.57475   0.02626   0.81204
  40        3PZ         0.00146   0.00379   0.43403   0.83752  -0.32952
                          31        32        33        34        35
                           V         V         V         V         V
     Eigenvalues --     2.62906   2.62911   2.63523   2.90968   2.90972
   1 1   C  1S         -0.00000  -0.00000  -0.00100   0.00001  -0.00001
   2        2S         -0.00002   0.00007   0.04176  -0.00006   0.00009
   3        2PX        -0.07990   0.11979   0.06950   0.00021  -0.00001
   4        2PY         0.01172   0.09304  -0.12136   0.00011   0.00012
   5        2PZ         0.14164   0.05986   0.04926  -0.00009   0.00022
   6        3S          0.00003  -0.00013  -0.06920  -0.00008   0.00002
   7        3PX        -0.32403   0.48588   0.32401   0.00019   0.00002
   8        3PY         0.04760   0.37708  -0.56507   0.00008   0.00007
   9        3PZ         0.57441   0.24287   0.22957  -0.00007   0.00020
  10        4XX         0.37021  -0.15914  -0.08567   0.31261   0.33237
  11        4YY         0.04159   0.33317   0.23482  -0.31262  -0.33241
  12        4ZZ        -0.41180  -0.17409  -0.16621  -0.00003   0.00006
  13        4XY         0.02779   0.22097  -0.32218  -0.38406   0.36030
  14        4XZ        -0.13422   0.20111   0.13056   0.51007   0.54259
  15        4YZ         0.01991   0.15622  -0.22775   0.54239  -0.51056
  16 2   H  1S          0.04800   0.02029   0.02402   0.00005  -0.00010
  17        2S         -0.46403  -0.19616  -0.17654   0.00014  -0.00030
  18        3PX         0.31861  -0.47760  -0.30430  -0.34669  -0.36865
  19        3PY        -0.04690  -0.37082   0.53087  -0.36859   0.34682
  20        3PZ         0.15612   0.06598   0.06177  -0.00021   0.00040
  21 3   H  1S         -0.04154   0.03151   0.02396  -0.00008   0.00002
  22        2S          0.40153  -0.30460  -0.17597  -0.00025   0.00007
  23        3PX        -0.26950  -0.03154  -0.04360  -0.11531  -0.12303
  24        3PY        -0.04670  -0.37081   0.53091   0.36886  -0.34653
  25        3PZ        -0.35674  -0.39648  -0.30786  -0.32685  -0.34762
  26 4   H  1S         -0.00648  -0.05162   0.02420   0.00007   0.00006
  27        2S          0.06266   0.49928  -0.17833   0.00022   0.00018
  28        3PX         0.36448  -0.11183  -0.43653   0.01838   0.44595
  29        3PY         0.03269   0.26235   0.30219  -0.20008  -0.21287
  30        3PZ        -0.53227   0.01990  -0.30912   0.46448  -0.10923
  31 5   H  1S          0.00001  -0.00023  -0.07891   0.00000  -0.00004
  32        2S         -0.00018   0.00167   0.60568   0.00002  -0.00000
  33        3PX         0.31840  -0.47648   0.08042   0.44392   0.04568
  34        3PY        -0.04656  -0.37255  -0.13589   0.19999   0.21278
  35        3PZ        -0.56469  -0.23793   0.05635  -0.13759   0.45676
  36 6   H  1S         -0.00002   0.00008   0.03329   0.00001   0.00005
  37        2S          0.00002  -0.00017  -0.06501  -0.00002  -0.00006
  38        3PX         0.00075  -0.00123  -0.03583  -0.00002  -0.00000
  39        3PY        -0.00011  -0.00068   0.06230  -0.00001  -0.00001
  40        3PZ        -0.00133  -0.00064  -0.02523   0.00000  -0.00002
                          36        37        38        39        40
                           V         V         V         V         V
     Eigenvalues --     3.11567   3.41910   3.41912   3.42602   4.42842
   1 1   C  1S         -0.13950   0.00000   0.00000  -0.00052  -0.47785
   2        2S          0.92322  -0.00006   0.00001  -0.02056   2.81956
   3        2PX         0.00671   0.34920   0.72638  -0.42876  -0.00173
   4        2PY        -0.01154   0.48538   0.20829   0.74282   0.00297
   5        2PZ         0.00475   0.69083  -0.51352  -0.30515  -0.00122
   6        3S          1.24081   0.00005  -0.00009   0.06800   2.14998
   7        3PX        -0.00823   0.20557   0.42769  -0.26929  -0.01271
   8        3PY         0.01432   0.28581   0.12257   0.46650   0.02205
   9        3PZ        -0.00582   0.40674  -0.30233  -0.19157  -0.00899
  10        4XX        -0.06814  -0.12777   0.99464  -0.18521  -2.04811
  11        4YY        -0.08104  -0.76414  -0.33148   0.60052  -2.04293
  12        4ZZ        -0.06492   0.89197  -0.66318  -0.38542  -2.04940
  13        4XY         0.01281  -0.51231  -0.21967  -0.78451  -0.00518
  14        4XZ        -0.00526  -0.26075  -0.54200   0.32004   0.00211
  15        4YZ         0.00926  -0.36211  -0.15564  -0.55458  -0.00370
  16 2   H  1S         -0.26538  -0.61847   0.45980   0.26610   0.25294
  17        2S         -0.33643  -0.41698   0.30999   0.18196  -0.37631
  18        3PX         0.00278   0.00634   0.01298  -0.00486   0.00113
  19        3PY        -0.00492   0.00863   0.00384   0.00847  -0.00194
  20        3PZ         0.65595   0.92004  -0.68399  -0.39821  -0.31125
  21 3   H  1S         -0.26538  -0.08848  -0.76643   0.26362   0.25294
  22        2S         -0.33643  -0.05964  -0.51672   0.18031  -0.37632
  23        3PX         0.61932   0.12868   1.07346  -0.37358  -0.29305
  24        3PY        -0.00477   0.00870   0.00362   0.00850  -0.00197
  25        3PZ        -0.21612  -0.03091  -0.38424   0.12693   0.10486
  26 4   H  1S         -0.26536   0.70845   0.30567   0.26344   0.25295
  27        2S         -0.33639   0.47765   0.20606   0.18016  -0.37632
  28        3PX        -0.30574   0.49666   0.22461   0.17945   0.14834
  29        3PY        -0.53857   0.85740   0.36992   0.32750   0.25274
  30        3PZ        -0.21610   0.35917   0.14037   0.12684   0.10488
  31 5   H  1S         -0.24044  -0.00151   0.00099  -0.81248   0.25487
  32        2S         -0.37370  -0.00110   0.00077  -0.62133  -0.42884
  33        3PX        -0.30052   0.00505   0.01336  -0.58054   0.14020
  34        3PY         0.52086   0.01028   0.00243   1.00612  -0.24298
  35        3PZ        -0.21252   0.01127  -0.00842  -0.41040   0.09911
  36 6   H  1S         -0.01783  -0.00001   0.00003  -0.02701  -0.02507
  37        2S          0.03886   0.00005  -0.00007   0.06017   0.05031
  38        3PX         0.01427  -0.00017  -0.00043   0.01819   0.00843
  39        3PY        -0.02480  -0.00032  -0.00008  -0.03162  -0.01466
  40        3PZ         0.01004  -0.00037   0.00027   0.01281   0.00594
     Alpha Density Matrix:
                           1         2         3         4         5
   1 1   C  1S          1.02557
   2        2S         -0.02798   0.15216
   3        2PX         0.00015  -0.00018   0.19633
   4        2PY        -0.00027   0.00032  -0.00066   0.19709
   5        2PZ         0.00011  -0.00013   0.00027  -0.00046   0.19614
   6        3S         -0.08384   0.13337  -0.00179   0.00310  -0.00126
   7        3PX         0.00019  -0.00020   0.08913  -0.00089   0.00036
   8        3PY        -0.00034   0.00035  -0.00089   0.09016  -0.00063
   9        3PZ         0.00014  -0.00014   0.00036  -0.00063   0.08887
  10        4XX        -0.00714  -0.00415   0.00717  -0.00006  -0.00503
  11        4YY        -0.00717  -0.00411  -0.00714   0.00002  -0.00505
  12        4ZZ        -0.00713  -0.00416   0.00004  -0.00007   0.01013
  13        4XY         0.00003  -0.00004   0.00003  -0.00831   0.00002
  14        4XZ        -0.00001   0.00001  -0.00585   0.00002  -0.00001
  15        4YZ         0.00002  -0.00002   0.00002  -0.00587   0.00002
  16 2   H  1S         -0.02764   0.05322   0.00009  -0.00016   0.13050
  17        2S         -0.00646   0.01762   0.00021  -0.00038   0.11606
  18        3PX        -0.00000  -0.00000   0.00375  -0.00001   0.00001
  19        3PY         0.00000   0.00000  -0.00001   0.00376  -0.00001
  20        3PZ         0.00279  -0.00507   0.00000  -0.00001  -0.00320
  21 3   H  1S         -0.02764   0.05322   0.12306  -0.00015  -0.04344
  22        2S         -0.00646   0.01762   0.10949  -0.00037  -0.03851
  23        3PX         0.00263  -0.00478  -0.00242  -0.00001   0.00219
  24        3PY         0.00000   0.00000  -0.00001   0.00376  -0.00000
  25        3PZ        -0.00093   0.00169   0.00219  -0.00000   0.00298
  26 4   H  1S         -0.02764   0.05322  -0.06144  -0.10661  -0.04344
  27        2S         -0.00646   0.01762  -0.05447  -0.09498  -0.03851
  28        3PX        -0.00132   0.00239   0.00220  -0.00268  -0.00109
  29        3PY        -0.00228   0.00414  -0.00268  -0.00086  -0.00190
  30        3PZ        -0.00093   0.00169  -0.00109  -0.00190   0.00298
  31 5   H  1S         -0.02786   0.05340  -0.06178   0.10707  -0.04367
  32        2S         -0.00590   0.01691  -0.05282   0.09154  -0.03735
  33        3PX        -0.00131   0.00239   0.00219   0.00269  -0.00110
  34        3PY         0.00228  -0.00415   0.00269  -0.00092   0.00191
  35        3PZ        -0.00093   0.00169  -0.00110   0.00190   0.00297
  36 6   H  1S          0.00256  -0.00359   0.00595  -0.01032   0.00420
  37        2S          0.00322  -0.00501   0.00865  -0.01500   0.00611
  38        3PX        -0.00004   0.00004  -0.00014   0.00028  -0.00011
  39        3PY         0.00007  -0.00008   0.00028  -0.00046   0.00020
  40        3PZ        -0.00003   0.00003  -0.00011   0.00020  -0.00006
                           6         7         8         9        10
   6        3S          0.12240
   7        3PX        -0.00129   0.04053
   8        3PY         0.00223  -0.00078   0.04143
   9        3PZ        -0.00091   0.00032  -0.00056   0.04030
  10        4XX        -0.00321   0.00325  -0.00004  -0.00227   0.00057
  11        4YY        -0.00308  -0.00324   0.00003  -0.00229   0.00004
[...]
  18        3PX         0.00000   0.00000   0.00013
  19        3PY         0.00000   0.00000   0.00000   0.00020
  20        3PZ         0.00000   0.00000   0.00000   0.00000   0.00049
  21 3   H  1S         -0.00041  -0.00636   0.00003   0.00000   0.00002
  22        2S         -0.00636  -0.01839   0.00015   0.00000  -0.00003
  23        3PX        -0.00000  -0.00009   0.00000   0.00000   0.00000
  24        3PY         0.00000   0.00000   0.00000   0.00000   0.00000
  25        3PZ         0.00005   0.00021   0.00000   0.00000   0.00000
  26 4   H  1S         -0.00041  -0.00636   0.00003   0.00000   0.00002
  27        2S         -0.00636  -0.01839   0.00015   0.00000  -0.00003
  28        3PX        -0.00000  -0.00009   0.00000   0.00000   0.00000
  29        3PY        -0.00000  -0.00000   0.00000   0.00000   0.00000
  30        3PZ         0.00005   0.00021   0.00000   0.00000   0.00000
  31 5   H  1S         -0.00000   0.00000  -0.00000  -0.00000   0.00000
  32        2S         -0.00000   0.00003   0.00000   0.00001   0.00000
  33        3PX         0.00000   0.00000   0.00000   0.00000   0.00000
  34        3PY         0.00000   0.00000   0.00000   0.00000   0.00000
  35        3PZ         0.00000   0.00000  -0.00000   0.00000   0.00000
  36 6   H  1S         -0.00000   0.00000  -0.00000  -0.00000  -0.00000
  37        2S         -0.00000   0.00001  -0.00000  -0.00000  -0.00000
  38        3PX        -0.00000   0.00000  -0.00000  -0.00000   0.00000
  39        3PY        -0.00000   0.00000  -0.00000  -0.00000   0.00000
  40        3PZ        -0.00000  -0.00000  -0.00000  -0.00000  -0.00000
                          21        22        23        24        25
  21 3   H  1S          0.21261
  22        2S          0.10362   0.12443
  23        3PX         0.00000   0.00000   0.00040
  24        3PY         0.00000   0.00000   0.00000   0.00020
  25        3PZ         0.00000   0.00000   0.00000   0.00000   0.00022
  26 4   H  1S         -0.00041  -0.00636   0.00005   0.00000   0.00000
  27        2S         -0.00636  -0.01839   0.00012   0.00000   0.00000
  28        3PX         0.00005   0.00012   0.00000   0.00000  -0.00000
  29        3PY        -0.00000  -0.00000   0.00000   0.00000   0.00000
  30        3PZ        -0.00000  -0.00000   0.00000   0.00000   0.00000
  31 5   H  1S         -0.00000   0.00000   0.00000  -0.00000   0.00000
  32        2S         -0.00000   0.00003   0.00000   0.00001   0.00000
  33        3PX         0.00000   0.00000   0.00000   0.00000   0.00000
  34        3PY         0.00000   0.00000   0.00000   0.00000   0.00000
  35        3PZ         0.00000   0.00000   0.00000  -0.00000   0.00000
  36 6   H  1S         -0.00000   0.00000  -0.00000  -0.00000  -0.00000
  37        2S         -0.00000   0.00001  -0.00000  -0.00000  -0.00000
  38        3PX        -0.00000  -0.00000  -0.00000  -0.00000  -0.00000
  39        3PY        -0.00000   0.00000   0.00000  -0.00000   0.00000
  40        3PZ        -0.00000  -0.00000  -0.00000   0.00000  -0.00000
                          26        27        28        29        30
  26 4   H  1S          0.21261
  27        2S          0.10362   0.12442
  28        3PX         0.00000   0.00000   0.00040
  29        3PY         0.00000   0.00000   0.00000   0.00021
  30        3PZ         0.00000   0.00000   0.00000   0.00000   0.00022
  31 5   H  1S         -0.00000   0.00000   0.00000  -0.00000   0.00000
  32        2S         -0.00000   0.00004   0.00000   0.00001   0.00000
  33        3PX         0.00000   0.00000   0.00000  -0.00000   0.00000
  34        3PY         0.00000   0.00000   0.00000   0.00000   0.00000
  35        3PZ         0.00000   0.00000   0.00000  -0.00000   0.00000
  36 6   H  1S         -0.00000   0.00000  -0.00000  -0.00000  -0.00000
  37        2S         -0.00000   0.00001  -0.00000  -0.00000  -0.00000
  38        3PX        -0.00000  -0.00000  -0.00000   0.00000  -0.00000
  39        3PY        -0.00000   0.00000   0.00000  -0.00000   0.00000
  40        3PZ        -0.00000  -0.00000  -0.00000   0.00000  -0.00000
                          31        32        33        34        35
  31 5   H  1S          0.23273
  32        2S          0.10436   0.11804
  33        3PX         0.00000   0.00000   0.00000
  34        3PY         0.00000   0.00000   0.00000   0.00054
  35        3PZ         0.00000   0.00000   0.00000   0.00000   0.00000
  36 6   H  1S          0.13551   0.08732   0.00000   0.00593   0.00000
  37        2S          0.09367   0.09585   0.00000   0.00116   0.00000
  38        3PX         0.00000   0.00000  -0.00000   0.00000   0.00000
  39        3PY         0.00582   0.00105   0.00000   0.00011   0.00000
  40        3PZ         0.00000   0.00000   0.00000   0.00000  -0.00000
                          36        37        38        39        40
  36 6   H  1S          0.23387
  37        2S          0.11225   0.13028
  38        3PX         0.00000   0.00000   0.00000
  39        3PY         0.00000   0.00000   0.00000   0.00052
  40        3PZ         0.00000   0.00000   0.00000   0.00000   0.00000
     Gross orbital populations:
                         Total     Alpha     Beta      Spin
   1 1   C  1S          1.99169   0.99575   0.99594  -0.00019
   2        2S          0.70604   0.36568   0.34037   0.02531
   3        2PX         0.72442   0.37224   0.35217   0.02007
   4        2PY         0.53729   0.53701   0.00027   0.53674
   5        2PZ         0.72446   0.37220   0.35225   0.01995
   6        3S          0.66153   0.35954   0.30199   0.05756
   7        3PX         0.30054   0.15909   0.14145   0.01764
   8        3PY         0.44578   0.44516   0.00062   0.44454
   9        3PZ         0.30048   0.15902   0.14147   0.01755
  10        4XX        -0.00314  -0.00593   0.00279  -0.00873
  11        4YY        -0.02544  -0.00626  -0.01919   0.01293
  12        4ZZ        -0.00313  -0.00593   0.00280  -0.00873
  13        4XY         0.00002   0.00001   0.00001  -0.00000
  14        4XZ         0.00706   0.00355   0.00351   0.00004
  15        4YZ         0.00001   0.00000   0.00000  -0.00000
  16 2   H  1S          0.52635   0.25374   0.27260  -0.01886
  17        2S          0.33561   0.15172   0.18390  -0.03218
  18        3PX         0.00211   0.00102   0.00108  -0.00006
  19        3PY         0.00305   0.00305   0.00000   0.00305
  20        3PZ         0.00779   0.00396   0.00383   0.00013
  21 3   H  1S          0.52635   0.25374   0.27260  -0.01886
  22        2S          0.33560   0.15171   0.18389  -0.03218
  23        3PX         0.00637   0.00323   0.00314   0.00009
  24        3PY         0.00305   0.00305   0.00000   0.00305
  25        3PZ         0.00353   0.00176   0.00177  -0.00001
  26 4   H  1S          0.52634   0.25374   0.27260  -0.01886
  27        2S          0.33559   0.15170   0.18388  -0.03218
  28        3PX         0.00636   0.00323   0.00314   0.00009
  29        3PY         0.00306   0.00305   0.00001   0.00305
  30        3PZ         0.00353   0.00176   0.00177  -0.00001
  31 5   H  1S          0.57201   0.28605   0.28596   0.00010
  32        2S          0.41519   0.20808   0.20711   0.00097
  33        3PX         0.00001   0.00000   0.00000   0.00000
  34        3PY         0.00778   0.00396   0.00382   0.00014
  35        3PZ         0.00001   0.00000   0.00000   0.00000
  36 6   H  1S          0.57484   0.28887   0.28597   0.00290
  37        2S          0.43039   0.21769   0.21270   0.00499
  38        3PX         0.00001   0.00000   0.00000  -0.00000
  39        3PY         0.00750   0.00374   0.00376  -0.00002
  40        3PZ         0.00000   0.00000   0.00000  -0.00000
          Condensed to atoms (all electrons):
               1          2          3          4          5          6
     1  C    5.185779   0.392098   0.392105   0.392105   0.008396  -0.002889
     2  H    0.392098   0.545128  -0.031184  -0.031183   0.000042   0.000007
     3  H    0.392105  -0.031184   0.545105  -0.031180   0.000039   0.000008
     4  H    0.392105  -0.031183  -0.031180   0.545083   0.000045   0.000007
     5  H    0.008396   0.000042   0.000039   0.000045   0.560037   0.426430
     6  H   -0.002889   0.000007   0.000008   0.000007   0.426430   0.589179
          Atomic-Atomic Spin Densities.
               1          2          3          4          5          6
     1  C    1.141920  -0.004017  -0.004018  -0.004018   0.007850  -0.003044
     2  H   -0.004017  -0.045827   0.000966   0.000966  -0.000001  -0.000000
     3  H   -0.004018   0.000966  -0.045827   0.000966  -0.000001  -0.000000
     4  H   -0.004018   0.000966   0.000966  -0.045825  -0.000001  -0.000000
     5  H    0.007850  -0.000001  -0.000001  -0.000001   0.001521  -0.008173
     6  H   -0.003044  -0.000000  -0.000000  -0.000000  -0.008173   0.019091
 Mulliken charges and spin densities:
               1          2
     1  C   -0.367594   1.134673
     2  H    0.125093  -0.047914
     3  H    0.125107  -0.047914
     4  H    0.125124  -0.047914
     5  H    0.005012   0.001195
     6  H   -0.012742   0.007873
 Sum of Mulliken charges =  -0.00000   1.00000
 Mulliken charges and spin densities with hydrogens summed into heavy atoms:
               1          2
     1  C   -0.000000   1.000000
 Electronic spatial extent (au):  <R**2>=            114.3121
 Charge=             -0.0000 electrons
 Dipole moment (field-independent basis, Debye):
    X=              0.0037    Y=             -0.1601    Z=              0.0022  Tot=              0.1602
 Quadrupole moment (field-independent basis, Debye-Ang):
   XX=             -8.8451   YY=            -10.4803   ZZ=             -8.8447
   XY=              0.0297   XZ=             -0.0002   YZ=              0.0149
 Traceless Quadrupole moment (field-independent basis, Debye-Ang):
   XX=              0.5450   YY=             -1.0903   ZZ=              0.5453
   XY=              0.0297   XZ=             -0.0002   YZ=              0.0149
 Octapole moment (field-independent basis, Debye-Ang**2):
  XXX=              0.4562  YYY=            -16.4926  ZZZ=              1.0761  XYY=              0.0931
  XXY=             -6.2344  XXZ=             -0.7200  XZZ=              0.1517  YZZ=             -6.2176
  YYZ=              0.0382  XYZ=             -0.0136
 Hexadecapole moment (field-independent basis, Debye-Ang**3):
 XXXX=            -15.6636 YYYY=           -117.3089 ZZZZ=            -15.6151 XXXY=              1.5055
 XXXZ=             -0.0224 YYYX=              0.9798 YYYZ=              0.4925 ZZZX=             -0.0214
 ZZZY=              0.8713 XXYY=            -25.6353 XXZZ=             -5.2135 YYZZ=            -25.6339
 XXYZ=              0.3087 YYXZ=              0.0032 ZZXY=              0.5018
 N-N= 1.333964623395D+01 E-N=-1.206951998894D+02  KE= 4.072845362573D+01
 Orbital energies and kinetic energies (alpha):
                                 1                 2
   1         O               -10.194849         15.871160
   2         O                -0.683328          1.348554
   3         O                -0.457021          0.643935
   4         O                -0.417624          0.987680
   5         O                -0.417622          0.987683
   6         O                -0.227230          1.136416
   7         V                 0.111148          0.980804
   8         V                 0.150753          0.560636
   9         V                 0.180446          0.848129
  10         V                 0.180453          0.848125
  11         V                 0.488324          1.545014
  12         V                 0.537156          1.533917
  13         V                 0.537160          1.533898
  14         V                 0.593325          1.811495
  15         V                 0.731588          1.805185
  16         V                 0.887849          2.492124
  17         V                 0.887856          2.492118
  18         V                 0.948098          2.339785
  19         V                 1.236509          2.404510
  20         V                 1.433523          2.455077
  21         V                 1.433526          2.455079
  22         V                 1.682903          2.490500
  23         V                 1.682904          2.490502
  24         V                 1.912197          2.971282
  25         V                 1.912199          2.971283
  26         V                 1.962529          3.133672
  27         V                 2.004683          2.803322
  28         V                 2.294145          3.105223
  29         V                 2.557902          3.504976
  30         V                 2.557910          3.504981
  31         V                 2.632793          3.521955
  32         V                 2.715267          3.715552
  33         V                 2.715273          3.715566
  34         V                 2.777799          3.500670
  35         V                 2.777804          3.500682
  36         V                 3.247262          5.018967
  37         V                 3.455453          5.146008
  38         V                 3.455456          5.146012
  39         V                 4.287224          9.553024
  40         V                 5.209465          6.960847
 Orbital energies and kinetic energies (beta):
                                 1                 2
   1         O               -10.180939         15.894038
   2         O                -0.642633          1.280446
   3         O                -0.456376          0.643559
   4         O                -0.407677          0.967490
   5         O                -0.407675          0.967493
   6         V                -0.055629          0.925168
   7         V                 0.125684          0.978099
   8         V                 0.157999          0.609227
   9         V                 0.185846          0.848778
  10         V                 0.185854          0.848773
  11         V                 0.508229          1.447833
  12         V                 0.544873          1.526393
  13         V                 0.544877          1.526383
  14         V                 0.647137          2.037592
  15         V                 0.755137          1.871401
  16         V                 0.891316          2.512604
  17         V                 0.891323          2.512597
  18         V                 0.975546          2.362814
  19         V                 1.238322          2.405452
  20         V                 1.479670          2.444595
  21         V                 1.479673          2.444598
  22         V                 1.683305          2.490497
  23         V                 1.683306          2.490499
  24         V                 1.915687          2.965658
  25         V                 1.915689          2.965660
  26         V                 1.999597          2.803322
  27         V                 2.043328          3.120295
  28         V                 2.300697          3.108201
  29         V                 2.587103          3.515563
  30         V                 2.587111          3.515568
  31         V                 2.633421          3.522004
  32         V                 2.715643          3.720022
  33         V                 2.715649          3.720036
  34         V                 2.778190          3.500670
  35         V                 2.778194          3.500681
  36         V                 3.253538          4.987398
  37         V                 3.463107          5.153642
  38         V                 3.463109          5.153642
  39         V                 4.323530          9.586701
  40         V                 5.210176          6.960960
 Total kinetic energy from orbitals= 4.072845362573D+01
                          Isotropic Fermi Contact Couplings
        Atom                 a.u.       MegaHertz       Gauss      10(-4) cm-1
     1  C(13)              0.10726     120.57883      43.02552      40.22077
     2  H(1)              -0.01539     -68.80800     -24.55240     -22.95188
     3  H(1)              -0.01539     -68.81041     -24.55326     -22.95268
     4  H(1)              -0.01540     -68.81416     -24.55460     -22.95393
     5  H(1)               0.00024       1.08499       0.38715       0.36191
     6  H(1)               0.00257      11.49981       4.10342       3.83592
 --------------------------------------------------------
       Center         ----  Spin Dipole Couplings  ----
                      3XX-RR        3YY-RR        3ZZ-RR
 --------------------------------------------------------
     1   Atom       -0.539196      1.078759     -0.539563
     2   Atom       -0.074686     -0.001559      0.076245
     3   Atom        0.038540     -0.001560     -0.036981
     4   Atom        0.038430     -0.001449     -0.036981
     5   Atom       -0.008449      0.016907     -0.008458
     6   Atom       -0.003891      0.007786     -0.003895
 --------------------------------------------------------
                        XY            XZ            YZ
 --------------------------------------------------------
     1   Atom       -0.029897      0.000319     -0.017294
     2   Atom       -0.001352      0.000001      0.000001
     3   Atom       -0.000679     -0.065339     -0.001170
     4   Atom        0.002153      0.065339      0.001243
     5   Atom       -0.000643      0.000010     -0.000391
     6   Atom       -0.000297      0.000005     -0.000188
 --------------------------------------------------------


 ---------------------------------------------------------------------------------
              Anisotropic Spin Dipole Couplings in Principal Axis System
 ---------------------------------------------------------------------------------

       Atom             a.u.   MegaHertz   Gauss  10(-4) cm-1        Axes

              Baa    -0.5397   -72.429   -25.845   -24.160  0.9647  0.0206  0.2627
     1 C(13)  Bbb    -0.5397   -72.429   -25.844   -24.160 -0.2629  0.0055  0.9648
              Bcc     1.0795   144.858    51.689    48.319 -0.0185  0.9998 -0.0107
 
              Baa    -0.0747   -39.862   -14.224   -13.297  0.9998  0.0185 -0.0000
     2 H(1)   Bbb    -0.0015    -0.818    -0.292    -0.273 -0.0185  0.9998 -0.0000
              Bcc     0.0762    40.681    14.516    13.570  0.0000  0.0000  1.0000
 
              Baa    -0.0747   -39.862   -14.224   -13.297  0.4997  0.0185  0.8660
     3 H(1)   Bbb    -0.0015    -0.819    -0.292    -0.273 -0.0092  0.9998 -0.0160
              Bcc     0.0762    40.681    14.516    13.570  0.8661 -0.0000 -0.4998
 
              Baa    -0.0747   -39.864   -14.224   -13.297 -0.5001  0.0000  0.8660
     4 H(1)   Bbb    -0.0015    -0.815    -0.291    -0.272 -0.0277  0.9995 -0.0160
              Bcc     0.0762    40.679    14.515    13.569  0.8655  0.0320  0.4998
 
              Baa    -0.0085    -4.517    -1.612    -1.507  0.9195  0.0293  0.3920
     5 H(1)   Bbb    -0.0085    -4.516    -1.611    -1.506 -0.3923  0.0042  0.9198
              Bcc     0.0169     9.033     3.223     3.013 -0.0253  0.9996 -0.0154
 
              Baa    -0.0039    -2.080    -0.742    -0.694  0.9222  0.0297  0.3855
     6 H(1)   Bbb    -0.0039    -2.080    -0.742    -0.694 -0.3858  0.0050  0.9226
              Bcc     0.0078     4.160     1.484     1.388 -0.0254  0.9995 -0.0161
 

 ---------------------------------------------------------------------------------

 No NMR shielding tensors so no spin-rotation constants.
 Leave Link  601 at Fri Sep 13 21:38:33 2024, MaxMem=   268435456 cpu:         2.3
 (Enter /g100_work/pMI24_ChiCa/g09d1/g09d01/d01/build-node-6-2-59348/src/main/l9999.exe)

 This type of calculation cannot be archived.


 Luck is a matter of preparation meeting opportunity.
                                    -- Oprah Winfrey
 Job cpu time:       0 days  0 hours 24 minutes 37.9 seconds.
 File lengths (MBytes):  RWF=      5 Int=      0 D2E=      0 Chk=      1 Scr=      1
 Normal termination of Gaussian 09 at Fri Sep 13 21:38:33 2024.
