 Entering Gaussian System, Link 0=/g100_work/pMI24_ChiCa/g09d1/g09d01/d01/build-node-6-2-59348/src/main/g09
 Input=geom.com
 Output=geom.log
 Initial command:
 /g100_work/pMI24_ChiCa/g09d1/g09d01/d01/build-node-6-2-59348/src/main/l1.exe "/g100_scratch/userexternal/ecabiati/g16_14401500/Gau-10629.inp" -scrdir="/g100_scratch/userexternal/ecabiati/g16_14401500/"
 Entering Link 1 = /g100_work/pMI24_ChiCa/g09d1/g09d01/d01/build-node-6-2-59348/src/main/l1.exe PID=     10630.
  
 Copyright (c) 1988,1990,1992,1993,1995,1998,2003,2009,2013,
            Gaussian, Inc.  All Rights Reserved.
  
 This is part of the Gaussian(R) 09 program.  It is based on
 the Gaussian(R) 03 system (copyright 2003, Gaussian, Inc.),
 the Gaussian(R) 98 system (copyright 1998, Gaussian, Inc.),
 the Gaussian(R) 94 system (copyright 1995, Gaussian, Inc.),
 the Gaussian 92(TM) system (copyright 1992, Gaussian, Inc.),
 the Gaussian 90(TM) system (copyright 1990, Gaussian, Inc.),
 the Gaussian 88(TM) system (copyright 1988, Gaussian, Inc.),
 the Gaussian 86(TM) system (copyright 1986, Carnegie Mellon
 University), and the Gaussian 82(TM) system (copyright 1983,
 Carnegie Mellon University). Gaussian is a federally registered
 trademark of Gaussian, Inc.
  
 This software contains proprietary and confidential information,
 including trade secrets, belonging to Gaussian, Inc.
  
 This software is provided under written license and may be
 used, copied, transmitted, or stored only in accord with that
 written license.
  
 The following legend is applicable only to US Government
 contracts under FAR:
  
                    RESTRICTED RIGHTS LEGEND
  
 Use, reproduction and disclosure by the US Government is
 subject to restrictions as set forth in subparagraphs (a)
 and (c) of the Commercial Computer Software - Restricted
 Rights clause in FAR 52.227-19.
  
 Gaussian, Inc.
 340 Quinnipiac St., Bldg. 40, Wallingford CT 06492
  
  
 ---------------------------------------------------------------
 Warning -- This program may not be used in any manner that
 competes with the business of Gaussian, Inc. or will provide
 assistance to any competitor of Gaussian, Inc.  The licensee
 of this program is prohibited from giving any competitor of
 Gaussian, Inc. access to this program.  By using this program,
 the user acknowledges that Gaussian, Inc. is engaged in the
 business of creating and licensing software in the field of
 computational chemistry and represents and warrants to the
 licensee that it is not a competitor of Gaussian, Inc. and that
 it will not use this program in any manner prohibited above.
 ---------------------------------------------------------------
  

 Cite this work as:
 Gaussian 09, Revision D.01,
 M. J. Frisch, G. W. Trucks, H. B. Schlegel, G. E. Scuseria, 
 M. A. Robb, J. R. Cheeseman, G. Scalmani, V. Barone, B. Mennucci, 
 G. A. Petersson, H. Nakatsuji, M. Caricato, X. Li, H. P. Hratchian, 
 A. F. Izmaylov, J. Bloino, G. Zheng, J. L. Sonnenberg, M. Hada, 
 M. Ehara, K. Toyota, R. Fukuda, J. Hasegawa, M. Ishida, T. Nakajima, 
 Y. Honda, O. Kitao, H. Nakai, T. Vreven, J. A. Montgomery, Jr., 
 J. E. Peralta, F. Ogliaro, M. Bearpark, J. J. Heyd, E. Brothers, 
 K. N. Kudin, V. N. Staroverov, T. Keith, R. Kobayashi, J. Normand, 
 K. Raghavachari, A. Rendell, J. C. Burant, S. S. Iyengar, J. Tomasi, 
 M. Cossi, N. Rega, J. M. Millam, M. Klene, J. E. Knox, J. B. Cross, 
 V. Bakken, C. Adamo, J. Jaramillo, R. Gomperts, R. E. Stratmann, 
 O. Yazyev, A. J. Austin, R. Cammi, C. Pomelli, J. W. Ochterski, 
 R. L. Martin, K. Morokuma, V. G. Zakrzewski, G. A. Voth, 
 P. Salvador, J. J. Dannenberg, S. Dapprich, A. D. Daniels, 
 O. Farkas, J. B. Foresman, J. V. Ortiz, J. Cioslowski, 
 and D. J. Fox, Gaussian, Inc., Wallingford CT, 2013.
 
 ******************************************
 Gaussian 09:  EM64L-G09RevD.01 24-Apr-2013
                14-Sep-2024 
 ******************************************
 %nproc=24
 Will use up to   24 processors via shared memory.
 %mem=2Gb
 %chk=nh3+h_to_nh2+h2.chk
 ----------------------------------------------------------------------
 #p wb97xd/6-31g(d,p) opt=(Z-Matrix) scf=(Maxconventionalcycles=100,xqc
 ) nosym temperature=300 pop=full gfinput
 ----------------------------------------------------------------------
 1/10=7,14=-1,18=40,26=3,38=1,112=300000/1,3;
 2/12=2,15=1,17=6,18=5,29=3,40=1/2;
 3/5=1,6=6,7=101,11=2,16=1,24=10,25=1,30=1,71=1,74=-58/1,2,3;
 4//1;
 5/5=2,8=3,13=1,38=5,85=100/2,8;
 6/7=3,28=1/1;
 7/29=1,30=1/1,2,3,16;
 1/10=7,14=-1,18=40,26=3/3(2);
 2/15=1,29=3/2;
 99//99;
 2/15=1,29=3/2;
 3/5=1,6=6,7=101,11=2,16=1,25=1,30=1,71=1,74=-58/1,2,3;
 4/5=5,16=3,69=1/1;
 5/5=2,8=3,13=1,38=5,85=100/2,8;
 7/30=1/1,2,3,16;
 1/14=-1,18=40,26=3/3(-5);
 2/15=1,29=3/2;
 6/7=3,19=2,28=1/1;
 99/9=1/99;
 Leave Link    1 at Sat Sep 14 11:52:55 2024, MaxMem=   268435456 cpu:         0.2
 (Enter /g100_work/pMI24_ChiCa/g09d1/g09d01/d01/build-node-6-2-59348/src/main/l101.exe)
 ---------------------------
 nh3+h to nh2+h2 pushing hn3
 ---------------------------
 Symbolic Z-matrix:
 Charge =  0 Multiplicity = 2
 n
 h                    1    hn2
 h                    1    hn3      2    hnh3
 h                    1    hn4      3    hnh4     2    dih4     0
 xx                   3    xxh5     1    xxhn5    4    dih5     0
 h                    3    hh6      5    hhxx6    1    dih6     0
       Variables:
  hn2                   1.0013                   
  hn3                   1.0018 Scan 18    0.1    
  hnh3                120.0077                   
  hn4                   1.0013                   
  hnh4                120.0077                   
  dih4                180.                       
  xxh5                  1.0215  -1        0.     
  xxhn5                76.9226  -1        0.     
  dih5                 77.3649  -1        0.     
  hh6                   2.4653                   
  hhxx6               103.0774                   
  dih6                180.                       
 
 NAtoms=      5 NQM=        5 NQMF=       0 NMMI=      0 NMMIF=      0
                NMic=       0 NMicF=      0.
                    Isotopes and Nuclear Properties:
 (Nuclear quadrupole moments (NQMom) in fm**2, nuclear magnetic moments (NMagM)
  in nuclear magnetons)

  Atom         1           2           3           4           5
 IAtWgt=          14           1           1           1           1
 AtmWgt=  14.0030740   1.0078250   1.0078250   1.0078250   1.0078250
 NucSpn=           2           1           1           1           1
 AtZEff=   0.0000000   0.0000000   0.0000000   0.0000000   0.0000000
 NQMom=    2.0440000   0.0000000   0.0000000   0.0000000   0.0000000
 NMagM=    0.4037610   2.7928460   2.7928460   2.7928460   2.7928460
 AtZNuc=   7.0000000   1.0000000   1.0000000   1.0000000   1.0000000
 Leave Link  101 at Sat Sep 14 11:52:55 2024, MaxMem=   268435456 cpu:         0.2
 (Enter /g100_work/pMI24_ChiCa/g09d1/g09d01/d01/build-node-6-2-59348/src/main/l103.exe)

 GradGradGradGradGradGradGradGradGradGradGradGradGradGradGradGradGradGrad
 Berny optimization.
 Initialization pass.
                       ----------------------------
                       !    Initial Parameters    !
                       ! (Angstroms and Degrees)  !
 ----------------------                            ----------------------
 !      Name          Value   Derivative information (Atomic Units)     !
 ------------------------------------------------------------------------
 !       hn2         1.0013   estimate D2E/DX2                          !
 !       hn3         1.0018   Scan                                      !
 !      hnh3       120.0077   estimate D2E/DX2                          !
 !       hn4         1.0013   estimate D2E/DX2                          !
 !      hnh4       120.0077   estimate D2E/DX2                          !
 !      dih4       180.0      estimate D2E/DX2                          !
 !      xxh5         1.0215   Frozen                                    !
 !      xxhn5       76.9226   Frozen                                    !
 !      dih5        77.3649   Frozen                                    !
 !       hh6         2.4653   estimate D2E/DX2                          !
 !      hhxx6      103.0774   estimate D2E/DX2                          !
 !      dih6       180.0      estimate D2E/DX2                          !
 ------------------------------------------------------------------------
 Trust Radius=3.00D-01 FncErr=1.00D-07 GrdErr=1.00D-06
 Number of optimizations in scan=  19
 Number of steps in this run=     22 maximum allowed number of steps=    100.
 GradGradGradGradGradGradGradGradGradGradGradGradGradGradGradGradGradGrad

 Leave Link  103 at Sat Sep 14 11:52:55 2024, MaxMem=   268435456 cpu:         0.1
 (Enter /g100_work/pMI24_ChiCa/g09d1/g09d01/d01/build-node-6-2-59348/src/main/l202.exe)
 ---------------------------------------------------------------------------------------------------
                            Z-MATRIX (ANGSTROMS AND DEGREES)
   CD    Cent   Atom    N1       Length/X        N2       Alpha/Y        N3        Beta/Z          J
 ---------------------------------------------------------------------------------------------------
      1      1  N 
      2      2  H        1   1.001300(     1)
      3      3  H        1   1.001800(     2)      2  120.008(     6)
      4      4  H        1   1.001300(     3)      3  120.008(     7)      2  180.000(    10)      0
      5         X        3   1.021500(     4)      1   76.923(     8)      4   77.365(    11)      0
      6      5  H        3   2.465300(     5)      5  103.077(     9)      1  180.000(    12)      0
 ---------------------------------------------------------------------------------------------------
                         Z-Matrix orientation:                         
 ---------------------------------------------------------------------
 Center     Atomic      Atomic             Coordinates (Angstroms)
 Number     Number       Type             X           Y           Z
 ---------------------------------------------------------------------
      1          7           0        0.000000    0.000000    0.000000
      2          1           0        0.000000    0.000000    1.001300
      3          1           0        0.867517    0.000000   -0.501017
      4          1           0       -0.867286    0.000000   -0.500417
      5         -1           0        0.558517    0.970912   -0.573899
      6          1           0        3.002364    0.000000   -1.733954
 ---------------------------------------------------------------------
                    Distance matrix (angstroms):
                    1          2          3          4          5
     1  N    0.000000
     2  H    1.001300   0.000000
     3  H    1.001800   1.734803   0.000000
     4  H    1.001300   1.734168   1.734803   0.000000
     5  X    1.258559   1.932838   1.021500   1.726552   0.000000
     6  H    3.467100   4.061502   2.465300   4.061502   2.874158
                    6
     6  H    0.000000
 Symmetry turned off by external request.
 Stoichiometry    H4N(2)
 Framework group  C2V[C2(HHN),SGV(H2)]
 Deg. of freedom     4
 Full point group                 C2V     NOp   4
 Rotational constants (GHZ):    333.4876582     39.0114407     34.9258134
 Leave Link  202 at Sat Sep 14 11:52:55 2024, MaxMem=   268435456 cpu:         0.2
 (Enter /g100_work/pMI24_ChiCa/g09d1/g09d01/d01/build-node-6-2-59348/src/main/l301.exe)
 Standard basis: 6-31G(d,p) (6D, 7F)
 Ernie: Thresh=  0.10000D-02 Tol=  0.10000D-05 Strict=F.
 AO basis set in the form of general basis input (Overlap normalization):
      1 0
 S   6 1.00       0.000000000000
      0.4173511460D+04  0.1834772160D-02
      0.6274579110D+03  0.1399462700D-01
      0.1429020930D+03  0.6858655181D-01
      0.4023432930D+02  0.2322408730D+00
      0.1282021290D+02  0.4690699481D+00
      0.4390437010D+01  0.3604551991D+00
 SP   3 1.00       0.000000000000
      0.1162636186D+02 -0.1149611817D+00  0.6757974388D-01
      0.2716279807D+01 -0.1691174786D+00  0.3239072959D+00
      0.7722183966D+00  0.1145851947D+01  0.7408951398D+00
 SP   1 1.00       0.000000000000
      0.2120314975D+00  0.1000000000D+01  0.1000000000D+01
 D   1 1.00       0.000000000000
      0.8000000000D+00  0.1000000000D+01
 ****
      2 0
 S   3 1.00       0.000000000000
      0.1873113696D+02  0.3349460434D-01
      0.2825394365D+01  0.2347269535D+00
      0.6401216923D+00  0.8137573261D+00
 S   1 1.00       0.000000000000
      0.1612777588D+00  0.1000000000D+01
 P   1 1.00       0.000000000000
      0.1100000000D+01  0.1000000000D+01
 ****
      3 0
 S   3 1.00       0.000000000000
      0.1873113696D+02  0.3349460434D-01
      0.2825394365D+01  0.2347269535D+00
      0.6401216923D+00  0.8137573261D+00
 S   1 1.00       0.000000000000
      0.1612777588D+00  0.1000000000D+01
 P   1 1.00       0.000000000000
      0.1100000000D+01  0.1000000000D+01
 ****
      4 0
 S   3 1.00       0.000000000000
      0.1873113696D+02  0.3349460434D-01
      0.2825394365D+01  0.2347269535D+00
      0.6401216923D+00  0.8137573261D+00
 S   1 1.00       0.000000000000
      0.1612777588D+00  0.1000000000D+01
 P   1 1.00       0.000000000000
      0.1100000000D+01  0.1000000000D+01
 ****
      5 0
 S   3 1.00       0.000000000000
      0.1873113696D+02  0.3349460434D-01
      0.2825394365D+01  0.2347269535D+00
      0.6401216923D+00  0.8137573261D+00
 S   1 1.00       0.000000000000
      0.1612777588D+00  0.1000000000D+01
 P   1 1.00       0.000000000000
      0.1100000000D+01  0.1000000000D+01
 ****

    35 basis functions,    56 primitive gaussians,    35 cartesian basis functions
     6 alpha electrons        5 beta electrons
       nuclear repulsion energy        13.5552963145 Hartrees.
 IExCor= 4639 DFT=T Ex+Corr=wB97XD ExCW=0 ScaHFX=  1.000000
 ScaDFX=  1.000000  1.000000  1.000000  1.000000 ScalE2=  1.000000  1.000000
 IRadAn=      0 IRanWt=     -1 IRanGd=            0 ICorTp=0 IEmpDi=121
  HFx wShort=  0.000000 wLong=  0.200000 cFull=  0.222036 cShort=  0.000000 cLong=  0.777964
  DFx wShort=  0.000000 wLong=  0.200000 cFull=  0.000000 cShort=  0.000000 cLong=  1.000000
 NAtoms=    5 NActive=    5 NUniq=    5 SFac= 1.00D+00 NAtFMM=   60 NAOKFM=F Big=F
 Integral buffers will be    131072 words long.
 Raffenetti 2 integral format.
 Two-electron integral symmetry is turned off.
 R6Disp:  Grimme-D2 Dispersion energy=       -0.0004399708 Hartrees.
 Nuclear repulsion after empirical dispersion term =       13.5548563438 Hartrees.
 Leave Link  301 at Sat Sep 14 11:52:56 2024, MaxMem=   268435456 cpu:         0.1
 (Enter /g100_work/pMI24_ChiCa/g09d1/g09d01/d01/build-node-6-2-59348/src/main/l302.exe)
 NPDir=0 NMtPBC=     1 NCelOv=     1 NCel=       1 NClECP=     1 NCelD=      1
         NCelK=      1 NCelE2=     1 NClLst=     1 CellRange=     0.0.
 One-electron integrals computed using PRISM.
 NBasis=    35 RedAO= T EigKep=  2.33D-02  NBF=    35
 NBsUse=    35 1.00D-06 EigRej= -1.00D+00 NBFU=    35
 Precomputing XC quadrature grid using
 IXCGrd= 4 IRadAn=           0 IRanWt=          -1 IRanGd=           0 AccXCQ= 0.00D+00.
 Generated NRdTot=       0 NPtTot=           0 NUsed=           0 NTot=          32
 NSgBfM=    35    35    35    35    35 MxSgAt=     5 MxSgA2=     5.
 Leave Link  302 at Sat Sep 14 11:52:56 2024, MaxMem=   268435456 cpu:         1.2
 (Enter /g100_work/pMI24_ChiCa/g09d1/g09d01/d01/build-node-6-2-59348/src/main/l303.exe)
 DipDrv:  MaxL=1.
 Leave Link  303 at Sat Sep 14 11:52:56 2024, MaxMem=   268435456 cpu:         0.1
 (Enter /g100_work/pMI24_ChiCa/g09d1/g09d01/d01/build-node-6-2-59348/src/main/l401.exe)
 ExpMin= 1.61D-01 ExpMax= 4.17D+03 ExpMxC= 6.27D+02 IAcc=1 IRadAn=         1 AccDes= 0.00D+00
 Harris functional with IExCor= 4639 and IRadAn=       1 diagonalized for initial guess.
 HarFok:  IExCor= 4639 AccDes= 0.00D+00 IRadAn=         1 IDoV= 1 UseB2=F ITyADJ=14
 ICtDFT=  3500011 ScaDFX=  1.000000  1.000000  1.000000  1.000000
 FoFCou: FMM=F IPFlag=           0 FMFlag=      100000 FMFlg1=           0
         NFxFlg=           0 DoJE=T BraDBF=F KetDBF=T FulRan=T
         wScrn=  0.000000 ICntrl=     500 IOpCl=  0 I1Cent=   200000004 NGrid=           0
         NMat0=    1 NMatS0=      1 NMatT0=    0 NMatD0=    1 NMtDS0=    0 NMtDT0=    0
 Symmetry not used in FoFCou.
 Harris En= -54.3504089569180    
 JPrj=0 DoOrth=F DoCkMO=F.
 Initial guess <Sx>= 0.0000 <Sy>= 0.0000 <Sz>= 0.5000 <S**2>= 0.7500 S= 0.5000
 Leave Link  401 at Sat Sep 14 11:52:56 2024, MaxMem=   268435456 cpu:         1.2
 (Enter /g100_work/pMI24_ChiCa/g09d1/g09d01/d01/build-node-6-2-59348/src/main/l502.exe)
 UHF open shell SCF:
 Using DIIS extrapolation, IDIIS=  1040.
 Two-electron integral symmetry not used.
 Keep R1 and R2 ints in memory in canonical form, NReq=1672127.
 IVT=       16761 IEndB=       16761 NGot=   268435456 MDV=   267623636
 LenX=   267623636 LenY=   267621970
 Requested convergence on RMS density matrix=1.00D-08 within 100 cycles.
 Requested convergence on MAX density matrix=1.00D-06.
 Requested convergence on             energy=1.00D-06.
 No special actions if energy rises.
 FoFCou: FMM=F IPFlag=           0 FMFlag=           0 FMFlg1=           0
         NFxFlg=           0 DoJE=F BraDBF=F KetDBF=F FulRan=T
         wScrn=  0.000000 ICntrl=     600 IOpCl=  0 I1Cent=           0 NGrid=           0
         NMat0=    1 NMatS0=    630 NMatT0=    0 NMatD0=    1 NMtDS0=    0 NMtDT0=    0
 Symmetry not used in FoFCou.
 Integral accuracy reduced to 1.0D-05 until final iterations.

 Cycle   1  Pass 0  IDiag  1:
 E= -57.0100223717143    
 DIIS: error= 5.09D-02 at cycle   1 NSaved=   1.
 NSaved= 1 IEnMin= 1 EnMin= -57.0100223717143     IErMin= 1 ErrMin= 5.09D-02
 ErrMax= 5.09D-02  0.00D+00 EMaxC= 1.00D-01 BMatC= 1.65D-01 BMatP= 1.65D-01
 IDIUse=3 WtCom= 4.91D-01 WtEn= 5.09D-01
 Coeff-Com:  0.100D+01
 Coeff-En:   0.100D+01
 Coeff:      0.100D+01
 Gap=     0.612 Goal=   None    Shift=    0.000
 Gap=     0.518 Goal=   None    Shift=    0.000
 GapD=    0.518 DampG=2.000 DampE=0.500 DampFc=1.0000 IDamp=-1.
 RMSDP=5.06D-03 MaxDP=7.84D-02              OVMax= 9.10D-02

 Cycle   2  Pass 0  IDiag  1:
 E= -57.0245307312274     Delta-E=       -0.014508359513 Rises=F Damp=F
 DIIS: error= 1.65D-02 at cycle   2 NSaved=   2.
 NSaved= 2 IEnMin= 2 EnMin= -57.0245307312274     IErMin= 2 ErrMin= 1.65D-02
 ErrMax= 1.65D-02  0.00D+00 EMaxC= 1.00D-01 BMatC= 2.73D-02 BMatP= 1.65D-01
 IDIUse=3 WtCom= 8.35D-01 WtEn= 1.65D-01
 Coeff-Com:  0.194D+00 0.806D+00
 Coeff-En:   0.000D+00 0.100D+01
 Coeff:      0.162D+00 0.838D+00
 Gap=     0.499 Goal=   None    Shift=    0.000
 Gap=     0.509 Goal=   None    Shift=    0.000
 RMSDP=2.36D-03 MaxDP=3.69D-02 DE=-1.45D-02 OVMax= 3.09D-02

 Cycle   3  Pass 0  IDiag  1:
 E= -57.0282796841919     Delta-E=       -0.003748952964 Rises=F Damp=F
 DIIS: error= 9.40D-03 at cycle   3 NSaved=   3.
 NSaved= 3 IEnMin= 3 EnMin= -57.0282796841919     IErMin= 3 ErrMin= 9.40D-03
 ErrMax= 9.40D-03  0.00D+00 EMaxC= 1.00D-01 BMatC= 1.01D-02 BMatP= 2.73D-02
 IDIUse=3 WtCom= 9.06D-01 WtEn= 9.40D-02
 Coeff-Com: -0.709D-02 0.376D+00 0.631D+00
 Coeff-En:   0.000D+00 0.210D+00 0.790D+00
 Coeff:     -0.642D-02 0.361D+00 0.646D+00
 Gap=     0.483 Goal=   None    Shift=    0.000
 Gap=     0.477 Goal=   None    Shift=    0.000
 RMSDP=9.22D-04 MaxDP=1.36D-02 DE=-3.75D-03 OVMax= 1.19D-02

 Cycle   4  Pass 0  IDiag  1:
 E= -57.0302887163717     Delta-E=       -0.002009032180 Rises=F Damp=F
 DIIS: error= 6.87D-04 at cycle   4 NSaved=   4.
 NSaved= 4 IEnMin= 4 EnMin= -57.0302887163717     IErMin= 4 ErrMin= 6.87D-04
 ErrMax= 6.87D-04  0.00D+00 EMaxC= 1.00D-01 BMatC= 3.27D-05 BMatP= 1.01D-02
 IDIUse=3 WtCom= 9.93D-01 WtEn= 6.87D-03
 Coeff-Com: -0.121D-02-0.108D+00-0.125D+00 0.123D+01
 Coeff-En:   0.000D+00 0.000D+00 0.000D+00 0.100D+01
 Coeff:     -0.120D-02-0.107D+00-0.124D+00 0.123D+01
 Gap=     0.484 Goal=   None    Shift=    0.000
 Gap=     0.480 Goal=   None    Shift=    0.000
 RMSDP=2.34D-04 MaxDP=4.89D-03 DE=-2.01D-03 OVMax= 4.05D-03

 Cycle   5  Pass 0  IDiag  1:
 E= -57.0303053641118     Delta-E=       -0.000016647740 Rises=F Damp=F
 DIIS: error= 1.57D-04 at cycle   5 NSaved=   5.
 NSaved= 5 IEnMin= 5 EnMin= -57.0303053641118     IErMin= 5 ErrMin= 1.57D-04
 ErrMax= 1.57D-04  0.00D+00 EMaxC= 1.00D-01 BMatC= 5.13D-07 BMatP= 3.27D-05
 IDIUse=3 WtCom= 9.98D-01 WtEn= 1.57D-03
 Coeff-Com:  0.407D-03 0.262D-01 0.281D-01-0.356D+00 0.130D+01
 Coeff-En:   0.000D+00 0.000D+00 0.000D+00 0.000D+00 0.100D+01
 Coeff:      0.406D-03 0.262D-01 0.280D-01-0.355D+00 0.130D+01
 Gap=     0.484 Goal=   None    Shift=    0.000
 Gap=     0.479 Goal=   None    Shift=    0.000
 RMSDP=3.08D-05 MaxDP=6.23D-04 DE=-1.66D-05 OVMax= 4.44D-04

 Cycle   6  Pass 0  IDiag  1:
 E= -57.0303056663152     Delta-E=       -0.000000302203 Rises=F Damp=F
 DIIS: error= 1.91D-05 at cycle   6 NSaved=   6.
 NSaved= 6 IEnMin= 6 EnMin= -57.0303056663152     IErMin= 6 ErrMin= 1.91D-05
 ErrMax= 1.91D-05  0.00D+00 EMaxC= 1.00D-01 BMatC= 1.86D-08 BMatP= 5.13D-07
 IDIUse=1 WtCom= 1.00D+00 WtEn= 0.00D+00
 Coeff-Com:  0.722D-04 0.676D-02 0.735D-02-0.776D-01 0.107D+00 0.957D+00
 Coeff:      0.722D-04 0.676D-02 0.735D-02-0.776D-01 0.107D+00 0.957D+00
 Gap=     0.484 Goal=   None    Shift=    0.000
 Gap=     0.479 Goal=   None    Shift=    0.000
 RMSDP=2.51D-06 MaxDP=2.70D-05 DE=-3.02D-07 OVMax= 6.76D-05

 Initial convergence to 1.0D-05 achieved.  Increase integral accuracy.
 Cycle   7  Pass 1  IDiag  1:
 E= -57.0301467026037     Delta-E=        0.000158963711 Rises=F Damp=F
 DIIS: error= 9.91D-05 at cycle   1 NSaved=   1.
 NSaved= 1 IEnMin= 1 EnMin= -57.0301467026037     IErMin= 1 ErrMin= 9.91D-05
 ErrMax= 9.91D-05  0.00D+00 EMaxC= 1.00D-01 BMatC= 1.18D-06 BMatP= 1.18D-06
 IDIUse=1 WtCom= 1.00D+00 WtEn= 0.00D+00
 Coeff-Com:  0.100D+01
 Coeff:      0.100D+01
 Gap=     0.484 Goal=   None    Shift=    0.000
 Gap=     0.479 Goal=   None    Shift=    0.000
 RMSDP=2.51D-06 MaxDP=2.70D-05 DE= 1.59D-04 OVMax= 1.32D-04

 Cycle   8  Pass 1  IDiag  1:
 E= -57.0301469107864     Delta-E=       -0.000000208183 Rises=F Damp=F
 DIIS: error= 2.36D-05 at cycle   2 NSaved=   2.
 NSaved= 2 IEnMin= 2 EnMin= -57.0301469107864     IErMin= 2 ErrMin= 2.36D-05
 ErrMax= 2.36D-05  0.00D+00 EMaxC= 1.00D-01 BMatC= 3.88D-08 BMatP= 1.18D-06
 IDIUse=1 WtCom= 1.00D+00 WtEn= 0.00D+00
 Coeff-Com:  0.479D-01 0.952D+00
 Coeff:      0.479D-01 0.952D+00
 Gap=     0.484 Goal=   None    Shift=    0.000
 Gap=     0.479 Goal=   None    Shift=    0.000
 RMSDP=3.12D-06 MaxDP=5.73D-05 DE=-2.08D-07 OVMax= 4.84D-05

 Cycle   9  Pass 1  IDiag  1:
 E= -57.0301469145136     Delta-E=       -0.000000003727 Rises=F Damp=F
 DIIS: error= 1.32D-05 at cycle   3 NSaved=   3.
 NSaved= 3 IEnMin= 3 EnMin= -57.0301469145136     IErMin= 3 ErrMin= 1.32D-05
 ErrMax= 1.32D-05  0.00D+00 EMaxC= 1.00D-01 BMatC= 2.33D-08 BMatP= 3.88D-08
 IDIUse=1 WtCom= 1.00D+00 WtEn= 0.00D+00
 Coeff-Com: -0.158D-01 0.428D+00 0.587D+00
 Coeff:     -0.158D-01 0.428D+00 0.587D+00
 Gap=     0.484 Goal=   None    Shift=    0.000
 Gap=     0.479 Goal=   None    Shift=    0.000
 RMSDP=1.27D-06 MaxDP=1.92D-05 DE=-3.73D-09 OVMax= 1.80D-05

 Cycle  10  Pass 1  IDiag  1:
 E= -57.0301469189775     Delta-E=       -0.000000004464 Rises=F Damp=F
 DIIS: error= 1.29D-06 at cycle   4 NSaved=   4.
 NSaved= 4 IEnMin= 4 EnMin= -57.0301469189775     IErMin= 4 ErrMin= 1.29D-06
 ErrMax= 1.29D-06  0.00D+00 EMaxC= 1.00D-01 BMatC= 6.93D-11 BMatP= 2.33D-08
 IDIUse=1 WtCom= 1.00D+00 WtEn= 0.00D+00
 Coeff-Com: -0.287D-02-0.134D-01 0.289D-01 0.987D+00
 Coeff:     -0.287D-02-0.134D-01 0.289D-01 0.987D+00
 Gap=     0.484 Goal=   None    Shift=    0.000
 Gap=     0.479 Goal=   None    Shift=    0.000
 RMSDP=1.23D-07 MaxDP=2.58D-06 DE=-4.46D-09 OVMax= 2.18D-06

 Cycle  11  Pass 1  IDiag  1:
 E= -57.0301469189973     Delta-E=       -0.000000000020 Rises=F Damp=F
 DIIS: error= 1.14D-07 at cycle   5 NSaved=   5.
 NSaved= 5 IEnMin= 5 EnMin= -57.0301469189973     IErMin= 5 ErrMin= 1.14D-07
 ErrMax= 1.14D-07  0.00D+00 EMaxC= 1.00D-01 BMatC= 1.34D-12 BMatP= 6.93D-11
 IDIUse=1 WtCom= 1.00D+00 WtEn= 0.00D+00
 Coeff-Com:  0.177D-03-0.425D-02-0.893D-02-0.106D-01 0.102D+01
 Coeff:      0.177D-03-0.425D-02-0.893D-02-0.106D-01 0.102D+01
 Gap=     0.484 Goal=   None    Shift=    0.000
 Gap=     0.479 Goal=   None    Shift=    0.000
 RMSDP=2.06D-08 MaxDP=2.96D-07 DE=-1.99D-11 OVMax= 2.80D-07

 Cycle  12  Pass 1  IDiag  1:
 E= -57.0301469189980     Delta-E=       -0.000000000001 Rises=F Damp=F
 DIIS: error= 2.51D-08 at cycle   6 NSaved=   6.
 NSaved= 6 IEnMin= 6 EnMin= -57.0301469189980     IErMin= 6 ErrMin= 2.51D-08
 ErrMax= 2.51D-08  0.00D+00 EMaxC= 1.00D-01 BMatC= 7.67D-14 BMatP= 1.34D-12
 IDIUse=1 WtCom= 1.00D+00 WtEn= 0.00D+00
 Coeff-Com:  0.101D-03 0.918D-03-0.144D-02-0.472D-01 0.309D-01 0.102D+01
 Coeff:      0.101D-03 0.918D-03-0.144D-02-0.472D-01 0.309D-01 0.102D+01
 Gap=     0.484 Goal=   None    Shift=    0.000
 Gap=     0.479 Goal=   None    Shift=    0.000
 RMSDP=5.75D-09 MaxDP=8.00D-08 DE=-6.68D-13 OVMax= 8.80D-08

 SCF Done:  E(UwB97XD) =  -57.0301469190     A.U. after   12 cycles
            NFock= 12  Conv=0.57D-08     -V/T= 2.0094
 <Sx>= 0.0000 <Sy>= 0.0000 <Sz>= 0.5000 <S**2>= 0.7500 S= 0.5000
 <L.S>=  0.00000000000    
 KE= 5.650050181473D+01 PE=-1.600277241090D+02 EE= 3.294221903146D+01
 Annihilation of the first spin contaminant:
 S**2 before annihilation     0.7500,   after     0.7500
 Leave Link  502 at Sat Sep 14 11:52:56 2024, MaxMem=   268435456 cpu:         6.2
 (Enter /g100_work/pMI24_ChiCa/g09d1/g09d01/d01/build-node-6-2-59348/src/main/l508.exe)
 QCSCF skips out because SCF is already converged.
 Leave Link  508 at Sat Sep 14 11:52:56 2024, MaxMem=   268435456 cpu:         0.0
 (Enter /g100_work/pMI24_ChiCa/g09d1/g09d01/d01/build-node-6-2-59348/src/main/l601.exe)
 Copying SCF densities to generalized density rwf, IOpCl= 1 IROHF=0.

 **********************************************************************

            Population analysis using the SCF density.

 **********************************************************************

 Alpha  occ. eigenvalues --  -14.40197  -0.91631  -0.55071  -0.55003  -0.40824
 Alpha  occ. eigenvalues --   -0.30020
 Alpha virt. eigenvalues --    0.18376   0.27360   0.28231   0.79447   0.80158
 Alpha virt. eigenvalues --    0.81424   0.82743   0.87192   0.99337   1.02582
 Alpha virt. eigenvalues --    1.20228   1.57266   1.57272   2.03202   2.03213
 Alpha virt. eigenvalues --    2.06494   2.12449   2.17740   2.17899   2.23039
 Alpha virt. eigenvalues --    2.46381   2.78323   2.78336   2.96983   2.98342
 Alpha virt. eigenvalues --    3.43304   3.58999   3.59762   4.13221
  Beta  occ. eigenvalues --  -14.40188  -0.91610  -0.54995  -0.54978  -0.30009
  Beta virt. eigenvalues --    0.17903   0.26668   0.27366   0.55116   0.80150
  Beta virt. eigenvalues --    0.80215   0.81430   0.87093   0.99346   1.02651
  Beta virt. eigenvalues --    1.19999   1.57271   1.57274   1.70160   2.12431
  Beta virt. eigenvalues --    2.17737   2.17825   2.23049   2.46361   2.78304
  Beta virt. eigenvalues --    2.78329   2.89502   2.95130   2.95139   2.96959
  Beta virt. eigenvalues --    3.01197   3.43662   3.58997   3.59948   4.13333
     Alpha Molecular Orbital Coefficients:
                           1         2         3         4         5
                           O         O         O         O         O
     Eigenvalues --   -14.40197  -0.91631  -0.55071  -0.55003  -0.40824
   1 1   N  1S          0.99289  -0.20530   0.00021   0.00000   0.00642
   2        2S          0.03377   0.41960  -0.00033  -0.00000  -0.01159
   3        2PX        -0.00001  -0.00009   0.40456   0.24547  -0.04898
   4        2PY        -0.00000   0.00000  -0.00000   0.00000  -0.00000
   5        2PZ         0.00000   0.00007  -0.24445   0.40645   0.02828
   6        3S          0.00365   0.42483  -0.00097  -0.00000  -0.04449
   7        3PX         0.00002   0.00047   0.20335   0.12359  -0.03580
   8        3PY         0.00000  -0.00000  -0.00000  -0.00000  -0.00000
   9        3PZ        -0.00001  -0.00025  -0.12286   0.20462   0.02067
  10        4XX        -0.00765  -0.00117   0.00660  -0.01118   0.00033
  11        4YY        -0.00784  -0.01755   0.00007  -0.00000   0.00087
  12        4ZZ        -0.00765  -0.00117  -0.00671   0.01119   0.00119
  13        4XY         0.00000  -0.00000   0.00000   0.00000  -0.00000
  14        4XZ        -0.00000  -0.00002  -0.01274  -0.00779   0.00087
  15        4YZ        -0.00000   0.00000   0.00000   0.00000   0.00000
  16 2   H  1S          0.00022   0.14410  -0.14827   0.24639   0.01357
  17        2S         -0.00041   0.02331  -0.08711   0.14486   0.01155
  18        3PX        -0.00000  -0.00002   0.00973   0.00590  -0.00114
  19        3PY         0.00000  -0.00000  -0.00000   0.00000  -0.00000
  20        3PZ         0.00008  -0.01705   0.00588  -0.00974  -0.00024
  21 3   H  1S          0.00022   0.14385   0.28644   0.00562  -0.02347
  22        2S         -0.00045   0.02193   0.16938   0.00333   0.02715
  23        3PX         0.00007  -0.01481  -0.01016   0.00551   0.00340
  24        3PY        -0.00000   0.00000  -0.00000  -0.00000   0.00000
  25        3PZ        -0.00004   0.00854   0.00557   0.00997  -0.00196
  26 4   H  1S          0.00022   0.14412  -0.13846  -0.25208   0.01357
  27        2S         -0.00041   0.02333  -0.08134  -0.14818   0.01155
  28        3PX        -0.00007   0.01477   0.00022  -0.01141  -0.00037
  29        3PY         0.00000  -0.00000   0.00000   0.00000  -0.00000
  30        3PZ        -0.00004   0.00853  -0.01135  -0.00019   0.00111
  31 5   H  1S         -0.00001   0.00062   0.02648   0.00052   0.42940
  32        2S          0.00004   0.00401   0.04157   0.00083   0.65670
  33        3PX        -0.00001  -0.00022  -0.00105   0.00001  -0.00087
  34        3PY        -0.00000  -0.00000   0.00000   0.00000  -0.00000
  35        3PZ         0.00001   0.00013   0.00060   0.00006   0.00050
                           6         7         8         9        10
                           O         V         V         V         V
     Eigenvalues --    -0.30020   0.18376   0.27360   0.28231   0.79447
   1 1   N  1S          0.00000  -0.14225  -0.00001   0.00770  -0.00839
   2        2S         -0.00000   0.21464   0.00002  -0.01736   0.07099
   3        2PX         0.00000  -0.01676  -0.19393  -0.33998  -0.22684
   4        2PY         0.59590  -0.00000  -0.00000   0.00000   0.00000
   5        2PZ         0.00000   0.00973  -0.33629   0.19605   0.12872
   6        3S         -0.00000   1.85970   0.00020  -0.09209  -0.03068
   7        3PX         0.00000  -0.05192  -0.55575  -0.95985   1.01516
   8        3PY         0.53490   0.00000   0.00000  -0.00000  -0.00000
   9        3PZ        -0.00000   0.03006  -0.96366   0.55348  -0.57853
  10        4XX         0.00000  -0.03561  -0.00727   0.00589  -0.07199
  11        4YY         0.00000  -0.03512  -0.00000  -0.00001   0.01874
  12        4ZZ        -0.00000  -0.03535   0.00726  -0.00422   0.07126
  13        4XY        -0.00001  -0.00000  -0.00000   0.00000  -0.00000
  14        4XZ         0.00000   0.00025  -0.00484  -0.01015   0.14508
  15        4YZ         0.00001  -0.00000   0.00000   0.00000  -0.00000
  16 2   H  1S          0.00000  -0.07815   0.07617  -0.04088   0.31239
  17        2S          0.00000  -0.95805   1.48654  -0.80800   0.08162
  18        3PX        -0.00000  -0.00022  -0.00561  -0.01040   0.06953
  19        3PY         0.01972   0.00000  -0.00000   0.00000   0.00000
  20        3PZ        -0.00000  -0.01126   0.00469  -0.00249  -0.00548
  21 3   H  1S          0.00000  -0.07530  -0.00004   0.09902  -0.73692
  22        2S         -0.00000  -0.82537  -0.00121   1.76643  -0.17838
  23        3PX         0.00000  -0.00975  -0.00561   0.00628  -0.00509
  24        3PY         0.01967  -0.00000   0.00000  -0.00000  -0.00000
  25        3PZ        -0.00000   0.00563  -0.00968  -0.00363   0.00348
  26 4   H  1S         -0.00000  -0.07815  -0.07611  -0.04100   0.31894
  27        2S          0.00000  -0.95782  -1.48566  -0.80993   0.08262
  28        3PX        -0.00000   0.00964   0.00688  -0.00304   0.03941
  29        3PY         0.01972  -0.00000  -0.00000   0.00000   0.00000
  30        3PZ         0.00000   0.00581  -0.00252   0.01024  -0.05707
  31 5   H  1S          0.00000   0.07062   0.00009  -0.13198  -0.56061
  32        2S          0.00000   0.06078   0.00007  -0.09517   0.51795
  33        3PX        -0.00000   0.00927  -0.00004  -0.02069   0.00021
  34        3PY         0.00012   0.00000  -0.00000  -0.00000  -0.00000
  35        3PZ        -0.00000  -0.00535  -0.00011   0.01195  -0.00012
                          11        12        13        14        15
                           V         V         V         V         V
     Eigenvalues --     0.80158   0.81424   0.82743   0.87192   0.99337
   1 1   N  1S          0.00004  -0.00000   0.02291   0.08459  -0.00000
   2        2S         -0.00049   0.00000  -0.15828   0.00848  -0.00001
   3        2PX        -0.20258  -0.00000  -0.36425   0.08958  -0.43011
   4        2PY         0.00000  -1.00258  -0.00000  -0.00000  -0.00000
   5        2PZ        -0.35318   0.00000   0.21062  -0.05180  -0.74431
   6        3S          0.00041   0.00000   0.08093  -0.41485   0.00005
   7        3PX         0.67482   0.00000   0.67502  -0.12619   0.76993
   8        3PY        -0.00000   1.04558   0.00000   0.00000   0.00000
   9        3PZ         1.18002  -0.00000  -0.39064   0.07321   1.33219
  10        4XX         0.12350  -0.00000   0.00650   0.21140  -0.18201
  11        4YY        -0.00011   0.00000  -0.05354  -0.14312   0.00001
  12        4ZZ        -0.12355  -0.00000   0.02568   0.22452   0.18199
  13        4XY         0.00000  -0.00001   0.00000   0.00000   0.00000
  14        4XZ         0.08136   0.00000   0.01905   0.01308  -0.12130
  15        4YZ         0.00000   0.00000   0.00000   0.00000   0.00000
  16 2   H  1S         -0.64028  -0.00000   0.23948   0.65793   0.42758
  17        2S         -0.13322   0.00000   0.00839  -0.37465  -1.38842
  18        3PX         0.04174   0.00000   0.02258   0.00109  -0.01886
  19        3PY         0.00000  -0.01755  -0.00000  -0.00000   0.00000
  20        3PZ         0.01386  -0.00000  -0.00233   0.10035   0.15902
  21 3   H  1S          0.00362  -0.00000  -0.09633   0.63549  -0.00001
  22        2S          0.00104  -0.00000  -0.12675  -0.27628  -0.00038
  23        3PX         0.04211  -0.00000   0.05703   0.06483  -0.01883
  24        3PY        -0.00000  -0.01752  -0.00000  -0.00000  -0.00000
  25        3PZ         0.07279   0.00000  -0.03296  -0.03747  -0.03265
  26 4   H  1S          0.63719   0.00000   0.23891   0.65806  -0.42764
  27        2S          0.13216  -0.00000   0.00816  -0.37440   1.38879
  28        3PX        -0.00923   0.00000   0.01332  -0.08633   0.14721
  29        3PY         0.00000  -0.01755  -0.00000  -0.00000   0.00000
  30        3PZ         0.04361  -0.00000  -0.01845  -0.05109   0.06317
  31 5   H  1S          0.00338  -0.00000   1.03249  -0.21999  -0.00009
  32        2S         -0.00315   0.00000  -0.95926   0.23306   0.00012
  33        3PX         0.00037  -0.00000  -0.00114   0.01047   0.00032
  34        3PY         0.00000   0.00063  -0.00000  -0.00000  -0.00000
  35        3PZ         0.00066  -0.00000   0.00065  -0.00604   0.00053
                          16        17        18        19        20
                           V         V         V         V         V
     Eigenvalues --     1.02582   1.20228   1.57266   1.57272   2.03202
   1 1   N  1S         -0.00626  -0.04497  -0.00000   0.00000  -0.00000
   2        2S         -0.25885  -1.64110   0.00000   0.00000   0.00000
   3        2PX         0.69201  -0.08613   0.00000  -0.00000   0.00031
   4        2PY        -0.00000   0.00000  -0.00000   0.00017  -0.00000
   5        2PZ        -0.39980   0.04978   0.00000  -0.00000   0.00053
   6        3S          0.55454   4.08703  -0.00000  -0.00000  -0.00001
   7        3PX        -1.33574   0.22230  -0.00000   0.00000   0.00208
   8        3PY         0.00000  -0.00000  -0.00000   0.00009   0.00000
   9        3PZ         0.77160  -0.12851  -0.00000   0.00000   0.00360
  10        4XX        -0.15787  -0.26780  -0.00000   0.00000  -0.00316
  11        4YY        -0.03552  -0.21682  -0.00000   0.00000  -0.00000
  12        4ZZ         0.04702  -0.29587   0.00000  -0.00000   0.00316
  13        4XY         0.00000   0.00000   0.35191   0.59486   0.00000
  14        4XZ         0.20491  -0.02806  -0.00000   0.00000  -0.00211
  15        4YZ        -0.00000  -0.00000   0.59465  -0.35201  -0.00000
  16 2   H  1S          0.22024  -0.01979  -0.00000   0.00000  -0.00394
  17        2S         -0.93443  -0.81182   0.00000  -0.00000   0.00003
  18        3PX         0.02956  -0.00118  -0.00000   0.00000  -0.00201
  19        3PY        -0.00000   0.00000   0.33687  -0.19933   0.00000
  20        3PZ         0.09130   0.04124  -0.00000   0.00000  -0.00090
  21 3   H  1S         -0.52235   0.09419  -0.00000  -0.00000  -0.00001
  22        2S          1.63578  -1.31346  -0.00000   0.00000   0.00001
  23        3PX        -0.14912   0.06580  -0.00000   0.00000  -0.00130
  24        3PY        -0.00000  -0.00000   0.00415   0.39113  -0.00000
  25        3PZ         0.08612  -0.03799  -0.00000   0.00000  -0.00225
  26 4   H  1S          0.21991  -0.01982   0.00000  -0.00000   0.00394
  27        2S         -0.93392  -0.81194  -0.00000   0.00000  -0.00003
  28        3PX        -0.06423  -0.03634   0.00000  -0.00000   0.00023
  29        3PY         0.00000  -0.00000  -0.34100  -0.19213   0.00000
  30        3PZ        -0.07121  -0.01958  -0.00000   0.00000  -0.00219
  31 5   H  1S          0.35787  -0.23682  -0.00000  -0.00000   0.00000
  32        2S         -0.47487   0.34389   0.00000   0.00000  -0.00000
  33        3PX        -0.05959   0.06808   0.00000   0.00000   0.50012
  34        3PY        -0.00000   0.00000   0.00000   0.00007  -0.00000
  35        3PZ         0.03441  -0.03932   0.00000   0.00000   0.86593
                          21        22        23        24        25
                           V         V         V         V         V
     Eigenvalues --     2.03213   2.06494   2.12449   2.17740   2.17899
   1 1   N  1S         -0.00000  -0.00642  -0.00000   0.00005   0.00253
   2        2S          0.00000   0.16931   0.00001  -0.00075  -0.01394
   3        2PX         0.00000   0.09107  -0.00017  -0.07051  -0.12721
   4        2PY         0.00081  -0.00000   0.00000  -0.00000   0.00000
   5        2PZ         0.00000  -0.05260  -0.00003  -0.11294   0.07810
   6        3S         -0.00000  -0.32868  -0.00003   0.00123   0.01723
   7        3PX         0.00000  -0.12350   0.00001   0.55485   0.92229
   8        3PY        -0.00070  -0.00000   0.00000  -0.00000  -0.00000
   9        3PZ         0.00000   0.07132  -0.00048   0.89485  -0.56963
  10        4XX        -0.00000   0.02829  -0.00013  -0.45863   0.27291
  11        4YY        -0.00000  -0.07191  -0.00001   0.00066   0.04129
  12        4ZZ         0.00000  -0.00185   0.00014   0.45826  -0.29460
  13        4XY        -0.00016  -0.00000   0.00000  -0.00000  -0.00000
  14        4XZ        -0.00000  -0.03015  -0.00029  -0.32729  -0.52998
  15        4YZ         0.00009   0.00000   0.00000  -0.00000   0.00000
  16 2   H  1S         -0.00000   0.03314   0.00018  -0.61508   0.38965
  17        2S         -0.00000  -0.02396   0.00010  -0.18128   0.11940
  18        3PX        -0.00000  -0.05992   0.58295  -0.24430  -0.38965
  19        3PY        -0.00053  -0.00000  -0.00000   0.00000   0.00000
  20        3PZ        -0.00000  -0.00632   0.00018  -0.19876   0.12962
  21 3   H  1S          0.00000  -0.18633  -0.00023  -0.02126  -0.69158
  22        2S          0.00000   0.42979   0.00006  -0.00854  -0.28077
  23        3PX        -0.00000   0.00622  -0.29144  -0.23881  -0.19418
  24        3PY        -0.00039   0.00000  -0.00000   0.00000   0.00000
  25        3PZ        -0.00000  -0.00352  -0.50430  -0.39896   0.12870
  26 4   H  1S          0.00000   0.03314   0.00004   0.63720   0.35160
  27        2S         -0.00000  -0.02397  -0.00013   0.18810   0.10808
  28        3PX         0.00000  -0.02443  -0.29141  -0.06837  -0.30331
  29        3PY        -0.00053  -0.00000  -0.00000   0.00000   0.00000
  30        3PZ        -0.00000   0.05496   0.50507  -0.29370   0.29077
  31 5   H  1S          0.00000   0.05789   0.00000  -0.00080  -0.02599
  32        2S         -0.00000  -0.09766  -0.00001   0.00139   0.04526
  33        3PX         0.00000   0.85587   0.00048  -0.00565  -0.07897
  34        3PY         1.00000  -0.00000  -0.00000   0.00000   0.00000
  35        3PZ         0.00000  -0.49431   0.00067  -0.00417   0.04583
                          26        27        28        29        30
                           V         V         V         V         V
     Eigenvalues --     2.23039   2.46381   2.78323   2.78336   2.96983
   1 1   N  1S         -0.05302  -0.00000   0.00000   0.00000   0.00000
   2        2S         -0.43737   0.00000  -0.00000  -0.00000  -0.00009
   3        2PX        -0.01415   0.00000  -0.00000  -0.00000  -0.19987
   4        2PY         0.00000  -0.12030  -0.00001   0.00024  -0.00000
   5        2PZ         0.00827   0.00000  -0.00000  -0.00000  -0.34870
   6        3S          1.22278   0.00000   0.00000   0.00000   0.00028
   7        3PX         0.04982  -0.00000  -0.00000  -0.00000  -0.33860
   8        3PY        -0.00000  -0.41999  -0.00001   0.00009  -0.00000
   9        3PZ        -0.02946  -0.00000  -0.00000  -0.00000  -0.59115
  10        4XX         0.36654   0.00000  -0.00000   0.00000  -0.33211
  11        4YY        -1.09344   0.00000   0.00000   0.00000  -0.00005
  12        4ZZ         0.34729  -0.00000   0.00000   0.00000   0.33233
  13        4XY         0.00000   0.00034   0.43558  -0.75970   0.00000
  14        4XZ        -0.01851   0.00000  -0.00000  -0.00000  -0.21964
  15        4YZ        -0.00000  -0.00023   0.76005   0.43539  -0.00000
  16 2   H  1S         -0.39474   0.00000   0.00000   0.00000   0.06945
  17        2S         -0.07464   0.00000   0.00000   0.00000   0.51886
  18        3PX        -0.00865   0.00000   0.00000   0.00000   0.38519
  19        3PY         0.00000   0.63683  -0.71496  -0.40968   0.00000
  20        3PZ        -0.15524   0.00000  -0.00000  -0.00000  -0.46590
  21 3   H  1S         -0.41445   0.00000   0.00000  -0.00000  -0.00027
  22        2S         -0.14202  -0.00000  -0.00000  -0.00000  -0.00234
  23        3PX        -0.14845   0.00000   0.00000  -0.00000   0.38923
  24        3PY        -0.00000   0.63681   0.00276   0.82379  -0.00000
  25        3PZ         0.08604  -0.00000   0.00000   0.00000   0.67024
  26 4   H  1S         -0.39545  -0.00000  -0.00000  -0.00000  -0.06933
  27        2S         -0.07485  -0.00000  -0.00000  -0.00000  -0.51683
  28        3PX         0.13024   0.00000  -0.00000   0.00000  -0.59683
  29        3PY         0.00000   0.63680   0.71225  -0.41443  -0.00000
  30        3PZ         0.08541   0.00000   0.00000   0.00000   0.10550
  31 5   H  1S         -0.02837   0.00000  -0.00000  -0.00000  -0.00012
  32        2S          0.04386  -0.00000   0.00000   0.00000   0.00030
  33        3PX        -0.04518  -0.00000  -0.00000   0.00000   0.00000
  34        3PY         0.00000   0.00087  -0.00000  -0.00016  -0.00000
  35        3PZ         0.02610   0.00000  -0.00000   0.00000   0.00048
                          31        32        33        34        35
                           V         V         V         V         V
     Eigenvalues --     2.98342   3.43304   3.58999   3.59762   4.13221
   1 1   N  1S          0.00719  -0.24362   0.00003   0.00981  -0.41222
   2        2S         -0.05559   0.88178  -0.00008  -0.02339   0.77738
   3        2PX         0.32684  -0.04086  -0.44804  -0.77697   0.00911
   4        2PY        -0.00000   0.00000   0.00000  -0.00000   0.00000
   5        2PZ        -0.18728   0.02352  -0.77913   0.44675  -0.00532
   6        3S          0.01705   2.34133  -0.00008  -0.15558   2.25723
   7        3PX         0.63444   0.02248  -0.35591  -0.66113   0.04274
   8        3PY        -0.00000   0.00000  -0.00000  -0.00000  -0.00000
   9        3PZ        -0.36378  -0.01290  -0.61902   0.38021  -0.02478
  10        4XX        -0.18043  -0.14306   1.04619  -0.61423  -1.93603
  11        4YY         0.02709  -1.14809   0.00006   0.05572  -1.02777
  12        4ZZ         0.21087  -0.07347  -1.04590   0.58344  -1.95195
  13        4XY        -0.00000  -0.00000   0.00000  -0.00000  -0.00000
  14        4XZ         0.39456   0.06995   0.69390   1.20364  -0.01577
  15        4YZ         0.00000   0.00000   0.00000   0.00000   0.00000
  16 2   H  1S          0.03693  -0.47234   0.89821  -0.48316   0.64395
  17        2S          0.31669  -0.47755   0.39748  -0.21634  -0.32018
  18        3PX        -0.68025  -0.03773  -0.19485  -0.32609  -0.00311
  19        3PY         0.00000  -0.00000   0.00000  -0.00000  -0.00000
  20        3PZ        -0.27321   0.72986  -0.96282   0.51163  -0.64859
  21 3   H  1S         -0.05250  -0.38465  -0.00197   1.06190   0.62572
  22        2S         -0.68111  -0.55334  -0.00094   0.55821  -0.40317
  23        3PX         0.44033   0.57561  -0.19377  -1.01090  -0.53376
  24        3PY         0.00000   0.00000  -0.00000   0.00000   0.00000
  25        3PZ        -0.25738  -0.33262  -0.33979   0.58306   0.30828
  26 4   H  1S          0.03735  -0.47244  -0.89636  -0.48656   0.64381
  27        2S          0.32011  -0.47748  -0.39656  -0.21790  -0.32026
  28        3PX        -0.09947  -0.65104  -0.73419  -0.60892   0.56012
  29        3PY        -0.00000  -0.00000   0.00000   0.00000  -0.00000
  30        3PZ         0.72507  -0.33228  -0.65009   0.02429   0.32679
  31 5   H  1S         -0.03574  -0.03112  -0.00003   0.02129  -0.02794
  32        2S          0.08607   0.07446   0.00010  -0.05977   0.06064
  33        3PX        -0.05941  -0.03944   0.00018   0.03448  -0.02083
  34        3PY         0.00000  -0.00000  -0.00000  -0.00000  -0.00000
  35        3PZ         0.03431   0.02278   0.00045  -0.01991   0.01203
     Beta Molecular Orbital Coefficients:
                           1         2         3         4         5
                           O         O         O         O         O
     Eigenvalues --   -14.40188  -0.91610  -0.54995  -0.54978  -0.30009
   1 1   N  1S          0.99290  -0.20526   0.00001  -0.00010   0.00000
   2        2S          0.03376   0.41946  -0.00000   0.00005   0.00000
   3        2PX        -0.00001  -0.00042   0.20468   0.42809   0.00000
   4        2PY        -0.00000   0.00000   0.00000  -0.00000   0.59575
   5        2PZ         0.00001   0.00026   0.42834  -0.20454  -0.00000
   6        3S          0.00364   0.42445  -0.00002   0.00051  -0.00000
   7        3PX         0.00002   0.00028   0.10308   0.21609   0.00000
   8        3PY         0.00000   0.00000  -0.00000  -0.00000   0.53505
   9        3PZ        -0.00001  -0.00013   0.21577  -0.10327  -0.00000
  10        4XX        -0.00765  -0.00118  -0.01181   0.00555   0.00000
  11        4YY        -0.00784  -0.01750  -0.00000  -0.00001   0.00000
  12        4ZZ        -0.00764  -0.00114   0.01183  -0.00564   0.00000
  13        4XY         0.00000  -0.00000  -0.00000   0.00000  -0.00007
  14        4XZ         0.00000   0.00001  -0.00653  -0.01357   0.00000
  15        4YZ        -0.00000   0.00000   0.00000  -0.00000   0.00005
  16 2   H  1S          0.00021   0.14419   0.25969  -0.12392   0.00000
  17        2S         -0.00041   0.02336   0.15269  -0.07277   0.00000
  18        3PX        -0.00000  -0.00002   0.00493   0.01028   0.00000
  19        3PY         0.00000  -0.00000  -0.00000   0.00000   0.01972
  20        3PZ         0.00008  -0.01705  -0.01026   0.00489  -0.00000
  21 3   H  1S          0.00022   0.14389  -0.02245   0.28704   0.00000
  22        2S         -0.00045   0.02251  -0.01318   0.16864  -0.00000
  23        3PX         0.00007  -0.01471   0.00646  -0.00939   0.00000
  24        3PY        -0.00000   0.00000   0.00000  -0.00000   0.01970
  25        3PZ        -0.00004   0.00848   0.00940   0.00642  -0.00000
  26 4   H  1S          0.00022   0.14420  -0.23733  -0.16277  -0.00000
  27        2S         -0.00041   0.02337  -0.13953  -0.09561   0.00000
  28        3PX        -0.00007   0.01477  -0.01137  -0.00087  -0.00000
  29        3PY         0.00000  -0.00000  -0.00000   0.00000   0.01972
  30        3PZ        -0.00004   0.00853   0.00093  -0.01132   0.00000
  31 5   H  1S         -0.00001  -0.00053  -0.00001   0.00010  -0.00000
  32        2S          0.00004   0.00160  -0.00009   0.00112  -0.00000
  33        3PX        -0.00001  -0.00007   0.00001   0.00003  -0.00000
  34        3PY         0.00000   0.00000   0.00000   0.00000   0.00006
  35        3PZ         0.00001   0.00004   0.00002  -0.00001  -0.00000
                           6         7         8         9        10
                           V         V         V         V         V
     Eigenvalues --     0.17903   0.26668   0.27366   0.55116   0.80150
   1 1   N  1S         -0.14075  -0.00886   0.00002  -0.02324   0.00007
   2        2S          0.21099   0.01390  -0.00002   0.13113  -0.00078
   3        2PX         0.00806  -0.32312   0.19440   0.17666  -0.22519
   4        2PY        -0.00000   0.00000   0.00000   0.00000  -0.00000
   5        2PZ        -0.00461   0.18703   0.33591  -0.10202  -0.33969
   6        3S          1.83621   0.12301  -0.00023   0.12144   0.00085
   7        3PX         0.00956  -0.90734   0.55736   0.25253   0.74908
   8        3PY         0.00000  -0.00000  -0.00000  -0.00000   0.00000
   9        3PZ        -0.00546   0.52519   0.96304  -0.14582   1.13508
  10        4XX        -0.03545   0.00143   0.00720  -0.01164   0.11873
  11        4YY        -0.03502  -0.00231   0.00000   0.02462  -0.00024
  12        4ZZ        -0.03497  -0.00635  -0.00719   0.02485  -0.11874
  13        4XY        -0.00000  -0.00000   0.00000  -0.00000   0.00000
  14        4XZ         0.00048  -0.00778   0.00481   0.03653   0.08999
  15        4YZ        -0.00000   0.00000   0.00000  -0.00000   0.00000
  16 2   H  1S         -0.07585  -0.04447  -0.07607   0.02362  -0.61559
  17        2S         -0.89123  -0.87214  -1.48539   0.13435  -0.12854
  18        3PX         0.00032  -0.00921   0.00562   0.01438   0.04622
  19        3PY         0.00000   0.00000   0.00000   0.00000   0.00000
  20        3PZ        -0.01089  -0.00351  -0.00467   0.00437   0.01339
  21 3   H  1S         -0.07591   0.07400  -0.00009  -0.16536  -0.04253
  22        2S         -0.91857   1.55586  -0.00139  -0.61467  -0.00959
  23        3PX        -0.01064   0.00494   0.00561  -0.02831   0.04313
  24        3PY        -0.00000  -0.00000  -0.00000   0.00000  -0.00000
  25        3PZ         0.00614  -0.00283   0.00971   0.01635   0.07213
  26 4   H  1S         -0.07585  -0.04435   0.07614   0.02365   0.65944
  27        2S         -0.89103  -0.86936   1.48716   0.13433   0.13739
  28        3PX         0.00959  -0.00158  -0.00686   0.00340  -0.00639
  29        3PY         0.00000   0.00000  -0.00000  -0.00000  -0.00000
  30        3PZ         0.00516   0.00972   0.00252  -0.01463   0.03984
  31 5   H  1S         -0.00049   0.00397  -0.00000   0.03997  -0.00107
  32        2S         -0.07554   0.16946  -0.00015   0.95667  -0.00206
  33        3PX         0.00372  -0.00769   0.00004  -0.02030   0.00018
  34        3PY        -0.00000  -0.00000   0.00000   0.00000   0.00000
  35        3PZ        -0.00215   0.00444   0.00006   0.01172   0.00029
                          11        12        13        14        15
                           V         V         V         V         V
     Eigenvalues --     0.80215   0.81430   0.87093   0.99346   1.02651
   1 1   N  1S          0.00141  -0.00000   0.08711  -0.00000  -0.00777
   2        2S         -0.01221  -0.00000  -0.01498  -0.00001  -0.24230
   3        2PX        -0.35653  -0.00000   0.04663  -0.43007   0.71616
   4        2PY         0.00000  -1.00267  -0.00000  -0.00000   0.00000
   5        2PZ         0.23383   0.00000  -0.02699  -0.74423  -0.41374
   6        3S          0.01078   0.00000  -0.39939   0.00005   0.55282
   7        3PX         1.14749   0.00000  -0.06405   0.76956  -1.35983
   8        3PY        -0.00000   1.04549   0.00000   0.00000  -0.00000
   9        3PZ        -0.75577  -0.00000   0.03730   1.33155   0.78550
  10        4XX        -0.07546  -0.00000   0.21311  -0.18203  -0.15778
  11        4YY        -0.00413   0.00000  -0.14928   0.00001  -0.03316
  12        4ZZ         0.07640  -0.00000   0.22351   0.18200   0.04815
  13        4XY         0.00000   0.00007   0.00000  -0.00000  -0.00000
  14        4XZ         0.13263   0.00000   0.01035  -0.12132   0.20596
  15        4YZ        -0.00000  -0.00004  -0.00000   0.00000   0.00000
  16 2   H  1S          0.40880   0.00000   0.67242   0.42786   0.21746
  17        2S          0.08483   0.00000  -0.36951  -1.38818  -0.93678
  18        3PX         0.06912   0.00000   0.00190  -0.01889   0.02880
  19        3PY         0.00000  -0.01757  -0.00000   0.00000   0.00000
  20        3PZ        -0.00921  -0.00000   0.09915   0.15904   0.09209
  21 3   H  1S         -0.71701  -0.00000   0.64280  -0.00002  -0.52509
  22        2S         -0.16540  -0.00000  -0.29131  -0.00037   1.61688
  23        3PX         0.01616  -0.00000   0.07204  -0.01884  -0.14977
  24        3PY         0.00000  -0.01746   0.00000  -0.00000  -0.00000
  25        3PZ        -0.01502  -0.00000  -0.04163  -0.03266   0.08650
  26 4   H  1S          0.33337   0.00000   0.67255  -0.42791   0.21713
  27        2S          0.06872  -0.00000  -0.36927   1.38854  -0.93628
  28        3PX         0.04359   0.00000  -0.08489   0.14724  -0.06530
  29        3PY         0.00000  -0.01757  -0.00000   0.00000  -0.00000
  30        3PZ        -0.06042  -0.00000  -0.05120   0.06315  -0.07095
  31 5   H  1S         -0.01806  -0.00000   0.00661   0.00001  -0.06877
  32        2S         -0.03401  -0.00000   0.05833   0.00005  -0.21411
  33        3PX         0.00017  -0.00000   0.00197   0.00013  -0.01135
  34        3PY         0.00000   0.00027   0.00000  -0.00000  -0.00000
  35        3PZ        -0.00012  -0.00000  -0.00114   0.00022   0.00656
                          16        17        18        19        20
                           V         V         V         V         V
     Eigenvalues --     1.19999   1.57271   1.57274   1.70160   2.12431
   1 1   N  1S         -0.04348   0.00000  -0.00000   0.00641  -0.00000
   2        2S         -1.63953   0.00000  -0.00000   0.22079  -0.00000
   3        2PX        -0.09360   0.00000  -0.00000   0.06366  -0.00036
   4        2PY         0.00000  -0.00000   0.00030   0.00000   0.00000
   5        2PZ         0.05410   0.00000  -0.00000  -0.03677  -0.00033
   6        3S          4.05100  -0.00000   0.00000  -0.65118   0.00000
   7        3PX         0.21588  -0.00000   0.00000  -0.24185   0.00144
   8        3PY        -0.00000  -0.00001  -0.00010  -0.00000  -0.00000
   9        3PZ        -0.12480  -0.00000   0.00000   0.13968   0.00198
  10        4XX        -0.26662  -0.00000  -0.00000   0.02554  -0.00103
  11        4YY        -0.21732   0.00000  -0.00000  -0.01827  -0.00000
  12        4ZZ        -0.29331   0.00000  -0.00000   0.03958   0.00103
  13        4XY         0.00000   0.35509   0.59277   0.00000  -0.00000
  14        4XZ        -0.02668   0.00000   0.00000   0.01405  -0.00088
  15        4YZ        -0.00000   0.59273  -0.35510  -0.00000   0.00000
  16 2   H  1S         -0.01685  -0.00000   0.00000   0.02260  -0.00130
  17        2S         -0.81332   0.00000  -0.00000  -0.00825  -0.00054
  18        3PX        -0.00065   0.00000  -0.00000  -0.01611   0.58225
  19        3PY         0.00000   0.33581  -0.20113  -0.00000  -0.00000
  20        3PZ         0.04133  -0.00000  -0.00000  -0.00325  -0.00027
  21 3   H  1S          0.09130   0.00000  -0.00000  -0.11696  -0.00022
  22        2S         -1.26132   0.00000  -0.00000   0.68150   0.00003
  23        3PX         0.06276  -0.00000   0.00000  -0.02842  -0.29215
  24        3PY        -0.00000   0.00626   0.39143   0.00000   0.00000
  25        3PZ        -0.03623  -0.00000   0.00000   0.01642  -0.50552
  26 4   H  1S         -0.01688   0.00000  -0.00000   0.02260   0.00151
  27        2S         -0.81344  -0.00000   0.00000  -0.00825   0.00051
  28        3PX        -0.03615   0.00000  -0.00000  -0.00523  -0.29145
  29        3PY         0.00000  -0.34206  -0.19028  -0.00000  -0.00000
  30        3PZ        -0.02009  -0.00000   0.00000   0.01557   0.50423
  31 5   H  1S          0.13085   0.00000  -0.00000   1.33542  -0.00000
  32        2S          0.11910  -0.00000   0.00000  -1.00564  -0.00000
  33        3PX         0.01270  -0.00000   0.00000  -0.05320  -0.00004
  34        3PY         0.00000   0.00000   0.00003  -0.00000  -0.00000
  35        3PZ        -0.00734  -0.00000   0.00000   0.03073  -0.00005
                          21        22        23        24        25
                           V         V         V         V         V
     Eigenvalues --     2.17737   2.17825   2.23049   2.46361   2.78304
   1 1   N  1S          0.00006   0.00155  -0.05343   0.00000   0.00000
   2        2S         -0.00059  -0.00486  -0.43247   0.00000  -0.00000
   3        2PX        -0.07333  -0.11817  -0.00978   0.00000   0.00000
   4        2PY        -0.00000   0.00000   0.00000  -0.12030   0.00033
   5        2PZ        -0.11116   0.07679   0.00575   0.00000  -0.00000
   6        3S          0.00105   0.00628   1.21764  -0.00000   0.00000
   7        3PX         0.57773   0.89879   0.04084   0.00000   0.00000
   8        3PY        -0.00000   0.00000  -0.00000  -0.42000   0.00044
   9        3PZ         0.88049  -0.58701  -0.02427  -0.00000  -0.00000
  10        4XX        -0.45122   0.28693   0.36468   0.00000   0.00000
  11        4YY         0.00109   0.03009  -1.09560   0.00000   0.00000
  12        4ZZ         0.45052  -0.30451   0.34849  -0.00000   0.00000
  13        4XY         0.00000   0.00000   0.00000  -0.00046  -0.75756
  14        4XZ        -0.34061  -0.52226  -0.01546  -0.00000   0.00000
  15        4YZ        -0.00000   0.00000  -0.00000   0.00023   0.43945
  16 2   H  1S         -0.60490   0.40454  -0.39626   0.00000   0.00000
  17        2S         -0.17848   0.12158  -0.07615   0.00000  -0.00000
  18        3PX        -0.25591  -0.38696  -0.00792  -0.00000  -0.00000
  19        3PY        -0.00000  -0.00000   0.00000   0.63649  -0.41395
  20        3PZ        -0.19544   0.13285  -0.15650   0.00000  -0.00000
  21 3   H  1S         -0.03958  -0.70361  -0.41436  -0.00000  -0.00000
  22        2S         -0.01435  -0.25658  -0.13324  -0.00000  -0.00000
  23        3PX        -0.24305  -0.18678  -0.14565   0.00000   0.00000
  24        3PY         0.00000  -0.00000  -0.00000   0.63748   0.82312
  25        3PZ        -0.39461   0.13803   0.08442  -0.00000  -0.00000
  26 4   H  1S          0.64583   0.33461  -0.39697   0.00000  -0.00000
  27        2S          0.19081   0.10084  -0.07635   0.00000   0.00000
  28        3PX        -0.07526  -0.30184   0.13169   0.00000   0.00000
  29        3PY         0.00000  -0.00000   0.00000   0.63646  -0.41123
  30        3PZ        -0.28729   0.30236   0.08541   0.00000   0.00000
  31 5   H  1S         -0.00284  -0.05019  -0.05782  -0.00000  -0.00000
  32        2S          0.00344   0.06107   0.06555   0.00000   0.00000
  33        3PX         0.00109   0.01041   0.01044   0.00000  -0.00000
  34        3PY         0.00000   0.00000  -0.00000  -0.00068   0.00044
  35        3PZ         0.00054  -0.00608  -0.00603   0.00000  -0.00000
                          26        27        28        29        30
                           V         V         V         V         V
     Eigenvalues --     2.78329   2.89502   2.95130   2.95139   2.96959
   1 1   N  1S          0.00000  -0.01771  -0.00000   0.00000   0.00001
   2        2S         -0.00000   0.13360   0.00000  -0.00000  -0.00008
   3        2PX         0.00000   0.23771   0.00476   0.00000  -0.20072
   4        2PY        -0.00001   0.00000  -0.00000   0.00031   0.00000
   5        2PZ         0.00000  -0.13749   0.00820   0.00000  -0.34793
   6        3S          0.00000  -0.03230  -0.00000  -0.00000   0.00024
   7        3PX         0.00000   0.19826   0.00559   0.00000  -0.34002
   8        3PY        -0.00001   0.00000   0.00000  -0.00096  -0.00000
   9        3PZ         0.00000  -0.11477   0.00965   0.00000  -0.58977
  10        4XX         0.00000  -0.11364   0.00624   0.00000  -0.33190
  11        4YY         0.00000  -0.06897  -0.00000   0.00000  -0.00004
  12        4ZZ         0.00000   0.04817  -0.00624  -0.00000   0.33211
  13        4XY         0.43956   0.00000  -0.00000   0.00032  -0.00000
  14        4XZ        -0.00000   0.16160   0.00417   0.00000  -0.22091
  15        4YZ         0.75778  -0.00000   0.00000  -0.00018   0.00000
  16 2   H  1S         -0.00000   0.02844  -0.00119  -0.00000   0.06899
  17        2S         -0.00000   0.10511  -0.00952  -0.00000   0.51781
  18        3PX         0.00000  -0.32153  -0.00725  -0.00000   0.38715
  19        3PY        -0.71279   0.00000  -0.00000   0.00069  -0.00000
  20        3PZ        -0.00000  -0.12346   0.01026   0.00000  -0.46490
  21 3   H  1S         -0.00000  -0.12008  -0.00001   0.00000  -0.00003
  22        2S         -0.00000  -0.11740  -0.00001   0.00000  -0.00063
  23        3PX        -0.00000   0.29740  -0.00726  -0.00000   0.38774
  24        3PY        -0.00156  -0.00000   0.00000   0.00012   0.00000
  25        3PZ         0.00000  -0.17149  -0.01262  -0.00000   0.67066
  26 4   H  1S          0.00000   0.02838   0.00120   0.00000  -0.06909
  27        2S          0.00000   0.10472   0.00953   0.00000  -0.51745
  28        3PX         0.00000  -0.05426   0.01250   0.00000  -0.59636
  29        3PY         0.71440   0.00000  -0.00000   0.00069   0.00000
  30        3PZ         0.00000   0.34028  -0.00110  -0.00000   0.10371
  31 5   H  1S          0.00000   0.05944  -0.00000   0.00000  -0.00010
  32        2S          0.00000  -0.01719   0.00000  -0.00000   0.00012
  33        3PX        -0.00000   0.73500   0.50005   0.00000   0.00932
  34        3PY        -0.00000   0.00000  -0.00000   1.00000   0.00000
  35        3PZ        -0.00000  -0.42454   0.86576   0.00000   0.01766
                          31        32        33        34        35
                           V         V         V         V         V
     Eigenvalues --     3.01197   3.43662   3.58997   3.59948   4.13333
   1 1   N  1S         -0.02148  -0.24123   0.00003   0.01162  -0.41288
   2        2S          0.14708   0.86788  -0.00008  -0.02739   0.77741
   3        2PX        -0.23937  -0.05474  -0.44831  -0.77456   0.01114
   4        2PY        -0.00000  -0.00000   0.00000  -0.00000   0.00000
   5        2PZ         0.13791   0.03153  -0.77907   0.44567  -0.00649
   6        3S         -0.00378   2.34306  -0.00008  -0.19240   2.27001
   7        3PX        -0.60921   0.02905  -0.35617  -0.67167   0.04994
   8        3PY        -0.00000  -0.00000  -0.00000  -0.00000  -0.00000
   9        3PZ         0.35118  -0.01670  -0.61905   0.38654  -0.02894
  10        4XX         0.14260  -0.14683   1.04600  -0.61948  -1.93427
  11        4YY        -0.08416  -1.14040   0.00007   0.06807  -1.03097
  12        4ZZ        -0.22312  -0.05356  -1.04570   0.57519  -1.95349
  13        4XY        -0.00000  -0.00000   0.00000  -0.00000  -0.00000
  14        4XZ        -0.36678   0.09366   0.69425   1.19980  -0.01907
  15        4YZ        -0.00000   0.00000   0.00000   0.00000   0.00000
  16 2   H  1S         -0.02837  -0.48246   0.89811  -0.47318   0.64398
  17        2S         -0.31021  -0.47335   0.39751  -0.21387  -0.31937
  18        3PX         0.60004  -0.05020  -0.19491  -0.32162  -0.00341
  19        3PY         0.00000  -0.00000   0.00000  -0.00000  -0.00000
  20        3PZ         0.24995   0.73676  -0.96273   0.49958  -0.64869
  21 3   H  1S         -0.01375  -0.36543  -0.00167   1.06743   0.62202
  22        2S          0.70204  -0.57193  -0.00080   0.58361  -0.41601
  23        3PX        -0.32978   0.56176  -0.19391  -1.02134  -0.52815
  24        3PY         0.00000   0.00000  -0.00000   0.00000   0.00000
  25        3PZ         0.19129  -0.32462  -0.33938   0.58923   0.30504
  26 4   H  1S         -0.02844  -0.48257  -0.89656  -0.47605   0.64385
  27        2S         -0.31106  -0.47329  -0.39672  -0.21519  -0.31945
  28        3PX         0.08248  -0.66326  -0.73447  -0.59581   0.56005
  29        3PY        -0.00000   0.00000   0.00000   0.00000  -0.00000
  30        3PZ        -0.64448  -0.32494  -0.65009   0.02682   0.32711
  31 5   H  1S          0.08735  -0.04664  -0.00004   0.03138  -0.03629
  32        2S         -0.12021   0.08882   0.00009  -0.07057   0.06936
  33        3PX         0.44570  -0.08939   0.00041   0.06823  -0.03129
  34        3PY         0.00000   0.00000  -0.00000  -0.00000   0.00000
  35        3PZ        -0.25737   0.05162   0.00092  -0.03940   0.01807
     Alpha Density Matrix:
                           1         2         3         4         5
   1 1   N  1S          1.02803
   2        2S         -0.05269   0.17734
   3        2PX        -0.00022   0.00039   0.22632
   4        2PY        -0.00000   0.00000   0.00000   0.35510
   5        2PZ         0.00012  -0.00022  -0.00051   0.00000   0.22576
   6        3S         -0.08389   0.17890   0.00175  -0.00000  -0.00099
   7        3PX        -0.00026   0.00054   0.11436   0.00000  -0.00049
   8        3PY         0.00000   0.00000  -0.00000   0.31875  -0.00000
   9        3PZ         0.00015  -0.00030  -0.00049  -0.00000   0.11379
  10        4XX        -0.00735  -0.00076  -0.00009   0.00000  -0.00615
  11        4YY        -0.00418  -0.00764  -0.00001   0.00000   0.00001
  12        4ZZ        -0.00735  -0.00076  -0.00003  -0.00000   0.00622
  13        4XY         0.00000  -0.00000   0.00000  -0.00001   0.00000
  14        4XZ         0.00001  -0.00002  -0.00711   0.00000  -0.00003
  15        4YZ        -0.00000   0.00000   0.00000   0.00001  -0.00000
  16 2   H  1S         -0.02931   0.06037  -0.00018   0.00000   0.13678
  17        2S         -0.00514   0.00966  -0.00025   0.00000   0.08050
  18        3PX        -0.00000   0.00000   0.00544  -0.00000  -0.00001
  19        3PY         0.00000  -0.00000   0.00000   0.01175   0.00000
  20        3PZ         0.00358  -0.00715  -0.00000  -0.00000  -0.00540
  21 3   H  1S         -0.02941   0.06054   0.11840  -0.00000  -0.06839
  22        2S         -0.00474   0.00882   0.06801  -0.00000  -0.03928
  23        3PX         0.00313  -0.00625  -0.00292   0.00000   0.00482
  24        3PY        -0.00000   0.00000  -0.00000   0.01172   0.00000
  25        3PZ        -0.00181   0.00360   0.00480  -0.00000   0.00263
  26 4   H  1S         -0.02932   0.06037  -0.11857  -0.00000  -0.06822
  27        2S         -0.00514   0.00967  -0.06985   0.00000  -0.04002
  28        3PX        -0.00311   0.00620  -0.00269  -0.00000  -0.00470
  29        3PY         0.00000  -0.00000   0.00000   0.01175   0.00000
  30        3PZ        -0.00179   0.00357  -0.00469   0.00000   0.00273
  31 5   H  1S          0.00262  -0.00473  -0.01019  -0.00000   0.00589
  32        2S          0.00344  -0.00594  -0.01515  -0.00000   0.00875
  33        3PX         0.00003  -0.00008  -0.00038  -0.00000   0.00023
  34        3PY        -0.00000   0.00000   0.00000   0.00007   0.00000
  35        3PZ        -0.00002   0.00005   0.00023  -0.00000  -0.00011
                           6         7         8         9        10
   6        3S          0.18247
   7        3PX         0.00159   0.05791
   8        3PY        -0.00000   0.00000   0.28612
   9        3PZ        -0.00091  -0.00044  -0.00000   0.05739
  10        4XX        -0.00055  -0.00005   0.00000  -0.00309   0.00023
  11        4YY        -0.00752  -0.00003   0.00000   0.00001   0.00008
  12        4ZZ        -0.00057  -0.00003  -0.00000   0.00314  -0.00011
  13        4XY        -0.00000   0.00000  -0.00001   0.00000  -0.00000
  14        4XZ        -0.00004  -0.00358   0.00000  -0.00001   0.00000
  15        4YZ         0.00000   0.00000   0.00001  -0.00000   0.00000
  16 2   H  1S          0.06076  -0.00012  -0.00000   0.06888  -0.00390
  17        2S          0.00947  -0.00021   0.00000   0.04058  -0.00221
  18        3PX         0.00003   0.00275  -0.00000  -0.00001  -0.00000
  19        3PY        -0.00000   0.00000   0.01055   0.00000   0.00000
  20        3PZ        -0.00724  -0.00001  -0.00000  -0.00272   0.00017
  21 3   H  1S          0.06188   0.05985  -0.00000  -0.03456   0.00165
  22        2S          0.00794   0.03389  -0.00000  -0.01957   0.00107
  23        3PX        -0.00643  -0.00151   0.00000   0.00245  -0.00011
  24        3PY         0.00000   0.00000   0.01052  -0.00000   0.00000
  25        3PZ         0.00371   0.00244  -0.00000   0.00131  -0.00008
  26 4   H  1S          0.06076  -0.05973   0.00000  -0.03432   0.00174
  27        2S          0.00947  -0.03526   0.00000  -0.02009   0.00110
  28        3PX         0.00629  -0.00135  -0.00000  -0.00237   0.00011
  29        3PY        -0.00000   0.00000   0.01055   0.00000   0.00000
  30        3PZ         0.00359  -0.00237   0.00000   0.00138  -0.00008
  31 5   H  1S         -0.01887  -0.00992   0.00000   0.00573   0.00031
  32        2S         -0.02755  -0.01496   0.00000   0.00864   0.00048
  33        3PX        -0.00005  -0.00018  -0.00000   0.00011  -0.00001
  34        3PY         0.00000   0.00000   0.00006   0.00000  -0.00000
  35        3PZ         0.00003   0.00011  -0.00000  -0.00005   0.00000
                          11        12        13        14        15
  11        4YY         0.00037
  12        4ZZ         0.00008   0.00023
  13        4XY         0.00000   0.00000   0.00000
  14        4XZ         0.00000  -0.00000  -0.00000   0.00022
  15        4YZ        -0.00000  -0.00000  -0.00000  -0.00000   0.00000
  16 2   H  1S         -0.00253   0.00360   0.00000  -0.00002   0.00000
  17        2S         -0.00040   0.00219   0.00000  -0.00001   0.00000
  18        3PX         0.00000  -0.00000   0.00000  -0.00017   0.00000
  19        3PY         0.00000   0.00000  -0.00000  -0.00000   0.00000
  20        3PZ         0.00030  -0.00013   0.00000   0.00000  -0.00000
  21 3   H  1S         -0.00253  -0.00206   0.00000  -0.00372   0.00000
  22        2S         -0.00035  -0.00109   0.00000  -0.00216   0.00000
  23        3PX         0.00026   0.00015   0.00000   0.00009  -0.00000
  24        3PY        -0.00000  -0.00000  -0.00000   0.00000   0.00000
  25        3PZ        -0.00015   0.00006   0.00000  -0.00015   0.00000
  26 4   H  1S         -0.00253  -0.00204  -0.00000   0.00374  -0.00000
  27        2S         -0.00040  -0.00112  -0.00000   0.00220  -0.00000
  28        3PX        -0.00026  -0.00015  -0.00000   0.00009   0.00000
  29        3PY         0.00000   0.00000  -0.00000  -0.00000   0.00000
  30        3PZ        -0.00015   0.00007  -0.00000   0.00015  -0.00000
  31 5   H  1S          0.00036   0.00034  -0.00000   0.00003   0.00000
  32        2S          0.00050   0.00051  -0.00000   0.00003   0.00000
  33        3PX         0.00000   0.00001  -0.00000   0.00001  -0.00000
  34        3PY        -0.00000   0.00000  -0.00000  -0.00000   0.00000
  35        3PZ        -0.00000  -0.00000   0.00000  -0.00001   0.00000
                          16        17        18        19        20
  16 2   H  1S          0.10364
  17        2S          0.05212   0.02925
  18        3PX        -0.00001  -0.00001   0.00013
  19        3PY         0.00000   0.00000   0.00000   0.00039
  20        3PZ        -0.00573  -0.00232   0.00000  -0.00000   0.00042
  21 3   H  1S         -0.02067  -0.02105   0.00284  -0.00000  -0.00082
  22        2S         -0.02076  -0.01345   0.00164  -0.00000   0.00058
  23        3PX         0.00077   0.00138  -0.00007   0.00000   0.00014
  24        3PY         0.00000   0.00000  -0.00000   0.00039  -0.00000
  25        3PZ         0.00283   0.00114   0.00012  -0.00000  -0.00021
  26 4   H  1S         -0.02063  -0.02094  -0.00285  -0.00000  -0.00082
  27        2S         -0.02093  -0.01370  -0.00168   0.00000   0.00057
  28        3PX        -0.00072  -0.00133  -0.00007  -0.00000  -0.00014
  29        3PY         0.00000   0.00000   0.00000   0.00039  -0.00000
  30        3PZ         0.00288   0.00117  -0.00011   0.00000  -0.00021
  31 5   H  1S          0.00212   0.00274  -0.00023  -0.00000   0.00004
  32        2S          0.00353   0.00418  -0.00034  -0.00000   0.00001
  33        3PX         0.00011   0.00008  -0.00001  -0.00000  -0.00000
  34        3PY         0.00000   0.00000   0.00000   0.00000  -0.00000
  35        3PZ        -0.00005  -0.00003   0.00001  -0.00000   0.00000
                          21        22        23        24        25
  21 3   H  1S          0.10332
  22        2S          0.05105   0.02992
  23        3PX        -0.00509  -0.00193   0.00036
  24        3PY         0.00000  -0.00000  -0.00000   0.00039
  25        3PZ         0.00293   0.00111  -0.00013   0.00000   0.00021
  26 4   H  1S         -0.02066  -0.02076  -0.00207   0.00000  -0.00208
  27        2S         -0.02105  -0.01344  -0.00030   0.00000  -0.00175
  28        3PX         0.00213   0.00031  -0.00029   0.00000   0.00001
  29        3PY         0.00000  -0.00000   0.00000   0.00039   0.00000
  30        3PZ        -0.00205  -0.00171  -0.00001   0.00000   0.00001
  31 5   H  1S         -0.00240   0.01616   0.00119   0.00000  -0.00068
  32        2S         -0.00292   0.02496   0.00176   0.00000  -0.00101
  33        3PX        -0.00031  -0.00021   0.00001  -0.00000  -0.00001
  34        3PY         0.00000   0.00000   0.00000   0.00000   0.00000
  35        3PZ         0.00018   0.00012  -0.00001  -0.00000   0.00000
                          26        27        28        29        30
  26 4   H  1S          0.10367
  27        2S          0.05213   0.02925
  28        3PX         0.00497   0.00201   0.00035
  29        3PY        -0.00000  -0.00000  -0.00000   0.00039
  30        3PZ         0.00286   0.00116   0.00013  -0.00000   0.00020
  31 5   H  1S          0.00212   0.00274  -0.00015  -0.00000   0.00018
  32        2S          0.00353   0.00418  -0.00018  -0.00000   0.00029
  33        3PX         0.00010   0.00007  -0.00000  -0.00000   0.00001
  34        3PY        -0.00000  -0.00000  -0.00000   0.00000  -0.00000
  35        3PZ        -0.00007  -0.00005   0.00000  -0.00000  -0.00001
                          31        32        33        34        35
  31 5   H  1S          0.18509
  32        2S          0.28309   0.43299
  33        3PX        -0.00040  -0.00061   0.00000
  34        3PY        -0.00000  -0.00000  -0.00000   0.00000
  35        3PZ         0.00023   0.00035  -0.00000   0.00000   0.00000
     Beta Density Matrix:
                           1         2         3         4         5
   1 1   N  1S          1.02797
   2        2S         -0.05258   0.17708
   3        2PX         0.00003  -0.00015   0.22516
   4        2PY        -0.00000   0.00000  -0.00000   0.35492
   5        2PZ        -0.00002   0.00010   0.00011   0.00000   0.22531
   6        3S         -0.08351   0.17816   0.00003  -0.00000  -0.00000
   7        3PX        -0.00006   0.00013   0.11361   0.00000  -0.00005
   8        3PY         0.00000   0.00000  -0.00000   0.31876  -0.00000
   9        3PZ         0.00003  -0.00006  -0.00005  -0.00000   0.11355
  10        4XX        -0.00735  -0.00075  -0.00004   0.00000  -0.00619
  11        4YY        -0.00419  -0.00761   0.00000   0.00000  -0.00000
  12        4ZZ        -0.00736  -0.00074   0.00001   0.00000   0.00622
  13        4XY         0.00000  -0.00000   0.00000  -0.00004  -0.00000
  14        4XZ         0.00000   0.00000  -0.00714   0.00000  -0.00002
  15        4YZ        -0.00000   0.00000  -0.00000   0.00003   0.00000
  16 2   H  1S         -0.02937   0.06048   0.00004   0.00000   0.13662
  17        2S         -0.00519   0.00978   0.00009   0.00000   0.08029
  18        3PX         0.00000  -0.00001   0.00541   0.00000   0.00001
  19        3PY         0.00000  -0.00000   0.00000   0.01175  -0.00000
  20        3PZ         0.00358  -0.00715  -0.00000  -0.00000  -0.00540
  21 3   H  1S         -0.02934   0.06038   0.11822  -0.00000  -0.06829
  22        2S         -0.00508   0.00943   0.06949  -0.00000  -0.04013
  23        3PX         0.00309  -0.00617  -0.00269   0.00000   0.00469
  24        3PY        -0.00000   0.00000  -0.00000   0.01174   0.00000
  25        3PZ        -0.00178   0.00356   0.00467  -0.00000   0.00271
  26 4   H  1S         -0.02937   0.06049  -0.11832  -0.00000  -0.06833
  27        2S         -0.00519   0.00978  -0.06950   0.00000  -0.04021
  28        3PX        -0.00311   0.00619  -0.00271  -0.00000  -0.00469
  29        3PY         0.00000  -0.00000   0.00000   0.01175  -0.00000
  30        3PZ        -0.00179   0.00358  -0.00466   0.00000   0.00272
  31 5   H  1S          0.00010  -0.00022   0.00004  -0.00000  -0.00002
  32        2S         -0.00029   0.00067   0.00046  -0.00000  -0.00027
  33        3PX         0.00000  -0.00003   0.00001  -0.00000  -0.00000
  34        3PY        -0.00000   0.00000   0.00000   0.00004   0.00000
  35        3PZ        -0.00000   0.00002  -0.00000  -0.00000   0.00001
                           6         7         8         9        10
   6        3S          0.18017
   7        3PX         0.00022   0.05732
   8        3PY        -0.00000   0.00000   0.28628
   9        3PZ        -0.00011  -0.00008  -0.00000   0.05722
  10        4XX        -0.00052  -0.00002   0.00000  -0.00312   0.00023
  11        4YY        -0.00746  -0.00001   0.00000   0.00000   0.00008
  12        4ZZ        -0.00051  -0.00000   0.00000   0.00314  -0.00011
  13        4XY        -0.00000   0.00000  -0.00004  -0.00000   0.00000
  14        4XZ        -0.00000  -0.00360   0.00000  -0.00001   0.00000
  15        4YZ         0.00000  -0.00000   0.00002   0.00000  -0.00000
  16 2   H  1S          0.06113   0.00003   0.00000   0.06881  -0.00393
  17        2S          0.00987   0.00002   0.00000   0.04046  -0.00223
  18        3PX        -0.00000   0.00273   0.00000   0.00000  -0.00000
  19        3PY        -0.00000   0.00000   0.01055  -0.00000   0.00000
  20        3PZ        -0.00723  -0.00001  -0.00000  -0.00272   0.00017
  21 3   H  1S          0.06122   0.05975  -0.00000  -0.03451   0.00169
  22        2S          0.00964   0.03509  -0.00000  -0.02026   0.00107
  23        3PX        -0.00625  -0.00137   0.00000   0.00237  -0.00011
  24        3PY         0.00000  -0.00000   0.01054   0.00000  -0.00000
  25        3PZ         0.00360   0.00236  -0.00000   0.00136  -0.00009
  26 4   H  1S          0.06113  -0.05960  -0.00000  -0.03442   0.00173
  27        2S          0.00987  -0.03504   0.00000  -0.02024   0.00109
  28        3PX         0.00627  -0.00136  -0.00000  -0.00237   0.00011
  29        3PY        -0.00000   0.00000   0.01055  -0.00000   0.00000
  30        3PZ         0.00361  -0.00235   0.00000   0.00137  -0.00008
  31 5   H  1S         -0.00023   0.00002  -0.00000  -0.00001   0.00000
  32        2S          0.00068   0.00023  -0.00000  -0.00013   0.00001
  33        3PX        -0.00003   0.00001  -0.00000  -0.00000   0.00000
  34        3PY         0.00000   0.00000   0.00003   0.00000  -0.00000
[...]
  34        3PY        -0.00000   0.00000   0.00000  -0.00000   0.00000
  35        3PZ        -0.00000   0.00000  -0.00000   0.00000   0.00000
                          11        12        13        14        15
  11        4YY         0.00390
  12        4ZZ        -0.00025   0.00311
  13        4XY         0.00000   0.00000   0.00054
  14        4XZ         0.00000   0.00000   0.00000   0.00035
  15        4YZ         0.00000   0.00000   0.00000   0.00000   0.00116
  16 2   H  1S         -0.00128   0.01036   0.00000   0.00000   0.00000
  17        2S         -0.00168   0.00699   0.00000   0.00000   0.00000
  18        3PX         0.00000   0.00000   0.00000   0.00012   0.00000
  19        3PY         0.00000   0.00000   0.00000   0.00000   0.00017
  20        3PZ        -0.00010   0.00014   0.00000   0.00000   0.00000
  21 3   H  1S         -0.00000  -0.00000   0.00000   0.00000   0.00000
  22        2S         -0.00012  -0.00007   0.00000   0.00005   0.00000
  23        3PX        -0.00000  -0.00000   0.00000   0.00000   0.00000
  24        3PY         0.00000   0.00000   0.00000   0.00000   0.00000
  25        3PZ         0.00000   0.00000   0.00000   0.00000   0.00000
  26 4   H  1S          0.01087  -0.00184   0.00030  -0.00000  -0.00030
  27        2S          0.00764  -0.00245   0.00006  -0.00000  -0.00007
  28        3PX         0.00002  -0.00000   0.00011  -0.00002   0.00000
  29        3PY         0.00007  -0.00016   0.00001   0.00000   0.00006
  30        3PZ         0.00006  -0.00004   0.00000   0.00000   0.00019
  31 5   H  1S          0.00000   0.00000   0.00000   0.00000   0.00000
  32        2S          0.00000   0.00000  -0.00000  -0.00000   0.00000
  33        3PX         0.00000   0.00000   0.00000   0.00000   0.00000
  34        3PY         0.00000   0.00000   0.00000   0.00000   0.00000
  35        3PZ         0.00000   0.00000   0.00000   0.00000   0.00000
                          16        17        18        19        20
  16 2   H  1S          0.21347
  17        2S          0.08056   0.08771
  18        3PX         0.00000   0.00000   0.00036
  19        3PY         0.00000   0.00000   0.00000   0.00050
  20        3PZ         0.00000   0.00000   0.00000   0.00000   0.00089
  21 3   H  1S         -0.00000   0.00015   0.00000   0.00000   0.00000
  22        2S         -0.00015   0.00179   0.00016   0.00000   0.00000
  23        3PX         0.00000   0.00000   0.00000   0.00000   0.00000
  24        3PY         0.00000   0.00000   0.00000   0.00000   0.00000
  25        3PZ         0.00000   0.00000   0.00000   0.00000   0.00000
  26 4   H  1S         -0.00117  -0.00878   0.00000   0.00022   0.00007
  27        2S         -0.00877  -0.01239   0.00001   0.00043  -0.00022
  28        3PX         0.00000  -0.00001   0.00000   0.00000   0.00000
  29        3PY         0.00000  -0.00026   0.00000   0.00000   0.00002
  30        3PZ         0.00029   0.00050   0.00000   0.00001   0.00001
  31 5   H  1S          0.00000  -0.00000   0.00000   0.00000   0.00000
  32        2S         -0.00000  -0.00000   0.00000  -0.00000  -0.00000
  33        3PX         0.00000   0.00000   0.00000   0.00000   0.00000
  34        3PY         0.00000   0.00000   0.00000   0.00000   0.00000
  35        3PZ         0.00000  -0.00000   0.00000   0.00000   0.00000
                          21        22        23        24        25
  21 3   H  1S          0.12783
  22        2S          0.16729   0.50544
  23        3PX         0.00000   0.00000   0.00003
  24        3PY         0.00000   0.00000   0.00000   0.00000
  25        3PZ         0.00000   0.00000   0.00000   0.00000   0.00000
  26 4   H  1S         -0.00000  -0.00015   0.00000   0.00000   0.00000
  27        2S          0.00015   0.00179   0.00000   0.00000   0.00000
  28        3PX         0.00000   0.00015   0.00000   0.00000  -0.00000
  29        3PY         0.00000   0.00001   0.00000   0.00000   0.00000
  30        3PZ         0.00000  -0.00000   0.00000   0.00000   0.00000
  31 5   H  1S         -0.00000   0.00000   0.00000  -0.00000   0.00000
  32        2S          0.00000   0.00000   0.00000   0.00000   0.00000
  33        3PX         0.00000   0.00000   0.00000   0.00000   0.00000
  34        3PY         0.00000   0.00000   0.00000   0.00000   0.00000
  35        3PZ         0.00000   0.00000   0.00000   0.00000   0.00000
                          26        27        28        29        30
  26 4   H  1S          0.21353
  27        2S          0.08058   0.08772
  28        3PX         0.00000   0.00000   0.00037
  29        3PY         0.00000   0.00000   0.00000   0.00089
  30        3PZ         0.00000   0.00000   0.00000   0.00000   0.00050
  31 5   H  1S          0.00000  -0.00000   0.00000   0.00000   0.00000
  32        2S         -0.00000  -0.00000   0.00000  -0.00000  -0.00000
  33        3PX         0.00000   0.00000   0.00000   0.00000   0.00000
  34        3PY         0.00000  -0.00000   0.00000   0.00000   0.00000
  35        3PZ         0.00000   0.00000   0.00000   0.00000   0.00000
                          31        32        33        34        35
  31 5   H  1S          0.18360
  32        2S          0.18743   0.44153
  33        3PX         0.00000   0.00000   0.00000
  34        3PY         0.00000   0.00000   0.00000   0.00000
  35        3PZ         0.00000   0.00000   0.00000   0.00000   0.00000
     Gross orbital populations:
                         Total     Alpha     Beta      Spin
   1 1   N  1S          1.99313   0.99656   0.99656  -0.00000
   2        2S          0.86605   0.43302   0.43302   0.00000
   3        2PX         0.49369   0.24685   0.24684   0.00000
   4        2PY         0.86726   0.43363   0.43363   0.00000
   5        2PZ         0.84376   0.42188   0.42188   0.00000
   6        3S          1.00492   0.50246   0.50246   0.00000
   7        3PX         0.46413   0.23207   0.23207   0.00000
   8        3PY         0.52406   0.26203   0.26203   0.00000
   9        3PZ         0.47668   0.23834   0.23834   0.00000
  10        4XX        -0.01064  -0.00532  -0.00532   0.00000
  11        4YY        -0.00800  -0.00400  -0.00400  -0.00000
  12        4ZZ        -0.00528  -0.00264  -0.00264  -0.00000
  13        4XY         0.00103   0.00052   0.00052   0.00000
  14        4XZ         0.00050   0.00025   0.00025   0.00000
  15        4YZ         0.00120   0.00060   0.00060   0.00000
  16 2   H  1S          0.51318   0.25659   0.25659  -0.00000
  17        2S          0.18727   0.09364   0.09364  -0.00000
  18        3PX         0.00446   0.00223   0.00223   0.00000
  19        3PY         0.00608   0.00304   0.00304  -0.00000
  20        3PZ         0.01308   0.00654   0.00654   0.00000
  21 3   H  1S          0.30048   0.15024   0.15024  -0.00000
  22        2S          0.73866   0.36933   0.36933  -0.00000
  23        3PX         0.00012   0.00006   0.00006   0.00000
  24        3PY         0.00000   0.00000   0.00000  -0.00000
  25        3PZ         0.00000   0.00000   0.00000   0.00000
  26 4   H  1S          0.51325   0.25662   0.25662  -0.00000
  27        2S          0.18731   0.09365   0.09365  -0.00000
  28        3PX         0.00463   0.00232   0.00232   0.00000
  29        3PY         0.01275   0.00637   0.00637   0.00000
  30        3PZ         0.00625   0.00312   0.00312  -0.00000
  31 5   H  1S          0.37104   0.37104  -0.00000   0.37104
  32        2S          0.62896   0.62896   0.00000   0.62896
  33        3PX         0.00000   0.00000   0.00000   0.00000
  34        3PY         0.00000   0.00000   0.00000   0.00000
  35        3PZ         0.00000   0.00000   0.00000   0.00000
          Condensed to atoms (all electrons):
               1          2          3          4          5
     1  N    6.868802   0.288088   0.067493   0.288098  -0.000000
     2  H    0.288088   0.464056   0.001943  -0.030019  -0.000000
     3  H    0.067493   0.001943   0.967883   0.001950   0.000000
     4  H    0.288098  -0.030019   0.001950   0.464152  -0.000000
     5  H   -0.000000  -0.000000   0.000000  -0.000000   1.000000
          Atomic-Atomic Spin Densities.
               1          2          3          4          5
     1  N    0.000006   0.000000   0.000000   0.000000  -0.000000
     2  H    0.000000  -0.000000  -0.000000   0.000000  -0.000000
     3  H    0.000000  -0.000000  -0.000005  -0.000000   0.000000
     4  H    0.000000   0.000000  -0.000000  -0.000000  -0.000000
     5  H   -0.000000  -0.000000   0.000000  -0.000000   1.000000
 Mulliken charges and spin densities:
               1          2
     1  N   -0.512480   0.000006
     2  H    0.275932  -0.000000
     3  H   -0.039269  -0.000005
     4  H    0.275818  -0.000000
     5  H    0.000000   1.000000
 Sum of Mulliken charges =  -0.00000   1.00000
 Mulliken charges and spin densities with hydrogens summed into heavy atoms:
               1          2
     1  N   -0.000000   1.000000
 Electronic spatial extent (au):  <R**2>=            299.8936
 Charge=             -0.0000 electrons
 Dipole moment (field-independent basis, Debye):
    X=             -0.2107    Y=             -1.6514    Z=              1.2924  Tot=              2.1076
 Quadrupole moment (field-independent basis, Debye-Ang):
   XX=             -9.8739   YY=             -8.8762   ZZ=             -8.5890
   XY=             -0.0808   XZ=             -0.1135   YZ=              0.6220
 Traceless Quadrupole moment (field-independent basis, Debye-Ang):
   XX=             -0.7608   YY=              0.2368   ZZ=              0.5240
   XY=             -0.0808   XZ=             -0.1135   YZ=              0.6220
 Octapole moment (field-independent basis, Debye-Ang**2):
  XXX=            -42.8165  YYY=              2.3511  ZZZ=             -3.2867  XYY=            -14.5806
  XXY=              1.2057  XXZ=             -1.4485  XZZ=            -14.7259  YZZ=              1.1736
  YYZ=             -1.9085  XYZ=              0.0381
 Hexadecapole moment (field-independent basis, Debye-Ang**3):
 XXXX=           -588.1865 YYYY=            -14.2020 ZZZZ=            -15.0111 XXXY=             20.4049
 XXXZ=            -23.4051 YYYX=             20.1113 YYYZ=              1.8634 ZZZX=            -24.0339
 ZZZY=              1.4974 XXYY=           -101.8444 XXZZ=           -101.9809 YYZZ=             -5.3915
 XXYZ=              0.5006 YYXZ=             -8.0600 ZZXY=              6.7626
 N-N= 9.894032347263D+00 E-N=-1.519839614646D+02  KE= 5.619019232937D+01
 Orbital energies and kinetic energies (alpha):
                                 1                 2
   1         O               -14.506840         21.982593
   2         O                -0.941890          1.879742
   3         O                -0.562128          1.360435
   4         O                -0.411671          1.690045
   5         O                -0.400829          0.510972
   6         O                -0.329138          0.926798
   7         V                -0.115758          1.167405
   8         V                 0.167376          1.052725
   9         V                 0.234635          1.105308
  10         V                 0.742548          2.451585
  11         V                 0.759847          1.616711
  12         V                 0.781350          2.564637
  13         V                 0.802277          1.775524
  14         V                 0.857763          2.142944
  15         V                 0.941044          2.853087
  16         V                 0.959392          2.341911
  17         V                 1.096609          2.057089
  18         V                 1.544131          2.475799
  19         V                 1.546990          2.492899
  20         V                 1.646395          2.593571
  21         V                 2.040620          2.750000
  22         V                 2.040629          2.750000
  23         V                 2.040639          2.750000
  24         V                 2.094449          2.832685
  25         V                 2.099302          2.750844
  26         V                 2.100125          2.757852
  27         V                 2.158000          3.167921
  28         V                 2.269902          3.034647
  29         V                 2.344222          3.501401
  30         V                 2.605639          3.476757
  31         V                 2.637867          3.474415
  32         V                 2.953448          3.864285
  33         V                 3.276451          5.764675
  34         V                 3.489149          5.245540
  35         V                 3.761809          8.502703
 Orbital energies and kinetic energies (beta):
                                 1                 2
   1         O               -14.506840         21.982594
   2         O                -0.941889          1.879742
   3         O                -0.562128          1.360435
   4         O                -0.411671          1.690045
   5         O                -0.329138          0.926792
   6         V                -0.115758          1.167412
   7         V                 0.167376          1.052725
   8         V                 0.234635          1.105308
   9         V                 0.623063          0.248518
  10         V                 0.742549          2.451599
  11         V                 0.759847          1.616711
  12         V                 0.781350          2.564638
  13         V                 0.857763          2.142951
  14         V                 0.941044          2.853087
  15         V                 0.959392          2.341911
  16         V                 1.096609          2.057088
  17         V                 1.544131          2.475798
  18         V                 1.546991          2.492899
  19         V                 1.646396          2.593571
  20         V                 1.716140          2.037957
  21         V                 2.094449          2.832683
  22         V                 2.099301          2.750844
  23         V                 2.100124          2.757852
  24         V                 2.158000          3.167923
  25         V                 2.269902          3.034647
  26         V                 2.344222          3.501401
  27         V                 2.605640          3.476757
  28         V                 2.637867          3.474415
  29         V                 2.953449          3.864285
  30         V                 3.033089          2.750000
  31         V                 3.033094          2.750000
  32         V                 3.035635          2.749999
  33         V                 3.276451          5.764674
  34         V                 3.489149          5.245540
  35         V                 3.761809          8.502703
 Total kinetic energy from orbitals= 5.619019232937D+01
                          Isotropic Fermi Contact Couplings
        Atom                 a.u.       MegaHertz       Gauss      10(-4) cm-1
     1  N(14)              0.00000       0.00002       0.00001       0.00001
     2  H(1)              -0.00000      -0.00021      -0.00007      -0.00007
     3  H(1)              -0.00000      -0.00963      -0.00344      -0.00321
     4  H(1)              -0.00000      -0.00021      -0.00007      -0.00007
     5  H(1)               0.29886    1335.87883     476.67477     445.60121
 --------------------------------------------------------
       Center         ----  Spin Dipole Couplings  ----
                      3XX-RR        3YY-RR        3ZZ-RR
 --------------------------------------------------------
     1   Atom        0.000526     -0.000263     -0.000263
     2   Atom        0.000522     -0.000260     -0.000262
     3   Atom        0.001755     -0.000866     -0.000889
     4   Atom        0.000537     -0.000272     -0.000265
     5   Atom       -0.000000      0.000000      0.000000
 --------------------------------------------------------
                        XY            XZ            YZ
 --------------------------------------------------------
     1   Atom       -0.000058      0.000062     -0.000005
     2   Atom       -0.000061     -0.000036      0.000003
     3   Atom       -0.000310      0.000187     -0.000022
     4   Atom        0.000036      0.000088      0.000004
     5   Atom        0.000000     -0.000000     -0.000000
 --------------------------------------------------------


 ---------------------------------------------------------------------------------
              Anisotropic Spin Dipole Couplings in Principal Axis System
 ---------------------------------------------------------------------------------

       Atom             a.u.   MegaHertz   Gauss  10(-4) cm-1        Axes

              Baa    -0.0003    -0.010    -0.004    -0.003 -0.0535  0.2926  0.9547
     1 N(14)  Bbb    -0.0003    -0.010    -0.004    -0.003  0.0925  0.9534 -0.2871
              Bcc     0.0005     0.021     0.007     0.007  0.9943 -0.0729  0.0781
 
              Baa    -0.0003    -0.141    -0.050    -0.047  0.0756  0.9968 -0.0277
     2 H(1)   Bbb    -0.0003    -0.141    -0.050    -0.047  0.0471  0.0242  0.9986
              Bcc     0.0005     0.282     0.101     0.094  0.9960 -0.0768 -0.0452
 
              Baa    -0.0009    -0.481    -0.172    -0.161 -0.1053 -0.3374  0.9355
     3 H(1)   Bbb    -0.0009    -0.481    -0.172    -0.161  0.0847  0.9342  0.3465
              Bcc     0.0018     0.963     0.343     0.321  0.9908 -0.1157  0.0698
 
              Baa    -0.0003    -0.147    -0.052    -0.049 -0.0936 -0.2507  0.9635
     4 H(1)   Bbb    -0.0003    -0.146    -0.052    -0.049 -0.0699  0.9670  0.2449
              Bcc     0.0005     0.292     0.104     0.098  0.9932  0.0444  0.1080
 
              Baa    -0.0000    -0.000    -0.000    -0.000  0.9963 -0.0826  0.0249
     5 H(1)   Bbb    -0.0000    -0.000    -0.000    -0.000  0.0310  0.6117  0.7905
              Bcc     0.0000     0.000     0.000     0.000  0.0805  0.7868 -0.6119
 

 ---------------------------------------------------------------------------------

 No NMR shielding tensors so no spin-rotation constants.
 Leave Link  601 at Sat Sep 14 11:55:45 2024, MaxMem=   268435456 cpu:         2.3
 (Enter /g100_work/pMI24_ChiCa/g09d1/g09d01/d01/build-node-6-2-59348/src/main/l9999.exe)
 1\1\GINC-R500N001\Scan\UwB97XD\6-31G(d,p)\H4N1(2)\ECABIATI\14-Sep-2024
 \1\\#p wb97xd/6-31g(d,p) opt=(Z-Matrix) scf=(Maxconventionalcycles=100
 ,xqc) nosym temperature=300 pop=full gfinput\\nh3+h to nh2+h2 pushing 
 hn3\\0,2\N\H,1,hn2\H,1,hn3,2,hnh3\H,1,hn4,3,hnh4,2,dih4,0\X,3,xxh5,1,x
 xhn5,4,dih5,0\H,3,hh6,5,hhxx6,1,dih6,0\\hn2=1.02859943\hn3=2.8018,s,18
 ,0.1\hnh3=84.39021917\hn4=1.02862764\hnh4=84.32006161\dih4=256.6971525
 7\xxh5=1.0215,s,-1000,0.\xxhn5=76.9226,s,-1000,0.\dih5=77.3649,s,-1000
 ,0.\hh6=5.47700174\hhxx6=101.49665743\dih6=173.1991947\\Version=EM64L-
 G09RevD.01\HF=-57.0308984,-57.0227459,-57.004862,-57.0016022,-56.98149
 58,-56.9613052,-56.9418406,-56.9234839,-56.9063764,-56.8905118,-56.875
 8343,-56.8622611,-56.8497308,-56.8381566,-56.8274755,-56.8176011,-56.8
 084837,-56.8000404,-56.7922197\S2=0.75,0.75,0.75,0.75,0.75,0.75,0.75,0
 .75,0.750001,0.75,0.75,0.75,0.75,0.75,0.75,0.75,0.75,0.75,0.75\S2-1=0.
 ,0.,0.,0.,0.,0.,0.,0.,0.,0.,0.,0.,0.,0.,0.,0.,0.,0.,0.\S2A=0.75,0.75,0
 .75,0.75,0.75,0.75,0.75,0.75,0.75,0.75,0.75,0.75,0.75,0.75,0.75,0.75,0
 .75,0.75,0.75\RMSD=5.986e-09,3.632e-09,2.552e-09,4.318e-09,2.119e-09,5
 .985e-09,3.147e-09,5.901e-09,7.942e-09,7.225e-09,1.382e-09,7.167e-09,3
 .512e-09,2.362e-09,2.708e-09,4.402e-09,7.264e-09,8.902e-09,1.184e-10\P
 G=C01 [X(H4N1)]\\@


 The number of Unix installations has grown to 10,
  with more expected.
                  -- The Unix Programmer's Manual,
                     2nd Edition, June, 1972.
 Job cpu time:       0 days  0 hours 24 minutes 22.3 seconds.
 File lengths (MBytes):  RWF=      5 Int=      0 D2E=      0 Chk=      1 Scr=      1
 Normal termination of Gaussian 09 at Sat Sep 14 11:55:45 2024.
