 Entering Gaussian System, Link 0=/programs/64bit/g09/g09-gfortran/bin/g09
 Input=h2_++.com
 Output=h2_++.log
 Initial command:
 /programs/64bit/g09/g09-gfortran/bin/l1.exe /home/ospite/Desktop/MMfP/Project6/H2/g09/MP2/Gau-12993.inp -scrdir=/home/ospite/Desktop/MMfP/Project6/H2/g09/MP2/
 Entering Link 1 = /programs/64bit/g09/g09-gfortran/bin/l1.exe PID=     12994.
  
 Copyright (c) 1988,1990,1992,1993,1995,1998,2003,2009, Gaussian, Inc.
                  All Rights Reserved.
  
 This is part of the Gaussian(R) 09 program.  It is based on
 the Gaussian(R) 03 system (copyright 2003, Gaussian, Inc.),
 the Gaussian(R) 98 system (copyright 1998, Gaussian, Inc.),
 the Gaussian(R) 94 system (copyright 1995, Gaussian, Inc.),
 the Gaussian 92(TM) system (copyright 1992, Gaussian, Inc.),
 the Gaussian 90(TM) system (copyright 1990, Gaussian, Inc.),
 the Gaussian 88(TM) system (copyright 1988, Gaussian, Inc.),
 the Gaussian 86(TM) system (copyright 1986, Carnegie Mellon
 University), and the Gaussian 82(TM) system (copyright 1983,
 Carnegie Mellon University). Gaussian is a federally registered
 trademark of Gaussian, Inc.
  
 This software contains proprietary and confidential information,
 including trade secrets, belonging to Gaussian, Inc.
  
 This software is provided under written license and may be
 used, copied, transmitted, or stored only in accord with that
 written license.
  
 The following legend is applicable only to US Government
 contracts under FAR:
  
                    RESTRICTED RIGHTS LEGEND
  
 Use, reproduction and disclosure by the US Government is
 subject to restrictions as set forth in subparagraphs (a)
 and (c) of the Commercial Computer Software - Restricted
 Rights clause in FAR 52.227-19.
  
 Gaussian, Inc.
 340 Quinnipiac St., Bldg. 40, Wallingford CT 06492
  
  
 ---------------------------------------------------------------
 Warning -- This program may not be used in any manner that
 competes with the business of Gaussian, Inc. or will provide
 assistance to any competitor of Gaussian, Inc.  The licensee
 of this program is prohibited from giving any competitor of
 Gaussian, Inc. access to this program.  By using this program,
 the user acknowledges that Gaussian, Inc. is engaged in the
 business of creating and licensing software in the field of
 computational chemistry and represents and warrants to the
 licensee that it is not a competitor of Gaussian, Inc. and that
 it will not use this program in any manner prohibited above.
 ---------------------------------------------------------------
  

 Cite this work as:
 Gaussian 09, Revision A.02,
 M. J. Frisch, G. W. Trucks, H. B. Schlegel, G. E. Scuseria, 
 M. A. Robb, J. R. Cheeseman, G. Scalmani, V. Barone, B. Mennucci, 
 G. A. Petersson, H. Nakatsuji, M. Caricato, X. Li, H. P. Hratchian, 
 A. F. Izmaylov, J. Bloino, G. Zheng, J. L. Sonnenberg, M. Hada, 
 M. Ehara, K. Toyota, R. Fukuda, J. Hasegawa, M. Ishida, T. Nakajima, 
 Y. Honda, O. Kitao, H. Nakai, T. Vreven, J. A. Montgomery, Jr., 
 J. E. Peralta, F. Ogliaro, M. Bearpark, J. J. Heyd, E. Brothers, 
 K. N. Kudin, V. N. Staroverov, R. Kobayashi, J. Normand, 
 K. Raghavachari, A. Rendell, J. C. Burant, S. S. Iyengar, J. Tomasi, 
 M. Cossi, N. Rega, J. M. Millam, M. Klene, J. E. Knox, J. B. Cross, 
 V. Bakken, C. Adamo, J. Jaramillo, R. Gomperts, R. E. Stratmann, 
 O. Yazyev, A. J. Austin, R. Cammi, C. Pomelli, J. W. Ochterski, 
 R. L. Martin, K. Morokuma, V. G. Zakrzewski, G. A. Voth, 
 P. Salvador, J. J. Dannenberg, S. Dapprich, A. D. Daniels, 
 O. Farkas, J. B. Foresman, J. V. Ortiz, J. Cioslowski, 
 and D. J. Fox, Gaussian, Inc., Wallingford CT, 2009.
 
 ******************************************
 Gaussian 09:  EM64L-G09RevA.02 11-Jun-2009
                17-Aug-2024 
 ******************************************
 %mem=100MB
 ----------------------------------------
 #p mp2/6-31++G opt freq pop=full gfinput
 ----------------------------------------
 1/18=20,19=15,38=1/1,3;
 2/9=110,12=2,17=6,18=5,40=1/2;
 3/5=1,6=6,7=1010,11=9,16=1,24=10,25=1,30=1,71=1/1,2,3;
 4//1;
 5/5=2,38=5/2;
 8/6=4,10=2/1;
 9/15=2,16=-3/6;
 10/5=1/2;
 6/7=3/1;
 7/12=2/1,2,3,16;
 1/18=20,19=15/3(2);
 2/9=110/2;
 99//99;
 2/9=110/2;
 3/5=1,6=6,7=1010,11=9,16=1,25=1,30=1,71=1/1,2,3;
 4/5=5,16=3/1;
 5/5=2,38=5/2;
 8/6=4,10=2/1;
 9/15=2,16=-3/6;
 10/5=1/2;
 7/12=2/1,2,3,16;
 1/18=20,19=15/3(-8);
 2/9=110/2;
 6/7=3/1;
 99//99;
 Leave Link    1 at Sat Aug 17 19:57:10 2024, MaxMem=   13107200 cpu:       0.1
 (Enter /programs/64bit/g09/g09-gfortran/bin/l101.exe)
 -------------------------------------------------
 hydrogen(molecule) with hf/6-31++G basis function
 -------------------------------------------------
 Symbolic Z-matrix:
 Charge =  0 Multiplicity = 1
 H1
 H2                   1    d
       Variables:
  d                     0.74                     
 
 NAtoms=      2 NQM=      2 NQMF=      0 NMic=      0 NMicF=      0 NTot=      2.
                    Isotopes and Nuclear Properties:
 (Nuclear quadrupole moments (NQMom) in fm**2, nuclear magnetic moments (NMagM)
  in nuclear magnetons)

  Atom         1           2
 IAtWgt=           1           1
 AtmWgt=   1.0078250   1.0078250
 NucSpn=           1           1
 AtZEff=   0.0000000   0.0000000
 NQMom=    0.0000000   0.0000000
 NMagM=    2.7928460   2.7928460
 Leave Link  101 at Sat Aug 17 19:57:10 2024, MaxMem=   13107200 cpu:       0.1
 (Enter /programs/64bit/g09/g09-gfortran/bin/l103.exe)

 GradGradGradGradGradGradGradGradGradGradGradGradGradGradGradGradGradGrad
 Berny optimization.
 Initialization pass.
                           ----------------------------
                           !    Initial Parameters    !
                           ! (Angstroms and Degrees)  !
 --------------------------                            --------------------------
 ! Name  Definition              Value          Derivative Info.                !
 --------------------------------------------------------------------------------
 ! R1    R(1,2)                  0.74           estimate D2E/DX2                !
 --------------------------------------------------------------------------------
 Trust Radius=3.00D-01 FncErr=1.00D-07 GrdErr=1.00D-07
 Number of steps in this run=  20 maximum allowed number of steps= 100.
 GradGradGradGradGradGradGradGradGradGradGradGradGradGradGradGradGradGrad

 Leave Link  103 at Sat Aug 17 19:57:10 2024, MaxMem=   13107200 cpu:       0.0
 (Enter /programs/64bit/g09/g09-gfortran/bin/l202.exe)
                          Input orientation:                          
 ---------------------------------------------------------------------
 Center     Atomic      Atomic             Coordinates (Angstroms)
 Number     Number       Type             X           Y           Z
 ---------------------------------------------------------------------
      1          1           0        0.000000    0.000000    0.000000
      2          1           0        0.000000    0.000000    0.740000
 ---------------------------------------------------------------------
 Stoichiometry    H2
 Framework group  D*H[C*(H.H)]
 Deg. of freedom     1
 Full point group                 D*H     NOp   8
 Largest Abelian subgroup         D2H     NOp   8
 Largest concise Abelian subgroup C2      NOp   2
                         Standard orientation:                         
 ---------------------------------------------------------------------
 Center     Atomic      Atomic             Coordinates (Angstroms)
 Number     Number       Type             X           Y           Z
 ---------------------------------------------------------------------
      1          1           0        0.000000    0.000000    0.370000
      2          1           0        0.000000    0.000000   -0.370000
 ---------------------------------------------------------------------
 Rotational constants (GHZ):      0.0000000   1831.4649389   1831.4649389
 Leave Link  202 at Sat Aug 17 19:57:10 2024, MaxMem=   13107200 cpu:       0.0
 (Enter /programs/64bit/g09/g09-gfortran/bin/l301.exe)
 Standard basis: 6-31++G (6D, 7F)
 Ernie: Thresh=  0.10000D-02 Tol=  0.10000D-05 Strict=F.
 AO basis set in the form of general basis input (Overlap normalization):
      1 0
 S   3 1.00       0.000000000000
      0.1873113696D+02  0.3349460434D-01
      0.2825394365D+01  0.2347269535D+00
      0.6401216923D+00  0.8137573261D+00
 S   1 1.00       0.000000000000
      0.1612777588D+00  0.1000000000D+01
 S   1 1.00       0.000000000000
      0.3600000000D-01  0.1000000000D+01
 ****
      2 0
 S   3 1.00       0.000000000000
      0.1873113696D+02  0.3349460434D-01
      0.2825394365D+01  0.2347269535D+00
      0.6401216923D+00  0.8137573261D+00
 S   1 1.00       0.000000000000
      0.1612777588D+00  0.1000000000D+01
 S   1 1.00       0.000000000000
      0.3600000000D-01  0.1000000000D+01
 ****

 There are     3 symmetry adapted basis functions of AG  symmetry.
 There are     0 symmetry adapted basis functions of B1G symmetry.
 There are     0 symmetry adapted basis functions of B2G symmetry.
 There are     0 symmetry adapted basis functions of B3G symmetry.
 There are     0 symmetry adapted basis functions of AU  symmetry.
 There are     3 symmetry adapted basis functions of B1U symmetry.
 There are     0 symmetry adapted basis functions of B2U symmetry.
 There are     0 symmetry adapted basis functions of B3U symmetry.
 Integral buffers will be    131072 words long.
 Raffenetti 1 integral format.
 Two-electron integral symmetry is turned on.
     6 basis functions,    10 primitive gaussians,     6 cartesian basis functions
     1 alpha electrons        1 beta electrons
       nuclear repulsion energy         0.7151043359 Hartrees.
 IExCor=    0 DFT=F Ex=HF Corr=None ExCW=0 ScaHFX=  1.000000
 ScaDFX=  1.000000  1.000000  1.000000  1.000000 ScalE2=  1.000000  1.000000
 IRadAn=      0 IRanWt=     -1 IRanGd=            0 ICorTp=0
 NAtoms=    2 NActive=    2 NUniq=    1 SFac= 3.00D+00 NAtFMM=   80 NAOKFM=F Big=F
 Leave Link  301 at Sat Aug 17 19:57:10 2024, MaxMem=   13107200 cpu:       0.1
 (Enter /programs/64bit/g09/g09-gfortran/bin/l302.exe)
 NPDir=0 NMtPBC=     1 NCelOv=     1 NCel=       1 NClECP=     1 NCelD=      1
         NCelK=      1 NCelE2=     1 NClLst=     1 CellRange=     0.0.
 One-electron integrals computed using PRISM.
 One-electron integral symmetry used in STVInt
 NBasis=     6 RedAO= T  NBF=     3     0     0     0     0     3     0     0
 NBsUse=     6 1.00D-06 NBFU=     3     0     0     0     0     3     0     0
 Leave Link  302 at Sat Aug 17 19:57:10 2024, MaxMem=   13107200 cpu:       0.1
 (Enter /programs/64bit/g09/g09-gfortran/bin/l303.exe)
 DipDrv:  MaxL=1.
 Leave Link  303 at Sat Aug 17 19:57:10 2024, MaxMem=   13107200 cpu:       0.0
 (Enter /programs/64bit/g09/g09-gfortran/bin/l401.exe)
 Harris functional with IExCor=  205 diagonalized for initial guess.
 ExpMin= 3.60D-02 ExpMax= 1.87D+01 ExpMxC= 1.87D+01 IAcc=3 IRadAn=         0 AccDes= 0.00D+00
 HarFok:  IExCor=  205 AccDes= 0.00D+00 IRadAn=         0 IDoV= 1
 ScaDFX=  1.000000  1.000000  1.000000  1.000000
 FoFCou: FMM=F IPFlag=           0 FMFlag=      100000 FMFlg1=           0
         NFxFlg=           0 DoJE=T BraDBF=F KetDBF=T FulRan=T
         Omega=  0.000000  0.000000  1.000000  0.000000  0.000000 ICntrl=     500 IOpCl=  0
         NMat0=    1 NMatS0=    1 NMatT0=    0 NMatD0=    1 NMtDS0=    0 NMtDT0=    0
         I1Cent=           4 NGrid=           0.
 Petite list used in FoFCou.
 Harris En= -1.18040250324611    
 Initial guess orbital symmetries:
       Occupied  (SGG)
       Virtual   (SGU) (SGG) (SGU) (SGG) (SGU)
 The electronic state of the initial guess is 1-SGG.
 Leave Link  401 at Sat Aug 17 19:57:11 2024, MaxMem=   13107200 cpu:       0.2
 (Enter /programs/64bit/g09/g09-gfortran/bin/l502.exe)
 Closed shell SCF:
 Requested convergence on RMS density matrix=1.00D-08 within 128 cycles.
 Requested convergence on MAX density matrix=1.00D-06.
 Requested convergence on             energy=1.00D-06.
 No special actions if energy rises.
 Using DIIS extrapolation, IDIIS=  1040.
 Integral symmetry usage will be decided dynamically.
 Keep R1 ints in memory in canonical form, NReq=820030.
 IEnd=       19785 IEndB=       19785 NGot=    13107200 MDV=    13104259
 LenX=    13104259 LenY=    13103377
 Symmetry not used in FoFDir.
 MinBra= 0 MaxBra= 0 Meth= 1.
 IRaf=       0 NMat=   1 IRICut=       1 DoRegI=T DoRafI=F ISym2E= 0 JSym2E=0.

 Cycle   1  Pass 1  IDiag  1:
 E= -1.12453584347562    
 DIIS: error= 1.40D-02 at cycle   1 NSaved=   1.
 NSaved= 1 IEnMin= 1 EnMin= -1.12453584347562     IErMin= 1 ErrMin= 1.40D-02
 ErrMax= 1.40D-02 EMaxC= 1.00D-01 BMatC= 1.41D-03 BMatP= 1.41D-03
 IDIUse=3 WtCom= 8.60D-01 WtEn= 1.40D-01
 Coeff-Com:  0.100D+01
 Coeff-En:   0.100D+01
 Coeff:      0.100D+01
 Gap=     0.679 Goal=   None    Shift=    0.000
 GapD=    0.679 DampG=2.000 DampE=0.500 DampFc=1.0000 IDamp=-1.
 RMSDP=5.55D-03 MaxDP=1.38D-02              OVMax= 1.49D-02

 Cycle   2  Pass 1  IDiag  1:
 E= -1.12680066817870     Delta-E=       -0.002264824703 Rises=F Damp=F
 DIIS: error= 1.87D-03 at cycle   2 NSaved=   2.
 NSaved= 2 IEnMin= 2 EnMin= -1.12680066817870     IErMin= 2 ErrMin= 1.87D-03
 ErrMax= 1.87D-03 EMaxC= 1.00D-01 BMatC= 3.06D-05 BMatP= 1.41D-03
 IDIUse=3 WtCom= 9.81D-01 WtEn= 1.87D-02
 Coeff-Com: -0.170D+00 0.117D+01
 Coeff-En:   0.000D+00 0.100D+01
 Coeff:     -0.167D+00 0.117D+01
 Gap=     0.672 Goal=   None    Shift=    0.000
 RMSDP=8.96D-04 MaxDP=2.26D-03 DE=-2.26D-03 OVMax= 3.37D-03

 Cycle   3  Pass 1  IDiag  1:
 E= -1.12685555684849     Delta-E=       -0.000054888670 Rises=F Damp=F
 DIIS: error= 9.27D-05 at cycle   3 NSaved=   3.
 NSaved= 3 IEnMin= 3 EnMin= -1.12685555684849     IErMin= 3 ErrMin= 9.27D-05
 ErrMax= 9.27D-05 EMaxC= 1.00D-01 BMatC= 4.72D-08 BMatP= 3.06D-05
 IDIUse=1 WtCom= 1.00D+00 WtEn= 0.00D+00
 Coeff-Com:  0.591D-01-0.408D+00 0.135D+01
 Coeff:      0.591D-01-0.408D+00 0.135D+01
 Gap=     0.672 Goal=   None    Shift=    0.000
 RMSDP=7.17D-05 MaxDP=9.67D-05 DE=-5.49D-05 OVMax= 4.19D-04

 Cycle   4  Pass 1  IDiag  1:
 E= -1.12685574028850     Delta-E=       -0.000000183440 Rises=F Damp=F
 DIIS: error= 1.47D-06 at cycle   4 NSaved=   4.
 NSaved= 4 IEnMin= 4 EnMin= -1.12685574028850     IErMin= 4 ErrMin= 1.47D-06
 ErrMax= 1.47D-06 EMaxC= 1.00D-01 BMatC= 1.24D-11 BMatP= 4.72D-08
 IDIUse=1 WtCom= 1.00D+00 WtEn= 0.00D+00
 Coeff-Com:  0.242D-04-0.757D-03-0.355D-02 0.100D+01
 Coeff:      0.242D-04-0.757D-03-0.355D-02 0.100D+01
 Gap=     0.672 Goal=   None    Shift=    0.000
 RMSDP=6.11D-07 MaxDP=1.32D-06 DE=-1.83D-07 OVMax= 3.95D-06

 Cycle   5  Pass 1  IDiag  1:
 E= -1.12685574031689     Delta-E=       -0.000000000028 Rises=F Damp=F
 DIIS: error= 3.02D-10 at cycle   5 NSaved=   5.
 NSaved= 5 IEnMin= 5 EnMin= -1.12685574031689     IErMin= 5 ErrMin= 3.02D-10
 ErrMax= 3.02D-10 EMaxC= 1.00D-01 BMatC= 3.65D-19 BMatP= 1.24D-11
 IDIUse=1 WtCom= 1.00D+00 WtEn= 0.00D+00
 Large coefficients: NSaved=  5 BigCof=    0.00 CofMax=   10.00 Det= 7.81D-27
 Inversion failed.  Reducing to  4 matrices.
 Coeff-Com:  0.114D-08 0.159D-05 0.104D-03 0.100D+01
 Coeff:      0.114D-08 0.159D-05 0.104D-03 0.100D+01
 Gap=     0.672 Goal=   None    Shift=    0.000
 RMSDP=1.57D-10 MaxDP=2.18D-10 DE=-2.84D-11 OVMax= 1.09D-09

 SCF Done:  E(RHF) =  -1.12685574032     A.U. after    5 cycles
             Convg  =    0.1570D-09             -V/T =  2.0036
 KE= 1.122789979406D+00 PE=-3.613333145544D+00 EE= 6.485830898888D-01
 Leave Link  502 at Sat Aug 17 19:57:11 2024, MaxMem=   13107200 cpu:       0.1
 (Enter /programs/64bit/g09/g09-gfortran/bin/l801.exe)
 Range of M.O.s used for correlation:     1     6
 NBasis=     6 NAE=     1 NBE=     1 NFC=     0 NFV=     0
 NROrb=      6 NOA=     1 NOB=     1 NVA=     5 NVB=     5
 Leave Link  801 at Sat Aug 17 19:57:11 2024, MaxMem=   13107200 cpu:       0.0
 (Enter /programs/64bit/g09/g09-gfortran/bin/l906.exe)
 FulOut=F Deriv=T AODrv=T NAtomX=     2
   MMem=       20223  MDisk=           1 MDiskD=           1
  W3Min=          36 MinDsk=       50351 NBas6D=           6
 NBas2D=          21    NTT=          21    LW2=     2000000
    MDV=    13105014 MDiskM=       18145 NBas2p=          12
 Fully direct method using O(ONN) memory.
 IMap=   1
 JobTyp=1 Pass  1:  I=   1 to   1 NPSUse=  1 ParTrn=F ParDer=F DoDerP=T.
 Spin components of T(2) and E(2):
     alpha-alpha T2 =       0.0000000000D+00 E2=      0.0000000000D+00
     alpha-beta  T2 =       0.6700461497D-02 E2=     -0.1746876304D-01
     beta-beta   T2 =       0.0000000000D+00 E2=      0.0000000000D+00
 The integrals were generated   1 times.
 ANorm=    0.1003344637D+01
 E2 =    -0.1746876304D-01 EUMP2 =    -0.11443245033606D+01
 Leave Link  906 at Sat Aug 17 19:57:11 2024, MaxMem=   13107200 cpu:       0.0
 (Enter /programs/64bit/g09/g09-gfortran/bin/l1002.exe)
 Minotr:  Closed shell wavefunction.
          Computing MP2/KS-MP2 derivatives.
          Using Z-Vector for PSCF gradient.
          Skipping F1 and S1 gradient terms here.
          IDoAtm=11
          Direct CPHF calculation.
          Differentiating once with respect to electric field.
                with respect to dipole field.
          Differentiating once with respect to nuclear coordinates.
          Using symmetry in CPHF.
          Requested convergence is 1.0D-10 RMS, and 1.0D-09 maximum.
          NewPWx=F KeepS1=T KeepF1=T KeepIn=T MapXYZ=F SortEE=F KeepMc=T.
          MDV=      13107176 using IRadAn=       0.
          Keep R1 ints in memory in canonical form, NReq=800693.
 Symmetry not used in FoFDir.
 MinBra= 0 MaxBra= 0 Meth= 1.
 IRaf=       0 NMat=   1 IRICut=       1 DoRegI=T DoRafI=F ISym2E= 0 JSym2E=0.
          Solving linear equations separately, MaxMat=       0.
          There are     1 degrees of freedom in the 1st order CPHF.  IDoFFX=0.
 LinEq1:  Iter=  0 NonCon=     1 RMS=5.16D-03 Max=1.15D-02
 AX will form     1 AO Fock derivatives at one time.
 LinEq1:  Iter=  1 NonCon=     1 RMS=1.58D-04 Max=3.52D-04
 LinEq1:  Iter=  2 NonCon=     0 RMS=7.69D-20 Max=1.08D-19
 Linear equations converged to 1.000D-10 1.000D-09 after     2 iterations.
 End of Minotr Frequency-dependent properties file   721 does not exist.
 End of Minotr Frequency-dependent properties file   722 does not exist.
 Leave Link 1002 at Sat Aug 17 19:57:11 2024, MaxMem=   13107200 cpu:       0.0
 (Enter /programs/64bit/g09/g09-gfortran/bin/l601.exe)
 Copying SCF densities to generalized density rwf, IOpCl= 0 IROHF=0.

 **********************************************************************

            Population analysis using the SCF density.

 **********************************************************************

 Orbital symmetries:
       Occupied  (SGG)
       Virtual   (SGU) (SGG) (SGU) (SGG) (SGU)
 The electronic state is 1-SGG.
 Alpha  occ. eigenvalues --   -0.59669
 Alpha virt. eigenvalues --    0.07527   0.08871   0.30382   0.94605   1.48086
     Molecular Orbital Coefficients:
                           1         2         3         4         5
                       (SGG)--O  (SGU)--V  (SGG)--V  (SGU)--V  (SGG)--V
     Eigenvalues --    -0.59669   0.07527   0.08871   0.30382   0.94605
   1 1   H  1S          0.32796   0.05571  -0.06125  -0.13882  -0.82752
   2        2S          0.26667  -0.00645  -0.35037  -2.00020   0.94273
   3        3S          0.00701   3.77504   0.66830   2.39697  -0.33523
   4 2   H  1S          0.32796  -0.05571  -0.06125   0.13882  -0.82752
   5        2S          0.26667   0.00645  -0.35037   2.00020   0.94273
   6        3S          0.00701  -3.77504   0.66830  -2.39697  -0.33523
                           6
                       (SGU)--V
     Eigenvalues --     1.48086
   1 1   H  1S         -1.14712
   2        2S          1.69738
   3        3S         -1.11434
   4 2   H  1S          1.14712
   5        2S         -1.69738
   6        3S          1.11434
     Density Matrix:
                           1         2         3         4         5
   1 1   H  1S          0.21512
   2        2S          0.17491   0.14222
   3        3S          0.00460   0.00374   0.00010
   4 2   H  1S          0.21512   0.17491   0.00460   0.21512
   5        2S          0.17491   0.14222   0.00374   0.17491   0.14222
   6        3S          0.00460   0.00374   0.00010   0.00460   0.00374
                           6
   6        3S          0.00010
    Full Mulliken population analysis:
                           1         2         3         4         5
   1 1   H  1S          0.21512
   2        2S          0.11514   0.14222
   3        3S          0.00124   0.00254   0.00010
   4 2   H  1S          0.09794   0.08904   0.00116   0.21512
   5        2S          0.08904   0.12148   0.00240   0.11514   0.14222
   6        3S          0.00116   0.00240   0.00009   0.00124   0.00254
                           6
   6        3S          0.00010
     Gross orbital populations:
                           1
   1 1   H  1S          0.51965
   2        2S          0.47282
   3        3S          0.00753
   4 2   H  1S          0.51965
   5        2S          0.47282
   6        3S          0.00753
          Condensed to atoms (all electrons):
              1          2
     1  H    0.595287   0.404713
     2  H    0.404713   0.595287
 Mulliken atomic charges:
              1
     1  H    0.000000
     2  H    0.000000
 Sum of Mulliken atomic charges =   0.00000
 Mulliken charges with hydrogens summed into heavy atoms:
              1
 Sum of Mulliken charges with hydrogens summed into heavy atoms =   0.00000
 Electronic spatial extent (au):  <R**2>=              5.2852
 Charge=              0.0000 electrons
 Dipole moment (field-independent basis, Debye):
    X=              0.0000    Y=              0.0000    Z=             -0.0000  Tot=              0.0000
 Quadrupole moment (field-independent basis, Debye-Ang):
   XX=             -2.0715   YY=             -2.0715   ZZ=             -1.6506
   XY=              0.0000   XZ=             -0.0000   YZ=              0.0000
 Traceless Quadrupole moment (field-independent basis, Debye-Ang):
   XX=             -0.1403   YY=             -0.1403   ZZ=              0.2806
   XY=              0.0000   XZ=             -0.0000   YZ=              0.0000
 Octapole moment (field-independent basis, Debye-Ang**2):
  XXX=             -0.0000  YYY=              0.0000  ZZZ=             -0.0000  XYY=             -0.0000
  XXY=              0.0000  XXZ=             -0.0000  XZZ=             -0.0000  YZZ=              0.0000
  YYZ=             -0.0000  XYZ=              0.0000
 Hexadecapole moment (field-independent basis, Debye-Ang**3):
 XXXX=             -2.0032 YYYY=             -2.0032 ZZZZ=             -2.9925 XXXY=              0.0000
 XXXZ=              0.0000 YYYX=              0.0000 YYYZ=              0.0000 ZZZX=              0.0000
 ZZZY=              0.0000 XXYY=             -0.6677 XXZZ=             -0.8436 YYZZ=             -0.8436
 XXYZ=              0.0000 YYXZ=              0.0000 ZZXY=              0.0000
 N-N= 7.151043359324D-01 E-N=-3.613333145975D+00  KE= 1.122789979406D+00
 Symmetry AG   KE= 1.122789979406D+00
 Symmetry B1G  KE= 0.000000000000D+00
 Symmetry B2G  KE= 0.000000000000D+00
 Symmetry B3G  KE= 0.000000000000D+00
 Symmetry AU   KE= 0.000000000000D+00
 Symmetry B1U  KE= 2.066816519588D-33
 Symmetry B2U  KE= 0.000000000000D+00
 Symmetry B3U  KE= 0.000000000000D+00
 Orbital energies and kinetic energies (alpha):
                                 1                 2
   1         (SGG)--O         -0.596688          0.561395
   2         (SGU)--V          0.075270          0.097136
   3         (SGG)--V          0.088711          0.131562
   4         (SGU)--V          0.303817          0.530566
   5         (SGG)--V          0.946051          1.597426
   6         (SGU)--V          1.480858          2.641039
 Total kinetic energy from orbitals= 1.122789979406D+00
 No NMR shielding tensors so no spin-rotation constants.
 Leave Link  601 at Sat Aug 17 19:57:11 2024, MaxMem=   13107200 cpu:       0.1
 (Enter /programs/64bit/g09/g09-gfortran/bin/l701.exe)
 Compute integral first derivatives.
 ... and contract with generalized density number  2.
 Leave Link  701 at Sat Aug 17 19:57:11 2024, MaxMem=   13107200 cpu:       0.1
 (Enter /programs/64bit/g09/g09-gfortran/bin/l702.exe)
 L702 exits ... SP integral derivatives will be done elsewhere.
 Leave Link  702 at Sat Aug 17 19:57:11 2024, MaxMem=   13107200 cpu:       0.0
 (Enter /programs/64bit/g09/g09-gfortran/bin/l703.exe)
 Compute integral first derivatives, UseDBF=F ICtDFT=           0.
 Integral derivatives from FoFDir, PRISM(SPDF).
 Calling FoFJK, ICntrl=      2127 FMM=F ISym2X=1 I1Cent= 0 IOpClX= 0 NMat=1 NMatS=1 NMatT=0.
 FoFCou: FMM=F IPFlag=           0 FMFlag=      100000 FMFlg1=         800
         NFxFlg=           0 DoJE=F BraDBF=F KetDBF=F FulRan=T
         Omega=  0.000000  0.000000  1.000000  0.000000  0.000000 ICntrl=    2127 IOpCl=  0
         NMat0=    1 NMatS0=    1 NMatT0=    0 NMatD0=    1 NMtDS0=    0 NMtDT0=    0
         I1Cent=           0 NGrid=           0.
 Petite list used in FoFCou.
 Leave Link  703 at Sat Aug 17 19:57:11 2024, MaxMem=   13107200 cpu:       0.1
 (Enter /programs/64bit/g09/g09-gfortran/bin/l716.exe)
 Dipole        = 3.69778549D-32 0.00000000D+00 0.00000000D+00
 ***** Axes restored to original set *****
 -------------------------------------------------------------------
 Center     Atomic                   Forces (Hartrees/Bohr)
 Number     Number              X              Y              Z
 -------------------------------------------------------------------
      1        1           0.000000000    0.000000000    0.001556511
      2        1          -0.000000000   -0.000000000   -0.001556511
 -------------------------------------------------------------------
 Cartesian Forces:  Max     0.001556511 RMS     0.000898652
 Leave Link  716 at Sat Aug 17 19:57:11 2024, MaxMem=   13107200 cpu:       0.0
 (Enter /programs/64bit/g09/g09-gfortran/bin/l103.exe)

 GradGradGradGradGradGradGradGradGradGradGradGradGradGradGradGradGradGrad
 Berny optimization.
 Internal  Forces:  Max     0.001556511 RMS     0.001556511
 Search for a local minimum.
 Step number   1 out of a maximum of   20
 All quantities printed in internal units (Hartrees-Bohrs-Radians)
 RMS Force = .15565D-02 SwitMx=.10000D-02 MixMth= 1
 Mixed Optimization -- RFO/linear search
 Second derivative matrix not updated -- first step.
 The second derivative matrix:
                          R1
           R1           0.39139
     Eigenvalues ---    0.39139
 RFO step:  Lambda=-6.18989458D-06 EMin= 3.91394209D-01
 Linear search not attempted -- first point.
 Iteration  1 RMS(Cart)=  0.00281200 RMS(Int)=  0.00000000
 Iteration  2 RMS(Cart)=  0.00000000 RMS(Int)=  0.00000000
 ClnCor:  largest displacement from symmetrization is 1.22D-19 for atom     2.
 Variable       Old X    -DE/DX   Delta X   Delta X   Delta X     New X
                                 (Linear)    (Quad)   (Total)
    R1        1.39840  -0.00156   0.00000  -0.00398  -0.00398   1.39442
         Item               Value     Threshold  Converged?
 Maximum Force            0.001557     0.000450     NO 
 RMS     Force            0.001557     0.000300     NO 
 Maximum Displacement     0.001988     0.001800     NO 
 RMS     Displacement     0.002812     0.001200     NO 
 Predicted change in Energy=-3.094996D-06
 GradGradGradGradGradGradGradGradGradGradGradGradGradGradGradGradGradGrad

 Leave Link  103 at Sat Aug 17 19:57:11 2024, MaxMem=   13107200 cpu:       0.0
 (Enter /programs/64bit/g09/g09-gfortran/bin/l202.exe)
                          Input orientation:                          
 ---------------------------------------------------------------------
 Center     Atomic      Atomic             Coordinates (Angstroms)
 Number     Number       Type             X           Y           Z
 ---------------------------------------------------------------------
      1          1           0        0.000000    0.000000    0.001052
      2          1           0        0.000000    0.000000    0.738948
 ---------------------------------------------------------------------
 Stoichiometry    H2
 Framework group  D*H[C*(H.H)]
 Deg. of freedom     1
 Full point group                 D*H     NOp   8
 Largest Abelian subgroup         D2H     NOp   8
 Largest concise Abelian subgroup C2      NOp   2
                         Standard orientation:                         
 ---------------------------------------------------------------------
 Center     Atomic      Atomic             Coordinates (Angstroms)
 Number     Number       Type             X           Y           Z
 ---------------------------------------------------------------------
      1          1           0        0.000000    0.000000    0.368948
      2          1           0        0.000000    0.000000   -0.368948
 ---------------------------------------------------------------------
 Rotational constants (GHZ):      0.0000000   1841.9262151   1841.9262151
 Leave Link  202 at Sat Aug 17 19:57:11 2024, MaxMem=   13107200 cpu:       0.0
 (Enter /programs/64bit/g09/g09-gfortran/bin/l301.exe)
 Standard basis: 6-31++G (6D, 7F)
 Ernie: Thresh=  0.10000D-02 Tol=  0.10000D-05 Strict=F.
 There are     3 symmetry adapted basis functions of AG  symmetry.
 There are     0 symmetry adapted basis functions of B1G symmetry.
 There are     0 symmetry adapted basis functions of B2G symmetry.
 There are     0 symmetry adapted basis functions of B3G symmetry.
 There are     0 symmetry adapted basis functions of AU  symmetry.
 There are     3 symmetry adapted basis functions of B1U symmetry.
 There are     0 symmetry adapted basis functions of B2U symmetry.
 There are     0 symmetry adapted basis functions of B3U symmetry.
 Integral buffers will be    131072 words long.
 Raffenetti 1 integral format.
 Two-electron integral symmetry is turned on.
     6 basis functions,    10 primitive gaussians,     6 cartesian basis functions
     1 alpha electrons        1 beta electrons
       nuclear repulsion energy         0.7171437557 Hartrees.
 IExCor=    0 DFT=F Ex=HF Corr=None ExCW=0 ScaHFX=  1.000000
 ScaDFX=  1.000000  1.000000  1.000000  1.000000 ScalE2=  1.000000  1.000000
 IRadAn=      0 IRanWt=     -1 IRanGd=            0 ICorTp=0
 NAtoms=    2 NActive=    2 NUniq=    1 SFac= 3.00D+00 NAtFMM=   80 NAOKFM=F Big=F
 Leave Link  301 at Sat Aug 17 19:57:12 2024, MaxMem=   13107200 cpu:       0.1
 (Enter /programs/64bit/g09/g09-gfortran/bin/l302.exe)
 NPDir=0 NMtPBC=     1 NCelOv=     1 NCel=       1 NClECP=     1 NCelD=      1
         NCelK=      1 NCelE2=     1 NClLst=     1 CellRange=     0.0.
 One-electron integrals computed using PRISM.
 One-electron integral symmetry used in STVInt
 NBasis=     6 RedAO= T  NBF=     3     0     0     0     0     3     0     0
 NBsUse=     6 1.00D-06 NBFU=     3     0     0     0     0     3     0     0
 Leave Link  302 at Sat Aug 17 19:57:12 2024, MaxMem=   13107200 cpu:       0.1
 (Enter /programs/64bit/g09/g09-gfortran/bin/l303.exe)
 DipDrv:  MaxL=1.
 Leave Link  303 at Sat Aug 17 19:57:12 2024, MaxMem=   13107200 cpu:       0.1
 (Enter /programs/64bit/g09/g09-gfortran/bin/l401.exe)
 Initial guess read from the read-write file.
 B after Tr=     0.000000    0.000000    0.000000
         Rot=    1.000000    0.000000    0.000000    0.000000 Ang=   0.00 deg.
 Guess basis will be translated and rotated to current coordinates.
 Initial guess orbital symmetries:
       Occupied  (SGG)
       Virtual   (SGU) (SGG) (SGU) (SGG) (SGU)
 The electronic state of the initial guess is 1-SGG.
 Leave Link  401 at Sat Aug 17 19:57:13 2024, MaxMem=   13107200 cpu:       0.2
 (Enter /programs/64bit/g09/g09-gfortran/bin/l502.exe)
 Closed shell SCF:
 Requested convergence on RMS density matrix=1.00D-08 within 128 cycles.
 Requested convergence on MAX density matrix=1.00D-06.
 Requested convergence on             energy=1.00D-06.
 No special actions if energy rises.
 Using DIIS extrapolation, IDIIS=  1040.
 Integral symmetry usage will be decided dynamically.
 Keep R1 ints in memory in canonical form, NReq=820030.
 IEnd=       19785 IEndB=       19785 NGot=    13107200 MDV=    13104259
 LenX=    13104259 LenY=    13103377
 Symmetry not used in FoFDir.
 MinBra= 0 MaxBra= 0 Meth= 1.
 IRaf=       0 NMat=   1 IRICut=       1 DoRegI=T DoRafI=F ISym2E= 0 JSym2E=0.

 Cycle   1  Pass 1  IDiag  1:
 E= -1.12688090018827    
 DIIS: error= 2.75D-04 at cycle   1 NSaved=   1.
 NSaved= 1 IEnMin= 1 EnMin= -1.12688090018827     IErMin= 1 ErrMin= 2.75D-04
 ErrMax= 2.75D-04 EMaxC= 1.00D-01 BMatC= 5.40D-07 BMatP= 5.40D-07
 IDIUse=3 WtCom= 9.97D-01 WtEn= 2.75D-03
 Coeff-Com:  0.100D+01
 Coeff-En:   0.100D+01
 Coeff:      0.100D+01
 Gap=     0.673 Goal=   None    Shift=    0.000
 RMSDP=1.07D-04 MaxDP=2.61D-04              OVMax= 2.52D-04

 Cycle   2  Pass 1  IDiag  1:
 E= -1.12688175933863     Delta-E=       -0.000000859150 Rises=F Damp=F
 DIIS: error= 3.61D-05 at cycle   2 NSaved=   2.
 NSaved= 2 IEnMin= 2 EnMin= -1.12688175933863     IErMin= 2 ErrMin= 3.61D-05
 ErrMax= 3.61D-05 EMaxC= 1.00D-01 BMatC= 1.13D-08 BMatP= 5.40D-07
 IDIUse=1 WtCom= 1.00D+00 WtEn= 0.00D+00
 Coeff-Com: -0.167D+00 0.117D+01
 Coeff:     -0.167D+00 0.117D+01
 Gap=     0.673 Goal=   None    Shift=    0.000
 RMSDP=1.72D-05 MaxDP=4.34D-05 DE=-8.59D-07 OVMax= 6.39D-05

 Cycle   3  Pass 1  IDiag  1:
 E= -1.12688177949528     Delta-E=       -0.000000020157 Rises=F Damp=F
 DIIS: error= 1.68D-06 at cycle   3 NSaved=   3.
 NSaved= 3 IEnMin= 3 EnMin= -1.12688177949528     IErMin= 3 ErrMin= 1.68D-06
 ErrMax= 1.68D-06 EMaxC= 1.00D-01 BMatC= 1.59D-11 BMatP= 1.13D-08
 IDIUse=1 WtCom= 1.00D+00 WtEn= 0.00D+00
 Coeff-Com:  0.591D-01-0.413D+00 0.135D+01
 Coeff:      0.591D-01-0.413D+00 0.135D+01
 Gap=     0.673 Goal=   None    Shift=    0.000
 RMSDP=1.33D-06 MaxDP=1.79D-06 DE=-2.02D-08 OVMax= 7.72D-06

 Cycle   4  Pass 1  IDiag  1:
 E= -1.12688177955679     Delta-E=       -0.000000000062 Rises=F Damp=F
 DIIS: error= 4.82D-10 at cycle   4 NSaved=   4.
 NSaved= 4 IEnMin= 4 EnMin= -1.12688177955679     IErMin= 4 ErrMin= 4.82D-10
 ErrMax= 4.82D-10 EMaxC= 1.00D-01 BMatC= 1.57D-18 BMatP= 1.59D-11
 IDIUse=1 WtCom= 1.00D+00 WtEn= 0.00D+00
 Coeff-Com: -0.455D-06 0.146D-04 0.365D-04 0.100D+01
 Coeff:     -0.455D-06 0.146D-04 0.365D-04 0.100D+01
 Gap=     0.673 Goal=   None    Shift=    0.000
 RMSDP=2.06D-10 MaxDP=4.90D-10 DE=-6.15D-11 OVMax= 1.18D-09

 SCF Done:  E(RHF) =  -1.12688177956     A.U. after    4 cycles
             Convg  =    0.2057D-09             -V/T =  2.0018
 KE= 1.124907717385D+00 PE=-3.618314544932D+00 EE= 6.493812922798D-01
 Leave Link  502 at Sat Aug 17 19:57:13 2024, MaxMem=   13107200 cpu:       0.1
 (Enter /programs/64bit/g09/g09-gfortran/bin/l801.exe)
 Range of M.O.s used for correlation:     1     6
 NBasis=     6 NAE=     1 NBE=     1 NFC=     0 NFV=     0
 NROrb=      6 NOA=     1 NOB=     1 NVA=     5 NVB=     5
 Leave Link  801 at Sat Aug 17 19:57:13 2024, MaxMem=   13107200 cpu:       0.0
 (Enter /programs/64bit/g09/g09-gfortran/bin/l906.exe)
 FulOut=F Deriv=T AODrv=T NAtomX=     2
   MMem=       20223  MDisk=           1 MDiskD=           1
  W3Min=          36 MinDsk=       50351 NBas6D=           6
 NBas2D=          21    NTT=          21    LW2=     2000000
    MDV=    13105014 MDiskM=       18145 NBas2p=          12
 Fully direct method using O(ONN) memory.
 IMap=   1
 JobTyp=1 Pass  1:  I=   1 to   1 NPSUse=  1 ParTrn=F ParDer=F DoDerP=T.
 Spin components of T(2) and E(2):
     alpha-alpha T2 =       0.0000000000D+00 E2=      0.0000000000D+00
     alpha-beta  T2 =       0.6676868774D-02 E2=     -0.1744585880D-01
     beta-beta   T2 =       0.0000000000D+00 E2=      0.0000000000D+00
 The integrals were generated   1 times.
 ANorm=    0.1003332880D+01
 E2 =    -0.1744585880D-01 EUMP2 =    -0.11443276383555D+01
 Leave Link  906 at Sat Aug 17 19:57:13 2024, MaxMem=   13107200 cpu:       0.1
 (Enter /programs/64bit/g09/g09-gfortran/bin/l1002.exe)
 Minotr:  Closed shell wavefunction.
          Computing MP2/KS-MP2 derivatives.
          Using Z-Vector for PSCF gradient.
          Skipping F1 and S1 gradient terms here.
          IDoAtm=11
          Direct CPHF calculation.
          Differentiating once with respect to electric field.
                with respect to dipole field.
          Differentiating once with respect to nuclear coordinates.
          Using symmetry in CPHF.
          Requested convergence is 1.0D-10 RMS, and 1.0D-09 maximum.
          NewPWx=F KeepS1=T KeepF1=T KeepIn=T MapXYZ=F SortEE=F KeepMc=T.
          MDV=      13107176 using IRadAn=       0.
          Keep R1 ints in memory in canonical form, NReq=800693.
 Symmetry not used in FoFDir.
 MinBra= 0 MaxBra= 0 Meth= 1.
 IRaf=       0 NMat=   1 IRICut=       1 DoRegI=T DoRafI=F ISym2E= 0 JSym2E=0.
          Solving linear equations separately, MaxMat=       0.
          There are     1 degrees of freedom in the 1st order CPHF.  IDoFFX=0.
 LinEq1:  Iter=  0 NonCon=     1 RMS=5.11D-03 Max=1.14D-02
 AX will form     1 AO Fock derivatives at one time.
 LinEq1:  Iter=  1 NonCon=     1 RMS=1.59D-04 Max=3.55D-04
 LinEq1:  Iter=  2 NonCon=     0 RMS=7.54D-20 Max=1.27D-19
 Linear equations converged to 1.000D-10 1.000D-09 after     2 iterations.
 End of Minotr Frequency-dependent properties file   721 does not exist.
 End of Minotr Frequency-dependent properties file   722 does not exist.
 Leave Link 1002 at Sat Aug 17 19:57:13 2024, MaxMem=   13107200 cpu:       0.1
 (Enter /programs/64bit/g09/g09-gfortran/bin/l701.exe)
 Compute integral first derivatives.
 ... and contract with generalized density number  2.
 Leave Link  701 at Sat Aug 17 19:57:13 2024, MaxMem=   13107200 cpu:       0.1
 (Enter /programs/64bit/g09/g09-gfortran/bin/l702.exe)
 L702 exits ... SP integral derivatives will be done elsewhere.
 Leave Link  702 at Sat Aug 17 19:57:14 2024, MaxMem=   13107200 cpu:       0.1
 (Enter /programs/64bit/g09/g09-gfortran/bin/l703.exe)
 Compute integral first derivatives, UseDBF=F ICtDFT=           0.
 Integral derivatives from FoFDir, PRISM(SPDF).
 Calling FoFJK, ICntrl=      2127 FMM=F ISym2X=1 I1Cent= 0 IOpClX= 0 NMat=1 NMatS=1 NMatT=0.
 FoFCou: FMM=F IPFlag=           0 FMFlag=      100000 FMFlg1=         800
         NFxFlg=           0 DoJE=F BraDBF=F KetDBF=F FulRan=T
         Omega=  0.000000  0.000000  1.000000  0.000000  0.000000 ICntrl=    2127 IOpCl=  0
         NMat0=    1 NMatS0=    1 NMatT0=    0 NMatD0=    1 NMtDS0=    0 NMtDT0=    0
         I1Cent=           0 NGrid=           0.
 Petite list used in FoFCou.
 Leave Link  703 at Sat Aug 17 19:57:14 2024, MaxMem=   13107200 cpu:       0.1
 (Enter /programs/64bit/g09/g09-gfortran/bin/l716.exe)
 Dipole        =-2.46519033D-32 0.00000000D+00 0.00000000D+00
 ***** Axes restored to original set *****
 -------------------------------------------------------------------
 Center     Atomic                   Forces (Hartrees/Bohr)
 Number     Number              X              Y              Z
 -------------------------------------------------------------------
      1        1           0.000000000    0.000000000    0.000016592
      2        1          -0.000000000   -0.000000000   -0.000016592
 -------------------------------------------------------------------
 Cartesian Forces:  Max     0.000016592 RMS     0.000009580
 Leave Link  716 at Sat Aug 17 19:57:14 2024, MaxMem=   13107200 cpu:       0.0
 (Enter /programs/64bit/g09/g09-gfortran/bin/l103.exe)

 GradGradGradGradGradGradGradGradGradGradGradGradGradGradGradGradGradGrad
 Berny optimization.
 Using GEDIIS/GDIIS optimizer.
 Internal  Forces:  Max     0.000016592 RMS     0.000016592
 Search for a local minimum.
 Step number   2 out of a maximum of   20
 All quantities printed in internal units (Hartrees-Bohrs-Radians)
 RMS Force = .16592D-04 SwitMx=.10000D-02 MixMth= 2
 Mixed Optimization -- En-DIIS/RFO-DIIS
 Update second derivatives using D2CorX and points    1    2
 DE= -3.13D-06 DEPred=-3.09D-06 R= 1.01D+00
 SS=  1.41D+00  RLast= 3.98D-03 DXNew= 5.0454D-01 1.1930D-02
 Trust test= 1.01D+00 RLast= 3.98D-03 DXMaxT set to 3.00D-01
 The second derivative matrix:
                          R1
           R1           0.38723
 Use linear search instead of GDIIS.
     Eigenvalues ---    0.38723
 RFO step:  Lambda= 0.00000000D+00 EMin= 3.87228078D-01
 Quartic linear search produced a step of  0.01070.
 Iteration  1 RMS(Cart)=  0.00003009 RMS(Int)=  0.00000000
 Iteration  2 RMS(Cart)=  0.00000000 RMS(Int)=  0.00000000
 ClnCor:  largest displacement from symmetrization is 1.30D-21 for atom     1.
 Variable       Old X    -DE/DX   Delta X   Delta X   Delta X     New X
                                 (Linear)    (Quad)   (Total)
    R1        1.39442  -0.00002  -0.00004  -0.00000  -0.00004   1.39438
         Item               Value     Threshold  Converged?
 Maximum Force            0.000017     0.000450     YES
 RMS     Force            0.000017     0.000300     YES
 Maximum Displacement     0.000021     0.001800     YES
 RMS     Displacement     0.000030     0.001200     YES
 Predicted change in Energy=-3.554673D-10
 Optimization completed.
    -- Stationary point found.
                           ----------------------------
                           !   Optimized Parameters   !
                           ! (Angstroms and Degrees)  !
 --------------------------                            --------------------------
 ! Name  Definition              Value          Derivative Info.                !
 --------------------------------------------------------------------------------
 ! R1    R(1,2)                  0.7379         -DE/DX =    0.0                 !
 --------------------------------------------------------------------------------
 GradGradGradGradGradGradGradGradGradGradGradGradGradGradGradGradGradGrad

 Largest change from initial coordinates is atom    1       0.001 Angstoms.
 Leave Link  103 at Sat Aug 17 19:57:14 2024, MaxMem=   13107200 cpu:       0.0
 (Enter /programs/64bit/g09/g09-gfortran/bin/l202.exe)
                          Input orientation:                          
 ---------------------------------------------------------------------
 Center     Atomic      Atomic             Coordinates (Angstroms)
 Number     Number       Type             X           Y           Z
 ---------------------------------------------------------------------
      1          1           0        0.000000    0.000000    0.001052
      2          1           0        0.000000    0.000000    0.738948
 ---------------------------------------------------------------------
 Stoichiometry    H2
 Framework group  D*H[C*(H.H)]
 Deg. of freedom     1
 Full point group                 D*H     NOp   8
 Largest Abelian subgroup         D2H     NOp   8
 Largest concise Abelian subgroup C2      NOp   2
                         Standard orientation:                         
 ---------------------------------------------------------------------
 Center     Atomic      Atomic             Coordinates (Angstroms)
 Number     Number       Type             X           Y           Z
 ---------------------------------------------------------------------
      1          1           0        0.000000    0.000000    0.368948
      2          1           0        0.000000    0.000000   -0.368948
 ---------------------------------------------------------------------
 Rotational constants (GHZ):      0.0000000   1841.9262151   1841.9262151
 Leave Link  202 at Sat Aug 17 19:57:14 2024, MaxMem=   13107200 cpu:       0.0
 (Enter /programs/64bit/g09/g09-gfortran/bin/l601.exe)
 Copying SCF densities to generalized density rwf, IOpCl= 0 IROHF=0.

 **********************************************************************

            Population analysis using the SCF density.

 **********************************************************************

 Orbital symmetries:
       Occupied  (SGG)
       Virtual   (SGU) (SGG) (SGU) (SGG) (SGU)
 The electronic state is 1-SGG.
 Alpha  occ. eigenvalues --   -0.59732
 Alpha virt. eigenvalues --    0.07534   0.08867   0.30440   0.94492   1.48359
     Molecular Orbital Coefficients:
                           1         2         3         4         5
                       (SGG)--O  (SGU)--V  (SGG)--V  (SGU)--V  (SGG)--V
     Eigenvalues --    -0.59732   0.07534   0.08867   0.30440   0.94492
   1 1   H  1S          0.32830   0.05550  -0.06128  -0.13844  -0.82651
   2        2S          0.26617  -0.00763  -0.34990  -2.00646   0.94246
   3        3S          0.00697   3.78720   0.66813   2.40122  -0.33526
   4 2   H  1S          0.32830  -0.05550  -0.06128   0.13844  -0.82651
   5        2S          0.26617   0.00763  -0.34990   2.00646   0.94246
   6        3S          0.00697  -3.78720   0.66813  -2.40122  -0.33526
                           6
                       (SGU)--V
     Eigenvalues --     1.48359
   1 1   H  1S         -1.14887
   2        2S          1.69940
   3        3S         -1.11582
   4 2   H  1S          1.14887
   5        2S         -1.69940
   6        3S          1.11582
     Density Matrix:
                           1         2         3         4         5
   1 1   H  1S          0.21556
   2        2S          0.17477   0.14170
   3        3S          0.00458   0.00371   0.00010
   4 2   H  1S          0.21556   0.17477   0.00458   0.21556
   5        2S          0.17477   0.14170   0.00371   0.17477   0.14170
   6        3S          0.00458   0.00371   0.00010   0.00458   0.00371
                           6
   6        3S          0.00010
    Full Mulliken population analysis:
                           1         2         3         4         5
   1 1   H  1S          0.21556
   2        2S          0.11505   0.14170
   3        3S          0.00124   0.00252   0.00010
   4 2   H  1S          0.09855   0.08910   0.00116   0.21556
   5        2S          0.08910   0.12113   0.00238   0.11505   0.14170
   6        3S          0.00116   0.00238   0.00009   0.00124   0.00252
                           6
   6        3S          0.00010
     Gross orbital populations:
                           1
   1 1   H  1S          0.52065
   2        2S          0.47187
   3        3S          0.00748
   4 2   H  1S          0.52065
   5        2S          0.47187
   6        3S          0.00748
          Condensed to atoms (all electrons):
              1          2
     1  H    0.594957   0.405043
     2  H    0.405043   0.594957
 Mulliken atomic charges:
              1
     1  H   -0.000000
     2  H   -0.000000
 Sum of Mulliken atomic charges =  -0.00000
 Mulliken charges with hydrogens summed into heavy atoms:
              1
 Sum of Mulliken charges with hydrogens summed into heavy atoms =  -0.00000
 Electronic spatial extent (au):  <R**2>=              5.2734
 Charge=             -0.0000 electrons
 Dipole moment (field-independent basis, Debye):
    X=             -0.0000    Y=              0.0000    Z=             -0.0000  Tot=              0.0000
 Quadrupole moment (field-independent basis, Debye-Ang):
   XX=             -2.0680   YY=             -2.0680   ZZ=             -1.6492
   XY=              0.0000   XZ=             -0.0000   YZ=              0.0000
 Traceless Quadrupole moment (field-independent basis, Debye-Ang):
   XX=             -0.1396   YY=             -0.1396   ZZ=              0.2792
   XY=              0.0000   XZ=             -0.0000   YZ=              0.0000
 Octapole moment (field-independent basis, Debye-Ang**2):
  XXX=             -0.0000  YYY=              0.0000  ZZZ=             -0.0000  XYY=             -0.0000
  XXY=              0.0000  XXZ=              0.0000  XZZ=             -0.0000  YZZ=              0.0000
  YYZ=              0.0000  XYZ=              0.0000
 Hexadecapole moment (field-independent basis, Debye-Ang**3):
 XXXX=             -1.9973 YYYY=             -1.9973 ZZZZ=             -2.9794 XXXY=              0.0000
 XXXZ=              0.0000 YYYX=              0.0000 YYYZ=              0.0000 ZZZX=              0.0000
 ZZZY=              0.0000 XXYY=             -0.6658 XXZZ=             -0.8403 YYZZ=             -0.8403
 XXYZ=              0.0000 YYXZ=              0.0000 ZZXY=              0.0000
 N-N= 7.171437557111D-01 E-N=-3.618314544087D+00  KE= 1.124907717385D+00
 Symmetry AG   KE= 1.124907717385D+00
 Symmetry B1G  KE= 0.000000000000D+00
 Symmetry B2G  KE= 0.000000000000D+00
 Symmetry B3G  KE= 0.000000000000D+00
 Symmetry AU   KE= 0.000000000000D+00
 Symmetry B1U  KE= 6.562739528263D-33
 Symmetry B2U  KE= 0.000000000000D+00
 Symmetry B3U  KE= 0.000000000000D+00
 Orbital energies and kinetic energies (alpha):
                                 1                 2
   1         (SGG)--O         -0.597322          0.562454
   2         (SGU)--V          0.075340          0.097012
   3         (SGG)--V          0.088670          0.131489
   4         (SGU)--V          0.304396          0.530323
   5         (SGG)--V          0.944923          1.595824
   6         (SGU)--V          1.483595          2.644849
 Total kinetic energy from orbitals= 1.124907717385D+00
 No NMR shielding tensors so no spin-rotation constants.
 Leave Link  601 at Sat Aug 17 19:57:14 2024, MaxMem=   13107200 cpu:       0.1
 (Enter /programs/64bit/g09/g09-gfortran/bin/l9999.exe)
 B after Tr=     0.000000    0.000000    0.699199
         Rot=    0.000000   -0.000000    1.000000   -0.000000 Ang= 180.00 deg.
 Final structure in terms of initial Z-matrix:
 H
 H,1,d
      Variables:
 d=0.73789558
 1\1\GINC-MOLMOD\FOpt\RMP2-FC\6-31++G\H2\OSPITE\17-Aug-2024\0\\#p mp2/6
 -31++G opt freq pop=full gfinput\\hydrogen(molecule) with hf/6-31++G b
 asis function\\0,1\H,0.,0.,0.0010522093\H,0.,0.,0.7389477907\\Version=
 EM64L-G09RevA.02\State=1-SGG\HF=-1.1268818\MP2=-1.1443276\RMSD=2.057e-
 10\RMSF=9.580e-06\Dipole=0.,0.,0.\PG=D*H [C*(H1.H1)]\\@


 FRICTION IS A DRAG,
 AND ENTROPY AIN'T WHAT IT USED TO BE.
 Leave Link 9999 at Sat Aug 17 19:57:15 2024, MaxMem=   13107200 cpu:       0.0
 Job cpu time:  0 days  0 hours  0 minutes  2.9 seconds.
 File lengths (MBytes):  RWF=      5 Int=      0 D2E=      0 Chk=      1 Scr=      1
 Normal termination of Gaussian 09 at Sat Aug 17 19:57:15 2024.
 (Enter /programs/64bit/g09/g09-gfortran/bin/l1.exe)
 Link1:  Proceeding to internal job step number  2.
 ---------------------------------------------------------------------
 #P Geom=AllCheck Guess=TCheck SCRF=Check GenChk RMP2(FC)/6-31++G Freq
 ---------------------------------------------------------------------
 1/10=4,29=7,30=1,38=1,40=1/1,3;
 2/12=2,40=1/2;
 3/5=1,6=6,7=1010,11=1,14=-4,16=1,24=10,25=1,30=1,70=2,71=2,116=1/1,2,3;
 4/5=101/1;
 5/5=2,98=1/2;
 8/6=3,8=1,10=2,19=11,30=-1/1;
 9/15=3,16=-3/6;
 11/6=1,8=1,15=11,17=12,24=-1,27=1,28=-2,29=300,32=6,42=3/1,2,10;
 10/6=2,21=1/2;
 8/6=4,8=1,10=2,19=11,30=-1/11,4;
 10/5=1,20=4/2;
 11/12=2,14=11,16=1,17=2,28=-2,42=3/2,10,12;
 6/7=3/1;
 7/8=1,10=1,12=2,25=1,44=2/1,2,3,16;
 1/10=4,30=1/3;
 99//99;
 Leave Link    1 at Sat Aug 17 19:57:15 2024, MaxMem=   13107200 cpu:       0.1
 (Enter /programs/64bit/g09/g09-gfortran/bin/l101.exe)
 -------------------------------------------------
 hydrogen(molecule) with hf/6-31++G basis function
 -------------------------------------------------
 Redundant internal coordinates taken from checkpoint file:
 /home/ospite/Desktop/MMfP/Project6/H2/g09/MP2/Gau-12994.chk
 Charge =  0 Multiplicity = 1
 H,0,0.,0.,0.0010522093
 H,0,0.,0.,0.7389477907
 Recover connectivity data from disk.
                    Isotopes and Nuclear Properties:
 (Nuclear quadrupole moments (NQMom) in fm**2, nuclear magnetic moments (NMagM)
  in nuclear magnetons)

  Atom         1           2
 IAtWgt=           1           1
 AtmWgt=   1.0078250   1.0078250
 NucSpn=           1           1
 AtZEff=  -1.0000000  -1.0000000
 NQMom=    0.0000000   0.0000000
 NMagM=    2.7928460   2.7928460
 Leave Link  101 at Sat Aug 17 19:57:15 2024, MaxMem=   13107200 cpu:       0.1
 (Enter /programs/64bit/g09/g09-gfortran/bin/l103.exe)

 GradGradGradGradGradGradGradGradGradGradGradGradGradGradGradGradGradGrad
 Berny optimization.
 Initialization pass.
                           ----------------------------
                           !    Initial Parameters    !
                           ! (Angstroms and Degrees)  !
 --------------------------                            --------------------------
 ! Name  Definition              Value          Derivative Info.                !
 --------------------------------------------------------------------------------
 ! R1    R(1,2)                  0.7379         calculate D2E/DX2 analytically  !
 --------------------------------------------------------------------------------
 Trust Radius=3.00D-01 FncErr=1.00D-07 GrdErr=1.00D-07
 Number of steps in this run=   2 maximum allowed number of steps=   2.
 GradGradGradGradGradGradGradGradGradGradGradGradGradGradGradGradGradGrad

 Leave Link  103 at Sat Aug 17 19:57:15 2024, MaxMem=   13107200 cpu:       0.0
 (Enter /programs/64bit/g09/g09-gfortran/bin/l202.exe)
                          Input orientation:                          
 ---------------------------------------------------------------------
 Center     Atomic      Atomic             Coordinates (Angstroms)
 Number     Number       Type             X           Y           Z
 ---------------------------------------------------------------------
      1          1           0        0.000000    0.000000    0.001052
      2          1           0        0.000000    0.000000    0.738948
 ---------------------------------------------------------------------
 Stoichiometry    H2
 Framework group  D*H[C*(H.H)]
 Deg. of freedom     1
 Full point group                 D*H     NOp   8
 Largest Abelian subgroup         D2H     NOp   8
 Largest concise Abelian subgroup C2      NOp   2
                         Standard orientation:                         
 ---------------------------------------------------------------------
 Center     Atomic      Atomic             Coordinates (Angstroms)
 Number     Number       Type             X           Y           Z
 ---------------------------------------------------------------------
      1          1           0        0.000000    0.000000    0.368948
      2          1           0        0.000000    0.000000   -0.368948
 ---------------------------------------------------------------------
 Rotational constants (GHZ):      0.0000000   1841.9262151   1841.9262151
 Leave Link  202 at Sat Aug 17 19:57:15 2024, MaxMem=   13107200 cpu:       0.0
 (Enter /programs/64bit/g09/g09-gfortran/bin/l301.exe)
 Standard basis: 6-31++G (6D, 7F)
 Ernie: Thresh=  0.10000D-02 Tol=  0.10000D-05 Strict=F.
 AO basis set in the form of general basis input (Overlap normalization):
      1 0
 S   3 1.00       0.000000000000
      0.1873113696D+02  0.3349460434D-01
      0.2825394365D+01  0.2347269535D+00
      0.6401216923D+00  0.8137573261D+00
 S   1 1.00       0.000000000000
      0.1612777588D+00  0.1000000000D+01
 S   1 1.00       0.000000000000
      0.3600000000D-01  0.1000000000D+01
 ****
      2 0
 S   3 1.00       0.000000000000
      0.1873113696D+02  0.3349460434D-01
      0.2825394365D+01  0.2347269535D+00
      0.6401216923D+00  0.8137573261D+00
 S   1 1.00       0.000000000000
      0.1612777588D+00  0.1000000000D+01
 S   1 1.00       0.000000000000
      0.3600000000D-01  0.1000000000D+01
 ****

 There are     3 symmetry adapted basis functions of AG  symmetry.
 There are     0 symmetry adapted basis functions of B1G symmetry.
 There are     0 symmetry adapted basis functions of B2G symmetry.
 There are     0 symmetry adapted basis functions of B3G symmetry.
 There are     0 symmetry adapted basis functions of AU  symmetry.
 There are     3 symmetry adapted basis functions of B1U symmetry.
 There are     0 symmetry adapted basis functions of B2U symmetry.
 There are     0 symmetry adapted basis functions of B3U symmetry.
 Integral buffers will be    131072 words long.
 Raffenetti 1 integral format.
 Two-electron integral symmetry is turned on.
     6 basis functions,    10 primitive gaussians,     6 cartesian basis functions
     1 alpha electrons        1 beta electrons
       nuclear repulsion energy         0.7171437557 Hartrees.
 IExCor=    0 DFT=F Ex=HF Corr=None ExCW=0 ScaHFX=  1.000000
 ScaDFX=  1.000000  1.000000  1.000000  1.000000 ScalE2=  1.000000  1.000000
 IRadAn=      0 IRanWt=     -1 IRanGd=            0 ICorTp=0
 NAtoms=    2 NActive=    2 NUniq=    1 SFac= 3.00D+00 NAtFMM=   80 NAOKFM=F Big=F
 Leave Link  301 at Sat Aug 17 19:57:16 2024, MaxMem=   13107200 cpu:       0.1
 (Enter /programs/64bit/g09/g09-gfortran/bin/l302.exe)
 NPDir=0 NMtPBC=     1 NCelOv=     1 NCel=       1 NClECP=     1 NCelD=      1
         NCelK=      1 NCelE2=     1 NClLst=     1 CellRange=     0.0.
 One-electron integrals computed using PRISM.
 One-electron integral symmetry used in STVInt
 NBasis=     6 RedAO= T  NBF=     3     0     0     0     0     3     0     0
 NBsUse=     6 1.00D-06 NBFU=     3     0     0     0     0     3     0     0
 Leave Link  302 at Sat Aug 17 19:57:16 2024, MaxMem=   13107200 cpu:       0.1
 (Enter /programs/64bit/g09/g09-gfortran/bin/l303.exe)
 DipDrv:  MaxL=1.
 Leave Link  303 at Sat Aug 17 19:57:16 2024, MaxMem=   13107200 cpu:       0.1
 (Enter /programs/64bit/g09/g09-gfortran/bin/l401.exe)
 Initial guess read from the checkpoint file:  /home/ospite/Desktop/MMfP/Project6
 /H2/g09/MP2/Gau-12994.chk
 B after Tr=     0.000000    0.000000    0.000000
         Rot=    1.000000    0.000000    0.000000    0.000000 Ang=   0.00 deg.
 Guess basis will be translated and rotated to current coordinates.
 Initial guess orbital symmetries:
       Occupied  (SGG)
       Virtual   (SGU) (SGG) (SGU) (SGG) (SGU)
 The electronic state of the initial guess is 1-SGG.
 Leave Link  401 at Sat Aug 17 19:57:16 2024, MaxMem=   13107200 cpu:       0.2
 (Enter /programs/64bit/g09/g09-gfortran/bin/l502.exe)
 Closed shell SCF:
 Requested convergence on RMS density matrix=1.00D-08 within 128 cycles.
 Requested convergence on MAX density matrix=1.00D-06.
 Requested convergence on             energy=1.00D-06.
 No special actions if energy rises.
 Using DIIS extrapolation, IDIIS=  1040.
 Integral symmetry usage will be decided dynamically.
 Keep R1 ints in memory in canonical form, NReq=820030.
 IEnd=       19785 IEndB=       19785 NGot=    13107200 MDV=    13104259
 LenX=    13104259 LenY=    13103377
 Symmetry not used in FoFDir.
 MinBra= 0 MaxBra= 0 Meth= 1.
 IRaf=       0 NMat=   1 IRICut=       1 DoRegI=T DoRafI=F ISym2E= 0 JSym2E=0.

 Cycle   1  Pass 1  IDiag  1:
 E= -1.12688177955679    
 DIIS: error= 2.42D-15 at cycle   1 NSaved=   1.
 NSaved= 1 IEnMin= 1 EnMin= -1.12688177955679     IErMin= 1 ErrMin= 2.42D-15
 ErrMax= 2.42D-15 EMaxC= 1.00D-01 BMatC= 2.90D-29 BMatP= 2.90D-29
 IDIUse=1 WtCom= 1.00D+00 WtEn= 0.00D+00
 Coeff-Com:  0.100D+01
 Coeff:      0.100D+01
 Gap=     0.673 Goal=   None    Shift=    0.000
 RMSDP=7.82D-16 MaxDP=1.42D-15              OVMax= 5.44D-15

 SCF Done:  E(RHF) =  -1.12688177956     A.U. after    1 cycles
             Convg  =    0.7815D-15             -V/T =  2.0018
 KE= 1.124907717385D+00 PE=-3.618314544087D+00 EE= 6.493812914342D-01
 Leave Link  502 at Sat Aug 17 19:57:16 2024, MaxMem=   13107200 cpu:       0.0
 (Enter /programs/64bit/g09/g09-gfortran/bin/l801.exe)
 Range of M.O.s used for correlation:     1     6
 NBasis=     6 NAE=     1 NBE=     1 NFC=     0 NFV=     0
 NROrb=      6 NOA=     1 NOB=     1 NVA=     5 NVB=     5
 Leave Link  801 at Sat Aug 17 19:57:16 2024, MaxMem=   13107200 cpu:       0.0
 (Enter /programs/64bit/g09/g09-gfortran/bin/l906.exe)
 FulOut=F Deriv=T AODrv=T NAtomX=     2
   MMem=           0  MDisk=           1 MDiskD=           1
  W3Min=          36 MinDsk=       50567 NBas6D=           6
 NBas2D=          21    NTT=          21    LW2=     3000000
    MDV=    13104969 MDiskM=       18145 NBas2p=          12
 Disk-based method using ON**2 memory for  1 occupieds at a time.
 Permanent disk used for amplitudes=          25 words.
 Estimated scratch disk usage=      785992 words.
 IMap=   1
 Actual    scratch disk usage=      785992 words.
 JobTyp=1 Pass  1:  I=   1 to   1 NPSUse=  1 ParTrn=F ParDer=F DoDerP=T.
 (rs|ai) integrals will be sorted in core.
 Spin components of T(2) and E(2):
     alpha-alpha T2 =       0.0000000000D+00 E2=      0.0000000000D+00
     alpha-beta  T2 =       0.6676868774D-02 E2=     -0.1744585880D-01
     beta-beta   T2 =       0.0000000000D+00 E2=      0.0000000000D+00
 The integrals were generated   1 times.
 ANorm=    0.1003332880D+01
 E2 =    -0.1744585880D-01 EUMP2 =    -0.11443276383555D+01
 Leave Link  906 at Sat Aug 17 19:57:16 2024, MaxMem=   13107200 cpu:       0.0
 (Enter /programs/64bit/g09/g09-gfortran/bin/l1101.exe)
 Using compressed Sx but separate Hx and Fx, NAtomX=     2.
 Will process   3 centers per pass.
 Leave Link 1101 at Sat Aug 17 19:57:17 2024, MaxMem=   13107200 cpu:       0.1
 (Enter /programs/64bit/g09/g09-gfortran/bin/l1102.exe)
 Leave Link 1102 at Sat Aug 17 19:57:17 2024, MaxMem=   13107200 cpu:       0.0
 (Enter /programs/64bit/g09/g09-gfortran/bin/l1110.exe)
 Forming Gx(P) for the SCF density, NAtomX=     2.
 Integral derivatives from FoFDir/FoFCou, PRISM(SPDF).
 Do as many integral derivatives as possible in FoFDir.
 G2DrvN: MDV=      13107080.
 G2DrvN: will do     3 centers at a time, making    1 passes doing MaxLOS=1.
 Calling FoFCou, ICntrl=  3107 FMM=F I1Cent=   0 AccDes= 0.00D+00.
 FoFCou: FMM=F IPFlag=           0 FMFlag=      100000 FMFlg1=           0
         NFxFlg=           0 DoJE=F BraDBF=F KetDBF=F FulRan=T
         Omega=  0.000000  0.000000  1.000000  0.000000  0.000000 ICntrl=    3107 IOpCl=  0
         NMat0=    1 NMatS0=    1 NMatT0=    0 NMatD0=    1 NMtDS0=    0 NMtDT0=    0
         I1Cent=           0 NGrid=           0.
 Petite list used in FoFCou.
 FoFDir/FoFCou used for L=0 through L=1.
 End of G2Drv Frequency-dependent properties file   721 does not exist.
 End of G2Drv Frequency-dependent properties file   722 does not exist.
 Leave Link 1110 at Sat Aug 17 19:57:17 2024, MaxMem=   13107200 cpu:       0.1
 (Enter /programs/64bit/g09/g09-gfortran/bin/l1002.exe)
 Minotr:  Closed shell wavefunction.
          IDoAtm=11
          Direct CPHF calculation.
          Differentiating once with respect to electric field.
                with respect to dipole field.
          Differentiating once with respect to nuclear coordinates.
          Requested convergence is 1.0D-08 RMS, and 1.0D-07 maximum.
          Secondary convergence is 1.0D-12 RMS, and 1.0D-12 maximum.
          NewPWx=T KeepS1=T KeepF1=T KeepIn=T MapXYZ=F SortEE=F KeepMc=T.
          MDV=      13107176 using IRadAn=       2.
          Keep R1 ints in memory in canonical form, NReq=800693.
 Symmetry not used in FoFDir.
 MinBra= 0 MaxBra= 0 Meth= 1.
 IRaf=       0 NMat=   1 IRICut=       1 DoRegI=T DoRafI=F ISym2E= 0 JSym2E=0.
          Solving linear equations simultaneously, MaxMat=       0.
          There are     9 degrees of freedom in the 1st order CPHF.  IDoFFX=5.
      2 vectors produced by pass  0 Test12= 5.56D-17 1.11D-08 XBig12= 1.59D+00 9.74D-01.
 AX will form     2 AO Fock derivatives at one time.
      2 vectors produced by pass  1 Test12= 5.56D-17 1.11D-08 XBig12= 6.89D-03 6.53D-02.
      1 vectors produced by pass  2 Test12= 5.56D-17 1.11D-08 XBig12= 1.30D-05 2.21D-03.
 Inverted reduced A of dimension     5 with in-core refinement.
 FullF1:  Do perturbations    1 to     9.
 Saving first derivative matrices.
 End of Minotr Frequency-dependent properties file   721 does not exist.
 End of Minotr Frequency-dependent properties file   722 does not exist.
 Leave Link 1002 at Sat Aug 17 19:57:17 2024, MaxMem=   13107200 cpu:       0.1
 (Enter /programs/64bit/g09/g09-gfortran/bin/l811.exe)
 MDV=    13107200.
 Form MO integral derivatives with frozen-active canonical formalism.
 MOERI=1 MOERIx=1 NAtoms=     2 NAtomX=     2.
 Discarding MO integrals.
 MO basis two electron integral derivatives will not be stored on disk.
 IAlg= 3 DoFC=T DoPWx=T Debug=F.
 Frozen-core window:  NFC=   0 NFV=   0.
 Reordered first order wavefunction length =           50
 In DefCFB: NBatch=  1 ICI=  1 ICA=  5 LFMax=  5
            Large arrays: LIAPS=         720 LIARS=         630 words.
 In StABat: MaxSiz=  3 MinSiz=  3 NAtomB=  2
 DoIAMN: NPSUse=  1.
 Leave Link  811 at Sat Aug 17 19:57:17 2024, MaxMem=   13107200 cpu:       0.1
 (Enter /programs/64bit/g09/g09-gfortran/bin/l804.exe)
 Frozen-core window:  NFC=   0 NFV=   0.
 Closed-shell transformation, MDV=    13107200 ITran=4 ISComp=1.
 Semi-Direct transformation.
 ModeAB=           4 MOrb=             1 LenV=      13051384
 LASXX=           75 LTotXX=          75 LenRXX=         196
 LTotAB=         121 MaxLAS=          72 LenRXY=           0
 NonZer=         271 LenScr=      785920 LnRSAI=          72
 LnScr1=      785920 LExtra=           0 Total=      1572108
 MaxDsk=          -1 SrtSym=           T ITran=            4
 DoSDTr:  NPSUse=  1
 JobTyp=0 Pass  1:  I=   1 to   1.
 (rs|ai) integrals will be sorted in core.
 Complete sort for first half transformation.
 First half transformation complete.
 Complete sort for second half transformation.
 Second half transformation complete.
 Spin components of T(2) and E(2):
     alpha-alpha T2 =       0.0000000000D+00 E2=      0.0000000000D+00
     alpha-beta  T2 =       0.6676868774D-02 E2=     -0.1744585880D-01
     beta-beta   T2 =       0.0000000000D+00 E2=      0.0000000000D+00
 ANorm=    0.1418926967D+01
 E2 =    -0.1744585880D-01 EUMP2 =    -0.11443276383555D+01
 Leave Link  804 at Sat Aug 17 19:57:17 2024, MaxMem=   13107200 cpu:       0.1
 (Enter /programs/64bit/g09/g09-gfortran/bin/l1002.exe)
 Minotr:  Closed shell wavefunction.
          Computing MP2/KS-MP2 derivatives.
          Using Z-Vector for PSCF gradient.
          Skipping F1 and S1 gradient terms here.
          IDoAtm=11
          Using MO integrals in the linear equations.
          Forming densities via direct SCF.
          Differentiating once with respect to electric field.
                with respect to dipole field.
          Differentiating once with respect to nuclear coordinates.
          Using symmetry in CPHF.
          Requested convergence is 1.0D-10 RMS, and 1.0D-09 maximum.
          NewPWx=F KeepS1=T KeepF1=T KeepIn=T MapXYZ=F SortEE=F KeepMc=T.
          MDV=      13107176 using IRadAn=       0.
          Solving linear equations separately, MaxMat=       0.
          There are     1 degrees of freedom in the 1st order CPHF.  IDoFFX=0.
 Petite list used in FoFDir.
 MinBra= 0 MaxBra= 0 Meth= 1.
 IRaf=       0 NMat=   1 IRICut=       1 DoRegI=T DoRafI=F ISym2E= 1 JSym2E=1.
 LinEq1:  Iter=  0 NonCon=     1 RMS=5.11D-03 Max=1.14D-02
 LinEq1:  Iter=  1 NonCon=     1 RMS=1.59D-04 Max=3.55D-04
 LinEq1:  Iter=  2 NonCon=     0 RMS=4.08D-20 Max=8.64D-20
 Linear equations converged to 1.000D-10 1.000D-09 after     2 iterations.
 End of Minotr Frequency-dependent properties file   721 does not exist.
 End of Minotr Frequency-dependent properties file   722 does not exist.
 Leave Link 1002 at Sat Aug 17 19:57:17 2024, MaxMem=   13107200 cpu:       0.1
 (Enter /programs/64bit/g09/g09-gfortran/bin/l1102.exe)
 Use density number 2.
 Symmetrizing basis deriv contribution to polar:
 IMax=3 JMax=2 DiffMx= 0.00D+00
 Leave Link 1102 at Sat Aug 17 19:57:18 2024, MaxMem=   13107200 cpu:       0.0
 (Enter /programs/64bit/g09/g09-gfortran/bin/l1110.exe)
 Forming Gx(P) for generalized density number  2 NAtomX=     2.
 Integral derivatives from FoFDir/FoFCou, PRISM(SPDF).
 Do as many integral derivatives as possible in FoFDir.
 G2DrvN: MDV=      13107080.
 G2DrvN: will do     3 centers at a time, making    1 passes doing MaxLOS=1.
 Calling FoFCou, ICntrl=  3107 FMM=F I1Cent=   0 AccDes= 0.00D+00.
 FoFCou: FMM=F IPFlag=           0 FMFlag=      100000 FMFlg1=           0
         NFxFlg=           0 DoJE=F BraDBF=F KetDBF=F FulRan=T
         Omega=  0.000000  0.000000  1.000000  0.000000  0.000000 ICntrl=    3107 IOpCl=  0
         NMat0=    1 NMatS0=    1 NMatT0=    0 NMatD0=    1 NMtDS0=    0 NMtDT0=    0
         I1Cent=           0 NGrid=           0.
 Petite list used in FoFCou.
 FoFDir/FoFCou used for L=0 through L=1.
 End of G2Drv Frequency-dependent properties file   721 does not exist.
 End of G2Drv Frequency-dependent properties file   722 does not exist.
 Leave Link 1110 at Sat Aug 17 19:57:18 2024, MaxMem=   13107200 cpu:       0.1
 (Enter /programs/64bit/g09/g09-gfortran/bin/l1112.exe)
 MP22nd: MDV=      13107200
 This link is doing NAtomX=     2 total of     9 degrees of freedom.
 Using ON3 I/O method in MakUI.
 Frozen-core window:  NFC=   0 NFV=   0.
 Using Ix for Sx.
 Use MO integrals over full window.
 Using OV2 memory method for fx*t*t/D, MaxI=     1 DoOO2=F NP=   1.
 R2 and R3 integrals will be kept in memory, NReq=      800462.
 Symmetry not used in FoFDir.
 MinBra= 0 MaxBra= 0 Meth= 1.
 IRaf=       0 NMat=   1 IRICut=       1 DoRegI=T DoRafI=F ISym2E= 0 JSym2E=0.
 DD1Dir will call FoFMem   1 times, MxPair=         2
 NAB=     1 NAA=     0 NBB=     0.
 Symmetry is being used.
 Discarding MO integrals.
 Leave Link 1112 at Sat Aug 17 19:57:18 2024, MaxMem=   13107200 cpu:       0.1
 (Enter /programs/64bit/g09/g09-gfortran/bin/l601.exe)
 Copying SCF densities to generalized density rwf, IOpCl= 0 IROHF=0.

 **********************************************************************

            Population analysis using the SCF density.

 **********************************************************************

 Orbital symmetries:
       Occupied  (SGG)
       Virtual   (SGU) (SGG) (SGU) (SGG) (SGU)
 The electronic state is 1-SGG.
 Alpha  occ. eigenvalues --   -0.59732
 Alpha virt. eigenvalues --    0.07534   0.08867   0.30440   0.94492   1.48359
     Molecular Orbital Coefficients:
                           1         2         3         4         5
                       (SGG)--O  (SGU)--V  (SGG)--V  (SGU)--V  (SGG)--V
     Eigenvalues --    -0.59732   0.07534   0.08867   0.30440   0.94492
   1 1   H  1S          0.32830   0.05550  -0.06128  -0.13844  -0.82651
   2        2S          0.26617  -0.00763  -0.34990  -2.00646   0.94246
   3        3S          0.00697   3.78720   0.66813   2.40122  -0.33526
   4 2   H  1S          0.32830  -0.05550  -0.06128   0.13844  -0.82651
   5        2S          0.26617   0.00763  -0.34990   2.00646   0.94246
   6        3S          0.00697  -3.78720   0.66813  -2.40122  -0.33526
                           6
                       (SGU)--V
     Eigenvalues --     1.48359
   1 1   H  1S         -1.14887
   2        2S          1.69940
   3        3S         -1.11582
   4 2   H  1S          1.14887
   5        2S         -1.69940
   6        3S          1.11582
     Density Matrix:
                           1         2         3         4         5
   1 1   H  1S          0.21556
   2        2S          0.17477   0.14170
   3        3S          0.00458   0.00371   0.00010
   4 2   H  1S          0.21556   0.17477   0.00458   0.21556
   5        2S          0.17477   0.14170   0.00371   0.17477   0.14170
   6        3S          0.00458   0.00371   0.00010   0.00458   0.00371
                           6
   6        3S          0.00010
    Full Mulliken population analysis:
                           1         2         3         4         5
   1 1   H  1S          0.21556
   2        2S          0.11505   0.14170
   3        3S          0.00124   0.00252   0.00010
   4 2   H  1S          0.09855   0.08910   0.00116   0.21556
   5        2S          0.08910   0.12113   0.00238   0.11505   0.14170
   6        3S          0.00116   0.00238   0.00009   0.00124   0.00252
                           6
   6        3S          0.00010
     Gross orbital populations:
                           1
   1 1   H  1S          0.52065
   2        2S          0.47187
   3        3S          0.00748
   4 2   H  1S          0.52065
   5        2S          0.47187
   6        3S          0.00748
          Condensed to atoms (all electrons):
              1          2
     1  H    0.594957   0.405043
     2  H    0.405043   0.594957
 Mulliken atomic charges:
              1
     1  H    0.000000
     2  H    0.000000
 Sum of Mulliken atomic charges =   0.00000
 Mulliken charges with hydrogens summed into heavy atoms:
              1
 Sum of Mulliken charges with hydrogens summed into heavy atoms =   0.00000
 APT atomic charges:
              1
     1  H    0.000000
     2  H    0.000000
 Sum of APT charges=   0.00000
 APT Atomic charges with hydrogens summed into heavy atoms:
              1
     1  H    0.000000
     2  H    0.000000
 Sum of APT charges=   0.00000
 Electronic spatial extent (au):  <R**2>=              5.2734
 Charge=              0.0000 electrons
 Dipole moment (field-independent basis, Debye):
    X=              0.0000    Y=              0.0000    Z=             -0.0000  Tot=              0.0000
 Quadrupole moment (field-independent basis, Debye-Ang):
   XX=             -2.0680   YY=             -2.0680   ZZ=             -1.6492
   XY=              0.0000   XZ=             -0.0000   YZ=              0.0000
 Traceless Quadrupole moment (field-independent basis, Debye-Ang):
   XX=             -0.1396   YY=             -0.1396   ZZ=              0.2792
   XY=              0.0000   XZ=             -0.0000   YZ=              0.0000
 Octapole moment (field-independent basis, Debye-Ang**2):
  XXX=             -0.0000  YYY=              0.0000  ZZZ=             -0.0000  XYY=             -0.0000
  XXY=              0.0000  XXZ=             -0.0000  XZZ=             -0.0000  YZZ=              0.0000
  YYZ=             -0.0000  XYZ=              0.0000
 Hexadecapole moment (field-independent basis, Debye-Ang**3):
 XXXX=             -1.9973 YYYY=             -1.9973 ZZZZ=             -2.9794 XXXY=              0.0000
 XXXZ=              0.0000 YYYX=              0.0000 YYYZ=              0.0000 ZZZX=              0.0000
 ZZZY=              0.0000 XXYY=             -0.6658 XXZZ=             -0.8403 YYZZ=             -0.8403
 XXYZ=              0.0000 YYXZ=              0.0000 ZZXY=              0.0000
 N-N= 7.171437557111D-01 E-N=-3.618314544087D+00  KE= 1.124907717385D+00
 Symmetry AG   KE= 1.124907717385D+00
 Symmetry B1G  KE= 0.000000000000D+00
 Symmetry B2G  KE= 0.000000000000D+00
 Symmetry B3G  KE= 0.000000000000D+00
 Symmetry AU   KE= 0.000000000000D+00
 Symmetry B1U  KE= 7.012797396330D-33
 Symmetry B2U  KE= 0.000000000000D+00
 Symmetry B3U  KE= 0.000000000000D+00
 Orbital energies and kinetic energies (alpha):
                                 1                 2
   1         (SGG)--O         -0.597322          0.562454
   2         (SGU)--V          0.075340          0.097012
   3         (SGG)--V          0.088670          0.131489
   4         (SGU)--V          0.304396          0.530323
   5         (SGG)--V          0.944923          1.595824
   6         (SGU)--V          1.483595          2.644849
 Total kinetic energy from orbitals= 1.124907717385D+00
  Exact polarizability:   0.000   0.000   0.000  -0.000   0.000   6.549
 Approx polarizability:   0.000  -0.000  -0.000  -0.000  -0.000   5.180
 No NMR shielding tensors so no spin-rotation constants.
 Leave Link  601 at Sat Aug 17 19:57:18 2024, MaxMem=   13107200 cpu:       0.1
 (Enter /programs/64bit/g09/g09-gfortran/bin/l701.exe)
 Compute integral second derivatives.
 ... and contract with generalized density number  2.
 Leave Link  701 at Sat Aug 17 19:57:18 2024, MaxMem=   13107200 cpu:       0.1
 (Enter /programs/64bit/g09/g09-gfortran/bin/l702.exe)
 L702 exits ... SP integral derivatives will be done elsewhere.
 Leave Link  702 at Sat Aug 17 19:57:18 2024, MaxMem=   13107200 cpu:       0.0
 (Enter /programs/64bit/g09/g09-gfortran/bin/l703.exe)
 Compute integral second derivatives, UseDBF=F ICtDFT=           0.
 Integral derivatives from FoFDir, PRISM(SPDF).
 Calling FoFJK, ICntrl=    100127 FMM=F ISym2X=1 I1Cent= 0 IOpClX= 0 NMat=1 NMatS=1 NMatT=0.
 FoFCou: FMM=F IPFlag=           0 FMFlag=      100000 FMFlg1=         800
         NFxFlg=           0 DoJE=F BraDBF=F KetDBF=F FulRan=T
         Omega=  0.000000  0.000000  1.000000  0.000000  0.000000 ICntrl=  100127 IOpCl=  0
         NMat0=    1 NMatS0=    1 NMatT0=    0 NMatD0=    1 NMtDS0=    0 NMtDT0=    0
         I1Cent=           0 NGrid=           0.
 Petite list used in FoFCou.
 Leave Link  703 at Sat Aug 17 19:57:18 2024, MaxMem=   13107200 cpu:       0.1
 (Enter /programs/64bit/g09/g09-gfortran/bin/l716.exe)
 Dipole        = 2.46519033D-32-0.00000000D+00-1.24229240D-16
 Polarizability= 2.45542259D-32 0.00000000D+00 0.00000000D+00
                -4.01000940D-16 0.00000000D+00 6.54884233D+00
 Full mass-weighted force constant matrix:
 Low frequencies ---   -0.0002   -0.0002    0.0002   24.9795   24.9795 4521.7791
 Diagonal vibrational polarizability:
        0.0000000       0.0000000       0.0000000
 Harmonic frequencies (cm**-1), IR intensities (KM/Mole), Raman scattering
 activities (A**4/AMU), depolarization ratios for plane and unpolarized
 incident light, reduced masses (AMU), force constants (mDyne/A),
 and normal coordinates:
                     1
                    SGG
 Frequencies --  4521.7791
 Red. masses --     1.0078
 Frc consts  --    12.1410
 IR Inten    --     0.0000
  Atom  AN      X      Y      Z
     1   1    -0.00   0.00   0.71
     2   1     0.00   0.00  -0.71

 -------------------
 - Thermochemistry -
 -------------------
 Temperature   298.150 Kelvin.  Pressure   1.00000 Atm.
 Atom     1 has atomic number  1 and mass   1.00783
 Atom     2 has atomic number  1 and mass   1.00783
 Molecular mass:     2.01565 amu.
 Principal axes and moments of inertia in atomic units:
                           1         2         3
     Eigenvalues --     0.00000   0.97981   0.97981
           X           -0.00000   1.00000  -0.00000
           Y            0.00000   0.00000   1.00000
           Z            1.00000   0.00000  -0.00000
 This molecule is a prolate symmetric top.
 Rotational symmetry number  2.
 Rotational temperature (Kelvin)     88.39841
 Rotational constant (GHZ):        1841.926215
 Zero-point vibrational energy      27046.2 (Joules/Mol)
                                    6.46421 (Kcal/Mol)
 Vibrational temperatures:   6505.82
          (Kelvin)
 
 Zero-point correction=                           0.010301 (Hartree/Particle)
 Thermal correction to Energy=                    0.012662
 Thermal correction to Enthalpy=                  0.013606
 Thermal correction to Gibbs Free Energy=        -0.001173
 Sum of electronic and zero-point Energies=             -1.134026
 Sum of electronic and thermal Energies=                -1.131666
 Sum of electronic and thermal Enthalpies=              -1.130722
 Sum of electronic and thermal Free Energies=           -1.145501
 
                     E (Thermal)             CV                S
                      KCal/Mol        Cal/Mol-Kelvin    Cal/Mol-Kelvin
 Total                    7.945              4.968             31.106
 Electronic               0.000              0.000              0.000
 Translational            0.889              2.981             28.080
 Rotational               0.592              1.987              3.026
 Vibrational              6.464              0.000              0.000
                       Q            Log10(Q)             Ln(Q)
 Total Bot       0.346535D+01          0.539747          1.242813
 Total V=0       0.189687D+06          5.278038         12.153132
 Vib (Bot)       0.182687D-04         -4.738292        -10.910319
 Vib (V=0)       0.100000D+01          0.000000          0.000000
 Electronic      0.100000D+01          0.000000          0.000000
 Translational   0.112481D+06          5.051078         11.630537
 Rotational      0.168640D+01          0.226960          0.522596
 ***** Axes restored to original set *****
 -------------------------------------------------------------------
 Center     Atomic                   Forces (Hartrees/Bohr)
 Number     Number              X              Y              Z
 -------------------------------------------------------------------
      1        1           0.000000000   -0.000000000    0.000016592
      2        1          -0.000000000   -0.000000000   -0.000016592
 -------------------------------------------------------------------
 Cartesian Forces:  Max     0.000016592 RMS     0.000009580
 Force constants in Cartesian coordinates: 
                1             2             3             4             5 
      1  0.118991D-04
      2  0.000000D+00  0.118991D-04
      3  0.000000D+00  0.000000D+00  0.389911D+00
      4 -0.118991D-04  0.000000D+00  0.000000D+00  0.118991D-04
      5  0.000000D+00 -0.118991D-04  0.000000D+00  0.000000D+00  0.118991D-04
      6  0.000000D+00  0.000000D+00 -0.389911D+00  0.000000D+00  0.000000D+00
                6 
      6  0.389911D+00
 Force constants in internal coordinates: 
                1 
      1  0.389911D+00
 Leave Link  716 at Sat Aug 17 19:57:18 2024, MaxMem=   13107200 cpu:       0.0
 (Enter /programs/64bit/g09/g09-gfortran/bin/l103.exe)

 GradGradGradGradGradGradGradGradGradGradGradGradGradGradGradGradGradGrad
 Berny optimization.
 Internal  Forces:  Max     0.000016592 RMS     0.000016592
 Search for a local minimum.
 Step number   1 out of a maximum of    2
 All quantities printed in internal units (Hartrees-Bohrs-Radians)
 Second derivative matrix not updated -- analytic derivatives used.
 The second derivative matrix:
                          R1
           R1           0.38991
     Eigenvalues ---    0.38991
 Angle between quadratic step and forces=   0.00 degrees.
 Linear search not attempted -- first point.
 Iteration  1 RMS(Cart)=  0.00003009 RMS(Int)=  0.00000000
 Iteration  2 RMS(Cart)=  0.00000000 RMS(Int)=  0.00000000
 ClnCor:  largest displacement from symmetrization is 1.30D-21 for atom     2.
 Variable       Old X    -DE/DX   Delta X   Delta X   Delta X     New X
                                 (Linear)    (Quad)   (Total)
    R1        1.39442  -0.00002   0.00000  -0.00004  -0.00004   1.39438
         Item               Value     Threshold  Converged?
 Maximum Force            0.000017     0.000450     YES
 RMS     Force            0.000017     0.000300     YES
 Maximum Displacement     0.000021     0.001800     YES
 RMS     Displacement     0.000030     0.001200     YES
 Predicted change in Energy=-3.530385D-10
 Optimization completed.
    -- Stationary point found.
                           ----------------------------
                           !   Optimized Parameters   !
                           ! (Angstroms and Degrees)  !
 --------------------------                            --------------------------
 ! Name  Definition              Value          Derivative Info.                !
 --------------------------------------------------------------------------------
 ! R1    R(1,2)                  0.7379         -DE/DX =    0.0                 !
 --------------------------------------------------------------------------------
 GradGradGradGradGradGradGradGradGradGradGradGradGradGradGradGradGradGrad

 Leave Link  103 at Sat Aug 17 19:57:18 2024, MaxMem=   13107200 cpu:       0.0
 (Enter /programs/64bit/g09/g09-gfortran/bin/l9999.exe)
 1\1\GINC-MOLMOD\Freq\RMP2-FC\6-31++G\H2\OSPITE\17-Aug-2024\0\\#P Geom=
 AllCheck Guess=TCheck SCRF=Check GenChk RMP2(FC)/6-31++G Freq\\hydroge
 n(molecule) with hf/6-31++G basis function\\0,1\H,0.,0.,0.0010522093\H
 ,0.,0.,0.7389477907\\Version=EM64L-G09RevA.02\State=1-SGG\HF=-1.126881
 8\MP2=-1.1443276\RMSD=7.815e-16\RMSF=9.580e-06\ZeroPoint=0.0103014\The
 rmal=0.0126618\Dipole=0.,0.,0.\DipoleDeriv=0.,0.,0.,0.,0.,0.,0.,0.,0.,
 0.,0.,0.,0.,0.,0.,0.,0.,0.\Polar=0.,0.,0.,0.,0.,6.5488423\PG=D*H [C*(H
 1.H1)]\NImag=0\\0.00001190,0.,0.00001190,0.,0.,0.38991082,-0.00001190,
 0.,0.,0.00001190,0.,-0.00001190,0.,0.,0.00001190,0.,0.,-0.38991082,0.,
 0.,0.38991082\\0.,0.,-0.00001659,0.,0.,0.00001659\\\@


 THE DIFFICULTY IN SCIENCE IS OFTEN NOT SO MUCH HOW
 TO MAKE A DISCOVERY BUT RATHER TO KNOW ONE HAS MADE IT.

                                                   -- J. D. BERNAL
 Job cpu time:  0 days  0 hours  0 minutes  2.3 seconds.
 File lengths (MBytes):  RWF=     18 Int=      0 D2E=      0 Chk=      1 Scr=      1
 Normal termination of Gaussian 09 at Sat Aug 17 19:57:18 2024.
