 Entering Gaussian System, Link 0=/programs/64bit/g09/g09-gfortran/bin/g09
 Input=h2_cc-pVDZ.com
 Output=h2_cc-pVDZ.log
 Initial command:
 /programs/64bit/g09/g09-gfortran/bin/l1.exe /home/ospite/Desktop/MMfP/Project6/H2/g09/MP2/Gau-15564.inp -scrdir=/home/ospite/Desktop/MMfP/Project6/H2/g09/MP2/
 Entering Link 1 = /programs/64bit/g09/g09-gfortran/bin/l1.exe PID=     15565.
  
 Copyright (c) 1988,1990,1992,1993,1995,1998,2003,2009, Gaussian, Inc.
                  All Rights Reserved.
  
 This is part of the Gaussian(R) 09 program.  It is based on
 the Gaussian(R) 03 system (copyright 2003, Gaussian, Inc.),
 the Gaussian(R) 98 system (copyright 1998, Gaussian, Inc.),
 the Gaussian(R) 94 system (copyright 1995, Gaussian, Inc.),
 the Gaussian 92(TM) system (copyright 1992, Gaussian, Inc.),
 the Gaussian 90(TM) system (copyright 1990, Gaussian, Inc.),
 the Gaussian 88(TM) system (copyright 1988, Gaussian, Inc.),
 the Gaussian 86(TM) system (copyright 1986, Carnegie Mellon
 University), and the Gaussian 82(TM) system (copyright 1983,
 Carnegie Mellon University). Gaussian is a federally registered
 trademark of Gaussian, Inc.
  
 This software contains proprietary and confidential information,
 including trade secrets, belonging to Gaussian, Inc.
  
 This software is provided under written license and may be
 used, copied, transmitted, or stored only in accord with that
 written license.
  
 The following legend is applicable only to US Government
 contracts under FAR:
  
                    RESTRICTED RIGHTS LEGEND
  
 Use, reproduction and disclosure by the US Government is
 subject to restrictions as set forth in subparagraphs (a)
 and (c) of the Commercial Computer Software - Restricted
 Rights clause in FAR 52.227-19.
  
 Gaussian, Inc.
 340 Quinnipiac St., Bldg. 40, Wallingford CT 06492
  
  
 ---------------------------------------------------------------
 Warning -- This program may not be used in any manner that
 competes with the business of Gaussian, Inc. or will provide
 assistance to any competitor of Gaussian, Inc.  The licensee
 of this program is prohibited from giving any competitor of
 Gaussian, Inc. access to this program.  By using this program,
 the user acknowledges that Gaussian, Inc. is engaged in the
 business of creating and licensing software in the field of
 computational chemistry and represents and warrants to the
 licensee that it is not a competitor of Gaussian, Inc. and that
 it will not use this program in any manner prohibited above.
 ---------------------------------------------------------------
  

 Cite this work as:
 Gaussian 09, Revision A.02,
 M. J. Frisch, G. W. Trucks, H. B. Schlegel, G. E. Scuseria, 
 M. A. Robb, J. R. Cheeseman, G. Scalmani, V. Barone, B. Mennucci, 
 G. A. Petersson, H. Nakatsuji, M. Caricato, X. Li, H. P. Hratchian, 
 A. F. Izmaylov, J. Bloino, G. Zheng, J. L. Sonnenberg, M. Hada, 
 M. Ehara, K. Toyota, R. Fukuda, J. Hasegawa, M. Ishida, T. Nakajima, 
 Y. Honda, O. Kitao, H. Nakai, T. Vreven, J. A. Montgomery, Jr., 
 J. E. Peralta, F. Ogliaro, M. Bearpark, J. J. Heyd, E. Brothers, 
 K. N. Kudin, V. N. Staroverov, R. Kobayashi, J. Normand, 
 K. Raghavachari, A. Rendell, J. C. Burant, S. S. Iyengar, J. Tomasi, 
 M. Cossi, N. Rega, J. M. Millam, M. Klene, J. E. Knox, J. B. Cross, 
 V. Bakken, C. Adamo, J. Jaramillo, R. Gomperts, R. E. Stratmann, 
 O. Yazyev, A. J. Austin, R. Cammi, C. Pomelli, J. W. Ochterski, 
 R. L. Martin, K. Morokuma, V. G. Zakrzewski, G. A. Voth, 
 P. Salvador, J. J. Dannenberg, S. Dapprich, A. D. Daniels, 
 O. Farkas, J. B. Foresman, J. V. Ortiz, J. Cioslowski, 
 and D. J. Fox, Gaussian, Inc., Wallingford CT, 2009.
 
 ******************************************
 Gaussian 09:  EM64L-G09RevA.02 11-Jun-2009
                17-Aug-2024 
 ******************************************
 %mem=100MB
 ----------------------------------------
 #p mp2/cc-pVDZ opt freq pop=full gfinput
 ----------------------------------------
 1/18=20,19=15,38=1/1,3;
 2/9=110,12=2,17=6,18=5,40=1/2;
 3/5=16,11=9,16=1,24=10,25=1,30=1,71=1/1,2,3;
 4//1;
 5/5=2,38=5/2;
 8/6=4,10=1/1;
 9/15=2,16=-3/6;
 10/5=1/2;
 6/7=3/1;
 7/12=2/1,2,3,16;
 1/18=20,19=15/3(2);
 2/9=110/2;
 99//99;
 2/9=110/2;
 3/5=16,11=9,16=1,25=1,30=1,71=1/1,2,3;
 4/5=5,16=3/1;
 5/5=2,38=5/2;
 8/6=4,10=1/1;
 9/15=2,16=-3/6;
 10/5=1/2;
 7/12=2/1,2,3,16;
 1/18=20,19=15/3(-8);
 2/9=110/2;
 6/7=3/1;
 99//99;
 Leave Link    1 at Sat Aug 17 22:45:58 2024, MaxMem=   13107200 cpu:       0.1
 (Enter /programs/64bit/g09/g09-gfortran/bin/l101.exe)
 -----------------------------------------
 hydogen (molecule) with cc-pVDZ basis set
 -----------------------------------------
 Symbolic Z-matrix:
 Charge =  0 Multiplicity = 1
 H1
 H2                   1    d
       Variables:
  d                     0.74                     
 
 NAtoms=      2 NQM=      2 NQMF=      0 NMic=      0 NMicF=      0 NTot=      2.
                    Isotopes and Nuclear Properties:
 (Nuclear quadrupole moments (NQMom) in fm**2, nuclear magnetic moments (NMagM)
  in nuclear magnetons)

  Atom         1           2
 IAtWgt=           1           1
 AtmWgt=   1.0078250   1.0078250
 NucSpn=           1           1
 AtZEff=   0.0000000   0.0000000
 NQMom=    0.0000000   0.0000000
 NMagM=    2.7928460   2.7928460
 Leave Link  101 at Sat Aug 17 22:45:58 2024, MaxMem=   13107200 cpu:       0.1
 (Enter /programs/64bit/g09/g09-gfortran/bin/l103.exe)

 GradGradGradGradGradGradGradGradGradGradGradGradGradGradGradGradGradGrad
 Berny optimization.
 Initialization pass.
                           ----------------------------
                           !    Initial Parameters    !
                           ! (Angstroms and Degrees)  !
 --------------------------                            --------------------------
 ! Name  Definition              Value          Derivative Info.                !
 --------------------------------------------------------------------------------
 ! R1    R(1,2)                  0.74           estimate D2E/DX2                !
 --------------------------------------------------------------------------------
 Trust Radius=3.00D-01 FncErr=1.00D-07 GrdErr=1.00D-07
 Number of steps in this run=  20 maximum allowed number of steps= 100.
 GradGradGradGradGradGradGradGradGradGradGradGradGradGradGradGradGradGrad

 Leave Link  103 at Sat Aug 17 22:45:58 2024, MaxMem=   13107200 cpu:       0.0
 (Enter /programs/64bit/g09/g09-gfortran/bin/l202.exe)
                          Input orientation:                          
 ---------------------------------------------------------------------
 Center     Atomic      Atomic             Coordinates (Angstroms)
 Number     Number       Type             X           Y           Z
 ---------------------------------------------------------------------
      1          1           0        0.000000    0.000000    0.000000
      2          1           0        0.000000    0.000000    0.740000
 ---------------------------------------------------------------------
 Stoichiometry    H2
 Framework group  D*H[C*(H.H)]
 Deg. of freedom     1
 Full point group                 D*H     NOp   8
 Largest Abelian subgroup         D2H     NOp   8
 Largest concise Abelian subgroup C2      NOp   2
                         Standard orientation:                         
 ---------------------------------------------------------------------
 Center     Atomic      Atomic             Coordinates (Angstroms)
 Number     Number       Type             X           Y           Z
 ---------------------------------------------------------------------
      1          1           0        0.000000    0.000000    0.370000
      2          1           0        0.000000    0.000000   -0.370000
 ---------------------------------------------------------------------
 Rotational constants (GHZ):      0.0000000   1831.4649389   1831.4649389
 Leave Link  202 at Sat Aug 17 22:45:58 2024, MaxMem=   13107200 cpu:       0.0
 (Enter /programs/64bit/g09/g09-gfortran/bin/l301.exe)
 Standard basis: CC-pVDZ (5D, 7F)
 Ernie: Thresh=  0.10000D-02 Tol=  0.10000D-05 Strict=F.
 AO basis set in the form of general basis input (Overlap normalization):
      1 0
 S   3 1.00       0.000000000000
      0.1301000000D+02  0.3349872639D-01
      0.1962000000D+01  0.2348008012D+00
      0.4446000000D+00  0.8136829579D+00
 S   1 1.00       0.000000000000
      0.1220000000D+00  0.1000000000D+01
 P   1 1.00       0.000000000000
      0.7270000000D+00  0.1000000000D+01
 ****
      2 0
 S   3 1.00       0.000000000000
      0.1301000000D+02  0.3349872639D-01
      0.1962000000D+01  0.2348008012D+00
      0.4446000000D+00  0.8136829579D+00
 S   1 1.00       0.000000000000
      0.1220000000D+00  0.1000000000D+01
 P   1 1.00       0.000000000000
      0.7270000000D+00  0.1000000000D+01
 ****

 There are     3 symmetry adapted basis functions of AG  symmetry.
 There are     0 symmetry adapted basis functions of B1G symmetry.
 There are     1 symmetry adapted basis functions of B2G symmetry.
 There are     1 symmetry adapted basis functions of B3G symmetry.
 There are     0 symmetry adapted basis functions of AU  symmetry.
 There are     3 symmetry adapted basis functions of B1U symmetry.
 There are     1 symmetry adapted basis functions of B2U symmetry.
 There are     1 symmetry adapted basis functions of B3U symmetry.
 Integral buffers will be    131072 words long.
 Raffenetti 1 integral format.
 Two-electron integral symmetry is turned on.
    10 basis functions,    14 primitive gaussians,    10 cartesian basis functions
     1 alpha electrons        1 beta electrons
       nuclear repulsion energy         0.7151043359 Hartrees.
 IExCor=    0 DFT=F Ex=HF Corr=None ExCW=0 ScaHFX=  1.000000
 ScaDFX=  1.000000  1.000000  1.000000  1.000000 ScalE2=  1.000000  1.000000
 IRadAn=      0 IRanWt=     -1 IRanGd=            0 ICorTp=0
 NAtoms=    2 NActive=    2 NUniq=    1 SFac= 3.00D+00 NAtFMM=   80 NAOKFM=F Big=F
 Leave Link  301 at Sat Aug 17 22:45:58 2024, MaxMem=   13107200 cpu:       0.1
 (Enter /programs/64bit/g09/g09-gfortran/bin/l302.exe)
 NPDir=0 NMtPBC=     1 NCelOv=     1 NCel=       1 NClECP=     1 NCelD=      1
         NCelK=      1 NCelE2=     1 NClLst=     1 CellRange=     0.0.
 One-electron integrals computed using PRISM.
 One-electron integral symmetry used in STVInt
 NBasis=    10 RedAO= T  NBF=     3     0     1     1     0     3     1     1
 NBsUse=    10 1.00D-06 NBFU=     3     0     1     1     0     3     1     1
 Leave Link  302 at Sat Aug 17 22:45:58 2024, MaxMem=   13107200 cpu:       0.1
 (Enter /programs/64bit/g09/g09-gfortran/bin/l303.exe)
 DipDrv:  MaxL=1.
 Leave Link  303 at Sat Aug 17 22:45:58 2024, MaxMem=   13107200 cpu:       0.0
 (Enter /programs/64bit/g09/g09-gfortran/bin/l401.exe)
 Harris functional with IExCor=  205 diagonalized for initial guess.
 ExpMin= 1.22D-01 ExpMax= 1.30D+01 ExpMxC= 1.30D+01 IAcc=1 IRadAn=         1 AccDes= 0.00D+00
 HarFok:  IExCor=  205 AccDes= 0.00D+00 IRadAn=         1 IDoV= 1
 ScaDFX=  1.000000  1.000000  1.000000  1.000000
 FoFCou: FMM=F IPFlag=           0 FMFlag=      100000 FMFlg1=           0
         NFxFlg=           0 DoJE=T BraDBF=F KetDBF=T FulRan=T
         Omega=  0.000000  0.000000  1.000000  0.000000  0.000000 ICntrl=     500 IOpCl=  0
         NMat0=    1 NMatS0=    1 NMatT0=    0 NMatD0=    1 NMtDS0=    0 NMtDT0=    0
         I1Cent=           4 NGrid=           0.
 Petite list used in FoFCou.
 Harris En= -1.18087107548584    
 Initial guess orbital symmetries:
       Occupied  (SGG)
       Virtual   (SGU) (SGG) (SGU) (PIU) (PIU) (SGG) (PIG) (PIG)
                 (SGU)
 The electronic state of the initial guess is 1-SGG.
 Leave Link  401 at Sat Aug 17 22:45:59 2024, MaxMem=   13107200 cpu:       0.2
 (Enter /programs/64bit/g09/g09-gfortran/bin/l502.exe)
 Closed shell SCF:
 Requested convergence on RMS density matrix=1.00D-08 within 128 cycles.
 Requested convergence on MAX density matrix=1.00D-06.
 Requested convergence on             energy=1.00D-06.
 No special actions if energy rises.
 Using DIIS extrapolation, IDIIS=  1040.
 Integral symmetry usage will be decided dynamically.
 Keep R1 ints in memory in canonical form, NReq=821347.
 IEnd=       19793 IEndB=       19793 NGot=    13107200 MDV=    13102942
 LenX=    13102942 LenY=    13102060
 Symmetry not used in FoFDir.
 MinBra= 0 MaxBra= 1 Meth= 1.
 IRaf=       0 NMat=   1 IRICut=       1 DoRegI=T DoRafI=F ISym2E= 0 JSym2E=0.

 Cycle   1  Pass 1  IDiag  1:
 E= -1.12642027252111    
 DIIS: error= 1.17D-02 at cycle   1 NSaved=   1.
 NSaved= 1 IEnMin= 1 EnMin= -1.12642027252111     IErMin= 1 ErrMin= 1.17D-02
 ErrMax= 1.17D-02 EMaxC= 1.00D-01 BMatC= 1.01D-03 BMatP= 1.01D-03
 IDIUse=3 WtCom= 8.83D-01 WtEn= 1.17D-01
 Coeff-Com:  0.100D+01
 Coeff-En:   0.100D+01
 Coeff:      0.100D+01
 Gap=     0.801 Goal=   None    Shift=    0.000
 GapD=    0.801 DampG=2.000 DampE=0.500 DampFc=1.0000 IDamp=-1.
 RMSDP=3.85D-03 MaxDP=1.61D-02              OVMax= 2.93D-02

 Cycle   2  Pass 1  IDiag  1:
 E= -1.12862132088411     Delta-E=       -0.002201048363 Rises=F Damp=F
 DIIS: error= 2.38D-03 at cycle   2 NSaved=   2.
 NSaved= 2 IEnMin= 2 EnMin= -1.12862132088411     IErMin= 2 ErrMin= 2.38D-03
 ErrMax= 2.38D-03 EMaxC= 1.00D-01 BMatC= 3.43D-05 BMatP= 1.01D-03
 IDIUse=3 WtCom= 9.76D-01 WtEn= 2.38D-02
 Coeff-Com: -0.216D+00 0.122D+01
 Coeff-En:   0.000D+00 0.100D+01
 Coeff:     -0.211D+00 0.121D+01
 Gap=     0.790 Goal=   None    Shift=    0.000
 RMSDP=8.91D-04 MaxDP=3.79D-03 DE=-2.20D-03 OVMax= 6.61D-03

 Cycle   3  Pass 1  IDiag  1:
 E= -1.12870001068358     Delta-E=       -0.000078689799 Rises=F Damp=F
 DIIS: error= 1.15D-04 at cycle   3 NSaved=   3.
 NSaved= 3 IEnMin= 3 EnMin= -1.12870001068358     IErMin= 3 ErrMin= 1.15D-04
 ErrMax= 1.15D-04 EMaxC= 1.00D-01 BMatC= 7.44D-08 BMatP= 3.43D-05
 IDIUse=3 WtCom= 9.99D-01 WtEn= 1.15D-03
 Coeff-Com:  0.426D-01-0.246D+00 0.120D+01
 Coeff-En:   0.000D+00 0.000D+00 0.100D+01
 Coeff:      0.426D-01-0.246D+00 0.120D+01
 Gap=     0.790 Goal=   None    Shift=    0.000
 RMSDP=2.50D-05 MaxDP=1.04D-04 DE=-7.87D-05 OVMax= 1.07D-04

 Cycle   4  Pass 1  IDiag  1:
 E= -1.12870009353932     Delta-E=       -0.000000082856 Rises=F Damp=F
 DIIS: error= 1.75D-06 at cycle   4 NSaved=   4.
 NSaved= 4 IEnMin= 4 EnMin= -1.12870009353932     IErMin= 4 ErrMin= 1.75D-06
 ErrMax= 1.75D-06 EMaxC= 1.00D-01 BMatC= 2.45D-11 BMatP= 7.44D-08
 IDIUse=1 WtCom= 1.00D+00 WtEn= 0.00D+00
 Coeff-Com: -0.617D-06-0.887D-03 0.345D-02 0.997D+00
 Coeff:     -0.617D-06-0.887D-03 0.345D-02 0.997D+00
 Gap=     0.790 Goal=   None    Shift=    0.000
 RMSDP=7.32D-07 MaxDP=3.09D-06 DE=-8.29D-08 OVMax= 5.60D-06

 Cycle   5  Pass 1  IDiag  1:
 E= -1.12870009359446     Delta-E=       -0.000000000055 Rises=F Damp=F
 DIIS: error= 1.70D-09 at cycle   5 NSaved=   5.
 NSaved= 5 IEnMin= 5 EnMin= -1.12870009359446     IErMin= 5 ErrMin= 1.70D-09
 ErrMax= 1.70D-09 EMaxC= 1.00D-01 BMatC= 2.29D-17 BMatP= 2.45D-11
 IDIUse=1 WtCom= 1.00D+00 WtEn= 0.00D+00
 Large coefficients: NSaved=  5 BigCof=    0.00 CofMax=   10.00 Det=-1.02D-27
 Inversion failed.  Reducing to  4 matrices.
 Coeff-Com: -0.276D-07 0.426D-06 0.994D-03 0.999D+00
 Coeff:     -0.276D-07 0.426D-06 0.994D-03 0.999D+00
 Gap=     0.790 Goal=   None    Shift=    0.000
 RMSDP=7.13D-10 MaxDP=3.01D-09 DE=-5.51D-11 OVMax= 5.43D-09

 SCF Done:  E(RHF) =  -1.12870009359     A.U. after    5 cycles
             Convg  =    0.7126D-09             -V/T =  2.0287
 KE= 1.097181496516D+00 PE=-3.599968381633D+00 EE= 6.589824555901D-01
 Leave Link  502 at Sat Aug 17 22:45:59 2024, MaxMem=   13107200 cpu:       0.1
 (Enter /programs/64bit/g09/g09-gfortran/bin/l801.exe)
 Range of M.O.s used for correlation:     1    10
 NBasis=    10 NAE=     1 NBE=     1 NFC=     0 NFV=     0
 NROrb=     10 NOA=     1 NOB=     1 NVA=     9 NVB=     9
 Leave Link  801 at Sat Aug 17 22:45:59 2024, MaxMem=   13107200 cpu:       0.0
 (Enter /programs/64bit/g09/g09-gfortran/bin/l906.exe)
 FulOut=F Deriv=T AODrv=T NAtomX=     2
   MMem=       12362  MDisk=           1 MDiskD=           1
  W3Min=         100 MinDsk=       50965 NBas6D=          10
 NBas2D=          61    NTT=          55    LW2=     2000000
    MDV=    13104155 MDiskM=       11566 NBas2p=          36
 Fully direct method using O(ONN) memory.
 IMap=   1
 JobTyp=1 Pass  1:  I=   1 to   1 NPSUse=  1 ParTrn=F ParDer=F DoDerP=T.
 Spin components of T(2) and E(2):
     alpha-alpha T2 =       0.0000000000D+00 E2=      0.0000000000D+00
     alpha-beta  T2 =       0.9053945743D-02 E2=     -0.2637155766D-01
     beta-beta   T2 =       0.0000000000D+00 E2=      0.0000000000D+00
 The integrals were generated   1 times.
 ANorm=    0.1004516772D+01
 E2 =    -0.2637155766D-01 EUMP2 =    -0.11550716512585D+01
 Leave Link  906 at Sat Aug 17 22:45:59 2024, MaxMem=   13107200 cpu:       0.1
 (Enter /programs/64bit/g09/g09-gfortran/bin/l1002.exe)
 Minotr:  Closed shell wavefunction.
          Computing MP2/KS-MP2 derivatives.
          Using Z-Vector for PSCF gradient.
          Skipping F1 and S1 gradient terms here.
          IDoAtm=11
          Direct CPHF calculation.
          Differentiating once with respect to electric field.
                with respect to dipole field.
          Differentiating once with respect to nuclear coordinates.
          Using symmetry in CPHF.
          Requested convergence is 1.0D-10 RMS, and 1.0D-09 maximum.
          NewPWx=F KeepS1=T KeepF1=T KeepIn=T MapXYZ=F SortEE=F KeepMc=T.
          MDV=      13107176 using IRadAn=       0.
          Keep R1 ints in memory in canonical form, NReq=802043.
 Symmetry not used in FoFDir.
 MinBra= 0 MaxBra= 1 Meth= 1.
 IRaf=       0 NMat=   1 IRICut=       1 DoRegI=T DoRafI=F ISym2E= 0 JSym2E=0.
          Solving linear equations separately, MaxMat=       0.
          There are     1 degrees of freedom in the 1st order CPHF.  IDoFFX=0.
 LinEq1:  Iter=  0 NonCon=     1 RMS=5.02D-03 Max=1.16D-02
 AX will form     1 AO Fock derivatives at one time.
 LinEq1:  Iter=  1 NonCon=     1 RMS=1.06D-04 Max=2.45D-04
 LinEq1:  Iter=  2 NonCon=     0 RMS=1.64D-20 Max=4.65D-20
 Linear equations converged to 1.000D-10 1.000D-09 after     2 iterations.
 End of Minotr Frequency-dependent properties file   721 does not exist.
 End of Minotr Frequency-dependent properties file   722 does not exist.
 Leave Link 1002 at Sat Aug 17 22:45:59 2024, MaxMem=   13107200 cpu:       0.1
 (Enter /programs/64bit/g09/g09-gfortran/bin/l601.exe)
 Copying SCF densities to generalized density rwf, IOpCl= 0 IROHF=0.

 **********************************************************************

            Population analysis using the SCF density.

 **********************************************************************

 Orbital symmetries:
       Occupied  (SGG)
       Virtual   (SGU) (SGG) (SGU) (PIU) (PIU) (SGG) (PIG) (PIG)
                 (SGU)
 The electronic state is 1-SGG.
 Alpha  occ. eigenvalues --   -0.59241
 Alpha virt. eigenvalues --    0.19744   0.47932   0.93732   1.29290   1.29290
 Alpha virt. eigenvalues --    1.95702   2.04352   2.04352   3.61047
     Molecular Orbital Coefficients:
                           1         2         3         4         5
                       (SGG)--O  (SGU)--V  (SGG)--V  (SGU)--V  (PIU)--V
     Eigenvalues --    -0.59241   0.19744   0.47932   0.93732   1.29290
   1 1   H  1S          0.40366   0.15024  -0.70011  -0.76067   0.00000
   2        2S          0.17376   1.95866   0.72637   1.61734   0.00000
   3        3PX         0.00000   0.00000   0.00000   0.00000   0.00000
   4        3PY         0.00000   0.00000   0.00000   0.00000   0.57904
   5        3PZ        -0.02250  -0.01425   0.01127  -0.41022   0.00000
   6 2   H  1S          0.40366  -0.15024  -0.70011   0.76067   0.00000
   7        2S          0.17376  -1.95866   0.72637  -1.61734   0.00000
   8        3PX         0.00000   0.00000   0.00000   0.00000   0.00000
   9        3PY         0.00000   0.00000   0.00000   0.00000   0.57904
  10        3PZ         0.02250  -0.01425  -0.01127  -0.41022   0.00000
                           6         7         8         9        10
                       (PIU)--V  (SGG)--V  (PIG)--V  (PIG)--V  (SGU)--V
     Eigenvalues --     1.29290   1.95702   2.04352   2.04352   3.61047
   1 1   H  1S          0.00000   0.44373   0.00000   0.00000   2.68618
   2        2S          0.00000  -0.22106   0.00000   0.00000   0.05058
   3        3PX         0.57904   0.00000   0.99135   0.00000   0.00000
   4        3PY         0.00000   0.00000   0.00000   0.99135   0.00000
   5        3PZ         0.00000   0.72690   0.00000   0.00000  -2.02675
   6 2   H  1S          0.00000   0.44373   0.00000   0.00000  -2.68618
   7        2S          0.00000  -0.22106   0.00000   0.00000  -0.05058
   8        3PX         0.57904   0.00000  -0.99135   0.00000   0.00000
   9        3PY         0.00000   0.00000   0.00000  -0.99135   0.00000
  10        3PZ         0.00000  -0.72690   0.00000   0.00000  -2.02675
     Density Matrix:
                           1         2         3         4         5
   1 1   H  1S          0.32589
   2        2S          0.14028   0.06039
   3        3PX        -0.00000  -0.00000   0.00000
   4        3PY        -0.00000  -0.00000   0.00000   0.00000
   5        3PZ        -0.01816  -0.00782   0.00000   0.00000   0.00101
   6 2   H  1S          0.32589   0.14028  -0.00000  -0.00000  -0.01816
   7        2S          0.14028   0.06039  -0.00000  -0.00000  -0.00782
   8        3PX         0.00000   0.00000  -0.00000  -0.00000  -0.00000
   9        3PY         0.00000   0.00000  -0.00000  -0.00000  -0.00000
  10        3PZ         0.01816   0.00782  -0.00000  -0.00000  -0.00101
                           6         7         8         9        10
   6 2   H  1S          0.32589
   7        2S          0.14028   0.06039
   8        3PX         0.00000   0.00000   0.00000
   9        3PY         0.00000   0.00000   0.00000   0.00000
  10        3PZ         0.01816   0.00782   0.00000   0.00000   0.00101
    Full Mulliken population analysis:
                           1         2         3         4         5
   1 1   H  1S          0.32589
   2        2S          0.09607   0.06039
   3        3PX         0.00000   0.00000   0.00000
   4        3PY         0.00000   0.00000   0.00000   0.00000
   5        3PZ         0.00000   0.00000   0.00000   0.00000   0.00101
   6 2   H  1S          0.18599   0.07933   0.00000   0.00000   0.00976
   7        2S          0.07933   0.05360   0.00000   0.00000   0.00128
   8        3PX         0.00000   0.00000  -0.00000   0.00000   0.00000
   9        3PY         0.00000   0.00000   0.00000  -0.00000   0.00000
  10        3PZ         0.00976   0.00128   0.00000   0.00000   0.00021
                           6         7         8         9        10
   6 2   H  1S          0.32589
   7        2S          0.09607   0.06039
   8        3PX         0.00000   0.00000   0.00000
   9        3PY         0.00000   0.00000   0.00000   0.00000
  10        3PZ         0.00000   0.00000   0.00000   0.00000   0.00101
     Gross orbital populations:
                           1
   1 1   H  1S          0.69705
   2        2S          0.29068
   3        3PX         0.00000
   4        3PY         0.00000
   5        3PZ         0.01227
   6 2   H  1S          0.69705
   7        2S          0.29068
   8        3PX         0.00000
   9        3PY         0.00000
  10        3PZ         0.01227
          Condensed to atoms (all electrons):
              1          2
     1  H    0.579440   0.420560
     2  H    0.420560   0.579440
 Mulliken atomic charges:
              1
     1  H    0.000000
     2  H    0.000000
 Sum of Mulliken atomic charges =   0.00000
 Mulliken charges with hydrogens summed into heavy atoms:
              1
 Sum of Mulliken charges with hydrogens summed into heavy atoms =   0.00000
 Electronic spatial extent (au):  <R**2>=              5.0694
 Charge=              0.0000 electrons
 Dipole moment (field-independent basis, Debye):
    X=              0.0000    Y=             -0.0000    Z=              0.0000  Tot=              0.0000
 Quadrupole moment (field-independent basis, Debye-Ang):
   XX=             -2.0331   YY=             -2.0331   ZZ=             -1.4372
   XY=             -0.0000   XZ=             -0.0000   YZ=              0.0000
 Traceless Quadrupole moment (field-independent basis, Debye-Ang):
   XX=             -0.1987   YY=             -0.1987   ZZ=              0.3973
   XY=             -0.0000   XZ=             -0.0000   YZ=              0.0000
 Octapole moment (field-independent basis, Debye-Ang**2):
  XXX=             -0.0000  YYY=              0.0000  ZZZ=              0.0000  XYY=             -0.0000
  XXY=              0.0000  XXZ=              0.0000  XZZ=             -0.0000  YZZ=              0.0000
  YYZ=              0.0000  XYZ=              0.0000
 Hexadecapole moment (field-independent basis, Debye-Ang**3):
 XXXX=             -1.9104 YYYY=             -1.9104 ZZZZ=             -2.7243 XXXY=             -0.0000
 XXXZ=              0.0000 YYYX=             -0.0000 YYYZ=              0.0000 ZZZX=              0.0000
 ZZZY=              0.0000 XXYY=             -0.6368 XXZZ=             -0.7898 YYZZ=             -0.7898
 XXYZ=              0.0000 YYXZ=              0.0000 ZZXY=             -0.0000
 N-N= 7.151043359324D-01 E-N=-3.599968385103D+00  KE= 1.097181496516D+00
 Symmetry AG   KE= 1.097181496516D+00
 Symmetry B1G  KE= 0.000000000000D+00
 Symmetry B2G  KE= 3.212638873061D-34
 Symmetry B3G  KE= 3.212638873061D-34
 Symmetry AU   KE= 0.000000000000D+00
 Symmetry B1U  KE= 2.751836359054D-32
 Symmetry B2U  KE= 6.241997710587D-35
 Symmetry B3U  KE= 6.241997710587D-35
 Orbital energies and kinetic energies (alpha):
                                 1                 2
   1         (SGG)--O         -0.592411          0.548591
   2         (SGU)--V          0.197440          0.341110
   3         (SGG)--V          0.479321          0.881427
   4         (SGU)--V          0.937324          1.647496
   5         (PIU)--V          1.292904          1.647267
   6         (PIU)--V          1.292904          1.647267
   7         (SGG)--V          1.957023          2.350142
   8         (PIG)--V          2.043520          2.316470
   9         (PIG)--V          2.043520          2.316470
  10         (SGU)--V          3.610474          4.654562
 Total kinetic energy from orbitals= 1.097181496516D+00
 No NMR shielding tensors so no spin-rotation constants.
 Leave Link  601 at Sat Aug 17 22:45:59 2024, MaxMem=   13107200 cpu:       0.1
 (Enter /programs/64bit/g09/g09-gfortran/bin/l701.exe)
 Compute integral first derivatives.
 ... and contract with generalized density number  2.
 Leave Link  701 at Sat Aug 17 22:45:59 2024, MaxMem=   13107200 cpu:       0.1
 (Enter /programs/64bit/g09/g09-gfortran/bin/l702.exe)
 L702 exits ... SP integral derivatives will be done elsewhere.
 Leave Link  702 at Sat Aug 17 22:45:59 2024, MaxMem=   13107200 cpu:       0.0
 (Enter /programs/64bit/g09/g09-gfortran/bin/l703.exe)
 Compute integral first derivatives, UseDBF=F ICtDFT=           0.
 Integral derivatives from FoFDir, PRISM(SPDF).
 Calling FoFJK, ICntrl=      2127 FMM=F ISym2X=1 I1Cent= 0 IOpClX= 0 NMat=1 NMatS=1 NMatT=0.
 FoFCou: FMM=F IPFlag=           0 FMFlag=      100000 FMFlg1=         800
         NFxFlg=           0 DoJE=F BraDBF=F KetDBF=F FulRan=T
         Omega=  0.000000  0.000000  1.000000  0.000000  0.000000 ICntrl=    2127 IOpCl=  0
         NMat0=    1 NMatS0=    1 NMatT0=    0 NMatD0=    1 NMtDS0=    0 NMtDT0=    0
         I1Cent=           0 NGrid=           0.
 Petite list used in FoFCou.
 Leave Link  703 at Sat Aug 17 22:45:59 2024, MaxMem=   13107200 cpu:       0.1
 (Enter /programs/64bit/g09/g09-gfortran/bin/l716.exe)
 Dipole        = 4.93038066D-32-4.81482486D-35 0.00000000D+00
 ***** Axes restored to original set *****
 -------------------------------------------------------------------
 Center     Atomic                   Forces (Hartrees/Bohr)
 Number     Number              X              Y              Z
 -------------------------------------------------------------------
      1        1           0.000000000    0.000000000   -0.010968353
      2        1          -0.000000000   -0.000000000    0.010968353
 -------------------------------------------------------------------
 Cartesian Forces:  Max     0.010968353 RMS     0.006332581
 Leave Link  716 at Sat Aug 17 22:46:00 2024, MaxMem=   13107200 cpu:       0.1
 (Enter /programs/64bit/g09/g09-gfortran/bin/l103.exe)

 GradGradGradGradGradGradGradGradGradGradGradGradGradGradGradGradGradGrad
 Berny optimization.
 Internal  Forces:  Max     0.010968353 RMS     0.010968353
 Search for a local minimum.
 Step number   1 out of a maximum of   20
 All quantities printed in internal units (Hartrees-Bohrs-Radians)
 RMS Force = .10968D-01 SwitMx=.10000D-02 MixMth= 1
 Mixed Optimization -- RFO/linear search
 Second derivative matrix not updated -- first step.
 The second derivative matrix:
                          R1
           R1           0.39139
     Eigenvalues ---    0.39139
 RFO step:  Lambda=-3.07133905D-04 EMin= 3.91394209D-01
 Linear search not attempted -- first point.
 Iteration  1 RMS(Cart)=  0.01980028 RMS(Int)=  0.00000000
 Iteration  2 RMS(Cart)=  0.00000000 RMS(Int)=  0.00000000
 ClnCor:  largest displacement from symmetrization is 8.57D-19 for atom     2.
 Variable       Old X    -DE/DX   Delta X   Delta X   Delta X     New X
                                 (Linear)    (Quad)   (Total)
    R1        1.39840   0.01097   0.00000   0.02800   0.02800   1.42640
         Item               Value     Threshold  Converged?
 Maximum Force            0.010968     0.000450     NO 
 RMS     Force            0.010968     0.000300     NO 
 Maximum Displacement     0.014001     0.001800     NO 
 RMS     Displacement     0.019800     0.001200     NO 
 Predicted change in Energy=-1.536874D-04
 GradGradGradGradGradGradGradGradGradGradGradGradGradGradGradGradGradGrad

 Leave Link  103 at Sat Aug 17 22:46:00 2024, MaxMem=   13107200 cpu:       0.0
 (Enter /programs/64bit/g09/g09-gfortran/bin/l202.exe)
                          Input orientation:                          
 ---------------------------------------------------------------------
 Center     Atomic      Atomic             Coordinates (Angstroms)
 Number     Number       Type             X           Y           Z
 ---------------------------------------------------------------------
      1          1           0        0.000000    0.000000   -0.007409
      2          1           0        0.000000    0.000000    0.747409
 ---------------------------------------------------------------------
 Stoichiometry    H2
 Framework group  D*H[C*(H.H)]
 Deg. of freedom     1
 Full point group                 D*H     NOp   8
 Largest Abelian subgroup         D2H     NOp   8
 Largest concise Abelian subgroup C2      NOp   2
                         Standard orientation:                         
 ---------------------------------------------------------------------
 Center     Atomic      Atomic             Coordinates (Angstroms)
 Number     Number       Type             X           Y           Z
 ---------------------------------------------------------------------
      1          1           0        0.000000    0.000000    0.377409
      2          1           0        0.000000    0.000000   -0.377409
 ---------------------------------------------------------------------
 Rotational constants (GHZ):      0.0000000   1760.2633025   1760.2633025
 Leave Link  202 at Sat Aug 17 22:46:00 2024, MaxMem=   13107200 cpu:       0.0
 (Enter /programs/64bit/g09/g09-gfortran/bin/l301.exe)
 Standard basis: CC-pVDZ (5D, 7F)
 Ernie: Thresh=  0.10000D-02 Tol=  0.10000D-05 Strict=F.
 There are     3 symmetry adapted basis functions of AG  symmetry.
 There are     0 symmetry adapted basis functions of B1G symmetry.
 There are     1 symmetry adapted basis functions of B2G symmetry.
 There are     1 symmetry adapted basis functions of B3G symmetry.
 There are     0 symmetry adapted basis functions of AU  symmetry.
 There are     3 symmetry adapted basis functions of B1U symmetry.
 There are     1 symmetry adapted basis functions of B2U symmetry.
 There are     1 symmetry adapted basis functions of B3U symmetry.
 Integral buffers will be    131072 words long.
 Raffenetti 1 integral format.
 Two-electron integral symmetry is turned on.
    10 basis functions,    14 primitive gaussians,    10 cartesian basis functions
     1 alpha electrons        1 beta electrons
       nuclear repulsion energy         0.7010660305 Hartrees.
 IExCor=    0 DFT=F Ex=HF Corr=None ExCW=0 ScaHFX=  1.000000
 ScaDFX=  1.000000  1.000000  1.000000  1.000000 ScalE2=  1.000000  1.000000
 IRadAn=      0 IRanWt=     -1 IRanGd=            0 ICorTp=0
 NAtoms=    2 NActive=    2 NUniq=    1 SFac= 3.00D+00 NAtFMM=   80 NAOKFM=F Big=F
 Leave Link  301 at Sat Aug 17 22:46:00 2024, MaxMem=   13107200 cpu:       0.1
 (Enter /programs/64bit/g09/g09-gfortran/bin/l302.exe)
 NPDir=0 NMtPBC=     1 NCelOv=     1 NCel=       1 NClECP=     1 NCelD=      1
         NCelK=      1 NCelE2=     1 NClLst=     1 CellRange=     0.0.
 One-electron integrals computed using PRISM.
 One-electron integral symmetry used in STVInt
 NBasis=    10 RedAO= T  NBF=     3     0     1     1     0     3     1     1
 NBsUse=    10 1.00D-06 NBFU=     3     0     1     1     0     3     1     1
 Leave Link  302 at Sat Aug 17 22:46:00 2024, MaxMem=   13107200 cpu:       0.1
 (Enter /programs/64bit/g09/g09-gfortran/bin/l303.exe)
 DipDrv:  MaxL=1.
 Leave Link  303 at Sat Aug 17 22:46:00 2024, MaxMem=   13107200 cpu:       0.0
 (Enter /programs/64bit/g09/g09-gfortran/bin/l401.exe)
 Initial guess read from the read-write file.
 B after Tr=     0.000000    0.000000    0.000000
         Rot=    1.000000    0.000000    0.000000    0.000000 Ang=   0.00 deg.
 Guess basis will be translated and rotated to current coordinates.
 Initial guess orbital symmetries:
       Occupied  (SGG)
       Virtual   (SGU) (SGG) (SGU) (PIU) (PIU) (SGG) (PIG) (PIG)
                 (SGU)
 The electronic state of the initial guess is 1-SGG.
 Leave Link  401 at Sat Aug 17 22:46:00 2024, MaxMem=   13107200 cpu:       0.1
 (Enter /programs/64bit/g09/g09-gfortran/bin/l502.exe)
 Closed shell SCF:
 Requested convergence on RMS density matrix=1.00D-08 within 128 cycles.
 Requested convergence on MAX density matrix=1.00D-06.
 Requested convergence on             energy=1.00D-06.
 No special actions if energy rises.
 Using DIIS extrapolation, IDIIS=  1040.
 Integral symmetry usage will be decided dynamically.
 Keep R1 ints in memory in canonical form, NReq=821347.
 IEnd=       19793 IEndB=       19793 NGot=    13107200 MDV=    13102942
 LenX=    13102942 LenY=    13102060
 Symmetry not used in FoFDir.
 MinBra= 0 MaxBra= 1 Meth= 1.
 IRaf=       0 NMat=   1 IRICut=       1 DoRegI=T DoRafI=F ISym2E= 0 JSym2E=0.

 Cycle   1  Pass 1  IDiag  1:
 E= -1.12868167514815    
 DIIS: error= 1.40D-03 at cycle   1 NSaved=   1.
 NSaved= 1 IEnMin= 1 EnMin= -1.12868167514815     IErMin= 1 ErrMin= 1.40D-03
 ErrMax= 1.40D-03 EMaxC= 1.00D-01 BMatC= 1.41D-05 BMatP= 1.41D-05
 IDIUse=3 WtCom= 9.86D-01 WtEn= 1.40D-02
 Coeff-Com:  0.100D+01
 Coeff-En:   0.100D+01
 Coeff:      0.100D+01
 Gap=     0.783 Goal=   None    Shift=    0.000
 GapD=    0.783 DampG=2.000 DampE=1.000 DampFc=2.0000 IDamp=-1.
 RMSDP=4.39D-04 MaxDP=1.84D-03              OVMax= 3.43D-03

 Cycle   2  Pass 1  IDiag  1:
 E= -1.12871186535297     Delta-E=       -0.000030190205 Rises=F Damp=F
 DIIS: error= 2.70D-04 at cycle   2 NSaved=   2.
 NSaved= 2 IEnMin= 2 EnMin= -1.12871186535297     IErMin= 2 ErrMin= 2.70D-04
 ErrMax= 2.70D-04 EMaxC= 1.00D-01 BMatC= 4.44D-07 BMatP= 1.41D-05
 IDIUse=3 WtCom= 9.97D-01 WtEn= 2.70D-03
 Coeff-Com: -0.206D+00 0.121D+01
 Coeff-En:   0.000D+00 0.100D+01
 Coeff:     -0.206D+00 0.121D+01
 Gap=     0.783 Goal=   None    Shift=    0.000
 RMSDP=1.01D-04 MaxDP=4.28D-04 DE=-3.02D-05 OVMax= 7.50D-04

 Cycle   3  Pass 1  IDiag  1:
 E= -1.12871288365946     Delta-E=       -0.000001018306 Rises=F Damp=F
 DIIS: error= 1.34D-05 at cycle   3 NSaved=   3.
 NSaved= 3 IEnMin= 3 EnMin= -1.12871288365946     IErMin= 3 ErrMin= 1.34D-05
 ErrMax= 1.34D-05 EMaxC= 1.00D-01 BMatC= 9.90D-10 BMatP= 4.44D-07
 IDIUse=1 WtCom= 1.00D+00 WtEn= 0.00D+00
 Coeff-Com:  0.405D-01-0.244D+00 0.120D+01
 Coeff:      0.405D-01-0.244D+00 0.120D+01
 Gap=     0.783 Goal=   None    Shift=    0.000
 RMSDP=3.03D-06 MaxDP=1.28D-05 DE=-1.02D-06 OVMax= 1.38D-05

 Cycle   4  Pass 1  IDiag  1:
 E= -1.12871288479414     Delta-E=       -0.000000001135 Rises=F Damp=F
 DIIS: error= 2.15D-08 at cycle   4 NSaved=   4.
 NSaved= 4 IEnMin= 4 EnMin= -1.12871288479414     IErMin= 4 ErrMin= 2.15D-08
 ErrMax= 2.15D-08 EMaxC= 1.00D-01 BMatC= 3.70D-15 BMatP= 9.90D-10
 IDIUse=1 WtCom= 1.00D+00 WtEn= 0.00D+00
 Coeff-Com:  0.172D-06-0.975D-04 0.368D-03 0.100D+01
 Coeff:      0.172D-06-0.975D-04 0.368D-03 0.100D+01
 Gap=     0.783 Goal=   None    Shift=    0.000
 RMSDP=8.96D-09 MaxDP=3.78D-08 DE=-1.13D-09 OVMax= 6.87D-08

 SCF Done:  E(RHF) =  -1.12871288479     A.U. after    4 cycles
             Convg  =    0.8964D-08             -V/T =  2.0413
 KE= 1.083980610256D+00 PE=-3.567593593653D+00 EE= 6.538340680817D-01
 Leave Link  502 at Sat Aug 17 22:46:00 2024, MaxMem=   13107200 cpu:       0.1
 (Enter /programs/64bit/g09/g09-gfortran/bin/l801.exe)
 Range of M.O.s used for correlation:     1    10
 NBasis=    10 NAE=     1 NBE=     1 NFC=     0 NFV=     0
 NROrb=     10 NOA=     1 NOB=     1 NVA=     9 NVB=     9
 Leave Link  801 at Sat Aug 17 22:46:00 2024, MaxMem=   13107200 cpu:       0.0
 (Enter /programs/64bit/g09/g09-gfortran/bin/l906.exe)
 FulOut=F Deriv=T AODrv=T NAtomX=     2
   MMem=       12362  MDisk=           1 MDiskD=           1
  W3Min=         100 MinDsk=       50965 NBas6D=          10
 NBas2D=          61    NTT=          55    LW2=     2000000
    MDV=    13104155 MDiskM=       11566 NBas2p=          36
 Fully direct method using O(ONN) memory.
 IMap=   1
 JobTyp=1 Pass  1:  I=   1 to   1 NPSUse=  1 ParTrn=F ParDer=F DoDerP=T.
 Spin components of T(2) and E(2):
     alpha-alpha T2 =       0.0000000000D+00 E2=      0.0000000000D+00
     alpha-beta  T2 =       0.9216562919D-02 E2=     -0.2650525421D-01
     beta-beta   T2 =       0.0000000000D+00 E2=      0.0000000000D+00
 The integrals were generated   1 times.
 ANorm=    0.1004597712D+01
 E2 =    -0.2650525421D-01 EUMP2 =    -0.11552181390042D+01
 Leave Link  906 at Sat Aug 17 22:46:00 2024, MaxMem=   13107200 cpu:       0.1
 (Enter /programs/64bit/g09/g09-gfortran/bin/l1002.exe)
 Minotr:  Closed shell wavefunction.
          Computing MP2/KS-MP2 derivatives.
          Using Z-Vector for PSCF gradient.
          Skipping F1 and S1 gradient terms here.
          IDoAtm=11
          Direct CPHF calculation.
          Differentiating once with respect to electric field.
                with respect to dipole field.
          Differentiating once with respect to nuclear coordinates.
          Using symmetry in CPHF.
          Requested convergence is 1.0D-10 RMS, and 1.0D-09 maximum.
          NewPWx=F KeepS1=T KeepF1=T KeepIn=T MapXYZ=F SortEE=F KeepMc=T.
          MDV=      13107176 using IRadAn=       0.
          Keep R1 ints in memory in canonical form, NReq=802043.
 Symmetry not used in FoFDir.
 MinBra= 0 MaxBra= 1 Meth= 1.
 IRaf=       0 NMat=   1 IRICut=       1 DoRegI=T DoRafI=F ISym2E= 0 JSym2E=0.
          Solving linear equations separately, MaxMat=       0.
          There are     1 degrees of freedom in the 1st order CPHF.  IDoFFX=0.
 LinEq1:  Iter=  0 NonCon=     1 RMS=5.28D-03 Max=1.24D-02
 AX will form     1 AO Fock derivatives at one time.
 LinEq1:  Iter=  1 NonCon=     1 RMS=1.05D-04 Max=2.46D-04
 LinEq1:  Iter=  2 NonCon=     0 RMS=1.64D-19 Max=4.75D-19
 Linear equations converged to 1.000D-10 1.000D-09 after     2 iterations.
 End of Minotr Frequency-dependent properties file   721 does not exist.
 End of Minotr Frequency-dependent properties file   722 does not exist.
 Leave Link 1002 at Sat Aug 17 22:46:01 2024, MaxMem=   13107200 cpu:       0.1
 (Enter /programs/64bit/g09/g09-gfortran/bin/l701.exe)
 Compute integral first derivatives.
 ... and contract with generalized density number  2.
 Leave Link  701 at Sat Aug 17 22:46:01 2024, MaxMem=   13107200 cpu:       0.1
 (Enter /programs/64bit/g09/g09-gfortran/bin/l702.exe)
 L702 exits ... SP integral derivatives will be done elsewhere.
 Leave Link  702 at Sat Aug 17 22:46:01 2024, MaxMem=   13107200 cpu:       0.0
 (Enter /programs/64bit/g09/g09-gfortran/bin/l703.exe)
 Compute integral first derivatives, UseDBF=F ICtDFT=           0.
 Integral derivatives from FoFDir, PRISM(SPDF).
 Calling FoFJK, ICntrl=      2127 FMM=F ISym2X=1 I1Cent= 0 IOpClX= 0 NMat=1 NMatS=1 NMatT=0.
 FoFCou: FMM=F IPFlag=           0 FMFlag=      100000 FMFlg1=         800
         NFxFlg=           0 DoJE=F BraDBF=F KetDBF=F FulRan=T
         Omega=  0.000000  0.000000  1.000000  0.000000  0.000000 ICntrl=    2127 IOpCl=  0
         NMat0=    1 NMatS0=    1 NMatT0=    0 NMatD0=    1 NMtDS0=    0 NMtDT0=    0
         I1Cent=           0 NGrid=           0.
 Petite list used in FoFCou.
 Leave Link  703 at Sat Aug 17 22:46:01 2024, MaxMem=   13107200 cpu:       0.1
 (Enter /programs/64bit/g09/g09-gfortran/bin/l716.exe)
 Dipole        = 4.93038066D-32 4.81482486D-35 0.00000000D+00
 ***** Axes restored to original set *****
 -------------------------------------------------------------------
 Center     Atomic                   Forces (Hartrees/Bohr)
 Number     Number              X              Y              Z
 -------------------------------------------------------------------
      1        1           0.000000000    0.000000000    0.000332349
      2        1          -0.000000000   -0.000000000   -0.000332349
 -------------------------------------------------------------------
 Cartesian Forces:  Max     0.000332349 RMS     0.000191882
 Leave Link  716 at Sat Aug 17 22:46:01 2024, MaxMem=   13107200 cpu:       0.0
 (Enter /programs/64bit/g09/g09-gfortran/bin/l103.exe)

 GradGradGradGradGradGradGradGradGradGradGradGradGradGradGradGradGradGrad
 Berny optimization.
 Using GEDIIS/GDIIS optimizer.
 Internal  Forces:  Max     0.000332349 RMS     0.000332349
 Search for a local minimum.
 Step number   2 out of a maximum of   20
 All quantities printed in internal units (Hartrees-Bohrs-Radians)
 RMS Force = .33235D-03 SwitMx=.10000D-02 MixMth= 2
 Mixed Optimization -- En-DIIS/RFO-DIIS
 Update second derivatives using D2CorX and points    1    2
 DE= -1.46D-04 DEPred=-1.54D-04 R= 9.53D-01
 SS=  1.41D+00  RLast= 2.80D-02 DXNew= 5.0454D-01 8.4005D-02
 Trust test= 9.53D-01 RLast= 2.80D-02 DXMaxT set to 3.00D-01
 The second derivative matrix:
                          R1
           R1           0.40357
 Use linear search instead of GDIIS.
     Eigenvalues ---    0.40357
 RFO step:  Lambda= 0.00000000D+00 EMin= 4.03570168D-01
 Quartic linear search produced a step of -0.03077.
 Iteration  1 RMS(Cart)=  0.00060929 RMS(Int)=  0.00000000
 Iteration  2 RMS(Cart)=  0.00000000 RMS(Int)=  0.00000000
 ClnCor:  largest displacement from symmetrization is 2.64D-20 for atom     1.
 Variable       Old X    -DE/DX   Delta X   Delta X   Delta X     New X
                                 (Linear)    (Quad)   (Total)
    R1        1.42640  -0.00033  -0.00086   0.00000  -0.00086   1.42554
         Item               Value     Threshold  Converged?
 Maximum Force            0.000332     0.000450     YES
 RMS     Force            0.000332     0.000300     NO 
 Maximum Displacement     0.000431     0.001800     YES
 RMS     Displacement     0.000609     0.001200     YES
 Predicted change in Energy=-1.365547D-07
 GradGradGradGradGradGradGradGradGradGradGradGradGradGradGradGradGradGrad

 Leave Link  103 at Sat Aug 17 22:46:01 2024, MaxMem=   13107200 cpu:       0.0
 (Enter /programs/64bit/g09/g09-gfortran/bin/l202.exe)
                          Input orientation:                          
 ---------------------------------------------------------------------
 Center     Atomic      Atomic             Coordinates (Angstroms)
 Number     Number       Type             X           Y           Z
 ---------------------------------------------------------------------
      1          1           0        0.000000    0.000000   -0.007181
      2          1           0        0.000000    0.000000    0.747181
 ---------------------------------------------------------------------
 Stoichiometry    H2
 Framework group  D*H[C*(H.H)]
 Deg. of freedom     1
 Full point group                 D*H     NOp   8
 Largest Abelian subgroup         D2H     NOp   8
 Largest concise Abelian subgroup C2      NOp   2
                         Standard orientation:                         
 ---------------------------------------------------------------------
 Center     Atomic      Atomic             Coordinates (Angstroms)
 Number     Number       Type             X           Y           Z
 ---------------------------------------------------------------------
      1          1           0        0.000000    0.000000    0.377181
      2          1           0        0.000000    0.000000   -0.377181
 ---------------------------------------------------------------------
 Rotational constants (GHZ):      0.0000000   1762.3919167   1762.3919167
 Leave Link  202 at Sat Aug 17 22:46:01 2024, MaxMem=   13107200 cpu:       0.0
 (Enter /programs/64bit/g09/g09-gfortran/bin/l301.exe)
 Standard basis: CC-pVDZ (5D, 7F)
 Ernie: Thresh=  0.10000D-02 Tol=  0.10000D-05 Strict=F.
 There are     3 symmetry adapted basis functions of AG  symmetry.
 There are     0 symmetry adapted basis functions of B1G symmetry.
 There are     1 symmetry adapted basis functions of B2G symmetry.
 There are     1 symmetry adapted basis functions of B3G symmetry.
 There are     0 symmetry adapted basis functions of AU  symmetry.
 There are     3 symmetry adapted basis functions of B1U symmetry.
 There are     1 symmetry adapted basis functions of B2U symmetry.
 There are     1 symmetry adapted basis functions of B3U symmetry.
 Integral buffers will be    131072 words long.
 Raffenetti 1 integral format.
 Two-electron integral symmetry is turned on.
    10 basis functions,    14 primitive gaussians,    10 cartesian basis functions
     1 alpha electrons        1 beta electrons
       nuclear repulsion energy         0.7014897877 Hartrees.
 IExCor=    0 DFT=F Ex=HF Corr=None ExCW=0 ScaHFX=  1.000000
 ScaDFX=  1.000000  1.000000  1.000000  1.000000 ScalE2=  1.000000  1.000000
 IRadAn=      0 IRanWt=     -1 IRanGd=            0 ICorTp=0
 NAtoms=    2 NActive=    2 NUniq=    1 SFac= 3.00D+00 NAtFMM=   80 NAOKFM=F Big=F
 Leave Link  301 at Sat Aug 17 22:46:01 2024, MaxMem=   13107200 cpu:       0.1
 (Enter /programs/64bit/g09/g09-gfortran/bin/l302.exe)
 NPDir=0 NMtPBC=     1 NCelOv=     1 NCel=       1 NClECP=     1 NCelD=      1
         NCelK=      1 NCelE2=     1 NClLst=     1 CellRange=     0.0.
 One-electron integrals computed using PRISM.
 One-electron integral symmetry used in STVInt
 NBasis=    10 RedAO= T  NBF=     3     0     1     1     0     3     1     1
 NBsUse=    10 1.00D-06 NBFU=     3     0     1     1     0     3     1     1
 Leave Link  302 at Sat Aug 17 22:46:01 2024, MaxMem=   13107200 cpu:       0.1
 (Enter /programs/64bit/g09/g09-gfortran/bin/l303.exe)
 DipDrv:  MaxL=1.
 Leave Link  303 at Sat Aug 17 22:46:01 2024, MaxMem=   13107200 cpu:       0.0
 (Enter /programs/64bit/g09/g09-gfortran/bin/l401.exe)
 Initial guess read from the read-write file.
 B after Tr=     0.000000    0.000000    0.000000
         Rot=    1.000000    0.000000    0.000000    0.000000 Ang=   0.00 deg.
 Guess basis will be translated and rotated to current coordinates.
 Initial guess orbital symmetries:
       Occupied  (SGG)
       Virtual   (SGU) (SGG) (SGU) (PIU) (PIU) (SGG) (PIG) (PIG)
                 (SGU)
 The electronic state of the initial guess is 1-SGG.
 Leave Link  401 at Sat Aug 17 22:46:02 2024, MaxMem=   13107200 cpu:       0.1
 (Enter /programs/64bit/g09/g09-gfortran/bin/l502.exe)
 Closed shell SCF:
 Requested convergence on RMS density matrix=1.00D-08 within 128 cycles.
 Requested convergence on MAX density matrix=1.00D-06.
 Requested convergence on             energy=1.00D-06.
 No special actions if energy rises.
 Using DIIS extrapolation, IDIIS=  1040.
 Integral symmetry usage will be decided dynamically.
 Keep R1 ints in memory in canonical form, NReq=821347.
 IEnd=       19793 IEndB=       19793 NGot=    13107200 MDV=    13102942
 LenX=    13102942 LenY=    13102060
 Symmetry not used in FoFDir.
 MinBra= 0 MaxBra= 1 Meth= 1.
 IRaf=       0 NMat=   1 IRICut=       1 DoRegI=T DoRafI=F ISym2E= 0 JSym2E=0.

 Cycle   1  Pass 1  IDiag  1:
 E= -1.12871709730791    
 DIIS: error= 4.24D-05 at cycle   1 NSaved=   1.
 NSaved= 1 IEnMin= 1 EnMin= -1.12871709730791     IErMin= 1 ErrMin= 4.24D-05
 ErrMax= 4.24D-05 EMaxC= 1.00D-01 BMatC= 1.31D-08 BMatP= 1.31D-08
 IDIUse=1 WtCom= 1.00D+00 WtEn= 0.00D+00
 Coeff-Com:  0.100D+01
 Coeff:      0.100D+01
 Gap=     0.783 Goal=   None    Shift=    0.000
 RMSDP=1.34D-05 MaxDP=5.61D-05              OVMax= 1.05D-04

 Cycle   2  Pass 1  IDiag  1:
 E= -1.12871712543889     Delta-E=       -0.000000028131 Rises=F Damp=F
 DIIS: error= 8.27D-06 at cycle   2 NSaved=   2.
 NSaved= 2 IEnMin= 2 EnMin= -1.12871712543889     IErMin= 2 ErrMin= 8.27D-06
 ErrMax= 8.27D-06 EMaxC= 1.00D-01 BMatC= 4.13D-10 BMatP= 1.31D-08
 IDIUse=1 WtCom= 1.00D+00 WtEn= 0.00D+00
 Coeff-Com: -0.206D+00 0.121D+01
 Coeff:     -0.206D+00 0.121D+01
 Gap=     0.783 Goal=   None    Shift=    0.000
 RMSDP=3.07D-06 MaxDP=1.31D-05 DE=-2.81D-08 OVMax= 2.29D-05

 Cycle   3  Pass 1  IDiag  1:
 E= -1.12871712638534     Delta-E=       -0.000000000946 Rises=F Damp=F
 DIIS: error= 4.06D-07 at cycle   3 NSaved=   3.
 NSaved= 3 IEnMin= 3 EnMin= -1.12871712638534     IErMin= 3 ErrMin= 4.06D-07
 ErrMax= 4.06D-07 EMaxC= 1.00D-01 BMatC= 9.08D-13 BMatP= 4.13D-10
 IDIUse=1 WtCom= 1.00D+00 WtEn= 0.00D+00
 Coeff-Com:  0.402D-01-0.242D+00 0.120D+01
 Coeff:      0.402D-01-0.242D+00 0.120D+01
 Gap=     0.783 Goal=   None    Shift=    0.000
 RMSDP=9.15D-08 MaxDP=3.84D-07 DE=-9.46D-10 OVMax= 4.13D-07

 Cycle   4  Pass 1  IDiag  1:
 E= -1.12871712638637     Delta-E=       -0.000000000001 Rises=F Damp=F
 DIIS: error= 1.99D-11 at cycle   4 NSaved=   4.
 NSaved= 4 IEnMin= 4 EnMin= -1.12871712638637     IErMin= 4 ErrMin= 1.99D-11
 ErrMax= 1.99D-11 EMaxC= 1.00D-01 BMatC= 3.18D-21 BMatP= 9.08D-13
 IDIUse=1 WtCom= 1.00D+00 WtEn= 0.00D+00
 Coeff-Com: -0.118D-07 0.301D-05-0.119D-04 0.100D+01
 Coeff:     -0.118D-07 0.301D-05-0.119D-04 0.100D+01
 Gap=     0.783 Goal=   None    Shift=    0.000
 RMSDP=8.32D-12 MaxDP=3.51D-11 DE=-1.03D-12 OVMax= 6.37D-11

 SCF Done:  E(RHF) =  -1.12871712639     A.U. after    4 cycles
             Convg  =    0.8319D-11             -V/T =  2.0409
 KE= 1.084381621324D+00 PE=-3.568579865144D+00 EE= 6.539913297808D-01
 Leave Link  502 at Sat Aug 17 22:46:02 2024, MaxMem=   13107200 cpu:       0.1
 (Enter /programs/64bit/g09/g09-gfortran/bin/l801.exe)
 Range of M.O.s used for correlation:     1    10
 NBasis=    10 NAE=     1 NBE=     1 NFC=     0 NFV=     0
 NROrb=     10 NOA=     1 NOB=     1 NVA=     9 NVB=     9
 Leave Link  801 at Sat Aug 17 22:46:02 2024, MaxMem=   13107200 cpu:       0.0
 (Enter /programs/64bit/g09/g09-gfortran/bin/l906.exe)
 FulOut=F Deriv=T AODrv=T NAtomX=     2
   MMem=       12362  MDisk=           1 MDiskD=           1
  W3Min=         100 MinDsk=       50965 NBas6D=          10
 NBas2D=          61    NTT=          55    LW2=     2000000
    MDV=    13104155 MDiskM=       11566 NBas2p=          36
 Fully direct method using O(ONN) memory.
 IMap=   1
 JobTyp=1 Pass  1:  I=   1 to   1 NPSUse=  1 ParTrn=F ParDer=F DoDerP=T.
 Spin components of T(2) and E(2):
     alpha-alpha T2 =       0.0000000000D+00 E2=      0.0000000000D+00
     alpha-beta  T2 =       0.9211507359D-02 E2=     -0.2650115582D-01
     beta-beta   T2 =       0.0000000000D+00 E2=      0.0000000000D+00
 The integrals were generated   1 times.
 ANorm=    0.1004595196D+01
 E2 =    -0.2650115582D-01 EUMP2 =    -0.11552182822114D+01
 Leave Link  906 at Sat Aug 17 22:46:02 2024, MaxMem=   13107200 cpu:       0.1
 (Enter /programs/64bit/g09/g09-gfortran/bin/l1002.exe)
 Minotr:  Closed shell wavefunction.
          Computing MP2/KS-MP2 derivatives.
          Using Z-Vector for PSCF gradient.
          Skipping F1 and S1 gradient terms here.
          IDoAtm=11
          Direct CPHF calculation.
          Differentiating once with respect to electric field.
                with respect to dipole field.
          Differentiating once with respect to nuclear coordinates.
          Using symmetry in CPHF.
          Requested convergence is 1.0D-10 RMS, and 1.0D-09 maximum.
          NewPWx=F KeepS1=T KeepF1=T KeepIn=T MapXYZ=F SortEE=F KeepMc=T.
          MDV=      13107176 using IRadAn=       0.
          Keep R1 ints in memory in canonical form, NReq=802043.
 Symmetry not used in FoFDir.
 MinBra= 0 MaxBra= 1 Meth= 1.
 IRaf=       0 NMat=   1 IRICut=       1 DoRegI=T DoRafI=F ISym2E= 0 JSym2E=0.
          Solving linear equations separately, MaxMat=       0.
          There are     1 degrees of freedom in the 1st order CPHF.  IDoFFX=0.
 LinEq1:  Iter=  0 NonCon=     1 RMS=5.27D-03 Max=1.24D-02
 AX will form     1 AO Fock derivatives at one time.
 LinEq1:  Iter=  1 NonCon=     1 RMS=1.05D-04 Max=2.46D-04
 LinEq1:  Iter=  2 NonCon=     0 RMS=1.68D-19 Max=4.87D-19
 Linear equations converged to 1.000D-10 1.000D-09 after     2 iterations.
 End of Minotr Frequency-dependent properties file   721 does not exist.
 End of Minotr Frequency-dependent properties file   722 does not exist.
 Leave Link 1002 at Sat Aug 17 22:46:02 2024, MaxMem=   13107200 cpu:       0.1
 (Enter /programs/64bit/g09/g09-gfortran/bin/l701.exe)
 Compute integral first derivatives.
 ... and contract with generalized density number  2.
 Leave Link  701 at Sat Aug 17 22:46:02 2024, MaxMem=   13107200 cpu:       0.1
 (Enter /programs/64bit/g09/g09-gfortran/bin/l702.exe)
 L702 exits ... SP integral derivatives will be done elsewhere.
 Leave Link  702 at Sat Aug 17 22:46:02 2024, MaxMem=   13107200 cpu:       0.0
 (Enter /programs/64bit/g09/g09-gfortran/bin/l703.exe)
 Compute integral first derivatives, UseDBF=F ICtDFT=           0.
 Integral derivatives from FoFDir, PRISM(SPDF).
 Calling FoFJK, ICntrl=      2127 FMM=F ISym2X=1 I1Cent= 0 IOpClX= 0 NMat=1 NMatS=1 NMatT=0.
 FoFCou: FMM=F IPFlag=           0 FMFlag=      100000 FMFlg1=         800
         NFxFlg=           0 DoJE=F BraDBF=F KetDBF=F FulRan=T
         Omega=  0.000000  0.000000  1.000000  0.000000  0.000000 ICntrl=    2127 IOpCl=  0
         NMat0=    1 NMatS0=    1 NMatT0=    0 NMatD0=    1 NMtDS0=    0 NMtDT0=    0
         I1Cent=           0 NGrid=           0.
 Petite list used in FoFCou.
 Leave Link  703 at Sat Aug 17 22:46:02 2024, MaxMem=   13107200 cpu:       0.1
 (Enter /programs/64bit/g09/g09-gfortran/bin/l716.exe)
 Dipole        =-4.93038066D-32 9.62964972D-35-1.11022302D-16
 ***** Axes restored to original set *****
 -------------------------------------------------------------------
 Center     Atomic                   Forces (Hartrees/Bohr)
 Number     Number              X              Y              Z
 -------------------------------------------------------------------
      1        1           0.000000000    0.000000000   -0.000000109
      2        1          -0.000000000   -0.000000000    0.000000109
 -------------------------------------------------------------------
 Cartesian Forces:  Max     0.000000109 RMS     0.000000063
 Leave Link  716 at Sat Aug 17 22:46:02 2024, MaxMem=   13107200 cpu:       0.0
 (Enter /programs/64bit/g09/g09-gfortran/bin/l103.exe)

 GradGradGradGradGradGradGradGradGradGradGradGradGradGradGradGradGradGrad
 Berny optimization.
 Using GEDIIS/GDIIS optimizer.
 Internal  Forces:  Max     0.000000109 RMS     0.000000109
 Search for a local minimum.
 Step number   3 out of a maximum of   20
 All quantities printed in internal units (Hartrees-Bohrs-Radians)
 RMS Force = .10936D-06 SwitMx=.10000D-02 MixMth= 2
 Mixed Optimization -- En-DIIS/RFO-DIIS
 Swaping is turned off.
 Update second derivatives using D2CorX and points    3
 DE= -1.43D-07 DEPred=-1.37D-07 R= 1.05D+00
 Trust test= 1.05D+00 RLast= 8.62D-04 DXMaxT set to 3.00D-01
 The second derivative matrix:
                          R1
           R1           0.40357
     Eigenvalues ---    0.40357
 En-DIIS/RFO-DIIS IScMMF=        0 using points:     3    2
 RFO step:  Lambda=-1.88182803D-14.
 Iteration  1 RMS(Cart)=  0.00000019 RMS(Int)=  0.00000000
 ClnCor:  largest displacement from symmetrization is 2.22D-16 for atom     2.
 Variable       Old X    -DE/DX   Delta X   Delta X   Delta X     New X
                                  (DIIS)     (GDIIS)  (Total)
    R1        1.42554   0.00000   0.00000   0.00000   0.00000   1.42554
         Item               Value     Threshold  Converged?
 Maximum Force            0.000000     0.000450     YES
 RMS     Force            0.000000     0.000300     YES
 Maximum Displacement     0.000000     0.001800     YES
 RMS     Displacement     0.000000     0.001200     YES
 Predicted change in Energy=-1.481774D-14
 Optimization completed.
    -- Stationary point found.
                           ----------------------------
                           !   Optimized Parameters   !
                           ! (Angstroms and Degrees)  !
 --------------------------                            --------------------------
 ! Name  Definition              Value          Derivative Info.                !
 --------------------------------------------------------------------------------
 ! R1    R(1,2)                  0.7544         -DE/DX =    0.0                 !
 --------------------------------------------------------------------------------
 GradGradGradGradGradGradGradGradGradGradGradGradGradGradGradGradGradGrad

 Largest change from initial coordinates is atom    2       0.007 Angstoms.
 Leave Link  103 at Sat Aug 17 22:46:02 2024, MaxMem=   13107200 cpu:       0.0
 (Enter /programs/64bit/g09/g09-gfortran/bin/l202.exe)
                          Input orientation:                          
 ---------------------------------------------------------------------
 Center     Atomic      Atomic             Coordinates (Angstroms)
 Number     Number       Type             X           Y           Z
 ---------------------------------------------------------------------
      1          1           0        0.000000    0.000000   -0.007181
      2          1           0        0.000000    0.000000    0.747181
 ---------------------------------------------------------------------
 Stoichiometry    H2
 Framework group  D*H[C*(H.H)]
 Deg. of freedom     1
 Full point group                 D*H     NOp   8
 Largest Abelian subgroup         D2H     NOp   8
 Largest concise Abelian subgroup C2      NOp   2
                         Standard orientation:                         
 ---------------------------------------------------------------------
 Center     Atomic      Atomic             Coordinates (Angstroms)
 Number     Number       Type             X           Y           Z
 ---------------------------------------------------------------------
      1          1           0        0.000000    0.000000    0.377181
      2          1           0        0.000000    0.000000   -0.377181
 ---------------------------------------------------------------------
 Rotational constants (GHZ):      0.0000000   1762.3919167   1762.3919167
 Leave Link  202 at Sat Aug 17 22:46:02 2024, MaxMem=   13107200 cpu:       0.0
 (Enter /programs/64bit/g09/g09-gfortran/bin/l601.exe)
 Copying SCF densities to generalized density rwf, IOpCl= 0 IROHF=0.

 **********************************************************************

            Population analysis using the SCF density.

 **********************************************************************

 Orbital symmetries:
       Occupied  (SGG)
       Virtual   (SGU) (SGG) (SGU) (PIU) (PIU) (SGG) (PIG) (PIG)
                 (SGU)
 The electronic state is 1-SGG.
 Alpha  occ. eigenvalues --   -0.58811
 Alpha virt. eigenvalues --    0.19467   0.48277   0.92715   1.29136   1.29136
 Alpha virt. eigenvalues --    1.94303   2.03376   2.03376   3.52532
     Molecular Orbital Coefficients:
                           1         2         3         4         5
                       (SGG)--O  (SGU)--V  (SGG)--V  (SGU)--V  (PIU)--V
     Eigenvalues --    -0.58811   0.19467   0.48277   0.92715   1.29136
   1 1   H  1S          0.40200   0.15290  -0.70457  -0.77863   0.00000
   2        2S          0.17712   1.91617   0.72685   1.60824   0.00000
   3        3PX         0.00000   0.00000   0.00000   0.00000   0.00000
   4        3PY         0.00000   0.00000   0.00000   0.00000   0.58168
   5        3PZ        -0.02230  -0.01366   0.01387  -0.39789   0.00000
   6 2   H  1S          0.40200  -0.15290  -0.70457   0.77863   0.00000
   7        2S          0.17712  -1.91617   0.72685  -1.60824   0.00000
   8        3PX         0.00000   0.00000   0.00000   0.00000   0.00000
   9        3PY         0.00000   0.00000   0.00000   0.00000   0.58168
  10        3PZ         0.02230  -0.01366  -0.01387  -0.39789   0.00000
                           6         7         8         9        10
                       (PIU)--V  (SGG)--V  (PIG)--V  (PIG)--V  (SGU)--V
     Eigenvalues --     1.29136   1.94303   2.03376   2.03376   3.52532
   1 1   H  1S          0.00000   0.44126   0.00000   0.00000   2.54311
   2        2S          0.00000  -0.21986   0.00000   0.00000   0.07654
   3        3PX         0.58168   0.00000   0.97846   0.00000   0.00000
   4        3PY         0.00000   0.00000   0.00000   0.97846   0.00000
   5        3PZ         0.00000   0.71804   0.00000   0.00000  -1.98697
   6 2   H  1S          0.00000   0.44126   0.00000   0.00000  -2.54311
   7        2S          0.00000  -0.21986   0.00000   0.00000  -0.07654
   8        3PX         0.58168   0.00000  -0.97846   0.00000   0.00000
   9        3PY         0.00000   0.00000   0.00000  -0.97846   0.00000
  10        3PZ         0.00000  -0.71804   0.00000   0.00000  -1.98697
     Density Matrix:
                           1         2         3         4         5
   1 1   H  1S          0.32321
   2        2S          0.14240   0.06274
   3        3PX        -0.00000  -0.00000   0.00000
   4        3PY        -0.00000  -0.00000   0.00000   0.00000
   5        3PZ        -0.01793  -0.00790   0.00000   0.00000   0.00099
   6 2   H  1S          0.32321   0.14240  -0.00000  -0.00000  -0.01793
   7        2S          0.14240   0.06274  -0.00000  -0.00000  -0.00790
   8        3PX         0.00000   0.00000  -0.00000  -0.00000  -0.00000
   9        3PY         0.00000   0.00000  -0.00000  -0.00000  -0.00000
  10        3PZ         0.01793   0.00790  -0.00000  -0.00000  -0.00099
                           6         7         8         9        10
   6 2   H  1S          0.32321
   7        2S          0.14240   0.06274
   8        3PX         0.00000   0.00000   0.00000
   9        3PY         0.00000   0.00000   0.00000   0.00000
  10        3PZ         0.01793   0.00790   0.00000   0.00000   0.00099
    Full Mulliken population analysis:
                           1         2         3         4         5
   1 1   H  1S          0.32321
   2        2S          0.09753   0.06274
   3        3PX         0.00000   0.00000   0.00000
   4        3PY         0.00000   0.00000   0.00000   0.00000
   5        3PZ         0.00000   0.00000   0.00000   0.00000   0.00099
   6 2   H  1S          0.18072   0.07993   0.00000   0.00000   0.00957
   7        2S          0.07993   0.05543   0.00000   0.00000   0.00131
   8        3PX         0.00000   0.00000  -0.00000   0.00000   0.00000
   9        3PY         0.00000   0.00000   0.00000  -0.00000   0.00000
  10        3PZ         0.00957   0.00131   0.00000   0.00000   0.00023
                           6         7         8         9        10
   6 2   H  1S          0.32321
   7        2S          0.09753   0.06274
   8        3PX         0.00000   0.00000   0.00000
   9        3PY         0.00000   0.00000   0.00000   0.00000
  10        3PZ         0.00000   0.00000   0.00000   0.00000   0.00099
     Gross orbital populations:
                           1
   1 1   H  1S          0.69096
   2        2S          0.29693
   3        3PX         0.00000
   4        3PY         0.00000
   5        3PZ         0.01211
   6 2   H  1S          0.69096
   7        2S          0.29693
   8        3PX         0.00000
   9        3PY         0.00000
  10        3PZ         0.01211
          Condensed to atoms (all electrons):
              1          2
     1  H    0.581992   0.418008
     2  H    0.418008   0.581992
 Mulliken atomic charges:
              1
     1  H   -0.000000
     2  H   -0.000000
 Sum of Mulliken atomic charges =  -0.00000
 Mulliken charges with hydrogens summed into heavy atoms:
              1
 Sum of Mulliken charges with hydrogens summed into heavy atoms =  -0.00000
 Electronic spatial extent (au):  <R**2>=              5.1457
 Charge=             -0.0000 electrons
 Dipole moment (field-independent basis, Debye):
    X=             -0.0000    Y=              0.0000    Z=             -0.0000  Tot=              0.0000
 Quadrupole moment (field-independent basis, Debye-Ang):
   XX=             -2.0556   YY=             -2.0556   ZZ=             -1.4434
   XY=             -0.0000   XZ=             -0.0000   YZ=              0.0000
 Traceless Quadrupole moment (field-independent basis, Debye-Ang):
   XX=             -0.2041   YY=             -0.2041   ZZ=              0.4081
   XY=             -0.0000   XZ=             -0.0000   YZ=              0.0000
 Octapole moment (field-independent basis, Debye-Ang**2):
  XXX=             -0.0000  YYY=              0.0000  ZZZ=              0.0000  XYY=             -0.0000
  XXY=              0.0000  XXZ=              0.0000  XZZ=             -0.0000  YZZ=             -0.0000
  YYZ=              0.0000  XYZ=              0.0000
 Hexadecapole moment (field-independent basis, Debye-Ang**3):
 XXXX=             -1.9525 YYYY=             -1.9525 ZZZZ=             -2.8126 XXXY=             -0.0000
 XXXZ=              0.0000 YYYX=             -0.0000 YYYZ=              0.0000 ZZZX=              0.0000
 ZZZY=              0.0000 XXYY=             -0.6508 XXZZ=             -0.8127 YYZZ=             -0.8127
 XXYZ=              0.0000 YYXZ=              0.0000 ZZXY=             -0.0000
 N-N= 7.014897876527D-01 E-N=-3.568579865103D+00  KE= 1.084381621324D+00
 Symmetry AG   KE= 1.084381621324D+00
 Symmetry B1G  KE= 0.000000000000D+00
 Symmetry B2G  KE= 3.093051536738D-34
 Symmetry B3G  KE= 3.093051536738D-34
 Symmetry AU   KE= 0.000000000000D+00
 Symmetry B1U  KE= 1.829446314877D-31
 Symmetry B2U  KE= 6.212278635113D-35
 Symmetry B3U  KE= 6.212278635113D-35
 Orbital energies and kinetic energies (alpha):
                                 1                 2
   1         (SGG)--O         -0.588108          0.542191
   2         (SGU)--V          0.194670          0.343238
   3         (SGG)--V          0.482769          0.887289
   4         (SGU)--V          0.927146          1.641607
   5         (PIU)--V          1.291362          1.643884
   6         (PIU)--V          1.291362          1.643884
   7         (SGG)--V          1.943032          2.337983
   8         (PIG)--V          2.033761          2.308748
   9         (PIG)--V          2.033761          2.308748
  10         (SGU)--V          3.525315          4.525304
 Total kinetic energy from orbitals= 1.084381621324D+00
 No NMR shielding tensors so no spin-rotation constants.
 Leave Link  601 at Sat Aug 17 22:46:03 2024, MaxMem=   13107200 cpu:       0.1
 (Enter /programs/64bit/g09/g09-gfortran/bin/l9999.exe)
 B after Tr=     0.000000    0.000000    0.699199
         Rot=    0.000000   -0.000000    1.000000   -0.000000 Ang= 180.00 deg.
 Final structure in terms of initial Z-matrix:
 H
 H,1,d
      Variables:
 d=0.75436196
 1\1\GINC-MOLMOD\FOpt\RMP2-FC\CC-pVDZ\H2\OSPITE\17-Aug-2024\0\\#p mp2/c
 c-pVDZ opt freq pop=full gfinput\\hydogen (molecule) with cc-pVDZ basi
 s set\\0,1\H,0.,0.,-0.0071809782\H,0.,0.,0.7471809782\\Version=EM64L-G
 09RevA.02\State=1-SGG\HF=-1.1287171\MP2=-1.1552183\RMSD=8.319e-12\RMSF
 =6.314e-08\Dipole=0.,0.,0.\PG=D*H [C*(H1.H1)]\\@


 ONE OF THE BENEFITS OF A COLLEGE EDUCATION
 IS TO SHOW THE BOY ITS LITTLE AVAIL 
                                    EMERSON IN 'CULTURE'
 Leave Link 9999 at Sat Aug 17 22:46:03 2024, MaxMem=   13107200 cpu:       0.0
 Job cpu time:  0 days  0 hours  0 minutes  3.9 seconds.
 File lengths (MBytes):  RWF=      5 Int=      0 D2E=      0 Chk=      1 Scr=      1
 Normal termination of Gaussian 09 at Sat Aug 17 22:46:03 2024.
 (Enter /programs/64bit/g09/g09-gfortran/bin/l1.exe)
 Link1:  Proceeding to internal job step number  2.
 ---------------------------------------------------------------------
 #P Geom=AllCheck Guess=TCheck SCRF=Check GenChk RMP2(FC)/CC-pVDZ Freq
 ---------------------------------------------------------------------
 1/10=4,29=7,30=1,38=1,40=1/1,3;
 2/12=2,40=1/2;
 3/5=16,11=1,14=-4,16=1,24=10,25=1,30=1,70=2,71=2,116=1/1,2,3;
 4/5=101/1;
 5/5=2,98=1/2;
 8/6=3,8=1,10=1,19=11,30=-1/1;
 9/15=3,16=-3/6;
 11/6=1,8=1,15=11,17=12,24=-1,27=1,28=-2,29=300,32=6,42=3/1,2,10;
 10/6=2,21=1/2;
 8/6=4,8=1,10=1,19=11,30=-1/11,4;
 10/5=1,20=4/2;
 11/12=2,14=11,16=1,17=2,28=-2,42=3/2,10,12;
 6/7=3/1;
 7/8=1,10=1,12=2,25=1,44=2/1,2,3,16;
 1/10=4,30=1/3;
 99//99;
 Leave Link    1 at Sat Aug 17 22:46:03 2024, MaxMem=   13107200 cpu:       0.1
 (Enter /programs/64bit/g09/g09-gfortran/bin/l101.exe)
 -----------------------------------------
 hydogen (molecule) with cc-pVDZ basis set
 -----------------------------------------
 Redundant internal coordinates taken from checkpoint file:
 /home/ospite/Desktop/MMfP/Project6/H2/g09/MP2/Gau-15565.chk
 Charge =  0 Multiplicity = 1
 H,0,0.,0.,-0.0071809782
 H,0,0.,0.,0.7471809782
 Recover connectivity data from disk.
                    Isotopes and Nuclear Properties:
 (Nuclear quadrupole moments (NQMom) in fm**2, nuclear magnetic moments (NMagM)
  in nuclear magnetons)

  Atom         1           2
 IAtWgt=           1           1
 AtmWgt=   1.0078250   1.0078250
 NucSpn=           1           1
 AtZEff=  -1.0000000  -1.0000000
 NQMom=    0.0000000   0.0000000
 NMagM=    2.7928460   2.7928460
 Leave Link  101 at Sat Aug 17 22:46:03 2024, MaxMem=   13107200 cpu:       0.1
 (Enter /programs/64bit/g09/g09-gfortran/bin/l103.exe)

 GradGradGradGradGradGradGradGradGradGradGradGradGradGradGradGradGradGrad
 Berny optimization.
 Initialization pass.
                           ----------------------------
                           !    Initial Parameters    !
                           ! (Angstroms and Degrees)  !
 --------------------------                            --------------------------
 ! Name  Definition              Value          Derivative Info.                !
 --------------------------------------------------------------------------------
 ! R1    R(1,2)                  0.7544         calculate D2E/DX2 analytically  !
 --------------------------------------------------------------------------------
 Trust Radius=3.00D-01 FncErr=1.00D-07 GrdErr=1.00D-07
 Number of steps in this run=   2 maximum allowed number of steps=   2.
 GradGradGradGradGradGradGradGradGradGradGradGradGradGradGradGradGradGrad

 Leave Link  103 at Sat Aug 17 22:46:03 2024, MaxMem=   13107200 cpu:       0.0
 (Enter /programs/64bit/g09/g09-gfortran/bin/l202.exe)
                          Input orientation:                          
 ---------------------------------------------------------------------
 Center     Atomic      Atomic             Coordinates (Angstroms)
 Number     Number       Type             X           Y           Z
 ---------------------------------------------------------------------
      1          1           0        0.000000    0.000000   -0.007181
      2          1           0        0.000000    0.000000    0.747181
 ---------------------------------------------------------------------
 Stoichiometry    H2
 Framework group  D*H[C*(H.H)]
 Deg. of freedom     1
 Full point group                 D*H     NOp   8
 Largest Abelian subgroup         D2H     NOp   8
 Largest concise Abelian subgroup C2      NOp   2
                         Standard orientation:                         
 ---------------------------------------------------------------------
 Center     Atomic      Atomic             Coordinates (Angstroms)
 Number     Number       Type             X           Y           Z
 ---------------------------------------------------------------------
      1          1           0        0.000000    0.000000    0.377181
      2          1           0        0.000000    0.000000   -0.377181
 ---------------------------------------------------------------------
 Rotational constants (GHZ):      0.0000000   1762.3919167   1762.3919167
 Leave Link  202 at Sat Aug 17 22:46:03 2024, MaxMem=   13107200 cpu:       0.0
 (Enter /programs/64bit/g09/g09-gfortran/bin/l301.exe)
 Standard basis: CC-pVDZ (5D, 7F)
 Ernie: Thresh=  0.10000D-02 Tol=  0.10000D-05 Strict=F.
 AO basis set in the form of general basis input (Overlap normalization):
      1 0
 S   3 1.00       0.000000000000
      0.1301000000D+02  0.3349872639D-01
      0.1962000000D+01  0.2348008012D+00
      0.4446000000D+00  0.8136829579D+00
 S   1 1.00       0.000000000000
      0.1220000000D+00  0.1000000000D+01
 P   1 1.00       0.000000000000
      0.7270000000D+00  0.1000000000D+01
 ****
      2 0
 S   3 1.00       0.000000000000
      0.1301000000D+02  0.3349872639D-01
      0.1962000000D+01  0.2348008012D+00
      0.4446000000D+00  0.8136829579D+00
 S   1 1.00       0.000000000000
      0.1220000000D+00  0.1000000000D+01
 P   1 1.00       0.000000000000
      0.7270000000D+00  0.1000000000D+01
 ****

 There are     3 symmetry adapted basis functions of AG  symmetry.
 There are     0 symmetry adapted basis functions of B1G symmetry.
 There are     1 symmetry adapted basis functions of B2G symmetry.
 There are     1 symmetry adapted basis functions of B3G symmetry.
 There are     0 symmetry adapted basis functions of AU  symmetry.
 There are     3 symmetry adapted basis functions of B1U symmetry.
 There are     1 symmetry adapted basis functions of B2U symmetry.
 There are     1 symmetry adapted basis functions of B3U symmetry.
 Integral buffers will be    131072 words long.
 Raffenetti 1 integral format.
 Two-electron integral symmetry is turned on.
    10 basis functions,    14 primitive gaussians,    10 cartesian basis functions
     1 alpha electrons        1 beta electrons
       nuclear repulsion energy         0.7014897877 Hartrees.
 IExCor=    0 DFT=F Ex=HF Corr=None ExCW=0 ScaHFX=  1.000000
 ScaDFX=  1.000000  1.000000  1.000000  1.000000 ScalE2=  1.000000  1.000000
 IRadAn=      0 IRanWt=     -1 IRanGd=            0 ICorTp=0
 NAtoms=    2 NActive=    2 NUniq=    1 SFac= 3.00D+00 NAtFMM=   80 NAOKFM=F Big=F
 Leave Link  301 at Sat Aug 17 22:46:03 2024, MaxMem=   13107200 cpu:       0.1
 (Enter /programs/64bit/g09/g09-gfortran/bin/l302.exe)
 NPDir=0 NMtPBC=     1 NCelOv=     1 NCel=       1 NClECP=     1 NCelD=      1
         NCelK=      1 NCelE2=     1 NClLst=     1 CellRange=     0.0.
 One-electron integrals computed using PRISM.
 One-electron integral symmetry used in STVInt
 NBasis=    10 RedAO= T  NBF=     3     0     1     1     0     3     1     1
 NBsUse=    10 1.00D-06 NBFU=     3     0     1     1     0     3     1     1
 Leave Link  302 at Sat Aug 17 22:46:03 2024, MaxMem=   13107200 cpu:       0.1
 (Enter /programs/64bit/g09/g09-gfortran/bin/l303.exe)
 DipDrv:  MaxL=1.
 Leave Link  303 at Sat Aug 17 22:46:03 2024, MaxMem=   13107200 cpu:       0.0
 (Enter /programs/64bit/g09/g09-gfortran/bin/l401.exe)
 Initial guess read from the checkpoint file:  /home/ospite/Desktop/MMfP/Project6
 /H2/g09/MP2/Gau-15565.chk
 B after Tr=     0.000000    0.000000    0.000000
         Rot=    1.000000    0.000000    0.000000    0.000000 Ang=   0.00 deg.
 Guess basis will be translated and rotated to current coordinates.
 Initial guess orbital symmetries:
       Occupied  (SGG)
       Virtual   (SGU) (SGG) (SGU) (PIU) (PIU) (SGG) (PIG) (PIG)
                 (SGU)
 The electronic state of the initial guess is 1-SGG.
 Leave Link  401 at Sat Aug 17 22:46:04 2024, MaxMem=   13107200 cpu:       0.1
 (Enter /programs/64bit/g09/g09-gfortran/bin/l502.exe)
 Closed shell SCF:
 Requested convergence on RMS density matrix=1.00D-08 within 128 cycles.
 Requested convergence on MAX density matrix=1.00D-06.
 Requested convergence on             energy=1.00D-06.
 No special actions if energy rises.
 Using DIIS extrapolation, IDIIS=  1040.
 Integral symmetry usage will be decided dynamically.
 Keep R1 ints in memory in canonical form, NReq=821347.
 IEnd=       19793 IEndB=       19793 NGot=    13107200 MDV=    13102942
 LenX=    13102942 LenY=    13102060
 Symmetry not used in FoFDir.
 MinBra= 0 MaxBra= 1 Meth= 1.
 IRaf=       0 NMat=   1 IRICut=       1 DoRegI=T DoRafI=F ISym2E= 0 JSym2E=0.

 Cycle   1  Pass 1  IDiag  1:
 E= -1.12871712638637    
 DIIS: error= 3.66D-16 at cycle   1 NSaved=   1.
 NSaved= 1 IEnMin= 1 EnMin= -1.12871712638637     IErMin= 1 ErrMin= 3.66D-16
 ErrMax= 3.66D-16 EMaxC= 1.00D-01 BMatC= 1.16D-30 BMatP= 1.16D-30
 IDIUse=1 WtCom= 1.00D+00 WtEn= 0.00D+00
 Coeff-Com:  0.100D+01
 Coeff:      0.100D+01
 Gap=     0.783 Goal=   None    Shift=    0.000
 RMSDP=7.62D-17 MaxDP=3.05D-16              OVMax= 6.66D-16

 SCF Done:  E(RHF) =  -1.12871712639     A.U. after    1 cycles
             Convg  =    0.7624D-16             -V/T =  2.0409
 KE= 1.084381621324D+00 PE=-3.568579865103D+00 EE= 6.539913297402D-01
 Leave Link  502 at Sat Aug 17 22:46:04 2024, MaxMem=   13107200 cpu:       0.1
 (Enter /programs/64bit/g09/g09-gfortran/bin/l801.exe)
 Range of M.O.s used for correlation:     1    10
 NBasis=    10 NAE=     1 NBE=     1 NFC=     0 NFV=     0
 NROrb=     10 NOA=     1 NOB=     1 NVA=     9 NVB=     9
 Leave Link  801 at Sat Aug 17 22:46:04 2024, MaxMem=   13107200 cpu:       0.0
 (Enter /programs/64bit/g09/g09-gfortran/bin/l906.exe)
 FulOut=F Deriv=T AODrv=T NAtomX=     2
   MMem=           0  MDisk=           1 MDiskD=           1
  W3Min=         100 MinDsk=       51565 NBas6D=          10
 NBas2D=          61    NTT=          55    LW2=     3000000
    MDV=    13104110 MDiskM=       11566 NBas2p=          36
 Disk-based method using ON**2 memory for  1 occupieds at a time.
 Permanent disk used for amplitudes=          81 words.
 Estimated scratch disk usage=      786280 words.
 IMap=   1
 Actual    scratch disk usage=      786280 words.
 JobTyp=1 Pass  1:  I=   1 to   1 NPSUse=  1 ParTrn=F ParDer=F DoDerP=T.
 (rs|ai) integrals will be sorted in core.
 Spin components of T(2) and E(2):
     alpha-alpha T2 =       0.0000000000D+00 E2=      0.0000000000D+00
     alpha-beta  T2 =       0.9211507359D-02 E2=     -0.2650115582D-01
     beta-beta   T2 =       0.0000000000D+00 E2=      0.0000000000D+00
 The integrals were generated   1 times.
 ANorm=    0.1004595196D+01
 E2 =    -0.2650115582D-01 EUMP2 =    -0.11552182822114D+01
 Leave Link  906 at Sat Aug 17 22:46:04 2024, MaxMem=   13107200 cpu:       0.1
 (Enter /programs/64bit/g09/g09-gfortran/bin/l1101.exe)
 Using compressed Sx but separate Hx and Fx, NAtomX=     2.
 Will process   3 centers per pass.
 Leave Link 1101 at Sat Aug 17 22:46:04 2024, MaxMem=   13107200 cpu:       0.1
[...]
 LinEq1:  Iter=  2 NonCon=     0 RMS=6.87D-21 Max=1.36D-20
 Linear equations converged to 1.000D-10 1.000D-09 after     2 iterations.
 End of Minotr Frequency-dependent properties file   721 does not exist.
 End of Minotr Frequency-dependent properties file   722 does not exist.
 Leave Link 1002 at Sat Aug 17 22:46:05 2024, MaxMem=   13107200 cpu:       0.1
 (Enter /programs/64bit/g09/g09-gfortran/bin/l1102.exe)
 Use density number 2.
 Symmetrizing basis deriv contribution to polar:
 IMax=3 JMax=2 DiffMx= 0.00D+00
 Leave Link 1102 at Sat Aug 17 22:46:05 2024, MaxMem=   13107200 cpu:       0.0
 (Enter /programs/64bit/g09/g09-gfortran/bin/l1110.exe)
 Forming Gx(P) for generalized density number  2 NAtomX=     2.
 Integral derivatives from FoFDir/FoFCou, PRISM(SPDF).
 Do as many integral derivatives as possible in FoFDir.
 G2DrvN: MDV=      13107080.
 G2DrvN: will do     3 centers at a time, making    1 passes doing MaxLOS=1.
 Calling FoFCou, ICntrl=  3107 FMM=F I1Cent=   0 AccDes= 0.00D+00.
 FoFCou: FMM=F IPFlag=           0 FMFlag=      100000 FMFlg1=           0
         NFxFlg=           0 DoJE=F BraDBF=F KetDBF=F FulRan=T
         Omega=  0.000000  0.000000  1.000000  0.000000  0.000000 ICntrl=    3107 IOpCl=  0
         NMat0=    1 NMatS0=    1 NMatT0=    0 NMatD0=    1 NMtDS0=    0 NMtDT0=    0
         I1Cent=           0 NGrid=           0.
 Petite list used in FoFCou.
 FoFDir/FoFCou used for L=0 through L=1.
 End of G2Drv Frequency-dependent properties file   721 does not exist.
 End of G2Drv Frequency-dependent properties file   722 does not exist.
 Leave Link 1110 at Sat Aug 17 22:46:05 2024, MaxMem=   13107200 cpu:       0.1
 (Enter /programs/64bit/g09/g09-gfortran/bin/l1112.exe)
 MP22nd: MDV=      13107200
 This link is doing NAtomX=     2 total of     9 degrees of freedom.
 Using ON3 I/O method in MakUI.
 Frozen-core window:  NFC=   0 NFV=   0.
 Using Ix for Sx.
 Use MO integrals over full window.
 Using OV2 memory method for fx*t*t/D, MaxI=     1 DoOO2=F NP=   1.
 R2 and R3 integrals will be kept in memory, NReq=      803080.
 Symmetry not used in FoFDir.
 MinBra= 0 MaxBra= 1 Meth= 1.
 IRaf=       0 NMat=   1 IRICut=       1 DoRegI=T DoRafI=F ISym2E= 0 JSym2E=0.
 DD1Dir will call FoFMem   1 times, MxPair=         2
 NAB=     1 NAA=     0 NBB=     0.
 Symmetry is being used.
 Discarding MO integrals.
 Leave Link 1112 at Sat Aug 17 22:46:05 2024, MaxMem=   13107200 cpu:       0.1
 (Enter /programs/64bit/g09/g09-gfortran/bin/l601.exe)
 Copying SCF densities to generalized density rwf, IOpCl= 0 IROHF=0.

 **********************************************************************

            Population analysis using the SCF density.

 **********************************************************************

 Orbital symmetries:
       Occupied  (SGG)
       Virtual   (SGU) (SGG) (SGU) (PIU) (PIU) (SGG) (PIG) (PIG)
                 (SGU)
 The electronic state is 1-SGG.
 Alpha  occ. eigenvalues --   -0.58811
 Alpha virt. eigenvalues --    0.19467   0.48277   0.92715   1.29136   1.29136
 Alpha virt. eigenvalues --    1.94303   2.03376   2.03376   3.52532
     Molecular Orbital Coefficients:
                           1         2         3         4         5
                       (SGG)--O  (SGU)--V  (SGG)--V  (SGU)--V  (PIU)--V
     Eigenvalues --    -0.58811   0.19467   0.48277   0.92715   1.29136
   1 1   H  1S          0.40200   0.15290  -0.70457  -0.77863   0.00000
   2        2S          0.17712   1.91617   0.72685   1.60824   0.00000
   3        3PX         0.00000   0.00000   0.00000   0.00000   0.00000
   4        3PY         0.00000   0.00000   0.00000   0.00000   0.58168
   5        3PZ        -0.02230  -0.01366   0.01387  -0.39789   0.00000
   6 2   H  1S          0.40200  -0.15290  -0.70457   0.77863   0.00000
   7        2S          0.17712  -1.91617   0.72685  -1.60824   0.00000
   8        3PX         0.00000   0.00000   0.00000   0.00000   0.00000
   9        3PY         0.00000   0.00000   0.00000   0.00000   0.58168
  10        3PZ         0.02230  -0.01366  -0.01387  -0.39789   0.00000
                           6         7         8         9        10
                       (PIU)--V  (SGG)--V  (PIG)--V  (PIG)--V  (SGU)--V
     Eigenvalues --     1.29136   1.94303   2.03376   2.03376   3.52532
   1 1   H  1S          0.00000   0.44126   0.00000   0.00000   2.54311
   2        2S          0.00000  -0.21986   0.00000   0.00000   0.07654
   3        3PX         0.58168   0.00000   0.97846   0.00000   0.00000
   4        3PY         0.00000   0.00000   0.00000   0.97846   0.00000
   5        3PZ         0.00000   0.71804   0.00000   0.00000  -1.98697
   6 2   H  1S          0.00000   0.44126   0.00000   0.00000  -2.54311
   7        2S          0.00000  -0.21986   0.00000   0.00000  -0.07654
   8        3PX         0.58168   0.00000  -0.97846   0.00000   0.00000
   9        3PY         0.00000   0.00000   0.00000  -0.97846   0.00000
  10        3PZ         0.00000  -0.71804   0.00000   0.00000  -1.98697
     Density Matrix:
                           1         2         3         4         5
   1 1   H  1S          0.32321
   2        2S          0.14240   0.06274
   3        3PX        -0.00000  -0.00000   0.00000
   4        3PY        -0.00000  -0.00000   0.00000   0.00000
   5        3PZ        -0.01793  -0.00790   0.00000   0.00000   0.00099
   6 2   H  1S          0.32321   0.14240  -0.00000  -0.00000  -0.01793
   7        2S          0.14240   0.06274  -0.00000  -0.00000  -0.00790
   8        3PX         0.00000   0.00000  -0.00000  -0.00000  -0.00000
   9        3PY         0.00000   0.00000  -0.00000  -0.00000  -0.00000
  10        3PZ         0.01793   0.00790  -0.00000  -0.00000  -0.00099
                           6         7         8         9        10
   6 2   H  1S          0.32321
   7        2S          0.14240   0.06274
   8        3PX         0.00000   0.00000   0.00000
   9        3PY         0.00000   0.00000   0.00000   0.00000
  10        3PZ         0.01793   0.00790   0.00000   0.00000   0.00099
    Full Mulliken population analysis:
                           1         2         3         4         5
   1 1   H  1S          0.32321
   2        2S          0.09753   0.06274
   3        3PX         0.00000   0.00000   0.00000
   4        3PY         0.00000   0.00000   0.00000   0.00000
   5        3PZ         0.00000   0.00000   0.00000   0.00000   0.00099
   6 2   H  1S          0.18072   0.07993   0.00000   0.00000   0.00957
   7        2S          0.07993   0.05543   0.00000   0.00000   0.00131
   8        3PX         0.00000   0.00000  -0.00000   0.00000   0.00000
   9        3PY         0.00000   0.00000   0.00000  -0.00000   0.00000
  10        3PZ         0.00957   0.00131   0.00000   0.00000   0.00023
                           6         7         8         9        10
   6 2   H  1S          0.32321
   7        2S          0.09753   0.06274
   8        3PX         0.00000   0.00000   0.00000
   9        3PY         0.00000   0.00000   0.00000   0.00000
  10        3PZ         0.00000   0.00000   0.00000   0.00000   0.00099
     Gross orbital populations:
                           1
   1 1   H  1S          0.69096
   2        2S          0.29693
   3        3PX         0.00000
   4        3PY         0.00000
   5        3PZ         0.01211
   6 2   H  1S          0.69096
   7        2S          0.29693
   8        3PX         0.00000
   9        3PY         0.00000
  10        3PZ         0.01211
          Condensed to atoms (all electrons):
              1          2
     1  H    0.581992   0.418008
     2  H    0.418008   0.581992
 Mulliken atomic charges:
              1
     1  H   -0.000000
     2  H   -0.000000
 Sum of Mulliken atomic charges =  -0.00000
 Mulliken charges with hydrogens summed into heavy atoms:
              1
 Sum of Mulliken charges with hydrogens summed into heavy atoms =  -0.00000
 APT atomic charges:
              1
     1  H   -0.000000
     2  H   -0.000000
 Sum of APT charges=  -0.00000
 APT Atomic charges with hydrogens summed into heavy atoms:
              1
     1  H   -0.000000
     2  H   -0.000000
 Sum of APT charges=  -0.00000
 Electronic spatial extent (au):  <R**2>=              5.1457
 Charge=             -0.0000 electrons
 Dipole moment (field-independent basis, Debye):
    X=             -0.0000    Y=             -0.0000    Z=              0.0000  Tot=              0.0000
 Quadrupole moment (field-independent basis, Debye-Ang):
   XX=             -2.0556   YY=             -2.0556   ZZ=             -1.4434
   XY=             -0.0000   XZ=             -0.0000   YZ=              0.0000
 Traceless Quadrupole moment (field-independent basis, Debye-Ang):
   XX=             -0.2041   YY=             -0.2041   ZZ=              0.4081
   XY=             -0.0000   XZ=             -0.0000   YZ=              0.0000
 Octapole moment (field-independent basis, Debye-Ang**2):
  XXX=             -0.0000  YYY=              0.0000  ZZZ=             -0.0000  XYY=             -0.0000
  XXY=              0.0000  XXZ=              0.0000  XZZ=             -0.0000  YZZ=              0.0000
  YYZ=              0.0000  XYZ=              0.0000
 Hexadecapole moment (field-independent basis, Debye-Ang**3):
 XXXX=             -1.9525 YYYY=             -1.9525 ZZZZ=             -2.8126 XXXY=             -0.0000
 XXXZ=              0.0000 YYYX=             -0.0000 YYYZ=              0.0000 ZZZX=              0.0000
 ZZZY=              0.0000 XXYY=             -0.6508 XXZZ=             -0.8127 YYZZ=             -0.8127
 XXYZ=              0.0000 YYXZ=              0.0000 ZZXY=             -0.0000
 N-N= 7.014897876527D-01 E-N=-3.568579865103D+00  KE= 1.084381621324D+00
 Symmetry AG   KE= 1.084381621324D+00
 Symmetry B1G  KE= 0.000000000000D+00
 Symmetry B2G  KE= 3.093051536738D-34
 Symmetry B3G  KE= 3.093051536738D-34
 Symmetry AU   KE= 0.000000000000D+00
 Symmetry B1U  KE= 1.722810818552D-31
 Symmetry B2U  KE= 6.212278635113D-35
 Symmetry B3U  KE= 6.212278635113D-35
 Orbital energies and kinetic energies (alpha):
                                 1                 2
   1         (SGG)--O         -0.588108          0.542191
   2         (SGU)--V          0.194670          0.343238
   3         (SGG)--V          0.482769          0.887289
   4         (SGU)--V          0.927146          1.641607
   5         (PIU)--V          1.291362          1.643884
   6         (PIU)--V          1.291362          1.643884
   7         (SGG)--V          1.943032          2.337983
   8         (PIG)--V          2.033761          2.308748
   9         (PIG)--V          2.033761          2.308748
  10         (SGU)--V          3.525315          4.525304
 Total kinetic energy from orbitals= 1.084381621324D+00
  Exact polarizability:   1.154   0.000   1.154  -0.000  -0.000   6.530
 Approx polarizability:   0.996  -0.000   0.996  -0.000  -0.000   5.011
 No NMR shielding tensors so no spin-rotation constants.
 Leave Link  601 at Sat Aug 17 22:46:05 2024, MaxMem=   13107200 cpu:       0.1
 (Enter /programs/64bit/g09/g09-gfortran/bin/l701.exe)
 Compute integral second derivatives.
 ... and contract with generalized density number  2.
 Leave Link  701 at Sat Aug 17 22:46:05 2024, MaxMem=   13107200 cpu:       0.1
 (Enter /programs/64bit/g09/g09-gfortran/bin/l702.exe)
 L702 exits ... SP integral derivatives will be done elsewhere.
 Leave Link  702 at Sat Aug 17 22:46:05 2024, MaxMem=   13107200 cpu:       0.0
 (Enter /programs/64bit/g09/g09-gfortran/bin/l703.exe)
 Compute integral second derivatives, UseDBF=F ICtDFT=           0.
 Integral derivatives from FoFDir, PRISM(SPDF).
 Calling FoFJK, ICntrl=    100127 FMM=F ISym2X=1 I1Cent= 0 IOpClX= 0 NMat=1 NMatS=1 NMatT=0.
 FoFCou: FMM=F IPFlag=           0 FMFlag=      100000 FMFlg1=         800
         NFxFlg=           0 DoJE=F BraDBF=F KetDBF=F FulRan=T
         Omega=  0.000000  0.000000  1.000000  0.000000  0.000000 ICntrl=  100127 IOpCl=  0
         NMat0=    1 NMatS0=    1 NMatT0=    0 NMatD0=    1 NMtDS0=    0 NMtDT0=    0
         I1Cent=           0 NGrid=           0.
 Petite list used in FoFCou.
 Leave Link  703 at Sat Aug 17 22:46:05 2024, MaxMem=   13107200 cpu:       0.1
 (Enter /programs/64bit/g09/g09-gfortran/bin/l716.exe)
 Dipole        =-4.56047712D-21-4.56047712D-21-3.33392168D-17
 Polarizability= 1.15357235D+00 2.16980198D-33 1.15357235D+00
                -4.10453373D-16-3.08401790D-17 6.52992771D+00
 Full mass-weighted force constant matrix:
 Low frequencies ---   -2.0057   -2.0057    0.0001    0.0001    0.0001 4501.2610
 Diagonal vibrational polarizability:
        0.0000000       0.0000000       0.0000000
 Harmonic frequencies (cm**-1), IR intensities (KM/Mole), Raman scattering
 activities (A**4/AMU), depolarization ratios for plane and unpolarized
 incident light, reduced masses (AMU), force constants (mDyne/A),
 and normal coordinates:
                     1
                    SGG
 Frequencies --  4501.2610
 Red. masses --     1.0078
 Frc consts  --    12.0311
 IR Inten    --     0.0000
  Atom  AN      X      Y      Z
     1   1    -0.00   0.00   0.71
     2   1     0.00   0.00  -0.71

 -------------------
 - Thermochemistry -
 -------------------
 Temperature   298.150 Kelvin.  Pressure   1.00000 Atm.
 Atom     1 has atomic number  1 and mass   1.00783
 Atom     2 has atomic number  1 and mass   1.00783
 Molecular mass:     2.01565 amu.
 Principal axes and moments of inertia in atomic units:
                           1         2         3
     Eigenvalues --     0.00000   1.02403   1.02403
           X           -0.00000   1.00000  -0.00000
           Y            0.00000   0.00000   1.00000
           Z            1.00000   0.00000  -0.00000
 This molecule is a prolate symmetric top.
 Rotational symmetry number  2.
 Rotational temperature (Kelvin)     84.58137
 Rotational constant (GHZ):        1762.391917
 Zero-point vibrational energy      26923.5 (Joules/Mol)
                                    6.43488 (Kcal/Mol)
 Vibrational temperatures:   6476.30
          (Kelvin)
 
 Zero-point correction=                           0.010255 (Hartree/Particle)
 Thermal correction to Energy=                    0.012615
 Thermal correction to Enthalpy=                  0.013559
 Thermal correction to Gibbs Free Energy=        -0.001262
 Sum of electronic and zero-point Energies=             -1.144964
 Sum of electronic and thermal Energies=                -1.142603
 Sum of electronic and thermal Enthalpies=              -1.141659
 Sum of electronic and thermal Free Energies=           -1.156480
 
                     E (Thermal)             CV                S
                      KCal/Mol        Cal/Mol-Kelvin    Cal/Mol-Kelvin
 Total                    7.916              4.968             31.194
 Electronic               0.000              0.000              0.000
 Translational            0.889              2.981             28.080
 Rotational               0.592              1.987              3.113
 Vibrational              6.435              0.000              0.000
                       Q            Log10(Q)             Ln(Q)
 Total Bot       0.380555D+01          0.580417          1.336460
 Total V=0       0.198248D+06          5.297208         12.197272
 Vib (Bot)       0.191959D-04         -4.716791        -10.860812
 Vib (V=0)       0.100000D+01          0.000000          0.000000
 Electronic      0.100000D+01          0.000000          0.000000
 Translational   0.112481D+06          5.051078         11.630537
 Rotational      0.176250D+01          0.246130          0.566735
 ***** Axes restored to original set *****
 -------------------------------------------------------------------
 Center     Atomic                   Forces (Hartrees/Bohr)
 Number     Number              X              Y              Z
 -------------------------------------------------------------------
      1        1           0.000000000   -0.000000000   -0.000000109
      2        1          -0.000000000    0.000000000    0.000000109
 -------------------------------------------------------------------
 Cartesian Forces:  Max     0.000000109 RMS     0.000000063
 Force constants in Cartesian coordinates: 
                1             2             3             4             5 
      1  0.000000D+00
      2  0.000000D+00  0.000000D+00
      3  0.000000D+00  0.000000D+00  0.386380D+00
      4  0.000000D+00  0.000000D+00  0.000000D+00  0.000000D+00
      5  0.000000D+00  0.000000D+00  0.000000D+00  0.000000D+00  0.000000D+00
      6  0.000000D+00  0.000000D+00 -0.386380D+00  0.000000D+00  0.000000D+00
                6 
      6  0.386380D+00
 Force constants in internal coordinates: 
                1 
      1  0.386380D+00
 Leave Link  716 at Sat Aug 17 22:46:05 2024, MaxMem=   13107200 cpu:       0.0
 (Enter /programs/64bit/g09/g09-gfortran/bin/l103.exe)

 GradGradGradGradGradGradGradGradGradGradGradGradGradGradGradGradGradGrad
 Berny optimization.
 Internal  Forces:  Max     0.000000109 RMS     0.000000109
 Search for a local minimum.
 Step number   1 out of a maximum of    2
 All quantities printed in internal units (Hartrees-Bohrs-Radians)
 Second derivative matrix not updated -- analytic derivatives used.
 The second derivative matrix:
                          R1
           R1           0.38638
     Eigenvalues ---    0.38638
 Angle between quadratic step and forces=  90.00 degrees.
 Linear search not attempted -- first point.
 Iteration  1 RMS(Cart)=  0.00000020 RMS(Int)=  0.00000000
 ClnCor:  largest displacement from symmetrization is 8.67D-24 for atom     1.
 Variable       Old X    -DE/DX   Delta X   Delta X   Delta X     New X
                                 (Linear)    (Quad)   (Total)
    R1        1.42554   0.00000   0.00000   0.00000   0.00000   1.42554
         Item               Value     Threshold  Converged?
 Maximum Force            0.000000     0.000450     YES
 RMS     Force            0.000000     0.000300     YES
 Maximum Displacement     0.000000     0.001800     YES
 RMS     Displacement     0.000000     0.001200     YES
 Predicted change in Energy=-1.547697D-14
 Optimization completed.
    -- Stationary point found.
                           ----------------------------
                           !   Optimized Parameters   !
                           ! (Angstroms and Degrees)  !
 --------------------------                            --------------------------
 ! Name  Definition              Value          Derivative Info.                !
 --------------------------------------------------------------------------------
 ! R1    R(1,2)                  0.7544         -DE/DX =    0.0                 !
 --------------------------------------------------------------------------------
 GradGradGradGradGradGradGradGradGradGradGradGradGradGradGradGradGradGrad

 Leave Link  103 at Sat Aug 17 22:46:05 2024, MaxMem=   13107200 cpu:       0.0
 (Enter /programs/64bit/g09/g09-gfortran/bin/l9999.exe)
 1\1\GINC-MOLMOD\Freq\RMP2-FC\CC-pVDZ\H2\OSPITE\17-Aug-2024\0\\#P Geom=
 AllCheck Guess=TCheck SCRF=Check GenChk RMP2(FC)/CC-pVDZ Freq\\hydogen
  (molecule) with cc-pVDZ basis set\\0,1\H,0.,0.,-0.0071809782\H,0.,0.,
 0.7471809782\\Version=EM64L-G09RevA.02\State=1-SGG\HF=-1.1287171\MP2=-
 1.1552183\RMSD=7.624e-17\RMSF=6.314e-08\ZeroPoint=0.0102546\Thermal=0.
 0126151\Dipole=0.,0.,0.\DipoleDeriv=0.,0.,0.,0.,0.,0.,0.,0.,0.,0.,0.,0
 .,0.,0.,0.,0.,0.,0.\Polar=1.1535724,0.,1.1535724,0.,0.,6.5299277\PG=D*
 H [C*(H1.H1)]\NImag=0\\-0.00000008,0.,-0.00000008,0.,0.,0.38638030,0.0
 0000008,0.,0.,-0.00000008,0.,0.00000008,0.,0.,-0.00000008,0.,0.,-0.386
 38030,0.,0.,0.38638030\\0.,0.,0.00000011,0.,0.,-0.00000011\\\@


 HONESTY IN A LAWYER IS LIKE A HEN'S HIND LEGS.
  -- MAGNUS OLESON, LAKE WOBEGON PATRIARCH, C.1875
 Job cpu time:  0 days  0 hours  0 minutes  2.3 seconds.
 File lengths (MBytes):  RWF=     18 Int=      0 D2E=      0 Chk=      1 Scr=      1
 Normal termination of Gaussian 09 at Sat Aug 17 22:46:06 2024.
