 Entering Gaussian System, Link 0=/programs/64bit/g09/g09-gfortran/bin/g09
 Input=h2_cc-pVTZ.com
 Output=h2_cc-pVTZ.log
 Initial command:
 /programs/64bit/g09/g09-gfortran/bin/l1.exe /home/ospite/Desktop/MMfP/Project6/H2/g09/MP2/Gau-15577.inp -scrdir=/home/ospite/Desktop/MMfP/Project6/H2/g09/MP2/
 Entering Link 1 = /programs/64bit/g09/g09-gfortran/bin/l1.exe PID=     15578.
  
 Copyright (c) 1988,1990,1992,1993,1995,1998,2003,2009, Gaussian, Inc.
                  All Rights Reserved.
  
 This is part of the Gaussian(R) 09 program.  It is based on
 the Gaussian(R) 03 system (copyright 2003, Gaussian, Inc.),
 the Gaussian(R) 98 system (copyright 1998, Gaussian, Inc.),
 the Gaussian(R) 94 system (copyright 1995, Gaussian, Inc.),
 the Gaussian 92(TM) system (copyright 1992, Gaussian, Inc.),
 the Gaussian 90(TM) system (copyright 1990, Gaussian, Inc.),
 the Gaussian 88(TM) system (copyright 1988, Gaussian, Inc.),
 the Gaussian 86(TM) system (copyright 1986, Carnegie Mellon
 University), and the Gaussian 82(TM) system (copyright 1983,
 Carnegie Mellon University). Gaussian is a federally registered
 trademark of Gaussian, Inc.
  
 This software contains proprietary and confidential information,
 including trade secrets, belonging to Gaussian, Inc.
  
 This software is provided under written license and may be
 used, copied, transmitted, or stored only in accord with that
 written license.
  
 The following legend is applicable only to US Government
 contracts under FAR:
  
                    RESTRICTED RIGHTS LEGEND
  
 Use, reproduction and disclosure by the US Government is
 subject to restrictions as set forth in subparagraphs (a)
 and (c) of the Commercial Computer Software - Restricted
 Rights clause in FAR 52.227-19.
  
 Gaussian, Inc.
 340 Quinnipiac St., Bldg. 40, Wallingford CT 06492
  
  
 ---------------------------------------------------------------
 Warning -- This program may not be used in any manner that
 competes with the business of Gaussian, Inc. or will provide
 assistance to any competitor of Gaussian, Inc.  The licensee
 of this program is prohibited from giving any competitor of
 Gaussian, Inc. access to this program.  By using this program,
 the user acknowledges that Gaussian, Inc. is engaged in the
 business of creating and licensing software in the field of
 computational chemistry and represents and warrants to the
 licensee that it is not a competitor of Gaussian, Inc. and that
 it will not use this program in any manner prohibited above.
 ---------------------------------------------------------------
  

 Cite this work as:
 Gaussian 09, Revision A.02,
 M. J. Frisch, G. W. Trucks, H. B. Schlegel, G. E. Scuseria, 
 M. A. Robb, J. R. Cheeseman, G. Scalmani, V. Barone, B. Mennucci, 
 G. A. Petersson, H. Nakatsuji, M. Caricato, X. Li, H. P. Hratchian, 
 A. F. Izmaylov, J. Bloino, G. Zheng, J. L. Sonnenberg, M. Hada, 
 M. Ehara, K. Toyota, R. Fukuda, J. Hasegawa, M. Ishida, T. Nakajima, 
 Y. Honda, O. Kitao, H. Nakai, T. Vreven, J. A. Montgomery, Jr., 
 J. E. Peralta, F. Ogliaro, M. Bearpark, J. J. Heyd, E. Brothers, 
 K. N. Kudin, V. N. Staroverov, R. Kobayashi, J. Normand, 
 K. Raghavachari, A. Rendell, J. C. Burant, S. S. Iyengar, J. Tomasi, 
 M. Cossi, N. Rega, J. M. Millam, M. Klene, J. E. Knox, J. B. Cross, 
 V. Bakken, C. Adamo, J. Jaramillo, R. Gomperts, R. E. Stratmann, 
 O. Yazyev, A. J. Austin, R. Cammi, C. Pomelli, J. W. Ochterski, 
 R. L. Martin, K. Morokuma, V. G. Zakrzewski, G. A. Voth, 
 P. Salvador, J. J. Dannenberg, S. Dapprich, A. D. Daniels, 
 O. Farkas, J. B. Foresman, J. V. Ortiz, J. Cioslowski, 
 and D. J. Fox, Gaussian, Inc., Wallingford CT, 2009.
 
 ******************************************
 Gaussian 09:  EM64L-G09RevA.02 11-Jun-2009
                17-Aug-2024 
 ******************************************
 %mem=100MB
 ----------------------------------------
 #p mp2/cc-pVTZ opt freq pop=full gfinput
 ----------------------------------------
 1/18=20,19=15,38=1/1,3;
 2/9=110,12=2,17=6,18=5,40=1/2;
 3/5=16,6=1,11=9,16=1,24=10,25=1,30=1,71=1/1,2,3;
 4//1;
 5/5=2,38=5/2;
 8/6=4,10=1/1;
 9/15=2,16=-3/6;
 10/5=1/2;
 6/7=3/1;
 7/12=2/1,2,3,16;
 1/18=20,19=15/3(2);
 2/9=110/2;
 99//99;
 2/9=110/2;
 3/5=16,6=1,11=9,16=1,25=1,30=1,71=1/1,2,3;
 4/5=5,16=3/1;
 5/5=2,38=5/2;
 8/6=4,10=1/1;
 9/15=2,16=-3/6;
 10/5=1/2;
 7/12=2/1,2,3,16;
 1/18=20,19=15/3(-8);
 2/9=110/2;
 6/7=3/1;
 99//99;
 Leave Link    1 at Sat Aug 17 22:46:09 2024, MaxMem=   13107200 cpu:       0.1
 (Enter /programs/64bit/g09/g09-gfortran/bin/l101.exe)
 -----------------------------------------
 hydogen (molecule) with cc-pVTZ basis set
 -----------------------------------------
 Symbolic Z-matrix:
 Charge =  0 Multiplicity = 1
 H1
 H2                   1    d
       Variables:
  d                     0.74                     
 
 NAtoms=      2 NQM=      2 NQMF=      0 NMic=      0 NMicF=      0 NTot=      2.
                    Isotopes and Nuclear Properties:
 (Nuclear quadrupole moments (NQMom) in fm**2, nuclear magnetic moments (NMagM)
  in nuclear magnetons)

  Atom         1           2
 IAtWgt=           1           1
 AtmWgt=   1.0078250   1.0078250
 NucSpn=           1           1
 AtZEff=   0.0000000   0.0000000
 NQMom=    0.0000000   0.0000000
 NMagM=    2.7928460   2.7928460
 Leave Link  101 at Sat Aug 17 22:46:10 2024, MaxMem=   13107200 cpu:       0.1
 (Enter /programs/64bit/g09/g09-gfortran/bin/l103.exe)

 GradGradGradGradGradGradGradGradGradGradGradGradGradGradGradGradGradGrad
 Berny optimization.
 Initialization pass.
                           ----------------------------
                           !    Initial Parameters    !
                           ! (Angstroms and Degrees)  !
 --------------------------                            --------------------------
 ! Name  Definition              Value          Derivative Info.                !
 --------------------------------------------------------------------------------
 ! R1    R(1,2)                  0.74           estimate D2E/DX2                !
 --------------------------------------------------------------------------------
 Trust Radius=3.00D-01 FncErr=1.00D-07 GrdErr=1.00D-07
 Number of steps in this run=  20 maximum allowed number of steps= 100.
 GradGradGradGradGradGradGradGradGradGradGradGradGradGradGradGradGradGrad

 Leave Link  103 at Sat Aug 17 22:46:10 2024, MaxMem=   13107200 cpu:       0.0
 (Enter /programs/64bit/g09/g09-gfortran/bin/l202.exe)
                          Input orientation:                          
 ---------------------------------------------------------------------
 Center     Atomic      Atomic             Coordinates (Angstroms)
 Number     Number       Type             X           Y           Z
 ---------------------------------------------------------------------
      1          1           0        0.000000    0.000000    0.000000
      2          1           0        0.000000    0.000000    0.740000
 ---------------------------------------------------------------------
 Stoichiometry    H2
 Framework group  D*H[C*(H.H)]
 Deg. of freedom     1
 Full point group                 D*H     NOp   8
 Largest Abelian subgroup         D2H     NOp   8
 Largest concise Abelian subgroup C2      NOp   2
                         Standard orientation:                         
 ---------------------------------------------------------------------
 Center     Atomic      Atomic             Coordinates (Angstroms)
 Number     Number       Type             X           Y           Z
 ---------------------------------------------------------------------
      1          1           0        0.000000    0.000000    0.370000
      2          1           0        0.000000    0.000000   -0.370000
 ---------------------------------------------------------------------
 Rotational constants (GHZ):      0.0000000   1831.4649389   1831.4649389
 Leave Link  202 at Sat Aug 17 22:46:10 2024, MaxMem=   13107200 cpu:       0.0
 (Enter /programs/64bit/g09/g09-gfortran/bin/l301.exe)
 Standard basis: CC-pVTZ (5D, 7F)
 Ernie: Thresh=  0.10000D-02 Tol=  0.10000D-05 Strict=F.
 AO basis set in the form of general basis input (Overlap normalization):
      1 0
 S   3 1.00       0.000000000000
      0.3387000000D+02  0.2549486323D-01
      0.5095000000D+01  0.1903627659D+00
      0.1159000000D+01  0.8521620222D+00
 S   1 1.00       0.000000000000
      0.3258000000D+00  0.1000000000D+01
 S   1 1.00       0.000000000000
      0.1027000000D+00  0.1000000000D+01
 P   1 1.00       0.000000000000
      0.1407000000D+01  0.1000000000D+01
 P   1 1.00       0.000000000000
      0.3880000000D+00  0.1000000000D+01
 D   1 1.00       0.000000000000
      0.1057000000D+01  0.1000000000D+01
 ****
      2 0
 S   3 1.00       0.000000000000
      0.3387000000D+02  0.2549486323D-01
      0.5095000000D+01  0.1903627659D+00
      0.1159000000D+01  0.8521620222D+00
 S   1 1.00       0.000000000000
      0.3258000000D+00  0.1000000000D+01
 S   1 1.00       0.000000000000
      0.1027000000D+00  0.1000000000D+01
 P   1 1.00       0.000000000000
      0.1407000000D+01  0.1000000000D+01
 P   1 1.00       0.000000000000
      0.3880000000D+00  0.1000000000D+01
 D   1 1.00       0.000000000000
      0.1057000000D+01  0.1000000000D+01
 ****

 There are     7 symmetry adapted basis functions of AG  symmetry.
 There are     1 symmetry adapted basis functions of B1G symmetry.
 There are     3 symmetry adapted basis functions of B2G symmetry.
 There are     3 symmetry adapted basis functions of B3G symmetry.
 There are     1 symmetry adapted basis functions of AU  symmetry.
 There are     7 symmetry adapted basis functions of B1U symmetry.
 There are     3 symmetry adapted basis functions of B2U symmetry.
 There are     3 symmetry adapted basis functions of B3U symmetry.
 Integral buffers will be    131072 words long.
 Raffenetti 1 integral format.
 Two-electron integral symmetry is turned on.
    28 basis functions,    34 primitive gaussians,    30 cartesian basis functions
     1 alpha electrons        1 beta electrons
       nuclear repulsion energy         0.7151043359 Hartrees.
 IExCor=    0 DFT=F Ex=HF Corr=None ExCW=0 ScaHFX=  1.000000
 ScaDFX=  1.000000  1.000000  1.000000  1.000000 ScalE2=  1.000000  1.000000
 IRadAn=      0 IRanWt=     -1 IRanGd=            0 ICorTp=0
 NAtoms=    2 NActive=    2 NUniq=    1 SFac= 3.00D+00 NAtFMM=   80 NAOKFM=F Big=F
 Leave Link  301 at Sat Aug 17 22:46:10 2024, MaxMem=   13107200 cpu:       0.1
 (Enter /programs/64bit/g09/g09-gfortran/bin/l302.exe)
 NPDir=0 NMtPBC=     1 NCelOv=     1 NCel=       1 NClECP=     1 NCelD=      1
         NCelK=      1 NCelE2=     1 NClLst=     1 CellRange=     0.0.
 One-electron integrals computed using PRISM.
 One-electron integral symmetry used in STVInt
 NBasis=    28 RedAO= T  NBF=     7     1     3     3     1     7     3     3
 NBsUse=    28 1.00D-06 NBFU=     7     1     3     3     1     7     3     3
 Leave Link  302 at Sat Aug 17 22:46:10 2024, MaxMem=   13107200 cpu:       0.2
 (Enter /programs/64bit/g09/g09-gfortran/bin/l303.exe)
 DipDrv:  MaxL=1.
 Leave Link  303 at Sat Aug 17 22:46:10 2024, MaxMem=   13107200 cpu:       0.0
 (Enter /programs/64bit/g09/g09-gfortran/bin/l401.exe)
 Harris functional with IExCor=  205 diagonalized for initial guess.
 ExpMin= 1.03D-01 ExpMax= 3.39D+01 ExpMxC= 3.39D+01 IAcc=1 IRadAn=         1 AccDes= 0.00D+00
 HarFok:  IExCor=  205 AccDes= 0.00D+00 IRadAn=         1 IDoV= 1
 ScaDFX=  1.000000  1.000000  1.000000  1.000000
 FoFCou: FMM=F IPFlag=           0 FMFlag=      100000 FMFlg1=           0
         NFxFlg=           0 DoJE=T BraDBF=F KetDBF=T FulRan=T
         Omega=  0.000000  0.000000  1.000000  0.000000  0.000000 ICntrl=     500 IOpCl=  0
         NMat0=    1 NMatS0=    1 NMatT0=    0 NMatD0=    1 NMtDS0=    0 NMtDT0=    0
         I1Cent=           4 NGrid=           0.
 Petite list used in FoFCou.
 Harris En= -1.18701425605235    
 Initial guess orbital symmetries:
       Occupied  (SGG)
       Virtual   (SGU) (SGG) (SGU) (PIU) (PIU) (SGG) (PIG) (PIG)
                 (SGU) (SGU) (SGG) (DLTG) (DLTG) (PIU) (PIU) (SGG)
                 (PIG) (PIG) (DLTU) (DLTU) (PIU) (PIU) (SGU) (PIG)
                 (PIG) (SGG) (SGU)
 The electronic state of the initial guess is 1-SGG.
 Leave Link  401 at Sat Aug 17 22:46:10 2024, MaxMem=   13107200 cpu:       0.2
 (Enter /programs/64bit/g09/g09-gfortran/bin/l502.exe)
 Closed shell SCF:
 Requested convergence on RMS density matrix=1.00D-08 within 128 cycles.
 Requested convergence on MAX density matrix=1.00D-06.
 Requested convergence on             energy=1.00D-06.
 No special actions if energy rises.
 Using DIIS extrapolation, IDIIS=  1040.
 Integral symmetry usage will be decided dynamically.
 Keep R1 ints in memory in canonical form, NReq=949721.
 IEnd=       21362 IEndB=       21362 NGot=    13107200 MDV=    12995036
 LenX=    12995036 LenY=    12993695
 Symmetry not used in FoFDir.
 MinBra= 0 MaxBra= 2 Meth= 1.
 IRaf=       0 NMat=   1 IRICut=       1 DoRegI=T DoRafI=F ISym2E= 0 JSym2E=0.

 Cycle   1  Pass 1  IDiag  1:
 E= -1.13007093138955    
 DIIS: error= 1.52D-02 at cycle   1 NSaved=   1.
 NSaved= 1 IEnMin= 1 EnMin= -1.13007093138955     IErMin= 1 ErrMin= 1.52D-02
 ErrMax= 1.52D-02 EMaxC= 1.00D-01 BMatC= 2.42D-03 BMatP= 2.42D-03
 IDIUse=3 WtCom= 8.48D-01 WtEn= 1.52D-01
 Coeff-Com:  0.100D+01
 Coeff-En:   0.100D+01
 Coeff:      0.100D+01
 Gap=     0.778 Goal=   None    Shift=    0.000
 GapD=    0.778 DampG=2.000 DampE=0.500 DampFc=1.0000 IDamp=-1.
 RMSDP=8.31D-04 MaxDP=6.16D-03              OVMax= 3.00D-02

 Cycle   2  Pass 1  IDiag  1:
 E= -1.13290135465916     Delta-E=       -0.002830423270 Rises=F Damp=F
 DIIS: error= 1.99D-03 at cycle   2 NSaved=   2.
 NSaved= 2 IEnMin= 2 EnMin= -1.13290135465916     IErMin= 2 ErrMin= 1.99D-03
 ErrMax= 1.99D-03 EMaxC= 1.00D-01 BMatC= 3.63D-05 BMatP= 2.42D-03
 IDIUse=3 WtCom= 9.80D-01 WtEn= 1.99D-02
 Coeff-Com: -0.125D+00 0.113D+01
 Coeff-En:   0.000D+00 0.100D+01
 Coeff:     -0.123D+00 0.112D+01
 Gap=     0.762 Goal=   None    Shift=    0.000
 RMSDP=1.88D-04 MaxDP=1.26D-03 DE=-2.83D-03 OVMax= 5.70D-03

 Cycle   3  Pass 1  IDiag  1:
 E= -1.13296691744700     Delta-E=       -0.000065562788 Rises=F Damp=F
 DIIS: error= 2.17D-04 at cycle   3 NSaved=   3.
 NSaved= 3 IEnMin= 3 EnMin= -1.13296691744700     IErMin= 3 ErrMin= 2.17D-04
 ErrMax= 2.17D-04 EMaxC= 1.00D-01 BMatC= 3.26D-07 BMatP= 3.63D-05
 IDIUse=3 WtCom= 9.98D-01 WtEn= 2.17D-03
 Coeff-Com:  0.352D-01-0.318D+00 0.128D+01
 Coeff-En:   0.000D+00 0.000D+00 0.100D+01
 Coeff:      0.351D-01-0.317D+00 0.128D+01
 Gap=     0.762 Goal=   None    Shift=    0.000
 RMSDP=3.54D-05 MaxDP=3.66D-04 DE=-6.56D-05 OVMax= 7.03D-04

 Cycle   4  Pass 1  IDiag  1:
 E= -1.13296768239175     Delta-E=       -0.000000764945 Rises=F Damp=F
 DIIS: error= 8.05D-06 at cycle   4 NSaved=   4.
 NSaved= 4 IEnMin= 4 EnMin= -1.13296768239175     IErMin= 4 ErrMin= 8.05D-06
 ErrMax= 8.05D-06 EMaxC= 1.00D-01 BMatC= 2.93D-10 BMatP= 3.26D-07
 IDIUse=1 WtCom= 1.00D+00 WtEn= 0.00D+00
 Coeff-Com: -0.483D-02 0.435D-01-0.189D+00 0.115D+01
 Coeff:     -0.483D-02 0.435D-01-0.189D+00 0.115D+01
 Gap=     0.762 Goal=   None    Shift=    0.000
 RMSDP=1.00D-06 MaxDP=9.73D-06 DE=-7.65D-07 OVMax= 1.67D-05

 Cycle   5  Pass 1  IDiag  1:
 E= -1.13296768289528     Delta-E=       -0.000000000504 Rises=F Damp=F
 DIIS: error= 2.76D-07 at cycle   5 NSaved=   5.
 NSaved= 5 IEnMin= 5 EnMin= -1.13296768289528     IErMin= 5 ErrMin= 2.76D-07
 ErrMax= 2.76D-07 EMaxC= 1.00D-01 BMatC= 8.18D-13 BMatP= 2.93D-10
 IDIUse=1 WtCom= 1.00D+00 WtEn= 0.00D+00
 Coeff-Com:  0.402D-03-0.359D-02 0.163D-01-0.119D+00 0.111D+01
 Coeff:      0.402D-03-0.359D-02 0.163D-01-0.119D+00 0.111D+01
 Gap=     0.762 Goal=   None    Shift=    0.000
 RMSDP=2.25D-08 MaxDP=1.59D-07 DE=-5.04D-10 OVMax= 7.04D-07

 Cycle   6  Pass 1  IDiag  1:
 E= -1.13296768289656     Delta-E=       -0.000000000001 Rises=F Damp=F
 DIIS: error= 3.51D-08 at cycle   6 NSaved=   6.
 NSaved= 6 IEnMin= 6 EnMin= -1.13296768289656     IErMin= 6 ErrMin= 3.51D-08
 ErrMax= 3.51D-08 EMaxC= 1.00D-01 BMatC= 7.69D-15 BMatP= 8.18D-13
 IDIUse=1 WtCom= 1.00D+00 WtEn= 0.00D+00
 Coeff-Com: -0.818D-06-0.123D-05-0.783D-04 0.275D-02-0.127D+00 0.112D+01
 Coeff:     -0.818D-06-0.123D-05-0.783D-04 0.275D-02-0.127D+00 0.112D+01
 Gap=     0.762 Goal=   None    Shift=    0.000
 RMSDP=2.00D-09 MaxDP=1.41D-08 DE=-1.28D-12 OVMax= 5.46D-08

 SCF Done:  E(RHF) =  -1.13296768290     A.U. after    6 cycles
             Convg  =    0.2005D-08             -V/T =  2.0080
 KE= 1.123995842775D+00 PE=-3.630761552986D+00 EE= 6.586936913813D-01
 Leave Link  502 at Sat Aug 17 22:46:11 2024, MaxMem=   13107200 cpu:       0.1
 (Enter /programs/64bit/g09/g09-gfortran/bin/l801.exe)
 Range of M.O.s used for correlation:     1    28
 NBasis=    28 NAE=     1 NBE=     1 NFC=     0 NFV=     0
 NROrb=     28 NOA=     1 NOB=     1 NVA=    27 NVB=    27

 **** Warning!!: The largest alpha MO coefficient is  0.13109045D+02

 Leave Link  801 at Sat Aug 17 22:46:11 2024, MaxMem=   13107200 cpu:       0.0
 (Enter /programs/64bit/g09/g09-gfortran/bin/l906.exe)
 FulOut=F Deriv=T AODrv=T NAtomX=     2
   MMem=        1546  MDisk=           1 MDiskD=           1
  W3Min=         840 MinDsk=       58595 NBas6D=          30
 NBas2D=         507    NTT=         465    LW2=     2040000
    MDV=    13094779 MDiskM=        5136 NBas2p=         282
 Fully direct method using O(ONN) memory.
 IMap=   1
 JobTyp=1 Pass  1:  I=   1 to   1 NPSUse=  1 ParTrn=F ParDer=F DoDerP=T.
 Spin components of T(2) and E(2):
     alpha-alpha T2 =       0.0000000000D+00 E2=      0.0000000000D+00
     alpha-beta  T2 =       0.1012470455D-01 E2=     -0.3167592435D-01
     beta-beta   T2 =       0.0000000000D+00 E2=      0.0000000000D+00
 The integrals were generated   1 times.
 ANorm=    0.1005049603D+01
 E2 =    -0.3167592435D-01 EUMP2 =    -0.11646436072503D+01
 Leave Link  906 at Sat Aug 17 22:46:11 2024, MaxMem=   13107200 cpu:       0.2
 (Enter /programs/64bit/g09/g09-gfortran/bin/l1002.exe)
 Minotr:  Closed shell wavefunction.
          Computing MP2/KS-MP2 derivatives.
          Using Z-Vector for PSCF gradient.
          Skipping F1 and S1 gradient terms here.
          IDoAtm=11
          Direct CPHF calculation.
          Differentiating once with respect to electric field.
                with respect to dipole field.
          Differentiating once with respect to nuclear coordinates.
          Using symmetry in CPHF.
          Requested convergence is 1.0D-10 RMS, and 1.0D-09 maximum.
          NewPWx=F KeepS1=T KeepF1=T KeepIn=T MapXYZ=F SortEE=F KeepMc=T.
          MDV=      13107176 using IRadAn=       0.
          Keep R1 ints in memory in canonical form, NReq=929094.
 Symmetry not used in FoFDir.
 MinBra= 0 MaxBra= 2 Meth= 1.
 IRaf=       0 NMat=   1 IRICut=       1 DoRegI=T DoRafI=F ISym2E= 0 JSym2E=0.
          Solving linear equations separately, MaxMat=       0.
          There are     1 degrees of freedom in the 1st order CPHF.  IDoFFX=0.
 LinEq1:  Iter=  0 NonCon=     1 RMS=3.49D-03 Max=1.50D-02
 AX will form     1 AO Fock derivatives at one time.
 LinEq1:  Iter=  1 NonCon=     1 RMS=1.70D-04 Max=6.70D-04
 LinEq1:  Iter=  2 NonCon=     1 RMS=2.98D-06 Max=9.72D-06
 LinEq1:  Iter=  3 NonCon=     1 RMS=1.48D-07 Max=5.03D-07
 LinEq1:  Iter=  4 NonCon=     1 RMS=1.21D-09 Max=4.62D-09
 LinEq1:  Iter=  5 NonCon=     0 RMS=4.96D-22 Max=2.50D-21
 Linear equations converged to 1.000D-10 1.000D-09 after     5 iterations.
 End of Minotr Frequency-dependent properties file   721 does not exist.
 End of Minotr Frequency-dependent properties file   722 does not exist.
 Leave Link 1002 at Sat Aug 17 22:46:11 2024, MaxMem=   13107200 cpu:       0.1
 (Enter /programs/64bit/g09/g09-gfortran/bin/l601.exe)
 Copying SCF densities to generalized density rwf, IOpCl= 0 IROHF=0.

 **********************************************************************

            Population analysis using the SCF density.

 **********************************************************************

 Orbital symmetries:
       Occupied  (SGG)
       Virtual   (SGU) (SGG) (SGU) (PIU) (PIU) (SGG) (PIG) (PIG)
                 (SGU) (SGU) (SGG) (DLTG) (DLTG) (PIU) (PIU) (SGG)
                 (PIG) (PIG) (DLTU) (DLTU) (PIU) (PIU) (SGU) (PIG)
                 (PIG) (SGG) (SGU)
 The electronic state is 1-SGG.
 Alpha  occ. eigenvalues --   -0.59469
 Alpha virt. eigenvalues --    0.16726   0.30500   0.64388   0.69271   0.69271
 Alpha virt. eigenvalues --    1.09663   1.12012   1.12012   1.52944   2.33708
 Alpha virt. eigenvalues --    2.40689   3.17544   3.17544   3.41276   3.41276
 Alpha virt. eigenvalues --    3.67512   3.89280   3.89280   4.08534   4.08534
 Alpha virt. eigenvalues --    4.11499   4.11499   4.65987   5.73301   5.73301
 Alpha virt. eigenvalues --    5.80955   6.97106
     Molecular Orbital Coefficients:
                           1         2         3         4         5
                       (SGG)--O  (SGU)--V  (SGG)--V  (SGU)--V  (PIU)--V
     Eigenvalues --    -0.59469   0.16726   0.30500   0.64388   0.69271
   1 1   H  1S          0.18659   0.06661  -0.05608   0.12491   0.00000
   2        2S          0.28365  -0.31320  -0.73457   2.26721   0.00000
   3        3S          0.13533   2.32723   0.86066  -2.25466   0.00000
   4        4PX         0.00000   0.00000   0.00000   0.00000   0.00000
   5        4PY         0.00000   0.00000   0.00000   0.00000  -0.05868
   6        4PZ        -0.01206   0.03503   0.01671  -0.08501   0.00000
   7        5PX         0.00000   0.00000   0.00000   0.00000   0.00000
   8        5PY         0.00000   0.00000   0.00000   0.00000   0.57828
   9        5PZ        -0.01739   0.10338  -0.05073  -0.20258   0.00000
  10        6D 0        0.00083  -0.01930   0.00796   0.07079   0.00000
  11        6D+1        0.00000   0.00000   0.00000   0.00000   0.00000
  12        6D-1        0.00000   0.00000   0.00000   0.00000   0.00902
  13        6D+2        0.00000  -0.00000  -0.00000   0.00000   0.00000
  14        6D-2        0.00000   0.00000   0.00000   0.00000   0.00000
  15 2   H  1S          0.18659  -0.06661  -0.05608  -0.12491   0.00000
  16        2S          0.28365   0.31320  -0.73457  -2.26721   0.00000
  17        3S          0.13533  -2.32723   0.86066   2.25466   0.00000
  18        4PX         0.00000   0.00000   0.00000   0.00000   0.00000
  19        4PY         0.00000   0.00000   0.00000   0.00000  -0.05868
  20        4PZ         0.01206   0.03503  -0.01671  -0.08501   0.00000
  21        5PX         0.00000   0.00000   0.00000   0.00000   0.00000
  22        5PY         0.00000   0.00000   0.00000   0.00000   0.57828
  23        5PZ         0.01739   0.10338   0.05073  -0.20258   0.00000
  24        6D 0        0.00083   0.01930   0.00796  -0.07079   0.00000
  25        6D+1        0.00000   0.00000   0.00000   0.00000   0.00000
  26        6D-1        0.00000   0.00000   0.00000   0.00000  -0.00902
  27        6D+2        0.00000   0.00000  -0.00000  -0.00000   0.00000
  28        6D-2        0.00000   0.00000   0.00000   0.00000   0.00000
                           6         7         8         9        10
                       (PIU)--V  (SGG)--V  (PIG)--V  (PIG)--V  (SGU)--V
     Eigenvalues --     0.69271   1.09663   1.12012   1.12012   1.52944
   1 1   H  1S          0.00000   0.00659   0.00000   0.00000   0.03430
   2        2S          0.00000   0.66765   0.00000   0.00000  13.10905
   3        3S          0.00000  -0.35630   0.00000   0.00000  -0.32745
   4        4PX        -0.05868   0.00000  -0.06690   0.00000   0.00000
   5        4PY         0.00000   0.00000   0.00000  -0.06690   0.00000
   6        4PZ         0.00000  -0.10273   0.00000   0.00000  -0.12809
   7        5PX         0.57828   0.00000   1.41858   0.00000   0.00000
   8        5PY         0.00000   0.00000   0.00000   1.41858   0.00000
   9        5PZ         0.00000   1.06223   0.00000   0.00000  -6.21611
  10        6D 0        0.00000  -0.06712   0.00000   0.00000   0.28861
  11        6D+1        0.00902   0.00000  -0.10831   0.00000   0.00000
  12        6D-1        0.00000   0.00000   0.00000  -0.10831   0.00000
  13        6D+2        0.00000   0.00000   0.00000   0.00000  -0.00000
  14        6D-2        0.00000   0.00000   0.00000   0.00000   0.00000
  15 2   H  1S          0.00000   0.00659   0.00000   0.00000  -0.03430
  16        2S          0.00000   0.66765   0.00000   0.00000 -13.10905
  17        3S          0.00000  -0.35630   0.00000   0.00000   0.32745
  18        4PX        -0.05868   0.00000   0.06690   0.00000   0.00000
  19        4PY         0.00000   0.00000   0.00000   0.06690   0.00000
  20        4PZ         0.00000   0.10273   0.00000   0.00000  -0.12809
  21        5PX         0.57828   0.00000  -1.41858   0.00000   0.00000
  22        5PY         0.00000   0.00000   0.00000  -1.41858   0.00000
  23        5PZ         0.00000  -1.06223   0.00000   0.00000  -6.21611
  24        6D 0        0.00000  -0.06712   0.00000   0.00000  -0.28861
  25        6D+1       -0.00902   0.00000  -0.10831   0.00000   0.00000
  26        6D-1        0.00000   0.00000   0.00000  -0.10831   0.00000
  27        6D+2        0.00000   0.00000   0.00000   0.00000   0.00000
  28        6D-2        0.00000   0.00000   0.00000   0.00000   0.00000
                          11        12        13        14        15
                       (SGU)--V  (SGG)--V  (DLTG)--  (DLTG)--  (PIU)--V
     Eigenvalues --     2.33708   2.40689   3.17544   3.17544   3.41276
   1 1   H  1S         -0.62813  -0.95718   0.00000   0.00000   0.00000
   2        2S          3.36234   0.99159   0.00000   0.00000   0.00000
   3        3S         -1.31913  -0.38607  -0.00000   0.00000   0.00000
   4        4PX         0.00000   0.00000   0.00000   0.00000   0.00000
   5        4PY         0.00000   0.00000   0.00000   0.00000   0.58900
   6        4PZ        -0.55908   0.10582  -0.00000   0.00000   0.00000
   7        5PX         0.00000   0.00000   0.00000   0.00000   0.00000
   8        5PY         0.00000   0.00000   0.00000   0.00000  -0.35690
   9        5PZ        -0.65820  -0.24238   0.00000   0.00000   0.00000
  10        6D 0        0.42151  -0.11091  -0.00000   0.00000   0.00000
  11        6D+1        0.00000   0.00000   0.00000   0.00000   0.00000
  12        6D-1        0.00000   0.00000   0.00000   0.00000  -0.32026
  13        6D+2        0.00000   0.00000   0.60729   0.00000   0.00000
  14        6D-2        0.00000   0.00000   0.00000   0.60729   0.00000
  15 2   H  1S          0.62813  -0.95718   0.00000   0.00000   0.00000
  16        2S         -3.36234   0.99159   0.00000   0.00000   0.00000
  17        3S          1.31913  -0.38607  -0.00000   0.00000   0.00000
  18        4PX         0.00000   0.00000   0.00000   0.00000   0.00000
  19        4PY         0.00000   0.00000   0.00000   0.00000   0.58900
  20        4PZ        -0.55908  -0.10582   0.00000   0.00000   0.00000
  21        5PX         0.00000   0.00000   0.00000   0.00000   0.00000
  22        5PY         0.00000   0.00000   0.00000   0.00000  -0.35690
  23        5PZ        -0.65820   0.24238  -0.00000   0.00000   0.00000
  24        6D 0       -0.42151  -0.11091  -0.00000   0.00000   0.00000
  25        6D+1        0.00000   0.00000   0.00000   0.00000   0.00000
  26        6D-1        0.00000   0.00000   0.00000   0.00000   0.32026
  27        6D+2       -0.00000   0.00000   0.60729   0.00000   0.00000
  28        6D-2        0.00000   0.00000   0.00000   0.60729   0.00000
                          16        17        18        19        20
                       (PIU)--V  (SGG)--V  (PIG)--V  (PIG)--V  (DLTU)--
     Eigenvalues --     3.41276   3.67512   3.89280   3.89280   4.08534
   1 1   H  1S          0.00000   0.08695   0.00000   0.00000   0.00000
   2        2S          0.00000   0.26607   0.00000   0.00000   0.00000
   3        3S          0.00000  -0.15439   0.00000   0.00000   0.00000
   4        4PX         0.58900   0.00000   0.00000  -0.49724   0.00000
   5        4PY         0.00000   0.00000  -0.49724   0.00000   0.00000
   6        4PZ         0.00000  -0.82186   0.00000   0.00000   0.00000
   7        5PX        -0.35690   0.00000   0.00000   1.13755   0.00000
   8        5PY         0.00000   0.00000   1.13755   0.00000   0.00000
   9        5PZ         0.00000   0.87416   0.00000   0.00000   0.00000
  10        6D 0        0.00000  -0.43364   0.00000   0.00000   0.00000
  11        6D+1       -0.32026   0.00000   0.00000  -0.83562   0.00000
  12        6D-1        0.00000   0.00000  -0.83562   0.00000   0.00000
  13        6D+2        0.00000  -0.00000   0.00000   0.00000   0.00000
  14        6D-2        0.00000   0.00000   0.00000   0.00000   0.88097
  15 2   H  1S          0.00000   0.08695   0.00000   0.00000   0.00000
  16        2S          0.00000   0.26607   0.00000   0.00000   0.00000
  17        3S          0.00000  -0.15439   0.00000   0.00000   0.00000
  18        4PX         0.58900   0.00000   0.00000   0.49724   0.00000
  19        4PY         0.00000   0.00000   0.49724   0.00000   0.00000
  20        4PZ         0.00000   0.82186   0.00000   0.00000   0.00000
  21        5PX        -0.35690   0.00000   0.00000  -1.13755   0.00000
  22        5PY         0.00000   0.00000  -1.13755   0.00000   0.00000
  23        5PZ         0.00000  -0.87416   0.00000   0.00000   0.00000
  24        6D 0        0.00000  -0.43364   0.00000   0.00000   0.00000
  25        6D+1        0.32026   0.00000   0.00000  -0.83562   0.00000
  26        6D-1        0.00000   0.00000  -0.83562   0.00000   0.00000
  27        6D+2        0.00000  -0.00000   0.00000   0.00000   0.00000
  28        6D-2        0.00000   0.00000   0.00000   0.00000  -0.88097
                          21        22        23        24        25
                       (DLTU)--  (PIU)--V  (PIU)--V  (SGU)--V  (PIG)--V
     Eigenvalues --     4.08534   4.11499   4.11499   4.65987   5.73301
   1 1   H  1S          0.00000   0.00000   0.00000   0.70017   0.00000
   2        2S          0.00000   0.00000   0.00000   7.07795   0.00000
   3        3S          0.00000   0.00000   0.00000   0.11510   0.00000
   4        4PX         0.00000   0.65554   0.00000   0.00000  -1.07386
   5        4PY         0.00000   0.00000   0.65554   0.00000   0.00000
   6        4PZ         0.00000   0.00000   0.00000   0.19448   0.00000
   7        5PX         0.00000  -0.24785   0.00000   0.00000  -0.46964
   8        5PY         0.00000   0.00000  -0.24785   0.00000   0.00000
   9        5PZ        -0.00000   0.00000   0.00000  -3.71744   0.00000
  10        6D 0        0.00000   0.00000   0.00000   0.95719   0.00000
  11        6D+1        0.00000   0.56527   0.00000   0.00000   1.35365
  12        6D-1        0.00000   0.00000   0.56527   0.00000   0.00000
  13        6D+2        0.88097   0.00000   0.00000  -0.00000   0.00000
  14        6D-2        0.00000   0.00000   0.00000   0.00000   0.00000
  15 2   H  1S         -0.00000   0.00000   0.00000  -0.70017   0.00000
  16        2S         -0.00000   0.00000   0.00000  -7.07795   0.00000
  17        3S         -0.00000   0.00000   0.00000  -0.11510   0.00000
  18        4PX         0.00000   0.65554   0.00000   0.00000   1.07386
  19        4PY         0.00000   0.00000   0.65554   0.00000   0.00000
  20        4PZ         0.00000   0.00000   0.00000   0.19448   0.00000
  21        5PX         0.00000  -0.24785   0.00000   0.00000   0.46964
  22        5PY         0.00000   0.00000  -0.24785   0.00000   0.00000
  23        5PZ        -0.00000   0.00000   0.00000  -3.71744   0.00000
  24        6D 0       -0.00000   0.00000   0.00000  -0.95719   0.00000
  25        6D+1        0.00000  -0.56527   0.00000   0.00000   1.35365
  26        6D-1        0.00000   0.00000  -0.56527   0.00000   0.00000
  27        6D+2       -0.88097   0.00000   0.00000   0.00000   0.00000
  28        6D-2        0.00000   0.00000   0.00000   0.00000   0.00000
                          26        27        28
                       (PIG)--V  (SGG)--V  (SGU)--V
     Eigenvalues --     5.73301   5.80955   6.97106
   1 1   H  1S          0.00000   1.21216   1.56211
   2        2S          0.00000  -0.57626   4.32078
   3        3S          0.00000   0.09372  -0.59939
   4        4PX         0.00000   0.00000   0.00000
   5        4PY        -1.07386   0.00000   0.00000
   6        4PZ         0.00000  -0.02243  -1.96814
   7        5PX         0.00000   0.00000   0.00000
   8        5PY        -0.46964   0.00000   0.00000
   9        5PZ         0.00000   0.70892  -1.66457
  10        6D 0        0.00000  -1.11591   1.01657
  11        6D+1        0.00000   0.00000   0.00000
  12        6D-1        1.35365   0.00000   0.00000
  13        6D+2        0.00000  -0.00000   0.00000
  14        6D-2        0.00000   0.00000   0.00000
  15 2   H  1S          0.00000   1.21216  -1.56211
  16        2S          0.00000  -0.57626  -4.32078
  17        3S          0.00000   0.09372   0.59939
  18        4PX         0.00000   0.00000   0.00000
  19        4PY         1.07386   0.00000   0.00000
  20        4PZ         0.00000   0.02243  -1.96814
  21        5PX         0.00000   0.00000   0.00000
  22        5PY         0.46964   0.00000   0.00000
  23        5PZ         0.00000  -0.70892  -1.66457
  24        6D 0        0.00000  -1.11591  -1.01657
  25        6D+1        0.00000   0.00000   0.00000
  26        6D-1        1.35365   0.00000   0.00000
  27        6D+2        0.00000  -0.00000  -0.00000
  28        6D-2        0.00000   0.00000   0.00000
     Density Matrix:
                           1         2         3         4         5
   1 1   H  1S          0.06963
   2        2S          0.10585   0.16091
   3        3S          0.05050   0.07677   0.03663
   4        4PX        -0.00000  -0.00000  -0.00000   0.00000
   5        4PY        -0.00000  -0.00000  -0.00000   0.00000   0.00000
   6        4PZ        -0.00450  -0.00684  -0.00326   0.00000   0.00000
   7        5PX        -0.00000  -0.00000  -0.00000   0.00000   0.00000
   8        5PY        -0.00000  -0.00000  -0.00000   0.00000   0.00000
   9        5PZ        -0.00649  -0.00987  -0.00471   0.00000   0.00000
  10        6D 0        0.00031   0.00047   0.00023  -0.00000  -0.00000
  11        6D+1        0.00000   0.00000   0.00000  -0.00000   0.00000
  12        6D-1        0.00000   0.00000   0.00000  -0.00000  -0.00000
  13        6D+2        0.00000   0.00000   0.00000  -0.00000  -0.00000
  14        6D-2        0.00000   0.00000   0.00000   0.00000   0.00000
  15 2   H  1S          0.06963   0.10585   0.05050  -0.00000  -0.00000
  16        2S          0.10585   0.16091   0.07677  -0.00000  -0.00000
  17        3S          0.05050   0.07677   0.03663  -0.00000  -0.00000
  18        4PX         0.00000   0.00000   0.00000  -0.00000   0.00000
  19        4PY         0.00000   0.00000   0.00000   0.00000  -0.00000
  20        4PZ         0.00450   0.00684   0.00326  -0.00000  -0.00000
  21        5PX         0.00000   0.00000   0.00000  -0.00000   0.00000
  22        5PY         0.00000   0.00000   0.00000   0.00000  -0.00000
  23        5PZ         0.00649   0.00987   0.00471  -0.00000  -0.00000
  24        6D 0        0.00031   0.00047   0.00023  -0.00000  -0.00000
  25        6D+1        0.00000   0.00000   0.00000  -0.00000   0.00000
  26        6D-1        0.00000   0.00000   0.00000  -0.00000  -0.00000
  27        6D+2        0.00000   0.00000   0.00000  -0.00000  -0.00000
  28        6D-2        0.00000   0.00000   0.00000   0.00000   0.00000
                           6         7         8         9        10
   6        4PZ         0.00029
   7        5PX         0.00000   0.00000
   8        5PY         0.00000   0.00000   0.00000
   9        5PZ         0.00042   0.00000   0.00000   0.00061
  10        6D 0       -0.00002  -0.00000  -0.00000  -0.00003   0.00000
  11        6D+1       -0.00000  -0.00000   0.00000  -0.00000   0.00000
  12        6D-1       -0.00000  -0.00000  -0.00000  -0.00000   0.00000
  13        6D+2       -0.00000  -0.00000  -0.00000  -0.00000   0.00000
  14        6D-2        0.00000   0.00000   0.00000   0.00000   0.00000
  15 2   H  1S         -0.00450  -0.00000  -0.00000  -0.00649   0.00031
  16        2S         -0.00684  -0.00000  -0.00000  -0.00987   0.00047
  17        3S         -0.00326  -0.00000  -0.00000  -0.00471   0.00023
  18        4PX        -0.00000  -0.00000   0.00000  -0.00000   0.00000
  19        4PY        -0.00000   0.00000  -0.00000  -0.00000   0.00000
  20        4PZ        -0.00029  -0.00000  -0.00000  -0.00042   0.00002
  21        5PX        -0.00000  -0.00000   0.00000  -0.00000   0.00000
  22        5PY        -0.00000   0.00000  -0.00000  -0.00000   0.00000
  23        5PZ        -0.00042  -0.00000  -0.00000  -0.00061   0.00003
  24        6D 0       -0.00002  -0.00000  -0.00000  -0.00003   0.00000
  25        6D+1       -0.00000  -0.00000   0.00000  -0.00000   0.00000
  26        6D-1       -0.00000  -0.00000  -0.00000  -0.00000   0.00000
  27        6D+2       -0.00000  -0.00000  -0.00000  -0.00000   0.00000
  28        6D-2        0.00000   0.00000   0.00000   0.00000   0.00000
                          11        12        13        14        15
  11        6D+1        0.00000
  12        6D-1        0.00000   0.00000
  13        6D+2        0.00000   0.00000   0.00000
  14        6D-2        0.00000  -0.00000   0.00000  -0.00000
  15 2   H  1S          0.00000   0.00000   0.00000   0.00000   0.06963
  16        2S          0.00000   0.00000   0.00000   0.00000   0.10585
  17        3S          0.00000   0.00000   0.00000   0.00000   0.05050
  18        4PX         0.00000   0.00000   0.00000  -0.00000   0.00000
  19        4PY         0.00000   0.00000   0.00000  -0.00000   0.00000
  20        4PZ         0.00000   0.00000   0.00000   0.00000   0.00450
  21        5PX         0.00000   0.00000   0.00000  -0.00000   0.00000
  22        5PY         0.00000   0.00000   0.00000  -0.00000   0.00000
  23        5PZ         0.00000   0.00000   0.00000   0.00000   0.00649
  24        6D 0        0.00000   0.00000   0.00000   0.00000   0.00031
  25        6D+1        0.00000   0.00000   0.00000  -0.00000   0.00000
  26        6D-1        0.00000   0.00000   0.00000  -0.00000   0.00000
  27        6D+2        0.00000   0.00000   0.00000   0.00000   0.00000
  28        6D-2        0.00000  -0.00000   0.00000  -0.00000   0.00000
                          16        17        18        19        20
  16        2S          0.16091
  17        3S          0.07677   0.03663
  18        4PX         0.00000   0.00000   0.00000
  19        4PY         0.00000   0.00000   0.00000   0.00000
  20        4PZ         0.00684   0.00326   0.00000   0.00000   0.00029
  21        5PX         0.00000   0.00000   0.00000   0.00000   0.00000
  22        5PY         0.00000   0.00000   0.00000   0.00000   0.00000
  23        5PZ         0.00987   0.00471   0.00000   0.00000   0.00042
  24        6D 0        0.00047   0.00023   0.00000   0.00000   0.00002
  25        6D+1        0.00000   0.00000   0.00000   0.00000   0.00000
  26        6D-1        0.00000   0.00000   0.00000   0.00000   0.00000
  27        6D+2        0.00000   0.00000   0.00000   0.00000   0.00000
  28        6D-2        0.00000   0.00000  -0.00000  -0.00000   0.00000
                          21        22        23        24        25
  21        5PX         0.00000
  22        5PY         0.00000   0.00000
  23        5PZ         0.00000   0.00000   0.00061
  24        6D 0        0.00000   0.00000   0.00003   0.00000
  25        6D+1        0.00000   0.00000   0.00000   0.00000   0.00000
  26        6D-1        0.00000   0.00000   0.00000   0.00000   0.00000
  27        6D+2        0.00000   0.00000   0.00000   0.00000   0.00000
  28        6D-2       -0.00000  -0.00000   0.00000   0.00000   0.00000
                          26        27        28
  26        6D-1        0.00000
  27        6D+2        0.00000   0.00000
  28        6D-2       -0.00000   0.00000  -0.00000
    Full Mulliken population analysis:
                           1         2         3         4         5
   1 1   H  1S          0.06963
   2        2S          0.07476   0.16091
   3        3S          0.01886   0.06056   0.03663
   4        4PX         0.00000   0.00000   0.00000   0.00000
   5        4PY         0.00000   0.00000   0.00000   0.00000   0.00000
   6        4PZ         0.00000   0.00000   0.00000  -0.00000   0.00000
   7        5PX         0.00000   0.00000   0.00000   0.00000   0.00000
   8        5PY         0.00000   0.00000   0.00000   0.00000   0.00000
   9        5PZ         0.00000   0.00000   0.00000  -0.00000   0.00000
  10        6D 0        0.00000   0.00000   0.00000   0.00000   0.00000
  11        6D+1        0.00000   0.00000   0.00000   0.00000   0.00000
  12        6D-1        0.00000   0.00000   0.00000   0.00000   0.00000
  13        6D+2        0.00000   0.00000   0.00000   0.00000   0.00000
  14        6D-2        0.00000   0.00000   0.00000   0.00000   0.00000
  15 2   H  1S          0.01881   0.04506   0.01567   0.00000   0.00000
  16        2S          0.04506   0.11701   0.05199   0.00000   0.00000
  17        3S          0.01567   0.05199   0.03313   0.00000   0.00000
  18        4PX         0.00000   0.00000   0.00000  -0.00000   0.00000
  19        4PY         0.00000   0.00000   0.00000   0.00000  -0.00000
  20        4PZ         0.00185   0.00176   0.00022   0.00000   0.00000
  21        5PX         0.00000   0.00000   0.00000  -0.00000   0.00000
  22        5PY         0.00000   0.00000   0.00000   0.00000  -0.00000
  23        5PZ         0.00368   0.00552   0.00107   0.00000   0.00000
  24        6D 0        0.00014   0.00006   0.00000   0.00000   0.00000
  25        6D+1        0.00000   0.00000   0.00000  -0.00000   0.00000
  26        6D-1        0.00000   0.00000   0.00000   0.00000  -0.00000
  27        6D+2        0.00000   0.00000   0.00000   0.00000   0.00000
  28        6D-2        0.00000   0.00000   0.00000   0.00000   0.00000
                           6         7         8         9        10
   6        4PZ         0.00029
   7        5PX        -0.00000   0.00000
   8        5PY         0.00000   0.00000   0.00000
   9        5PZ         0.00026  -0.00000   0.00000   0.00061
  10        6D 0        0.00000   0.00000   0.00000   0.00000   0.00000
  11        6D+1        0.00000   0.00000   0.00000   0.00000   0.00000
  12        6D-1        0.00000   0.00000   0.00000   0.00000   0.00000
  13        6D+2        0.00000   0.00000   0.00000   0.00000   0.00000
  14        6D-2        0.00000   0.00000   0.00000   0.00000   0.00000
  15 2   H  1S          0.00185   0.00000   0.00000   0.00368   0.00014
  16        2S          0.00176   0.00000   0.00000   0.00552   0.00006
  17        3S          0.00022   0.00000   0.00000   0.00107   0.00000
  18        4PX         0.00000  -0.00000   0.00000   0.00000   0.00000
  19        4PY         0.00000   0.00000  -0.00000   0.00000   0.00000
  20        4PZ         0.00013   0.00000   0.00000   0.00003   0.00000
  21        5PX         0.00000  -0.00000   0.00000   0.00000   0.00000
  22        5PY         0.00000   0.00000  -0.00000   0.00000   0.00000
  23        5PZ         0.00003   0.00000   0.00000  -0.00010  -0.00000
  24        6D 0        0.00000   0.00000   0.00000  -0.00000  -0.00000
  25        6D+1        0.00000  -0.00000   0.00000   0.00000   0.00000
  26        6D-1        0.00000   0.00000  -0.00000   0.00000   0.00000
  27        6D+2        0.00000   0.00000   0.00000   0.00000   0.00000
  28        6D-2        0.00000   0.00000   0.00000   0.00000   0.00000
                          11        12        13        14        15
  11        6D+1        0.00000
  12        6D-1        0.00000   0.00000
  13        6D+2       -0.00000   0.00000   0.00000
  14        6D-2        0.00000   0.00000   0.00000  -0.00000
  15 2   H  1S          0.00000   0.00000   0.00000   0.00000   0.06963
  16        2S          0.00000   0.00000   0.00000   0.00000   0.07476
  17        3S          0.00000   0.00000   0.00000   0.00000   0.01886
  18        4PX        -0.00000   0.00000  -0.00000   0.00000   0.00000
  19        4PY         0.00000  -0.00000   0.00000   0.00000   0.00000
  20        4PZ         0.00000   0.00000   0.00000   0.00000   0.00000
  21        5PX        -0.00000   0.00000  -0.00000   0.00000   0.00000
  22        5PY         0.00000  -0.00000   0.00000   0.00000   0.00000
  23        5PZ         0.00000   0.00000   0.00000   0.00000   0.00000
  24        6D 0        0.00000   0.00000   0.00000   0.00000   0.00000
  25        6D+1       -0.00000   0.00000  -0.00000   0.00000   0.00000
  26        6D-1        0.00000  -0.00000   0.00000   0.00000   0.00000
  27        6D+2       -0.00000   0.00000   0.00000   0.00000   0.00000
  28        6D-2        0.00000   0.00000   0.00000  -0.00000   0.00000
                          16        17        18        19        20
  16        2S          0.16091
  17        3S          0.06056   0.03663
  18        4PX         0.00000   0.00000   0.00000
  19        4PY         0.00000   0.00000   0.00000   0.00000
  20        4PZ         0.00000   0.00000   0.00000   0.00000   0.00029
  21        5PX         0.00000   0.00000   0.00000   0.00000   0.00000
  22        5PY         0.00000   0.00000   0.00000   0.00000   0.00000
  23        5PZ         0.00000   0.00000   0.00000   0.00000   0.00026
  24        6D 0        0.00000   0.00000   0.00000   0.00000   0.00000
  25        6D+1        0.00000   0.00000   0.00000   0.00000   0.00000
  26        6D-1        0.00000   0.00000   0.00000   0.00000   0.00000
  27        6D+2        0.00000   0.00000   0.00000   0.00000   0.00000
  28        6D-2        0.00000   0.00000   0.00000   0.00000   0.00000
                          21        22        23        24        25
  21        5PX         0.00000
  22        5PY         0.00000   0.00000
  23        5PZ         0.00000   0.00000   0.00061
  24        6D 0        0.00000   0.00000   0.00000   0.00000
  25        6D+1        0.00000   0.00000   0.00000   0.00000   0.00000
  26        6D-1        0.00000   0.00000   0.00000   0.00000   0.00000
  27        6D+2        0.00000   0.00000   0.00000   0.00000   0.00000
  28        6D-2        0.00000   0.00000   0.00000   0.00000   0.00000
                          26        27        28
  26        6D-1        0.00000
  27        6D+2        0.00000   0.00000
  28        6D-2        0.00000   0.00000  -0.00000
     Gross orbital populations:
                           1
   1 1   H  1S          0.24846
   2        2S          0.51763
   3        3S          0.21813
   4        4PX         0.00000
   5        4PY         0.00000
   6        4PZ         0.00453
   7        5PX         0.00000
   8        5PY         0.00000
   9        5PZ         0.01105
  10        6D 0        0.00020
  11        6D+1        0.00000
  12        6D-1        0.00000
  13        6D+2        0.00000
  14        6D-2       -0.00000
  15 2   H  1S          0.24846
  16        2S          0.51763
  17        3S          0.21813
  18        4PX         0.00000
  19        4PY         0.00000
  20        4PZ         0.00453
  21        5PX         0.00000
  22        5PY         0.00000
  23        5PZ         0.01105
  24        6D 0        0.00020
  25        6D+1       -0.00000
  26        6D-1       -0.00000
  27        6D+2        0.00000
  28        6D-2       -0.00000
          Condensed to atoms (all electrons):
              1          2
     1  H    0.576947   0.423053
     2  H    0.423053   0.576947
 Mulliken atomic charges:
              1
     1  H   -0.000000
     2  H   -0.000000
 Sum of Mulliken atomic charges =  -0.00000
 Mulliken charges with hydrogens summed into heavy atoms:
              1
 Sum of Mulliken charges with hydrogens summed into heavy atoms =  -0.00000
 Electronic spatial extent (au):  <R**2>=              5.1765
 Charge=             -0.0000 electrons
 Dipole moment (field-independent basis, Debye):
    X=             -0.0000    Y=             -0.0000    Z=              0.0000  Tot=              0.0000
 Quadrupole moment (field-independent basis, Debye-Ang):
   XX=             -2.0899   YY=             -2.0899   ZZ=             -1.4677
   XY=             -0.0000   XZ=             -0.0000   YZ=              0.0000
 Traceless Quadrupole moment (field-independent basis, Debye-Ang):
   XX=             -0.2074   YY=             -0.2074   ZZ=              0.4148
   XY=             -0.0000   XZ=             -0.0000   YZ=              0.0000
 Octapole moment (field-independent basis, Debye-Ang**2):
  XXX=             -0.0000  YYY=             -0.0000  ZZZ=              0.0000  XYY=             -0.0000
  XXY=             -0.0000  XXZ=              0.0000  XZZ=             -0.0000  YZZ=              0.0000
  YYZ=              0.0000  XYZ=              0.0000
 Hexadecapole moment (field-independent basis, Debye-Ang**3):
 XXXX=             -2.1025 YYYY=             -2.1025 ZZZZ=             -2.8585 XXXY=             -0.0000
 XXXZ=              0.0000 YYYX=             -0.0000 YYYZ=              0.0000 ZZZX=              0.0000
 ZZZY=              0.0000 XXYY=             -0.7008 XXZZ=             -0.8451 YYZZ=             -0.8451
 XXYZ=              0.0000 YYXZ=              0.0000 ZZXY=             -0.0000
 N-N= 7.151043359324D-01 E-N=-3.630761563041D+00  KE= 1.123995842775D+00
 Symmetry AG   KE= 1.123995842775D+00
 Symmetry B1G  KE=-4.440589849012D-54
 Symmetry B2G  KE= 6.496591339896D-33
 Symmetry B3G  KE= 6.496591339896D-33
 Symmetry AU   KE= 3.265951189021D-69
 Symmetry B1U  KE= 1.604743920886D-31
 Symmetry B2U  KE= 1.455817377422D-34
 Symmetry B3U  KE= 1.455817377422D-34
 Orbital energies and kinetic energies (alpha):
                                 1                 2
   1 (SGG)--O                 -0.594689          0.561998
   2 (SGU)--V                  0.167257          0.275233
   3 (SGG)--V                  0.305001          0.483773
   4 (SGU)--V                  0.643881          1.039787
   5 (PIU)--V                  0.692712          0.864361
   6 (PIU)--V                  0.692712          0.864361
   7 (SGG)--V                  1.096633          1.249982
   8 (PIG)--V                  1.120124          1.208523
   9 (PIG)--V                  1.120124          1.208523
  10 (SGU)--V                  1.529442          1.575490
  11 (SGU)--V                  2.337081          3.298088
  12 (SGG)--V                  2.406891          3.433637
  13 (DLTG)--V                 3.175441          3.412846
  14 (DLTG)--V                 3.175441          3.412846
  15 (PIU)--V                  3.412757          3.901192
  16 (PIU)--V                  3.412757          3.901192
  17 (SGG)--V                  3.675123          4.217521
  18 (PIG)--V                  3.892804          4.272317
  19 (PIG)--V                  3.892804          4.272317
  20 (DLTU)--V                 4.085343          4.302749
  21 (DLTU)--V                 4.085343          4.302749
  22 (PIU)--V                  4.114994          4.451515
  23 (PIU)--V                  4.114994          4.451515
  24 (SGU)--V                  4.659865          5.093525
  25 (PIG)--V                  5.733014          6.146633
  26 (PIG)--V                  5.733014          6.146633
  27 (SGG)--V                  5.809546          6.479850
  28 (SGU)--V                  6.971057          8.434330
 Total kinetic energy from orbitals= 1.123995842775D+00
 No NMR shielding tensors so no spin-rotation constants.
 Leave Link  601 at Sat Aug 17 22:46:11 2024, MaxMem=   13107200 cpu:       0.1
 (Enter /programs/64bit/g09/g09-gfortran/bin/l701.exe)
 Compute integral first derivatives.
 ... and contract with generalized density number  2.
 Leave Link  701 at Sat Aug 17 22:46:11 2024, MaxMem=   13107200 cpu:       0.1
 (Enter /programs/64bit/g09/g09-gfortran/bin/l702.exe)
 L702 exits ... SP integral derivatives will be done elsewhere.
 Leave Link  702 at Sat Aug 17 22:46:11 2024, MaxMem=   13107200 cpu:       0.0
 (Enter /programs/64bit/g09/g09-gfortran/bin/l703.exe)
 Compute integral first derivatives, UseDBF=F ICtDFT=           0.
 Integral derivatives from FoFDir, PRISM(SPDF).
 Calling FoFJK, ICntrl=      2127 FMM=F ISym2X=1 I1Cent= 0 IOpClX= 0 NMat=1 NMatS=1 NMatT=0.
 FoFCou: FMM=F IPFlag=           0 FMFlag=      100000 FMFlg1=         800
         NFxFlg=           0 DoJE=F BraDBF=F KetDBF=F FulRan=T
         Omega=  0.000000  0.000000  1.000000  0.000000  0.000000 ICntrl=    2127 IOpCl=  0
         NMat0=    1 NMatS0=    1 NMatT0=    0 NMatD0=    1 NMtDS0=    0 NMtDT0=    0
         I1Cent=           0 NGrid=           0.
 Petite list used in FoFCou.
 Leave Link  703 at Sat Aug 17 22:46:12 2024, MaxMem=   13107200 cpu:       0.2
 (Enter /programs/64bit/g09/g09-gfortran/bin/l716.exe)
 Dipole        =-2.58844985D-31-2.40741243D-35 1.11022302D-16
 ***** Axes restored to original set *****
 -------------------------------------------------------------------
 Center     Atomic                   Forces (Hartrees/Bohr)
 Number     Number              X              Y              Z
 -------------------------------------------------------------------
      1        1           0.000000000    0.000000000    0.002181902
      2        1          -0.000000000   -0.000000000   -0.002181902
 -------------------------------------------------------------------
 Cartesian Forces:  Max     0.002181902 RMS     0.001259722
 Leave Link  716 at Sat Aug 17 22:46:12 2024, MaxMem=   13107200 cpu:       0.0
 (Enter /programs/64bit/g09/g09-gfortran/bin/l103.exe)

 GradGradGradGradGradGradGradGradGradGradGradGradGradGradGradGradGradGrad
 Berny optimization.
 Internal  Forces:  Max     0.002181902 RMS     0.002181902
 Search for a local minimum.
 Step number   1 out of a maximum of   20
 All quantities printed in internal units (Hartrees-Bohrs-Radians)
 RMS Force = .21819D-02 SwitMx=.10000D-02 MixMth= 1
 Mixed Optimization -- RFO/linear search
 Second derivative matrix not updated -- first step.
 The second derivative matrix:
                          R1
           R1           0.39139
     Eigenvalues ---    0.39139
 RFO step:  Lambda=-1.21630490D-05 EMin= 3.91394209D-01
 Linear search not attempted -- first point.
 Iteration  1 RMS(Cart)=  0.00394178 RMS(Int)=  0.00000000
 Iteration  2 RMS(Cart)=  0.00000000 RMS(Int)=  0.00000000
 ClnCor:  largest displacement from symmetrization is 4.66D-19 for atom     1.
 Variable       Old X    -DE/DX   Delta X   Delta X   Delta X     New X
                                 (Linear)    (Quad)   (Total)
    R1        1.39840  -0.00218   0.00000  -0.00557  -0.00557   1.39282
         Item               Value     Threshold  Converged?
 Maximum Force            0.002182     0.000450     NO 
 RMS     Force            0.002182     0.000300     NO 
 Maximum Displacement     0.002787     0.001800     NO 
 RMS     Displacement     0.003942     0.001200     NO 
 Predicted change in Energy=-6.081713D-06
 GradGradGradGradGradGradGradGradGradGradGradGradGradGradGradGradGradGrad

 Leave Link  103 at Sat Aug 17 22:46:12 2024, MaxMem=   13107200 cpu:       0.0
 (Enter /programs/64bit/g09/g09-gfortran/bin/l202.exe)
                          Input orientation:                          
 ---------------------------------------------------------------------
 Center     Atomic      Atomic             Coordinates (Angstroms)
 Number     Number       Type             X           Y           Z
 ---------------------------------------------------------------------
      1          1           0        0.000000    0.000000    0.001475
      2          1           0        0.000000    0.000000    0.738525
 ---------------------------------------------------------------------
 Stoichiometry    H2
 Framework group  D*H[C*(H.H)]
 Deg. of freedom     1
 Full point group                 D*H     NOp   8
 Largest Abelian subgroup         D2H     NOp   8
 Largest concise Abelian subgroup C2      NOp   2
                         Standard orientation:                         
 ---------------------------------------------------------------------
 Center     Atomic      Atomic             Coordinates (Angstroms)
 Number     Number       Type             X           Y           Z
 ---------------------------------------------------------------------
      1          1           0        0.000000    0.000000    0.368525
      2          1           0        0.000000    0.000000   -0.368525
 ---------------------------------------------------------------------
 Rotational constants (GHZ):      0.0000000   1846.1544803   1846.1544803
 Leave Link  202 at Sat Aug 17 22:46:12 2024, MaxMem=   13107200 cpu:       0.0
 (Enter /programs/64bit/g09/g09-gfortran/bin/l301.exe)
 Standard basis: CC-pVTZ (5D, 7F)
 Ernie: Thresh=  0.10000D-02 Tol=  0.10000D-05 Strict=F.
 There are     7 symmetry adapted basis functions of AG  symmetry.
 There are     1 symmetry adapted basis functions of B1G symmetry.
 There are     3 symmetry adapted basis functions of B2G symmetry.
 There are     3 symmetry adapted basis functions of B3G symmetry.
 There are     1 symmetry adapted basis functions of AU  symmetry.
 There are     7 symmetry adapted basis functions of B1U symmetry.
 There are     3 symmetry adapted basis functions of B2U symmetry.
 There are     3 symmetry adapted basis functions of B3U symmetry.
 Integral buffers will be    131072 words long.
 Raffenetti 1 integral format.
 Two-electron integral symmetry is turned on.
    28 basis functions,    34 primitive gaussians,    30 cartesian basis functions
     1 alpha electrons        1 beta electrons
       nuclear repulsion energy         0.7179664097 Hartrees.
 IExCor=    0 DFT=F Ex=HF Corr=None ExCW=0 ScaHFX=  1.000000
 ScaDFX=  1.000000  1.000000  1.000000  1.000000 ScalE2=  1.000000  1.000000
 IRadAn=      0 IRanWt=     -1 IRanGd=            0 ICorTp=0
 NAtoms=    2 NActive=    2 NUniq=    1 SFac= 3.00D+00 NAtFMM=   80 NAOKFM=F Big=F
 Leave Link  301 at Sat Aug 17 22:46:12 2024, MaxMem=   13107200 cpu:       0.1
 (Enter /programs/64bit/g09/g09-gfortran/bin/l302.exe)
 NPDir=0 NMtPBC=     1 NCelOv=     1 NCel=       1 NClECP=     1 NCelD=      1
         NCelK=      1 NCelE2=     1 NClLst=     1 CellRange=     0.0.
 One-electron integrals computed using PRISM.
 One-electron integral symmetry used in STVInt
 NBasis=    28 RedAO= T  NBF=     7     1     3     3     1     7     3     3
 NBsUse=    28 1.00D-06 NBFU=     7     1     3     3     1     7     3     3
 Leave Link  302 at Sat Aug 17 22:46:13 2024, MaxMem=   13107200 cpu:       0.1
 (Enter /programs/64bit/g09/g09-gfortran/bin/l303.exe)
 DipDrv:  MaxL=1.
 Leave Link  303 at Sat Aug 17 22:46:13 2024, MaxMem=   13107200 cpu:       0.0
 (Enter /programs/64bit/g09/g09-gfortran/bin/l401.exe)
 Initial guess read from the read-write file.
 B after Tr=     0.000000    0.000000    0.000000
         Rot=    1.000000    0.000000    0.000000    0.000000 Ang=   0.00 deg.
 Guess basis will be translated and rotated to current coordinates.
 Initial guess orbital symmetries:
       Occupied  (SGG)
       Virtual   (SGU) (SGG) (SGU) (PIU) (PIU) (SGG) (PIG) (PIG)
                 (SGU) (SGU) (SGG) (DLTG) (DLTG) (PIU) (PIU) (SGG)
                 (PIG) (PIG) (DLTU) (DLTU) (PIU) (PIU) (SGU) (PIG)
                 (PIG) (SGG) (SGU)
 The electronic state of the initial guess is 1-SGG.
 Leave Link  401 at Sat Aug 17 22:46:14 2024, MaxMem=   13107200 cpu:       0.1
 (Enter /programs/64bit/g09/g09-gfortran/bin/l502.exe)
 Closed shell SCF:
 Requested convergence on RMS density matrix=1.00D-08 within 128 cycles.
 Requested convergence on MAX density matrix=1.00D-06.
 Requested convergence on             energy=1.00D-06.
 No special actions if energy rises.
 Using DIIS extrapolation, IDIIS=  1040.
 Integral symmetry usage will be decided dynamically.
 Keep R1 ints in memory in canonical form, NReq=949721.
 IEnd=       21362 IEndB=       21362 NGot=    13107200 MDV=    12995036
 LenX=    12995036 LenY=    12993695
 Symmetry not used in FoFDir.
 MinBra= 0 MaxBra= 2 Meth= 1.
 IRaf=       0 NMat=   1 IRICut=       1 DoRegI=T DoRafI=F ISym2E= 0 JSym2E=0.

 Cycle   1  Pass 1  IDiag  1:
 E= -1.13298326087314    
 DIIS: error= 3.55D-04 at cycle   1 NSaved=   1.
 NSaved= 1 IEnMin= 1 EnMin= -1.13298326087314     IErMin= 1 ErrMin= 3.55D-04
 ErrMax= 3.55D-04 EMaxC= 1.00D-01 BMatC= 1.40D-06 BMatP= 1.40D-06
 IDIUse=3 WtCom= 9.96D-01 WtEn= 3.55D-03
 Coeff-Com:  0.100D+01
 Coeff-En:   0.100D+01
 Coeff:      0.100D+01
 Gap=     0.765 Goal=   None    Shift=    0.000
 RMSDP=1.98D-05 MaxDP=1.54D-04              OVMax= 6.69D-04

 Cycle   2  Pass 1  IDiag  1:
 E= -1.13298476000805     Delta-E=       -0.000001499135 Rises=F Damp=F
 DIIS: error= 4.87D-05 at cycle   2 NSaved=   2.
 NSaved= 2 IEnMin= 2 EnMin= -1.13298476000805     IErMin= 2 ErrMin= 4.87D-05
 ErrMax= 4.87D-05 EMaxC= 1.00D-01 BMatC= 2.05D-08 BMatP= 1.40D-06
 IDIUse=1 WtCom= 1.00D+00 WtEn= 0.00D+00
 Coeff-Com: -0.125D+00 0.113D+01
 Coeff:     -0.125D+00 0.113D+01
 Gap=     0.763 Goal=   None    Shift=    0.000
 RMSDP=4.24D-06 MaxDP=2.64D-05 DE=-1.50D-06 OVMax= 1.25D-04

 Cycle   3  Pass 1  IDiag  1:
 E= -1.13298479307410     Delta-E=       -0.000000033066 Rises=F Damp=F
 DIIS: error= 4.38D-06 at cycle   3 NSaved=   3.
 NSaved= 3 IEnMin= 3 EnMin= -1.13298479307410     IErMin= 3 ErrMin= 4.38D-06
 ErrMax= 4.38D-06 EMaxC= 1.00D-01 BMatC= 1.58D-10 BMatP= 2.05D-08
 IDIUse=1 WtCom= 1.00D+00 WtEn= 0.00D+00
 Coeff-Com:  0.347D-01-0.315D+00 0.128D+01
 Coeff:      0.347D-01-0.315D+00 0.128D+01
 Gap=     0.763 Goal=   None    Shift=    0.000
 RMSDP=7.85D-07 MaxDP=8.12D-06 DE=-3.31D-08 OVMax= 1.52D-05

 Cycle   4  Pass 1  IDiag  1:
 E= -1.13298479343584     Delta-E=       -0.000000000362 Rises=F Damp=F
 DIIS: error= 1.81D-07 at cycle   4 NSaved=   4.
 NSaved= 4 IEnMin= 4 EnMin= -1.13298479343584     IErMin= 4 ErrMin= 1.81D-07
 ErrMax= 1.81D-07 EMaxC= 1.00D-01 BMatC= 1.38D-13 BMatP= 1.58D-10
 IDIUse=1 WtCom= 1.00D+00 WtEn= 0.00D+00
 Coeff-Com: -0.457D-02 0.416D-01-0.181D+00 0.114D+01
 Coeff:     -0.457D-02 0.416D-01-0.181D+00 0.114D+01
 Gap=     0.763 Goal=   None    Shift=    0.000
 RMSDP=2.00D-08 MaxDP=1.94D-07 DE=-3.62D-10 OVMax= 3.15D-07

 Cycle   5  Pass 1  IDiag  1:
 E= -1.13298479343604     Delta-E=       -0.000000000000 Rises=F Damp=F
 DIIS: error= 4.43D-09 at cycle   5 NSaved=   5.
 NSaved= 5 IEnMin= 5 EnMin= -1.13298479343604     IErMin= 5 ErrMin= 4.43D-09
 ErrMax= 4.43D-09 EMaxC= 1.00D-01 BMatC= 1.71D-16 BMatP= 1.38D-13
 IDIUse=1 WtCom= 1.00D+00 WtEn= 0.00D+00
 Coeff-Com:  0.892D-03-0.813D-02 0.355D-01-0.229D+00 0.120D+01
 Coeff:      0.892D-03-0.813D-02 0.355D-01-0.229D+00 0.120D+01
 Gap=     0.763 Goal=   None    Shift=    0.000
 RMSDP=3.32D-10 MaxDP=2.39D-09 DE=-1.99D-13 OVMax= 8.60D-09

 SCF Done:  E(RHF) =  -1.13298479344     A.U. after    5 cycles
             Convg  =    0.3323D-09             -V/T =  2.0053
 KE= 1.127040630922D+00 PE=-3.637743254969D+00 EE= 6.597514209366D-01
 Leave Link  502 at Sat Aug 17 22:46:14 2024, MaxMem=   13107200 cpu:       0.1
 (Enter /programs/64bit/g09/g09-gfortran/bin/l801.exe)
 Range of M.O.s used for correlation:     1    28
 NBasis=    28 NAE=     1 NBE=     1 NFC=     0 NFV=     0
 NROrb=     28 NOA=     1 NOB=     1 NVA=    27 NVB=    27

 **** Warning!!: The largest alpha MO coefficient is  0.13263811D+02

 Leave Link  801 at Sat Aug 17 22:46:14 2024, MaxMem=   13107200 cpu:       0.0
 (Enter /programs/64bit/g09/g09-gfortran/bin/l906.exe)
 FulOut=F Deriv=T AODrv=T NAtomX=     2
   MMem=        1546  MDisk=           1 MDiskD=           1
  W3Min=         840 MinDsk=       58595 NBas6D=          30
 NBas2D=         507    NTT=         465    LW2=     2040000
    MDV=    13094779 MDiskM=        5136 NBas2p=         282
 Fully direct method using O(ONN) memory.
 IMap=   1
 JobTyp=1 Pass  1:  I=   1 to   1 NPSUse=  1 ParTrn=F ParDer=F DoDerP=T.
 Spin components of T(2) and E(2):
     alpha-alpha T2 =       0.0000000000D+00 E2=      0.0000000000D+00
     alpha-beta  T2 =       0.1009098393D-01 E2=     -0.3166498331D-01
     beta-beta   T2 =       0.0000000000D+00 E2=      0.0000000000D+00
 The integrals were generated   1 times.
 ANorm=    0.1005032827D+01
 E2 =    -0.3166498331D-01 EUMP2 =    -0.11646497767436D+01
 Leave Link  906 at Sat Aug 17 22:46:15 2024, MaxMem=   13107200 cpu:       0.2
 (Enter /programs/64bit/g09/g09-gfortran/bin/l1002.exe)
 Minotr:  Closed shell wavefunction.
          Computing MP2/KS-MP2 derivatives.
          Using Z-Vector for PSCF gradient.
          Skipping F1 and S1 gradient terms here.
          IDoAtm=11
          Direct CPHF calculation.
          Differentiating once with respect to electric field.
                with respect to dipole field.
          Differentiating once with respect to nuclear coordinates.
          Using symmetry in CPHF.
          Requested convergence is 1.0D-10 RMS, and 1.0D-09 maximum.
          NewPWx=F KeepS1=T KeepF1=T KeepIn=T MapXYZ=F SortEE=F KeepMc=T.
          MDV=      13107176 using IRadAn=       0.
          Keep R1 ints in memory in canonical form, NReq=929094.
 Symmetry not used in FoFDir.
 MinBra= 0 MaxBra= 2 Meth= 1.
 IRaf=       0 NMat=   1 IRICut=       1 DoRegI=T DoRafI=F ISym2E= 0 JSym2E=0.
          Solving linear equations separately, MaxMat=       0.
          There are     1 degrees of freedom in the 1st order CPHF.  IDoFFX=0.
 LinEq1:  Iter=  0 NonCon=     1 RMS=3.46D-03 Max=1.49D-02
 AX will form     1 AO Fock derivatives at one time.
 LinEq1:  Iter=  1 NonCon=     1 RMS=1.69D-04 Max=6.65D-04
 LinEq1:  Iter=  2 NonCon=     1 RMS=2.97D-06 Max=9.67D-06
 LinEq1:  Iter=  3 NonCon=     1 RMS=1.48D-07 Max=4.99D-07
 LinEq1:  Iter=  4 NonCon=     1 RMS=1.23D-09 Max=4.67D-09
 LinEq1:  Iter=  5 NonCon=     0 RMS=6.26D-22 Max=3.17D-21
 Linear equations converged to 1.000D-10 1.000D-09 after     5 iterations.
 End of Minotr Frequency-dependent properties file   721 does not exist.
 End of Minotr Frequency-dependent properties file   722 does not exist.
 Leave Link 1002 at Sat Aug 17 22:46:15 2024, MaxMem=   13107200 cpu:       0.1
 (Enter /programs/64bit/g09/g09-gfortran/bin/l701.exe)
 Compute integral first derivatives.
 ... and contract with generalized density number  2.
 Leave Link  701 at Sat Aug 17 22:46:16 2024, MaxMem=   13107200 cpu:       0.1
 (Enter /programs/64bit/g09/g09-gfortran/bin/l702.exe)
 L702 exits ... SP integral derivatives will be done elsewhere.
 Leave Link  702 at Sat Aug 17 22:46:16 2024, MaxMem=   13107200 cpu:       0.0
 (Enter /programs/64bit/g09/g09-gfortran/bin/l703.exe)
 Compute integral first derivatives, UseDBF=F ICtDFT=           0.
 Integral derivatives from FoFDir, PRISM(SPDF).
 Calling FoFJK, ICntrl=      2127 FMM=F ISym2X=1 I1Cent= 0 IOpClX= 0 NMat=1 NMatS=1 NMatT=0.
 FoFCou: FMM=F IPFlag=           0 FMFlag=      100000 FMFlg1=         800
         NFxFlg=           0 DoJE=F BraDBF=F KetDBF=F FulRan=T
         Omega=  0.000000  0.000000  1.000000  0.000000  0.000000 ICntrl=    2127 IOpCl=  0
         NMat0=    1 NMatS0=    1 NMatT0=    0 NMatD0=    1 NMtDS0=    0 NMtDT0=    0
         I1Cent=           0 NGrid=           0.
 Petite list used in FoFCou.
 Leave Link  703 at Sat Aug 17 22:46:17 2024, MaxMem=   13107200 cpu:       0.2
 (Enter /programs/64bit/g09/g09-gfortran/bin/l716.exe)
 Dipole        = 1.35585468D-31-1.08333559D-34 0.00000000D+00
 ***** Axes restored to original set *****
 -------------------------------------------------------------------
 Center     Atomic                   Forces (Hartrees/Bohr)
 Number     Number              X              Y              Z
 -------------------------------------------------------------------
      1        1           0.000000000    0.000000000    0.000024783
      2        1          -0.000000000   -0.000000000   -0.000024783
 -------------------------------------------------------------------
 Cartesian Forces:  Max     0.000024783 RMS     0.000014309
 Leave Link  716 at Sat Aug 17 22:46:17 2024, MaxMem=   13107200 cpu:       0.0
 (Enter /programs/64bit/g09/g09-gfortran/bin/l103.exe)

 GradGradGradGradGradGradGradGradGradGradGradGradGradGradGradGradGradGrad
 Berny optimization.
 Using GEDIIS/GDIIS optimizer.
 Internal  Forces:  Max     0.000024783 RMS     0.000024783
 Search for a local minimum.
 Step number   2 out of a maximum of   20
 All quantities printed in internal units (Hartrees-Bohrs-Radians)
 RMS Force = .24783D-04 SwitMx=.10000D-02 MixMth= 2
 Mixed Optimization -- En-DIIS/RFO-DIIS
 Update second derivatives using D2CorX and points    1    2
 DE= -6.17D-06 DEPred=-6.08D-06 R= 1.01D+00
 SS=  1.41D+00  RLast= 5.57D-03 DXNew= 5.0454D-01 1.6724D-02
 Trust test= 1.01D+00 RLast= 5.57D-03 DXMaxT set to 3.00D-01
 The second derivative matrix:
                          R1
           R1           0.38696
 Use linear search instead of GDIIS.
     Eigenvalues ---    0.38696
 RFO step:  Lambda= 0.00000000D+00 EMin= 3.86960589D-01
 Quartic linear search produced a step of  0.01138.
 Iteration  1 RMS(Cart)=  0.00004486 RMS(Int)=  0.00000000
 Iteration  2 RMS(Cart)=  0.00000000 RMS(Int)=  0.00000000
 ClnCor:  largest displacement from symmetrization is 2.22D-16 for atom     2.
 Variable       Old X    -DE/DX   Delta X   Delta X   Delta X     New X
                                 (Linear)    (Quad)   (Total)
    R1        1.39282  -0.00002  -0.00006   0.00000  -0.00006   1.39276
         Item               Value     Threshold  Converged?
 Maximum Force            0.000025     0.000450     YES
 RMS     Force            0.000025     0.000300     YES
 Maximum Displacement     0.000032     0.001800     YES
 RMS     Displacement     0.000045     0.001200     YES
 Predicted change in Energy=-7.935522D-10
 Optimization completed.
    -- Stationary point found.
                           ----------------------------
                           !   Optimized Parameters   !
                           ! (Angstroms and Degrees)  !
 --------------------------                            --------------------------
 ! Name  Definition              Value          Derivative Info.                !
 --------------------------------------------------------------------------------
 ! R1    R(1,2)                  0.7371         -DE/DX =    0.0                 !
 --------------------------------------------------------------------------------
 GradGradGradGradGradGradGradGradGradGradGradGradGradGradGradGradGradGrad

 Largest change from initial coordinates is atom    1       0.001 Angstoms.
 Leave Link  103 at Sat Aug 17 22:46:17 2024, MaxMem=   13107200 cpu:       0.0
 (Enter /programs/64bit/g09/g09-gfortran/bin/l202.exe)
                          Input orientation:                          
 ---------------------------------------------------------------------
 Center     Atomic      Atomic             Coordinates (Angstroms)
 Number     Number       Type             X           Y           Z
 ---------------------------------------------------------------------
      1          1           0        0.000000    0.000000    0.001475
      2          1           0        0.000000    0.000000    0.738525
 ---------------------------------------------------------------------
 Stoichiometry    H2
 Framework group  D*H[C*(H.H)]
 Deg. of freedom     1
 Full point group                 D*H     NOp   8
 Largest Abelian subgroup         D2H     NOp   8
 Largest concise Abelian subgroup C2      NOp   2
                         Standard orientation:                         
 ---------------------------------------------------------------------
 Center     Atomic      Atomic             Coordinates (Angstroms)
 Number     Number       Type             X           Y           Z
 ---------------------------------------------------------------------
      1          1           0        0.000000    0.000000    0.368525
      2          1           0        0.000000    0.000000   -0.368525
 ---------------------------------------------------------------------
 Rotational constants (GHZ):      0.0000000   1846.1544803   1846.1544803
 Leave Link  202 at Sat Aug 17 22:46:17 2024, MaxMem=   13107200 cpu:       0.0
 (Enter /programs/64bit/g09/g09-gfortran/bin/l601.exe)
 Copying SCF densities to generalized density rwf, IOpCl= 0 IROHF=0.

 **********************************************************************

            Population analysis using the SCF density.

 **********************************************************************

 Orbital symmetries:
       Occupied  (SGG)
       Virtual   (SGU) (SGG) (SGU) (PIU) (PIU) (SGG) (PIG) (PIG)
                 (SGU) (SGU) (SGG) (DLTG) (DLTG) (PIU) (PIU) (SGG)
                 (PIG) (PIG) (DLTU) (DLTU) (PIU) (PIU) (SGU) (PIG)
                 (PIG) (SGG) (SGU)
 The electronic state is 1-SGG.
 Alpha  occ. eigenvalues --   -0.59560
 Alpha virt. eigenvalues --    0.16767   0.30473   0.64503   0.69304   0.69304
 Alpha virt. eigenvalues --    1.09742   1.12061   1.12061   1.53038   2.33717
 Alpha virt. eigenvalues --    2.40534   3.17582   3.17582   3.41448   3.41448
 Alpha virt. eigenvalues --    3.67619   3.89027   3.89027   4.08849   4.08849
 Alpha virt. eigenvalues --    4.11778   4.11778   4.66967   5.74461   5.74461
 Alpha virt. eigenvalues --    5.82199   6.98694
     Molecular Orbital Coefficients:
                           1         2         3         4         5
                       (SGG)--O  (SGU)--V  (SGG)--V  (SGU)--V  (PIU)--V
     Eigenvalues --    -0.59560   0.16767   0.30473   0.64503   0.69304
   1 1   H  1S          0.18695   0.06592  -0.05620   0.12588   0.00000
   2        2S          0.28356  -0.32245  -0.73355   2.30360   0.00000
   3        3S          0.13483   2.33891   0.86035  -2.26166   0.00000
   4        4PX         0.00000   0.00000   0.00000   0.00000   0.00000
   5        4PY         0.00000   0.00000   0.00000   0.00000  -0.05863
   6        4PZ        -0.01209   0.03532   0.01678  -0.08608   0.00000
   7        5PX         0.00000   0.00000   0.00000   0.00000   0.00000
   8        5PY         0.00000   0.00000   0.00000   0.00000   0.57791
   9        5PZ        -0.01732   0.10624  -0.05135  -0.21531   0.00000
  10        6D 0        0.00081  -0.01946   0.00795   0.07146   0.00000
  11        6D+1        0.00000   0.00000   0.00000   0.00000   0.00000
  12        6D-1        0.00000   0.00000   0.00000   0.00000   0.00890
  13        6D+2        0.00000   0.00000   0.00000   0.00000   0.00000
  14        6D-2        0.00000   0.00000   0.00000   0.00000   0.00000
  15 2   H  1S          0.18695  -0.06592  -0.05620  -0.12588   0.00000
  16        2S          0.28356   0.32245  -0.73355  -2.30360   0.00000
  17        3S          0.13483  -2.33891   0.86035   2.26166   0.00000
  18        4PX         0.00000   0.00000   0.00000   0.00000   0.00000
  19        4PY         0.00000   0.00000   0.00000   0.00000  -0.05863
  20        4PZ         0.01209   0.03532  -0.01678  -0.08608   0.00000
  21        5PX         0.00000   0.00000   0.00000   0.00000   0.00000
  22        5PY         0.00000   0.00000   0.00000   0.00000   0.57791
  23        5PZ         0.01732   0.10624   0.05135  -0.21531   0.00000
  24        6D 0        0.00081   0.01946   0.00795  -0.07146   0.00000
  25        6D+1        0.00000   0.00000   0.00000   0.00000   0.00000
  26        6D-1        0.00000   0.00000   0.00000   0.00000  -0.00890
  27        6D+2        0.00000  -0.00000   0.00000  -0.00000   0.00000
  28        6D-2        0.00000   0.00000   0.00000   0.00000   0.00000
                           6         7         8         9        10
                       (PIU)--V  (SGG)--V  (PIG)--V  (PIG)--V  (SGU)--V
     Eigenvalues --     0.69304   1.09742   1.12061   1.12061   1.53038
   1 1   H  1S          0.00000   0.00736   0.00000   0.00000   0.03549
   2        2S          0.00000   0.66815   0.00000   0.00000  13.26381
   3        3S          0.00000  -0.35674   0.00000   0.00000  -0.34716
   4        4PX        -0.05863   0.00000  -0.06605   0.00000   0.00000
   5        4PY         0.00000   0.00000   0.00000  -0.06605   0.00000
   6        4PZ         0.00000  -0.10262   0.00000   0.00000  -0.12812
   7        5PX         0.57791   0.00000   1.42432   0.00000   0.00000
   8        5PY         0.00000   0.00000   0.00000   1.42432   0.00000
   9        5PZ         0.00000   1.06636   0.00000   0.00000  -6.25376
  10        6D 0        0.00000  -0.06825   0.00000   0.00000   0.28676
  11        6D+1        0.00890   0.00000  -0.10988   0.00000   0.00000
  12        6D-1        0.00000   0.00000   0.00000  -0.10988   0.00000
  13        6D+2        0.00000  -0.00000   0.00000   0.00000   0.00000
  14        6D-2        0.00000   0.00000   0.00000   0.00000   0.00000
  15 2   H  1S          0.00000   0.00736   0.00000   0.00000  -0.03549
  16        2S          0.00000   0.66815   0.00000   0.00000 -13.26381
  17        3S          0.00000  -0.35674   0.00000   0.00000   0.34716
  18        4PX        -0.05863   0.00000   0.06605   0.00000   0.00000
  19        4PY         0.00000   0.00000   0.00000   0.06605   0.00000
  20        4PZ         0.00000   0.10262   0.00000   0.00000  -0.12812
  21        5PX         0.57791   0.00000  -1.42432   0.00000   0.00000
  22        5PY         0.00000   0.00000   0.00000  -1.42432   0.00000
  23        5PZ         0.00000  -1.06636   0.00000   0.00000  -6.25376
  24        6D 0        0.00000  -0.06825   0.00000   0.00000  -0.28676
  25        6D+1       -0.00890   0.00000  -0.10988   0.00000   0.00000
  26        6D-1        0.00000   0.00000   0.00000  -0.10988   0.00000
  27        6D+2        0.00000  -0.00000   0.00000   0.00000  -0.00000
  28        6D-2        0.00000   0.00000   0.00000   0.00000   0.00000
                          11        12        13        14        15
                       (SGU)--V  (SGG)--V  (DLTG)--  (DLTG)--  (PIU)--V
     Eigenvalues --     2.33717   2.40534   3.17582   3.17582   3.41448
   1 1   H  1S         -0.62119  -0.95717  -0.00000   0.00000   0.00000
   2        2S          3.29551   0.99057   0.00000   0.00000   0.00000
   3        3S         -1.32055  -0.38554   0.00000   0.00000   0.00000
   4        4PX         0.00000   0.00000   0.00000   0.00000   0.00000
   5        4PY         0.00000   0.00000   0.00000   0.00000   0.59127
   6        4PZ        -0.56318   0.10582   0.00000   0.00000   0.00000
   7        5PX         0.00000   0.00000   0.00000   0.00000   0.00000
   8        5PY         0.00000   0.00000   0.00000   0.00000  -0.35771
   9        5PZ        -0.62199  -0.24518  -0.00000   0.00000   0.00000
  10        6D 0        0.41991  -0.10956   0.00000   0.00000   0.00000
  11        6D+1        0.00000   0.00000   0.00000   0.00000   0.00000
  12        6D-1        0.00000   0.00000   0.00000   0.00000  -0.31728
  13        6D+2       -0.00000  -0.00000   0.60663   0.00000   0.00000
  14        6D-2        0.00000   0.00000   0.00000   0.60663   0.00000
  15 2   H  1S          0.62119  -0.95717  -0.00000   0.00000   0.00000
  16        2S         -3.29551   0.99057   0.00000   0.00000   0.00000
  17        3S          1.32055  -0.38554   0.00000   0.00000   0.00000
  18        4PX         0.00000   0.00000   0.00000   0.00000   0.00000
  19        4PY         0.00000   0.00000   0.00000   0.00000   0.59127
  20        4PZ        -0.56318  -0.10582  -0.00000   0.00000   0.00000
  21        5PX         0.00000   0.00000   0.00000   0.00000   0.00000
  22        5PY         0.00000   0.00000   0.00000   0.00000  -0.35771
  23        5PZ        -0.62199   0.24518   0.00000   0.00000   0.00000
  24        6D 0       -0.41991  -0.10956   0.00000   0.00000   0.00000
[...]
  18        4PX         0.00000   0.00000   0.00000  -0.00000   0.00000
  19        4PY         0.00000   0.00000   0.00000   0.00000  -0.00000
  20        4PZ         0.00187   0.00176   0.00022   0.00000   0.00000
  21        5PX         0.00000   0.00000   0.00000  -0.00000   0.00000
  22        5PY         0.00000   0.00000   0.00000   0.00000  -0.00000
  23        5PZ         0.00367   0.00548   0.00106   0.00000   0.00000
  24        6D 0        0.00014   0.00006   0.00000   0.00000   0.00000
  25        6D+1        0.00000   0.00000   0.00000  -0.00000   0.00000
  26        6D-1        0.00000   0.00000   0.00000   0.00000  -0.00000
  27        6D+2        0.00000   0.00000   0.00000   0.00000  -0.00000
  28        6D-2        0.00000   0.00000   0.00000  -0.00000   0.00000
                           6         7         8         9        10
   6        4PZ         0.00029
   7        5PX        -0.00000   0.00000
   8        5PY         0.00000   0.00000   0.00000
   9        5PZ         0.00026  -0.00000   0.00000   0.00060
  10        6D 0        0.00000   0.00000   0.00000   0.00000   0.00000
  11        6D+1        0.00000   0.00000   0.00000   0.00000   0.00000
  12        6D-1        0.00000   0.00000   0.00000   0.00000   0.00000
  13        6D+2        0.00000   0.00000   0.00000   0.00000   0.00000
  14        6D-2        0.00000   0.00000   0.00000   0.00000   0.00000
  15 2   H  1S          0.00187   0.00000   0.00000   0.00367   0.00014
  16        2S          0.00176   0.00000   0.00000   0.00548   0.00006
  17        3S          0.00022   0.00000   0.00000   0.00106   0.00000
  18        4PX         0.00000  -0.00000   0.00000   0.00000   0.00000
  19        4PY         0.00000   0.00000  -0.00000   0.00000   0.00000
  20        4PZ         0.00013   0.00000   0.00000   0.00003   0.00000
  21        5PX         0.00000  -0.00000   0.00000   0.00000   0.00000
  22        5PY         0.00000   0.00000  -0.00000   0.00000   0.00000
  23        5PZ         0.00003   0.00000   0.00000  -0.00010  -0.00000
  24        6D 0        0.00000   0.00000   0.00000  -0.00000  -0.00000
  25        6D+1        0.00000  -0.00000   0.00000   0.00000   0.00000
  26        6D-1        0.00000   0.00000  -0.00000   0.00000   0.00000
  27        6D+2        0.00000   0.00000  -0.00000   0.00000   0.00000
  28        6D-2        0.00000  -0.00000   0.00000   0.00000   0.00000
                          11        12        13        14        15
  11        6D+1        0.00000
  12        6D-1        0.00000   0.00000
  13        6D+2        0.00000  -0.00000  -0.00000
  14        6D-2        0.00000  -0.00000   0.00000   0.00000
  15 2   H  1S          0.00000   0.00000   0.00000   0.00000   0.06990
  16        2S          0.00000   0.00000   0.00000   0.00000   0.07488
  17        3S          0.00000   0.00000   0.00000   0.00000   0.01883
  18        4PX        -0.00000   0.00000   0.00000  -0.00000   0.00000
  19        4PY         0.00000  -0.00000  -0.00000  -0.00000   0.00000
  20        4PZ         0.00000   0.00000   0.00000   0.00000   0.00000
  21        5PX        -0.00000   0.00000   0.00000  -0.00000   0.00000
  22        5PY         0.00000  -0.00000  -0.00000  -0.00000   0.00000
  23        5PZ         0.00000   0.00000   0.00000   0.00000   0.00000
  24        6D 0        0.00000   0.00000   0.00000   0.00000   0.00000
  25        6D+1       -0.00000   0.00000   0.00000  -0.00000   0.00000
  26        6D-1        0.00000  -0.00000  -0.00000  -0.00000   0.00000
  27        6D+2        0.00000  -0.00000  -0.00000   0.00000   0.00000
  28        6D-2        0.00000  -0.00000   0.00000   0.00000   0.00000
                          16        17        18        19        20
  16        2S          0.16081
  17        3S          0.06032   0.03636
  18        4PX         0.00000   0.00000   0.00000
  19        4PY         0.00000   0.00000   0.00000   0.00000
  20        4PZ         0.00000   0.00000   0.00000   0.00000   0.00029
  21        5PX         0.00000   0.00000   0.00000   0.00000   0.00000
  22        5PY         0.00000   0.00000   0.00000   0.00000   0.00000
  23        5PZ         0.00000   0.00000   0.00000   0.00000   0.00026
  24        6D 0        0.00000   0.00000   0.00000   0.00000   0.00000
  25        6D+1        0.00000   0.00000   0.00000   0.00000   0.00000
  26        6D-1        0.00000   0.00000   0.00000   0.00000   0.00000
  27        6D+2        0.00000   0.00000   0.00000   0.00000   0.00000
  28        6D-2        0.00000   0.00000   0.00000   0.00000   0.00000
                          21        22        23        24        25
  21        5PX         0.00000
  22        5PY         0.00000   0.00000
  23        5PZ         0.00000   0.00000   0.00060
  24        6D 0        0.00000   0.00000   0.00000   0.00000
  25        6D+1        0.00000   0.00000   0.00000   0.00000   0.00000
  26        6D-1        0.00000   0.00000   0.00000   0.00000   0.00000
  27        6D+2        0.00000   0.00000   0.00000   0.00000   0.00000
  28        6D-2        0.00000   0.00000   0.00000   0.00000   0.00000
                          26        27        28
  26        6D-1        0.00000
  27        6D+2        0.00000  -0.00000
  28        6D-2        0.00000   0.00000   0.00000
     Gross orbital populations:
                           1
   1 1   H  1S          0.24934
   2        2S          0.51771
   3        3S          0.21720
   4        4PX         0.00000
   5        4PY         0.00000
   6        4PZ         0.00455
   7        5PX         0.00000
   8        5PY         0.00000
   9        5PZ         0.01099
  10        6D 0        0.00020
  11        6D+1        0.00000
  12        6D-1        0.00000
  13        6D+2       -0.00000
  14        6D-2       -0.00000
  15 2   H  1S          0.24934
  16        2S          0.51771
  17        3S          0.21720
  18        4PX         0.00000
  19        4PY         0.00000
  20        4PZ         0.00455
  21        5PX         0.00000
  22        5PY         0.00000
  23        5PZ         0.01099
  24        6D 0        0.00020
  25        6D+1       -0.00000
  26        6D-1       -0.00000
  27        6D+2       -0.00000
  28        6D-2       -0.00000
          Condensed to atoms (all electrons):
              1          2
     1  H    0.576537   0.423463
     2  H    0.423463   0.576537
 Mulliken atomic charges:
              1
     1  H   -0.000000
     2  H   -0.000000
 Sum of Mulliken atomic charges =  -0.00000
 Mulliken charges with hydrogens summed into heavy atoms:
              1
 Sum of Mulliken charges with hydrogens summed into heavy atoms =  -0.00000
 APT atomic charges:
              1
     1  H    0.000000
     2  H    0.000000
 Sum of APT charges=   0.00000
 APT Atomic charges with hydrogens summed into heavy atoms:
              1
     1  H    0.000000
     2  H    0.000000
 Sum of APT charges=   0.00000
 Electronic spatial extent (au):  <R**2>=              5.1615
 Charge=             -0.0000 electrons
 Dipole moment (field-independent basis, Debye):
    X=             -0.0000    Y=             -0.0000    Z=              0.0000  Tot=              0.0000
 Quadrupole moment (field-independent basis, Debye-Ang):
   XX=             -2.0852   YY=             -2.0852   ZZ=             -1.4673
   XY=             -0.0000   XZ=             -0.0000   YZ=              0.0000
 Traceless Quadrupole moment (field-independent basis, Debye-Ang):
   XX=             -0.2060   YY=             -0.2060   ZZ=              0.4119
   XY=             -0.0000   XZ=             -0.0000   YZ=              0.0000
 Octapole moment (field-independent basis, Debye-Ang**2):
  XXX=             -0.0000  YYY=              0.0000  ZZZ=             -0.0000  XYY=             -0.0000
  XXY=             -0.0000  XXZ=              0.0000  XZZ=             -0.0000  YZZ=             -0.0000
  YYZ=              0.0000  XYZ=              0.0000
 Hexadecapole moment (field-independent basis, Debye-Ang**3):
 XXXX=             -2.0938 YYYY=             -2.0938 ZZZZ=             -2.8420 XXXY=             -0.0000
 XXXZ=              0.0000 YYYX=             -0.0000 YYYZ=              0.0000 ZZZX=              0.0000
 ZZZY=              0.0000 XXYY=             -0.6979 XXZZ=             -0.8407 YYZZ=             -0.8407
 XXYZ=              0.0000 YYXZ=              0.0000 ZZXY=             -0.0000
 N-N= 7.179664096739D-01 E-N=-3.637743251864D+00  KE= 1.127040630475D+00
 Symmetry AG   KE= 1.127040630475D+00
 Symmetry B1G  KE=-1.414767830589D-67
 Symmetry B2G  KE= 6.606996086419D-33
 Symmetry B3G  KE= 6.606996086419D-33
 Symmetry AU   KE= 3.218705586787D-69
 Symmetry B1U  KE= 9.195671307198D-30
 Symmetry B2U  KE= 1.458269141115D-34
 Symmetry B3U  KE= 1.458269141115D-34
 Orbital energies and kinetic energies (alpha):
                                 1                 2
   1 (SGG)--O                 -0.595600          0.563520
   2 (SGU)--V                  0.167670          0.274741
   3 (SGG)--V                  0.304726          0.483429
   4 (SGU)--V                  0.645031          1.039891
   5 (PIU)--V                  0.693036          0.864719
   6 (PIU)--V                  0.693036          0.864719
   7 (SGG)--V                  1.097423          1.250618
   8 (PIG)--V                  1.120605          1.208667
   9 (PIG)--V                  1.120605          1.208667
  10 (SGU)--V                  1.530384          1.576567
  11 (SGU)--V                  2.337172          3.295177
  12 (SGG)--V                  2.405339          3.432335
  13 (DLTG)--V                 3.175819          3.413398
  14 (DLTG)--V                 3.175819          3.413398
  15 (PIU)--V                  3.414484          3.904986
  16 (PIU)--V                  3.414484          3.904986
  17 (SGG)--V                  3.676187          4.216645
  18 (PIG)--V                  3.890268          4.268115
  19 (PIG)--V                  3.890268          4.268115
  20 (DLTU)--V                 4.088486          4.305655
  21 (DLTU)--V                 4.088486          4.305655
  22 (PIU)--V                  4.117782          4.452637
  23 (PIU)--V                  4.117782          4.452637
  24 (SGU)--V                  4.669665          5.103193
  25 (PIG)--V                  5.744613          6.159673
  26 (PIG)--V                  5.744613          6.159673
  27 (SGG)--V                  5.821990          6.494554
  28 (SGU)--V                  6.986945          8.464201
 Total kinetic energy from orbitals= 1.127040630475D+00
  Exact polarizability:   2.579   0.000   2.579  -0.000  -0.000   6.477
 Approx polarizability:   2.057  -0.000   2.057  -0.000  -0.000   4.920
 No NMR shielding tensors so no spin-rotation constants.
 Leave Link  601 at Sat Aug 17 22:46:23 2024, MaxMem=   13107200 cpu:       0.1
 (Enter /programs/64bit/g09/g09-gfortran/bin/l701.exe)
 Compute integral second derivatives.
 ... and contract with generalized density number  2.
 Leave Link  701 at Sat Aug 17 22:46:23 2024, MaxMem=   13107200 cpu:       0.2
 (Enter /programs/64bit/g09/g09-gfortran/bin/l702.exe)
 L702 exits ... SP integral derivatives will be done elsewhere.
 Leave Link  702 at Sat Aug 17 22:46:23 2024, MaxMem=   13107200 cpu:       0.0
 (Enter /programs/64bit/g09/g09-gfortran/bin/l703.exe)
 Compute integral second derivatives, UseDBF=F ICtDFT=           0.
 Integral derivatives from FoFDir, PRISM(SPDF).
 Calling FoFJK, ICntrl=    100127 FMM=F ISym2X=1 I1Cent= 0 IOpClX= 0 NMat=1 NMatS=1 NMatT=0.
 FoFCou: FMM=F IPFlag=           0 FMFlag=      100000 FMFlg1=         800
         NFxFlg=           0 DoJE=F BraDBF=F KetDBF=F FulRan=T
         Omega=  0.000000  0.000000  1.000000  0.000000  0.000000 ICntrl=  100127 IOpCl=  0
         NMat0=    1 NMatS0=    1 NMatT0=    0 NMatD0=    1 NMtDS0=    0 NMtDT0=    0
         I1Cent=           0 NGrid=           0.
 Petite list used in FoFCou.
 Leave Link  703 at Sat Aug 17 22:46:24 2024, MaxMem=   13107200 cpu:       0.3
 (Enter /programs/64bit/g09/g09-gfortran/bin/l716.exe)
 Dipole        = 3.12112825D-20 3.12112825D-20 4.83704041D-17
 Polarizability= 2.57900907D+00 5.27776013D-32 2.57900907D+00
                -5.11579402D-16-1.20534829D-16 6.47723077D+00
 Full mass-weighted force constant matrix:
 Low frequencies ---    0.0002    0.0002    0.0003   30.5460   30.5460 4525.8772
 Diagonal vibrational polarizability:
        0.0000000       0.0000000       0.0000000
 Harmonic frequencies (cm**-1), IR intensities (KM/Mole), Raman scattering
 activities (A**4/AMU), depolarization ratios for plane and unpolarized
 incident light, reduced masses (AMU), force constants (mDyne/A),
 and normal coordinates:
                     1
                    SGG
 Frequencies --  4525.8772
 Red. masses --     1.0078
 Frc consts  --    12.1630
 IR Inten    --     0.0000
  Atom  AN      X      Y      Z
     1   1    -0.00   0.00   0.71
     2   1     0.00   0.00  -0.71

 -------------------
 - Thermochemistry -
 -------------------
 Temperature   298.150 Kelvin.  Pressure   1.00000 Atm.
 Atom     1 has atomic number  1 and mass   1.00783
 Atom     2 has atomic number  1 and mass   1.00783
 Molecular mass:     2.01565 amu.
 Principal axes and moments of inertia in atomic units:
                           1         2         3
     Eigenvalues --     0.00000   0.97757   0.97757
           X           -0.00000   1.00000  -0.00000
           Y            0.00000   0.00000   1.00000
           Z            1.00000   0.00000  -0.00000
 This molecule is a prolate symmetric top.
 Rotational symmetry number  2.
 Rotational temperature (Kelvin)     88.60134
 Rotational constant (GHZ):        1846.154480
 Zero-point vibrational energy      27070.8 (Joules/Mol)
                                    6.47007 (Kcal/Mol)
 Vibrational temperatures:   6511.72
          (Kelvin)
 
 Zero-point correction=                           0.010311 (Hartree/Particle)
 Thermal correction to Energy=                    0.012671
 Thermal correction to Enthalpy=                  0.013615
 Thermal correction to Gibbs Free Energy=        -0.001162
 Sum of electronic and zero-point Energies=             -1.154339
 Sum of electronic and thermal Energies=                -1.151979
 Sum of electronic and thermal Enthalpies=              -1.151034
 Sum of electronic and thermal Free Energies=           -1.165812
 
                     E (Thermal)             CV                S
                      KCal/Mol        Cal/Mol-Kelvin    Cal/Mol-Kelvin
 Total                    7.951              4.968             31.101
 Electronic               0.000              0.000              0.000
 Translational            0.889              2.981             28.080
 Rotational               0.592              1.987              3.021
 Vibrational              6.470              0.000              0.000
                       Q            Log10(Q)             Ln(Q)
 Total Bot       0.342339D+01          0.534457          1.230632
 Total V=0       0.189253D+06          5.277042         12.150839
 Vib (Bot)       0.180890D-04         -4.742586        -10.920208
 Vib (V=0)       0.100000D+01          0.000000          0.000000
 Electronic      0.100000D+01          0.000000          0.000000
 Translational   0.112481D+06          5.051078         11.630537
 Rotational      0.168254D+01          0.225965          0.520303
 ***** Axes restored to original set *****
 -------------------------------------------------------------------
 Center     Atomic                   Forces (Hartrees/Bohr)
 Number     Number              X              Y              Z
 -------------------------------------------------------------------
      1        1           0.000000000   -0.000000000    0.000024783
      2        1          -0.000000000    0.000000000   -0.000024783
 -------------------------------------------------------------------
 Cartesian Forces:  Max     0.000024783 RMS     0.000014308
 Force constants in Cartesian coordinates: 
                1             2             3             4             5 
      1  0.177933D-04
      2  0.000000D+00  0.177933D-04
      3  0.000000D+00  0.000000D+00  0.390618D+00
      4 -0.177933D-04  0.000000D+00  0.000000D+00  0.177933D-04
      5  0.000000D+00 -0.177933D-04  0.000000D+00  0.000000D+00  0.177933D-04
      6  0.000000D+00  0.000000D+00 -0.390618D+00  0.000000D+00  0.000000D+00
                6 
      6  0.390618D+00
 Force constants in internal coordinates: 
                1 
      1  0.390618D+00
 Leave Link  716 at Sat Aug 17 22:46:24 2024, MaxMem=   13107200 cpu:       0.0
 (Enter /programs/64bit/g09/g09-gfortran/bin/l103.exe)

 GradGradGradGradGradGradGradGradGradGradGradGradGradGradGradGradGradGrad
 Berny optimization.
 Internal  Forces:  Max     0.000024783 RMS     0.000024783
 Search for a local minimum.
 Step number   1 out of a maximum of    2
 All quantities printed in internal units (Hartrees-Bohrs-Radians)
 Second derivative matrix not updated -- analytic derivatives used.
 The second derivative matrix:
                          R1
           R1           0.39062
     Eigenvalues ---    0.39062
 Angle between quadratic step and forces=   0.00 degrees.
 Linear search not attempted -- first point.
 Iteration  1 RMS(Cart)=  0.00004486 RMS(Int)=  0.00000000
 Iteration  2 RMS(Cart)=  0.00000000 RMS(Int)=  0.00000000
 ClnCor:  largest displacement from symmetrization is 1.94D-21 for atom     2.
 Variable       Old X    -DE/DX   Delta X   Delta X   Delta X     New X
                                 (Linear)    (Quad)   (Total)
    R1        1.39282  -0.00002   0.00000  -0.00006  -0.00006   1.39276
         Item               Value     Threshold  Converged?
 Maximum Force            0.000025     0.000450     YES
 RMS     Force            0.000025     0.000300     YES
 Maximum Displacement     0.000032     0.001800     YES
 RMS     Displacement     0.000045     0.001200     YES
 Predicted change in Energy=-7.861720D-10
 Optimization completed.
    -- Stationary point found.
                           ----------------------------
                           !   Optimized Parameters   !
                           ! (Angstroms and Degrees)  !
 --------------------------                            --------------------------
 ! Name  Definition              Value          Derivative Info.                !
 --------------------------------------------------------------------------------
 ! R1    R(1,2)                  0.7371         -DE/DX =    0.0                 !
 --------------------------------------------------------------------------------
 GradGradGradGradGradGradGradGradGradGradGradGradGradGradGradGradGradGrad

 Leave Link  103 at Sat Aug 17 22:46:24 2024, MaxMem=   13107200 cpu:       0.0
 (Enter /programs/64bit/g09/g09-gfortran/bin/l9999.exe)
 1\1\GINC-MOLMOD\Freq\RMP2-FC\CC-pVTZ\H2\OSPITE\17-Aug-2024\0\\#P Geom=
 AllCheck Guess=TCheck SCRF=Check GenChk RMP2(FC)/CC-pVTZ Freq\\hydogen
  (molecule) with cc-pVTZ basis set\\0,1\H,0.,0.,0.0014749538\H,0.,0.,0
 .7385250462\\Version=EM64L-G09RevA.02\State=1-SGG\HF=-1.1329848\MP2=-1
 .1646498\RMSD=1.342e-11\RMSF=1.431e-05\ZeroPoint=0.0103107\Thermal=0.0
 126712\Dipole=0.,0.,0.\DipoleDeriv=0.,0.,0.,0.,0.,0.,0.,0.,0.,0.,0.,0.
 ,0.,0.,0.,0.,0.,0.\Polar=2.5790091,0.,2.5790091,0.,0.,6.4772308\PG=D*H
  [C*(H1.H1)]\NImag=0\\0.00001779,0.,0.00001779,0.,0.,0.39061789,-0.000
 01779,0.,0.,0.00001779,0.,-0.00001779,0.,0.,0.00001779,0.,0.,-0.390617
 89,0.,0.,0.39061789\\0.,0.,-0.00002478,0.,0.,0.00002478\\\@


 IF YOU PERCEIVE THAT THERE ARE FOUR POSSIBLE WAYS IN
 WHICH A PROCEDURE CAN GO WRONG AND CIRCUMVENT THESE, 
 THEN A FIFTH WAY WILL DEVELOP.

                              -- MURPHY'S TWELFTH LAW
 Job cpu time:  0 days  0 hours  0 minutes  4.1 seconds.
 File lengths (MBytes):  RWF=     19 Int=      0 D2E=      0 Chk=      1 Scr=      1
 Normal termination of Gaussian 09 at Sat Aug 17 22:46:24 2024.
