 Entering Gaussian System, Link 0=/g100_work/pMI24_ChiCa/g09d1/g09d01/d01/build-node-6-2-59348/src/main/g09
 Input=geom.com
 Output=geom.log
 Initial command:
 /g100_work/pMI24_ChiCa/g09d1/g09d01/d01/build-node-6-2-59348/src/main/l1.exe "/g100_scratch/userexternal/ecabiati/g16_14386784/Gau-1177.inp" -scrdir="/g100_scratch/userexternal/ecabiati/g16_14386784/"
 Entering Link 1 = /g100_work/pMI24_ChiCa/g09d1/g09d01/d01/build-node-6-2-59348/src/main/l1.exe PID=      1178.
  
 Copyright (c) 1988,1990,1992,1993,1995,1998,2003,2009,2013,
            Gaussian, Inc.  All Rights Reserved.
  
 This is part of the Gaussian(R) 09 program.  It is based on
 the Gaussian(R) 03 system (copyright 2003, Gaussian, Inc.),
 the Gaussian(R) 98 system (copyright 1998, Gaussian, Inc.),
 the Gaussian(R) 94 system (copyright 1995, Gaussian, Inc.),
 the Gaussian 92(TM) system (copyright 1992, Gaussian, Inc.),
 the Gaussian 90(TM) system (copyright 1990, Gaussian, Inc.),
 the Gaussian 88(TM) system (copyright 1988, Gaussian, Inc.),
 the Gaussian 86(TM) system (copyright 1986, Carnegie Mellon
 University), and the Gaussian 82(TM) system (copyright 1983,
 Carnegie Mellon University). Gaussian is a federally registered
 trademark of Gaussian, Inc.
  
 This software contains proprietary and confidential information,
 including trade secrets, belonging to Gaussian, Inc.
  
 This software is provided under written license and may be
 used, copied, transmitted, or stored only in accord with that
 written license.
  
 The following legend is applicable only to US Government
 contracts under FAR:
  
                    RESTRICTED RIGHTS LEGEND
  
 Use, reproduction and disclosure by the US Government is
 subject to restrictions as set forth in subparagraphs (a)
 and (c) of the Commercial Computer Software - Restricted
 Rights clause in FAR 52.227-19.
  
 Gaussian, Inc.
 340 Quinnipiac St., Bldg. 40, Wallingford CT 06492
  
  
 ---------------------------------------------------------------
 Warning -- This program may not be used in any manner that
 competes with the business of Gaussian, Inc. or will provide
 assistance to any competitor of Gaussian, Inc.  The licensee
 of this program is prohibited from giving any competitor of
 Gaussian, Inc. access to this program.  By using this program,
 the user acknowledges that Gaussian, Inc. is engaged in the
 business of creating and licensing software in the field of
 computational chemistry and represents and warrants to the
 licensee that it is not a competitor of Gaussian, Inc. and that
 it will not use this program in any manner prohibited above.
 ---------------------------------------------------------------
  

 Cite this work as:
 Gaussian 09, Revision D.01,
 M. J. Frisch, G. W. Trucks, H. B. Schlegel, G. E. Scuseria, 
 M. A. Robb, J. R. Cheeseman, G. Scalmani, V. Barone, B. Mennucci, 
 G. A. Petersson, H. Nakatsuji, M. Caricato, X. Li, H. P. Hratchian, 
 A. F. Izmaylov, J. Bloino, G. Zheng, J. L. Sonnenberg, M. Hada, 
 M. Ehara, K. Toyota, R. Fukuda, J. Hasegawa, M. Ishida, T. Nakajima, 
 Y. Honda, O. Kitao, H. Nakai, T. Vreven, J. A. Montgomery, Jr., 
 J. E. Peralta, F. Ogliaro, M. Bearpark, J. J. Heyd, E. Brothers, 
 K. N. Kudin, V. N. Staroverov, T. Keith, R. Kobayashi, J. Normand, 
 K. Raghavachari, A. Rendell, J. C. Burant, S. S. Iyengar, J. Tomasi, 
 M. Cossi, N. Rega, J. M. Millam, M. Klene, J. E. Knox, J. B. Cross, 
 V. Bakken, C. Adamo, J. Jaramillo, R. Gomperts, R. E. Stratmann, 
 O. Yazyev, A. J. Austin, R. Cammi, C. Pomelli, J. W. Ochterski, 
 R. L. Martin, K. Morokuma, V. G. Zakrzewski, G. A. Voth, 
 P. Salvador, J. J. Dannenberg, S. Dapprich, A. D. Daniels, 
 O. Farkas, J. B. Foresman, J. V. Ortiz, J. Cioslowski, 
 and D. J. Fox, Gaussian, Inc., Wallingford CT, 2013.
 
 ******************************************
 Gaussian 09:  EM64L-G09RevD.01 24-Apr-2013
                11-Sep-2024 
 ******************************************
 %nproc=24
 Will use up to   24 processors via shared memory.
 %mem=2Gb
 ---------------------------------------------------
 #p B3LYP/6-31+g(d,p) opt(internal) pop=full gfinput
 ---------------------------------------------------
 1/10=7,14=-1,18=40,26=3,38=1/1,3;
 2/12=2,17=6,18=5,29=3,40=1/2;
 3/5=1,6=6,7=111,11=2,16=1,24=10,25=1,30=1,71=1,74=-5/1,2,3;
 4//1;
 5/5=2,38=5/2;
 6/7=3,28=1/1;
 7/29=1/1,2,3,16;
 1/10=7,14=-1,18=40,26=3/3(2);
 2/29=3/2;
 99//99;
 2/29=3/2;
 3/5=1,6=6,7=111,11=2,16=1,25=1,30=1,71=1,74=-5/1,2,3;
 4/5=5,16=3,69=1/1;
 5/5=2,38=5/2;
 7//1,2,3,16;
 1/14=-1,18=40,26=3/3(-5);
 2/29=3/2;
 6/7=3,19=2,28=1/1;
 99/9=1/99;
 Leave Link    1 at Wed Sep 11 21:57:31 2024, MaxMem=   268435456 cpu:         0.2
 (Enter /g100_work/pMI24_ChiCa/g09d1/g09d01/d01/build-node-6-2-59348/src/main/l101.exe)
 ---------------
 acetic acid opt
 ---------------
 Symbolic Z-matrix:
 Charge =  0 Multiplicity = 1
 c
 c                    1    cc2
 h                    2    hc3      1    hcc3
 h                    2    hc4      1    hcc4     3    dih4     0
 h                    2    hc5      1    hcc5     3    dih5     0
 o                    1    oc6      2    occ6     3    dih6     0
 o                    1    oc7      6    oco7     2    dih7     0
 h                    7    ho8      1    hoc8     6    dih8     0
       Variables:
  cc2                   1.5                      
  hc3                   1.07                     
  hcc3                109.471                    
  hc4                   1.07                     
  hcc4                109.471                    
  dih4                120.                       
  hc5                   1.07                     
  hcc5                109.471                    
  dih5               -120.                       
  oc6                   1.22                     
  occ6                120.                       
  dih6                180.                       
  oc7                   1.38                     
  oco7                120.                       
  dih7                180.                       
  ho8                   0.947                    
  hoc8                109.471                    
  dih8                180.                       
 
     4 tetrahedral angles replaced.
 NAtoms=      8 NQM=        8 NQMF=       0 NMMI=      0 NMMIF=      0
                NMic=       0 NMicF=      0.
    4 tetrahedral angles replaced.
                    Isotopes and Nuclear Properties:
 (Nuclear quadrupole moments (NQMom) in fm**2, nuclear magnetic moments (NMagM)
  in nuclear magnetons)

  Atom         1           2           3           4           5           6           7           8
 IAtWgt=          12          12           1           1           1          16          16           1
 AtmWgt=  12.0000000  12.0000000   1.0078250   1.0078250   1.0078250  15.9949146  15.9949146   1.0078250
 NucSpn=           0           0           1           1           1           0           0           1
 AtZEff=   0.0000000   0.0000000   0.0000000   0.0000000   0.0000000   0.0000000   0.0000000   0.0000000
 NQMom=    0.0000000   0.0000000   0.0000000   0.0000000   0.0000000   0.0000000   0.0000000   0.0000000
 NMagM=    0.0000000   0.0000000   2.7928460   2.7928460   2.7928460   0.0000000   0.0000000   2.7928460
 AtZNuc=   6.0000000   6.0000000   1.0000000   1.0000000   1.0000000   8.0000000   8.0000000   1.0000000
 Leave Link  101 at Wed Sep 11 21:57:31 2024, MaxMem=   268435456 cpu:         0.2
 (Enter /g100_work/pMI24_ChiCa/g09d1/g09d01/d01/build-node-6-2-59348/src/main/l103.exe)

 GradGradGradGradGradGradGradGradGradGradGradGradGradGradGradGradGradGrad
 Berny optimization.
 Initialization pass.
                       ----------------------------
                       !    Initial Parameters    !
                       ! (Angstroms and Degrees)  !
 ----------------------                            ----------------------
 !      Name          Value   Derivative information (Atomic Units)     !
 ------------------------------------------------------------------------
 !       cc2         1.5      estimate D2E/DX2                          !
 !       hc3         1.07     estimate D2E/DX2                          !
 !      hcc3       109.4712   estimate D2E/DX2                          !
 !       hc4         1.07     estimate D2E/DX2                          !
 !      hcc4       109.4712   estimate D2E/DX2                          !
 !      dih4       120.0      estimate D2E/DX2                          !
 !       hc5         1.07     estimate D2E/DX2                          !
 !      hcc5       109.4712   estimate D2E/DX2                          !
 !      dih5      -120.0      estimate D2E/DX2                          !
 !       oc6         1.22     estimate D2E/DX2                          !
 !      occ6       120.0      estimate D2E/DX2                          !
 !      dih6       180.0      estimate D2E/DX2                          !
 !       oc7         1.38     estimate D2E/DX2                          !
 !      oco7       120.0      estimate D2E/DX2                          !
 !      dih7       180.0      estimate D2E/DX2                          !
 !       ho8         0.947    estimate D2E/DX2                          !
 !      hoc8       109.4712   estimate D2E/DX2                          !
 !      dih8       180.0      estimate D2E/DX2                          !
 ------------------------------------------------------------------------
 Trust Radius=3.00D-01 FncErr=1.00D-07 GrdErr=1.00D-06
 Number of steps in this run=     28 maximum allowed number of steps=    100.
 GradGradGradGradGradGradGradGradGradGradGradGradGradGradGradGradGradGrad

 Leave Link  103 at Wed Sep 11 21:57:32 2024, MaxMem=   268435456 cpu:         0.1
 (Enter /g100_work/pMI24_ChiCa/g09d1/g09d01/d01/build-node-6-2-59348/src/main/l202.exe)
 ---------------------------------------------------------------------------------------------------
                            Z-MATRIX (ANGSTROMS AND DEGREES)
   CD    Cent   Atom    N1       Length/X        N2       Alpha/Y        N3        Beta/Z          J
 ---------------------------------------------------------------------------------------------------
      1      1  C 
      2      2  C        1   1.500000(     1)
      3      3  H        2   1.070000(     2)      1  109.471(     8)
      4      4  H        2   1.070000(     3)      1  109.471(     9)      3  120.000(    14)      0
      5      5  H        2   1.070000(     4)      1  109.471(    10)      3 -120.000(    15)      0
      6      6  O        1   1.220000(     5)      2  120.000(    11)      3  180.000(    16)      0
      7      7  O        1   1.380000(     6)      6  120.000(    12)      2  180.000(    17)      0
      8      8  H        7   0.947000(     7)      1  109.471(    13)      6  180.000(    18)      0
 ---------------------------------------------------------------------------------------------------
                         Z-Matrix orientation:                         
 ---------------------------------------------------------------------
 Center     Atomic      Atomic             Coordinates (Angstroms)
 Number     Number       Type             X           Y           Z
 ---------------------------------------------------------------------
      1          6           0        0.000000    0.000000    0.000000
      2          6           0        0.000000    0.000000    1.500000
      3          1           0        1.008806    0.000000    1.856667
      4          1           0       -0.504403    0.873651    1.856667
      5          1           0       -0.504403   -0.873651    1.856667
      6          8           0       -1.056551   -0.000000   -0.610000
      7          8           0        1.195115   -0.000000   -0.690000
      8          1           0        1.914910    0.000000   -0.074611
 ---------------------------------------------------------------------
                    Distance matrix (angstroms):
                    1          2          3          4          5
     1  C    0.000000
     2  C    1.500000   0.000000
     3  H    2.113031   1.070000   0.000000
     4  H    2.113031   1.070000   1.747303   0.000000
     5  H    2.113031   1.070000   1.747303   1.747303   0.000000
     6  O    1.220000   2.359746   3.217164   2.674431   2.674431
     7  O    1.380000   2.494875   2.553473   3.183887   3.183887
     8  H    1.916363   2.479170   2.133274   3.216547   3.216547
                    6          7          8
     6  O    0.000000
     7  O    2.253087   0.000000
     8  H    3.019309   0.947000   0.000000
 Stoichiometry    C2H4O2
 Framework group  CS[SG(C2H2O2),X(H2)]
 Deg. of freedom    12
 Full point group                 CS      NOp   2
 Largest Abelian subgroup         CS      NOp   2
 Largest concise Abelian subgroup CS      NOp   2
                         Standard orientation:                         
 ---------------------------------------------------------------------
 Center     Atomic      Atomic             Coordinates (Angstroms)
 Number     Number       Type             X           Y           Z
 ---------------------------------------------------------------------
      1          6           0        0.000000    0.159078    0.000000
      2          6           0       -0.890900   -1.047693    0.000000
      3          1           0       -0.291137   -1.933800   -0.000000
      4          1           0       -1.508535   -1.035055    0.873651
      5          1           0       -1.508535   -1.035055   -0.873651
      6          8           0       -0.487711    1.277353    0.000000
      7          8           0        1.371301    0.004375   -0.000000
      8          1           0        1.584887   -0.918225   -0.000000
 ---------------------------------------------------------------------
 Rotational constants (GHZ):     11.0692602      9.3695083      5.2361217
 Leave Link  202 at Wed Sep 11 21:57:32 2024, MaxMem=   268435456 cpu:         0.2
 (Enter /g100_work/pMI24_ChiCa/g09d1/g09d01/d01/build-node-6-2-59348/src/main/l301.exe)
 Standard basis: 6-31+G(d,p) (6D, 7F)
 Ernie: Thresh=  0.10000D-02 Tol=  0.10000D-05 Strict=F.
 AO basis set in the form of general basis input (Overlap normalization):
      1 0
 S   6 1.00       0.000000000000
      0.3047524880D+04  0.1834737132D-02
      0.4573695180D+03  0.1403732281D-01
      0.1039486850D+03  0.6884262226D-01
      0.2921015530D+02  0.2321844432D+00
      0.9286662960D+01  0.4679413484D+00
      0.3163926960D+01  0.3623119853D+00
 SP   3 1.00       0.000000000000
      0.7868272350D+01 -0.1193324198D+00  0.6899906659D-01
      0.1881288540D+01 -0.1608541517D+00  0.3164239610D+00
      0.5442492580D+00  0.1143456438D+01  0.7443082909D+00
 SP   1 1.00       0.000000000000
      0.1687144782D+00  0.1000000000D+01  0.1000000000D+01
 SP   1 1.00       0.000000000000
      0.4380000000D-01  0.1000000000D+01  0.1000000000D+01
 D   1 1.00       0.000000000000
      0.8000000000D+00  0.1000000000D+01
 ****
      2 0
 S   6 1.00       0.000000000000
      0.3047524880D+04  0.1834737132D-02
      0.4573695180D+03  0.1403732281D-01
      0.1039486850D+03  0.6884262226D-01
      0.2921015530D+02  0.2321844432D+00
      0.9286662960D+01  0.4679413484D+00
      0.3163926960D+01  0.3623119853D+00
 SP   3 1.00       0.000000000000
      0.7868272350D+01 -0.1193324198D+00  0.6899906659D-01
      0.1881288540D+01 -0.1608541517D+00  0.3164239610D+00
      0.5442492580D+00  0.1143456438D+01  0.7443082909D+00
 SP   1 1.00       0.000000000000
      0.1687144782D+00  0.1000000000D+01  0.1000000000D+01
 SP   1 1.00       0.000000000000
      0.4380000000D-01  0.1000000000D+01  0.1000000000D+01
 D   1 1.00       0.000000000000
      0.8000000000D+00  0.1000000000D+01
 ****
      3 0
 S   3 1.00       0.000000000000
      0.1873113696D+02  0.3349460434D-01
      0.2825394365D+01  0.2347269535D+00
      0.6401216923D+00  0.8137573261D+00
 S   1 1.00       0.000000000000
      0.1612777588D+00  0.1000000000D+01
 P   1 1.00       0.000000000000
      0.1100000000D+01  0.1000000000D+01
 ****
      4 0
 S   3 1.00       0.000000000000
      0.1873113696D+02  0.3349460434D-01
      0.2825394365D+01  0.2347269535D+00
      0.6401216923D+00  0.8137573261D+00
 S   1 1.00       0.000000000000
      0.1612777588D+00  0.1000000000D+01
 P   1 1.00       0.000000000000
      0.1100000000D+01  0.1000000000D+01
 ****
      5 0
 S   3 1.00       0.000000000000
      0.1873113696D+02  0.3349460434D-01
      0.2825394365D+01  0.2347269535D+00
      0.6401216923D+00  0.8137573261D+00
 S   1 1.00       0.000000000000
      0.1612777588D+00  0.1000000000D+01
 P   1 1.00       0.000000000000
      0.1100000000D+01  0.1000000000D+01
 ****
      6 0
 S   6 1.00       0.000000000000
      0.5484671660D+04  0.1831074430D-02
      0.8252349460D+03  0.1395017220D-01
      0.1880469580D+03  0.6844507810D-01
      0.5296450000D+02  0.2327143360D+00
      0.1689757040D+02  0.4701928980D+00
      0.5799635340D+01  0.3585208530D+00
 SP   3 1.00       0.000000000000
      0.1553961625D+02 -0.1107775495D+00  0.7087426823D-01
      0.3599933586D+01 -0.1480262627D+00  0.3397528391D+00
      0.1013761750D+01  0.1130767015D+01  0.7271585773D+00
 SP   1 1.00       0.000000000000
      0.2700058226D+00  0.1000000000D+01  0.1000000000D+01
 SP   1 1.00       0.000000000000
      0.8450000000D-01  0.1000000000D+01  0.1000000000D+01
 D   1 1.00       0.000000000000
      0.8000000000D+00  0.1000000000D+01
 ****
      7 0
 S   6 1.00       0.000000000000
      0.5484671660D+04  0.1831074430D-02
      0.8252349460D+03  0.1395017220D-01
      0.1880469580D+03  0.6844507810D-01
      0.5296450000D+02  0.2327143360D+00
      0.1689757040D+02  0.4701928980D+00
      0.5799635340D+01  0.3585208530D+00
 SP   3 1.00       0.000000000000
      0.1553961625D+02 -0.1107775495D+00  0.7087426823D-01
      0.3599933586D+01 -0.1480262627D+00  0.3397528391D+00
      0.1013761750D+01  0.1130767015D+01  0.7271585773D+00
 SP   1 1.00       0.000000000000
      0.2700058226D+00  0.1000000000D+01  0.1000000000D+01
 SP   1 1.00       0.000000000000
      0.8450000000D-01  0.1000000000D+01  0.1000000000D+01
 D   1 1.00       0.000000000000
      0.8000000000D+00  0.1000000000D+01
 ****
      8 0
 S   3 1.00       0.000000000000
      0.1873113696D+02  0.3349460434D-01
      0.2825394365D+01  0.2347269535D+00
      0.6401216923D+00  0.8137573261D+00
 S   1 1.00       0.000000000000
      0.1612777588D+00  0.1000000000D+01
 P   1 1.00       0.000000000000
      0.1100000000D+01  0.1000000000D+01
 ****

 There are    69 symmetry adapted cartesian basis functions of A'  symmetry.
 There are    27 symmetry adapted cartesian basis functions of A"  symmetry.
 There are    69 symmetry adapted basis functions of A'  symmetry.
 There are    27 symmetry adapted basis functions of A"  symmetry.
    96 basis functions,   156 primitive gaussians,    96 cartesian basis functions
    16 alpha electrons       16 beta electrons
       nuclear repulsion energy       120.4076146111 Hartrees.
 IExCor=  402 DFT=T Ex+Corr=B3LYP ExCW=0 ScaHFX=  0.200000
 ScaDFX=  0.800000  0.720000  1.000000  0.810000 ScalE2=  1.000000  1.000000
 IRadAn=      0 IRanWt=     -1 IRanGd=            0 ICorTp=0 IEmpDi=  4
 NAtoms=    8 NActive=    8 NUniq=    7 SFac= 1.31D+00 NAtFMM=   60 NAOKFM=F Big=F
 Integral buffers will be    131072 words long.
 Raffenetti 2 integral format.
 Two-electron integral symmetry is turned on.
 Leave Link  301 at Wed Sep 11 21:57:32 2024, MaxMem=   268435456 cpu:         0.1
 (Enter /g100_work/pMI24_ChiCa/g09d1/g09d01/d01/build-node-6-2-59348/src/main/l302.exe)
 NPDir=0 NMtPBC=     1 NCelOv=     1 NCel=       1 NClECP=     1 NCelD=      1
         NCelK=      1 NCelE2=     1 NClLst=     1 CellRange=     0.0.
 One-electron integrals computed using PRISM.
 One-electron integral symmetry used in STVInt
 NBasis=    96 RedAO= T EigKep=  2.83D-04  NBF=    69    27
 NBsUse=    96 1.00D-06 EigRej= -1.00D+00 NBFU=    69    27
 Precomputing XC quadrature grid using
 IXCGrd= 4 IRadAn=           0 IRanWt=          -1 IRanGd=           0 AccXCQ= 0.00D+00.
 Generated NRdTot=       0 NPtTot=           0 NUsed=           0 NTot=          32
 NSgBfM=    96    96    96    96    96 MxSgAt=     8 MxSgA2=     8.
 Leave Link  302 at Wed Sep 11 21:57:32 2024, MaxMem=   268435456 cpu:         1.6
 (Enter /g100_work/pMI24_ChiCa/g09d1/g09d01/d01/build-node-6-2-59348/src/main/l303.exe)
 DipDrv:  MaxL=1.
 Leave Link  303 at Wed Sep 11 21:57:33 2024, MaxMem=   268435456 cpu:         0.2
 (Enter /g100_work/pMI24_ChiCa/g09d1/g09d01/d01/build-node-6-2-59348/src/main/l401.exe)
 ExpMin= 4.38D-02 ExpMax= 5.48D+03 ExpMxC= 8.25D+02 IAcc=2 IRadAn=         4 AccDes= 0.00D+00
 Harris functional with IExCor=  402 and IRadAn=       4 diagonalized for initial guess.
 HarFok:  IExCor=  402 AccDes= 0.00D+00 IRadAn=         4 IDoV= 1 UseB2=F ITyADJ=14
 ICtDFT=  3500011 ScaDFX=  1.000000  1.000000  1.000000  1.000000
 FoFCou: FMM=F IPFlag=           0 FMFlag=      100000 FMFlg1=           0
         NFxFlg=           0 DoJE=T BraDBF=F KetDBF=T FulRan=T
         wScrn=  0.000000 ICntrl=     500 IOpCl=  0 I1Cent=   200000004 NGrid=           0
         NMat0=    1 NMatS0=      1 NMatT0=    0 NMatD0=    1 NMtDS0=    0 NMtDT0=    0
 Petite list used in FoFCou.
 Harris En= -229.134228859582    
 JPrj=0 DoOrth=F DoCkMO=F.
 Initial guess orbital symmetries:
       Occupied  (A') (A') (A') (A') (A') (A') (A') (A') (A') (A')
                 (A") (A') (A") (A') (A") (A')
       Virtual   (A") (A') (A') (A') (A") (A') (A') (A") (A') (A')
                 (A") (A') (A') (A') (A") (A') (A') (A') (A') (A")
                 (A') (A') (A') (A') (A') (A") (A') (A") (A') (A')
                 (A") (A') (A') (A') (A') (A") (A') (A") (A') (A')
                 (A") (A') (A') (A") (A') (A') (A") (A") (A') (A')
                 (A') (A") (A') (A") (A') (A") (A') (A") (A') (A')
                 (A') (A") (A') (A") (A') (A') (A") (A') (A") (A')
                 (A') (A') (A') (A") (A') (A') (A') (A') (A') (A')
 The electronic state of the initial guess is 1-A'.
 Leave Link  401 at Wed Sep 11 21:57:33 2024, MaxMem=   268435456 cpu:         1.8
 (Enter /g100_work/pMI24_ChiCa/g09d1/g09d01/d01/build-node-6-2-59348/src/main/l502.exe)
 Closed shell SCF:
 Using DIIS extrapolation, IDIIS=  1040.
 Integral symmetry usage will be decided dynamically.
 Keep R1 ints in memory in symmetry-blocked form, NReq=16539583.
 IVT=       49354 IEndB=       49354 NGot=   268435456 MDV=   262737466
 LenX=   262737466 LenY=   262727809
 Requested convergence on RMS density matrix=1.00D-08 within 128 cycles.
 Requested convergence on MAX density matrix=1.00D-06.
 Requested convergence on             energy=1.00D-06.
 No special actions if energy rises.
 FoFCou: FMM=F IPFlag=           0 FMFlag=           0 FMFlg1=           0
         NFxFlg=           0 DoJE=F BraDBF=F KetDBF=F FulRan=T
         wScrn=  0.000000 ICntrl=     600 IOpCl=  0 I1Cent=           0 NGrid=           0
         NMat0=    1 NMatS0=   4656 NMatT0=    0 NMatD0=    1 NMtDS0=    0 NMtDT0=    0
 Petite list used in FoFCou.

 Cycle   1  Pass 1  IDiag  1:
 E= -228.932923779681    
 DIIS: error= 3.55D-02 at cycle   1 NSaved=   1.
 NSaved= 1 IEnMin= 1 EnMin= -228.932923779681     IErMin= 1 ErrMin= 3.55D-02
 ErrMax= 3.55D-02  0.00D+00 EMaxC= 1.00D-01 BMatC= 1.91D-01 BMatP= 1.91D-01
 IDIUse=3 WtCom= 6.45D-01 WtEn= 3.55D-01
 Coeff-Com:  0.100D+01
 Coeff-En:   0.100D+01
 Coeff:      0.100D+01
 Gap=     0.116 Goal=   None    Shift=    0.000
 GapD=    0.116 DampG=1.000 DampE=0.500 DampFc=0.5000 IDamp=-1.
 Damping current iteration by 5.00D-01
 RMSDP=1.12D-02 MaxDP=2.19D-01              OVMax= 3.02D-01

 Cycle   2  Pass 1  IDiag  1:
 E= -228.960372270741     Delta-E=       -0.027448491059 Rises=F Damp=T
 DIIS: error= 1.55D-02 at cycle   2 NSaved=   2.
 NSaved= 2 IEnMin= 2 EnMin= -228.960372270741     IErMin= 2 ErrMin= 1.55D-02
 ErrMax= 1.55D-02  0.00D+00 EMaxC= 1.00D-01 BMatC= 3.81D-02 BMatP= 1.91D-01
 IDIUse=3 WtCom= 8.45D-01 WtEn= 1.55D-01
 Coeff-Com:  0.270D+00 0.730D+00
 Coeff-En:   0.419D+00 0.581D+00
 Coeff:      0.293D+00 0.707D+00
 Gap=     0.276 Goal=   None    Shift=    0.000
 RMSDP=3.27D-03 MaxDP=5.88D-02 DE=-2.74D-02 OVMax= 2.10D-01

 Cycle   3  Pass 1  IDiag  1:
 E= -229.067727688370     Delta-E=       -0.107355417630 Rises=F Damp=F
 DIIS: error= 1.63D-02 at cycle   3 NSaved=   3.
 NSaved= 3 IEnMin= 3 EnMin= -229.067727688370     IErMin= 2 ErrMin= 1.55D-02
 ErrMax= 1.63D-02  0.00D+00 EMaxC= 1.00D-01 BMatC= 2.86D-02 BMatP= 3.81D-02
 IDIUse=3 WtCom= 8.37D-01 WtEn= 1.63D-01
 Coeff-Com:  0.131D+00 0.462D+00 0.407D+00
 Coeff-En:   0.000D+00 0.000D+00 0.100D+01
 Coeff:      0.110D+00 0.387D+00 0.504D+00
 Gap=     0.265 Goal=   None    Shift=    0.000
 RMSDP=1.90D-03 MaxDP=4.44D-02 DE=-1.07D-01 OVMax= 8.36D-02

 Cycle   4  Pass 1  IDiag  1:
 E= -229.087401967026     Delta-E=       -0.019674278656 Rises=F Damp=F
 DIIS: error= 8.24D-03 at cycle   4 NSaved=   4.
 NSaved= 4 IEnMin= 4 EnMin= -229.087401967026     IErMin= 4 ErrMin= 8.24D-03
 ErrMax= 8.24D-03  0.00D+00 EMaxC= 1.00D-01 BMatC= 5.63D-03 BMatP= 2.86D-02
 IDIUse=3 WtCom= 9.18D-01 WtEn= 8.24D-02
 Coeff-Com:  0.304D-01 0.821D-01 0.308D+00 0.580D+00
 Coeff-En:   0.000D+00 0.000D+00 0.181D+00 0.819D+00
 Coeff:      0.279D-01 0.753D-01 0.297D+00 0.599D+00
 Gap=     0.270 Goal=   None    Shift=    0.000
 RMSDP=6.82D-04 MaxDP=1.61D-02 DE=-1.97D-02 OVMax= 2.96D-02

 Cycle   5  Pass 1  IDiag  1:
 E= -229.091255745628     Delta-E=       -0.003853778602 Rises=F Damp=F
 DIIS: error= 1.92D-03 at cycle   5 NSaved=   5.
 NSaved= 5 IEnMin= 5 EnMin= -229.091255745628     IErMin= 5 ErrMin= 1.92D-03
 ErrMax= 1.92D-03  0.00D+00 EMaxC= 1.00D-01 BMatC= 4.58D-04 BMatP= 5.63D-03
 IDIUse=3 WtCom= 9.81D-01 WtEn= 1.92D-02
 Coeff-Com:  0.354D-02-0.422D-02 0.136D+00 0.380D+00 0.484D+00
 Coeff-En:   0.000D+00 0.000D+00 0.000D+00 0.253D-01 0.975D+00
 Coeff:      0.347D-02-0.414D-02 0.134D+00 0.373D+00 0.494D+00
 Gap=     0.269 Goal=   None    Shift=    0.000
 RMSDP=1.86D-04 MaxDP=4.58D-03 DE=-3.85D-03 OVMax= 6.09D-03

 Cycle   6  Pass 1  IDiag  1:
 E= -229.091619855975     Delta-E=       -0.000364110347 Rises=F Damp=F
 DIIS: error= 2.53D-04 at cycle   6 NSaved=   6.
 NSaved= 6 IEnMin= 6 EnMin= -229.091619855975     IErMin= 6 ErrMin= 2.53D-04
 ErrMax= 2.53D-04  0.00D+00 EMaxC= 1.00D-01 BMatC= 6.04D-06 BMatP= 4.58D-04
 IDIUse=3 WtCom= 9.97D-01 WtEn= 2.53D-03
 Coeff-Com:  0.385D-03-0.422D-02 0.247D-01 0.647D-01 0.146D+00 0.768D+00
 Coeff-En:   0.000D+00 0.000D+00 0.000D+00 0.000D+00 0.000D+00 0.100D+01
 Coeff:      0.384D-03-0.421D-02 0.246D-01 0.645D-01 0.146D+00 0.769D+00
 Gap=     0.270 Goal=   None    Shift=    0.000
 RMSDP=2.44D-05 MaxDP=3.91D-04 DE=-3.64D-04 OVMax= 6.47D-04

 Cycle   7  Pass 1  IDiag  1:
 E= -229.091624595441     Delta-E=       -0.000004739466 Rises=F Damp=F
 DIIS: error= 3.31D-05 at cycle   7 NSaved=   7.
 NSaved= 7 IEnMin= 7 EnMin= -229.091624595441     IErMin= 7 ErrMin= 3.31D-05
 ErrMax= 3.31D-05  0.00D+00 EMaxC= 1.00D-01 BMatC= 1.73D-07 BMatP= 6.04D-06
 IDIUse=1 WtCom= 1.00D+00 WtEn= 0.00D+00
 Coeff-Com:  0.157D-03-0.152D-02 0.582D-02 0.129D-01 0.427D-01 0.288D+00
 Coeff-Com:  0.652D+00
 Coeff:      0.157D-03-0.152D-02 0.582D-02 0.129D-01 0.427D-01 0.288D+00
 Coeff:      0.652D+00
 Gap=     0.270 Goal=   None    Shift=    0.000
 RMSDP=5.87D-06 MaxDP=9.82D-05 DE=-4.74D-06 OVMax= 1.41D-04

 Cycle   8  Pass 1  IDiag  1:
 E= -229.091624742351     Delta-E=       -0.000000146910 Rises=F Damp=F
 DIIS: error= 1.02D-05 at cycle   8 NSaved=   8.
 NSaved= 8 IEnMin= 8 EnMin= -229.091624742351     IErMin= 8 ErrMin= 1.02D-05
 ErrMax= 1.02D-05  0.00D+00 EMaxC= 1.00D-01 BMatC= 1.33D-08 BMatP= 1.73D-07
 IDIUse=1 WtCom= 1.00D+00 WtEn= 0.00D+00
 Coeff-Com:  0.488D-04-0.115D-03-0.397D-03-0.210D-02-0.826D-03 0.683D-02
 Coeff-Com:  0.225D+00 0.772D+00
 Coeff:      0.488D-04-0.115D-03-0.397D-03-0.210D-02-0.826D-03 0.683D-02
 Coeff:      0.225D+00 0.772D+00
 Gap=     0.270 Goal=   None    Shift=    0.000
 RMSDP=1.45D-06 MaxDP=2.25D-05 DE=-1.47D-07 OVMax= 3.14D-05

 Cycle   9  Pass 1  IDiag  1:
 E= -229.091624754688     Delta-E=       -0.000000012337 Rises=F Damp=F
 DIIS: error= 8.23D-07 at cycle   9 NSaved=   9.
 NSaved= 9 IEnMin= 9 EnMin= -229.091624754688     IErMin= 9 ErrMin= 8.23D-07
 ErrMax= 8.23D-07  0.00D+00 EMaxC= 1.00D-01 BMatC= 1.08D-10 BMatP= 1.33D-08
 IDIUse=1 WtCom= 1.00D+00 WtEn= 0.00D+00
 Coeff-Com:  0.465D-05 0.763D-05-0.200D-03-0.662D-03-0.112D-02-0.607D-02
 Coeff-Com:  0.267D-01 0.147D+00 0.834D+00
 Coeff:      0.465D-05 0.763D-05-0.200D-03-0.662D-03-0.112D-02-0.607D-02
 Coeff:      0.267D-01 0.147D+00 0.834D+00
 Gap=     0.270 Goal=   None    Shift=    0.000
 RMSDP=2.22D-07 MaxDP=3.42D-06 DE=-1.23D-08 OVMax= 5.18D-06

 Cycle  10  Pass 1  IDiag  1:
 E= -229.091624754807     Delta-E=       -0.000000000118 Rises=F Damp=F
 DIIS: error= 1.57D-07 at cycle  10 NSaved=  10.
 NSaved=10 IEnMin=10 EnMin= -229.091624754807     IErMin=10 ErrMin= 1.57D-07
 ErrMax= 1.57D-07  0.00D+00 EMaxC= 1.00D-01 BMatC= 3.87D-12 BMatP= 1.08D-10
 IDIUse=1 WtCom= 1.00D+00 WtEn= 0.00D+00
 Coeff-Com: -0.146D-05 0.378D-05-0.116D-04-0.168D-04-0.134D-03-0.128D-02
 Coeff-Com: -0.376D-02-0.889D-02 0.109D+00 0.905D+00
 Coeff:     -0.146D-05 0.378D-05-0.116D-04-0.168D-04-0.134D-03-0.128D-02
 Coeff:     -0.376D-02-0.889D-02 0.109D+00 0.905D+00
 Gap=     0.270 Goal=   None    Shift=    0.000
 RMSDP=5.87D-08 MaxDP=1.61D-06 DE=-1.18D-10 OVMax= 9.28D-07

 Cycle  11  Pass 1  IDiag  1:
 E= -229.091624754809     Delta-E=       -0.000000000002 Rises=F Damp=F
 DIIS: error= 5.13D-08 at cycle  11 NSaved=  11.
 NSaved=11 IEnMin=11 EnMin= -229.091624754809     IErMin=11 ErrMin= 5.13D-08
 ErrMax= 5.13D-08  0.00D+00 EMaxC= 1.00D-01 BMatC= 3.09D-13 BMatP= 3.87D-12
 IDIUse=1 WtCom= 1.00D+00 WtEn= 0.00D+00
 Coeff-Com: -0.252D-06 0.298D-06 0.366D-05 0.110D-04 0.335D-05-0.103D-03
 Coeff-Com: -0.140D-02-0.546D-02-0.368D-02 0.155D+00 0.855D+00
 Coeff:     -0.252D-06 0.298D-06 0.366D-05 0.110D-04 0.335D-05-0.103D-03
 Coeff:     -0.140D-02-0.546D-02-0.368D-02 0.155D+00 0.855D+00
 Gap=     0.270 Goal=   None    Shift=    0.000
 RMSDP=6.66D-09 MaxDP=9.78D-08 DE=-2.27D-12 OVMax= 1.87D-07

 SCF Done:  E(RB3LYP) =  -229.091624755     A.U. after   11 cycles
            NFock= 11  Conv=0.67D-08     -V/T= 2.0089
 KE= 2.270786998918D+02 PE=-7.772656322745D+02 EE= 2.006876930168D+02
 Leave Link  502 at Wed Sep 11 21:57:34 2024, MaxMem=   268435456 cpu:         9.4
 (Enter /g100_work/pMI24_ChiCa/g09d1/g09d01/d01/build-node-6-2-59348/src/main/l601.exe)
 Copying SCF densities to generalized density rwf, IOpCl= 0 IROHF=0.

 **********************************************************************

            Population analysis using the SCF density.

 **********************************************************************

 Orbital symmetries:
       Occupied  (A') (A') (A') (A') (A') (A') (A') (A') (A') (A")
                 (A') (A') (A") (A') (A") (A')
       Virtual   (A') (A") (A') (A") (A') (A') (A') (A") (A') (A')
                 (A") (A') (A') (A') (A") (A') (A') (A") (A') (A')
                 (A') (A') (A') (A') (A") (A') (A') (A") (A') (A')
                 (A") (A') (A') (A') (A') (A') (A") (A") (A') (A")
                 (A') (A') (A') (A") (A') (A') (A") (A") (A') (A')
                 (A') (A") (A') (A") (A') (A") (A') (A") (A') (A')
                 (A') (A") (A') (A") (A') (A') (A") (A') (A") (A')
                 (A') (A') (A') (A') (A") (A') (A') (A') (A') (A')
 The electronic state is 1-A'.
 Alpha  occ. eigenvalues --  -19.21846 -19.15114 -10.33931 -10.21670  -1.11313
 Alpha  occ. eigenvalues --   -1.03136  -0.77745  -0.63327  -0.53125  -0.48513
 Alpha  occ. eigenvalues --   -0.48198  -0.43075  -0.41225  -0.39869  -0.33063
 Alpha  occ. eigenvalues --   -0.28555
 Alpha virt. eigenvalues --   -0.01585  -0.01530   0.02332   0.04384   0.04506
 Alpha virt. eigenvalues --    0.07114   0.07935   0.09013   0.11281   0.14102
 Alpha virt. eigenvalues --    0.16151   0.17401   0.19430   0.22016   0.22711
 Alpha virt. eigenvalues --    0.23561   0.27760   0.28830   0.29062   0.30326
 Alpha virt. eigenvalues --    0.32284   0.35254   0.36527   0.42611   0.61613
 Alpha virt. eigenvalues --    0.61632   0.65569   0.69196   0.75122   0.78740
 Alpha virt. eigenvalues --    0.89712   0.93280   0.96022   1.06773   1.08702
 Alpha virt. eigenvalues --    1.10360   1.12420   1.22817   1.23952   1.28550
 Alpha virt. eigenvalues --    1.29866   1.32500   1.36470   1.42653   1.48021
 Alpha virt. eigenvalues --    1.53138   1.55104   1.71014   1.72547   1.75678
 Alpha virt. eigenvalues --    1.81071   1.85863   1.92982   2.00667   2.01829
 Alpha virt. eigenvalues --    2.09185   2.13146   2.21174   2.23631   2.29141
 Alpha virt. eigenvalues --    2.44343   2.46579   2.47219   2.56740   2.66279
 Alpha virt. eigenvalues --    2.69919   2.70107   2.80927   2.88008   2.97075
 Alpha virt. eigenvalues --    3.06847   3.22758   3.29114   3.43177   3.43384
 Alpha virt. eigenvalues --    3.52255   4.18558   4.27081   4.34062   4.59049
     Molecular Orbital Coefficients:
                           1         2         3         4         5
                           O         O         O         O         O
     Eigenvalues --   -19.21846 -19.15114 -10.33931 -10.21670  -1.11313
   1 1   C  1S         -0.00004  -0.00001   0.99317  -0.00118  -0.11046
   2        2S          0.00009   0.00043   0.04913  -0.00025   0.21411
   3        2PX         0.00039  -0.00009   0.00076   0.00016   0.06642
   4        2PY        -0.00001   0.00022   0.00042   0.00003   0.04927
   5        2PZ         0.00000   0.00000   0.00000   0.00000   0.00000
   6        3S         -0.00020  -0.00027  -0.01626   0.00295   0.05295
   7        3PX        -0.00034   0.00051  -0.00014  -0.00238  -0.02751
   8        3PY        -0.00062  -0.00087   0.00212  -0.00468  -0.04353
   9        3PZ         0.00000   0.00000   0.00000   0.00000   0.00000
  10        4S          0.00020   0.00339  -0.01082  -0.00197   0.06008
  11        4PX         0.00237  -0.00161   0.00104   0.00067  -0.00373
  12        4PY         0.00010   0.00139   0.00337   0.00013  -0.00920
  13        4PZ         0.00000   0.00000   0.00000   0.00000   0.00000
  14        5XX         0.00031  -0.00017  -0.00825  -0.00025   0.00925
  15        5YY        -0.00010  -0.00044  -0.00819  -0.00043  -0.00242
  16        5ZZ        -0.00010  -0.00016  -0.00901  -0.00007  -0.01895
  17        5XY        -0.00007   0.00018  -0.00033  -0.00011  -0.01270
  18        5XZ         0.00000   0.00000   0.00000   0.00000   0.00000
  19        5YZ         0.00000   0.00000   0.00000   0.00000   0.00000
  20 2   C  1S          0.00001   0.00000   0.00096   0.99293  -0.01755
  21        2S          0.00010   0.00009  -0.00012   0.05086   0.03350
  22        2PX        -0.00003   0.00002  -0.00012   0.00014   0.01746
  23        2PY         0.00001  -0.00004  -0.00005   0.00012   0.01911
  24        2PZ         0.00000   0.00000   0.00000   0.00000   0.00000
  25        3S         -0.00059  -0.00014   0.00404  -0.02104  -0.01241
  26        3PX        -0.00008  -0.00025   0.00155  -0.00148  -0.00315
  27        3PY        -0.00015   0.00020   0.00070  -0.00189  -0.00850
  28        3PZ         0.00000   0.00000   0.00000   0.00000   0.00000
  29        4S          0.00154  -0.00134   0.00788  -0.00008  -0.04206
  30        4PX        -0.00034   0.00034   0.00125   0.00015  -0.00770
  31        4PY         0.00066  -0.00065   0.00092   0.00028  -0.00735
  32        4PZ         0.00000   0.00000   0.00000   0.00000   0.00000
  33        5XX        -0.00004   0.00001  -0.00022  -0.00911   0.00223
  34        5YY        -0.00000  -0.00012  -0.00031  -0.00913   0.00307
  35        5ZZ         0.00003  -0.00001  -0.00013  -0.00900  -0.00145
  36        5XY        -0.00000   0.00002  -0.00018  -0.00015   0.00465
  37        5XZ         0.00000   0.00000   0.00000   0.00000   0.00000
  38        5YZ         0.00000   0.00000   0.00000   0.00000   0.00000
  39 3   H  1S          0.00000   0.00004  -0.00013  -0.00013   0.00854
  40        2S          0.00022   0.00014  -0.00105   0.00338   0.00342
  41        3PX         0.00002  -0.00005   0.00002   0.00012   0.00021
  42        3PY         0.00003  -0.00001   0.00003  -0.00011   0.00146
  43        3PZ         0.00000   0.00000   0.00000   0.00000   0.00000
  44 4   H  1S          0.00002  -0.00000  -0.00008  -0.00013   0.00650
  45        2S         -0.00001   0.00006  -0.00005   0.00358   0.00064
  46        3PX        -0.00001   0.00002   0.00001  -0.00003   0.00037
  47        3PY        -0.00000   0.00003   0.00003   0.00006   0.00021
  48        3PZ        -0.00000   0.00000  -0.00004   0.00012  -0.00068
  49 5   H  1S          0.00002  -0.00000  -0.00008  -0.00013   0.00650
  50        2S         -0.00001   0.00006  -0.00005   0.00358   0.00064
  51        3PX        -0.00001   0.00002   0.00001  -0.00003   0.00037
  52        3PY        -0.00000   0.00003   0.00003   0.00006   0.00021
  53        3PZ         0.00000  -0.00000   0.00004  -0.00012   0.00068
  54 6   O  1S         -0.00003   0.99259  -0.00011  -0.00006  -0.08715
  55        2S          0.00009   0.02528   0.00043  -0.00035   0.18734
  56        2PX        -0.00001   0.00054  -0.00000  -0.00004   0.04080
  57        2PY        -0.00001  -0.00118  -0.00001   0.00006  -0.07473
  58        2PZ         0.00000   0.00000   0.00000   0.00000   0.00000
  59        3S         -0.00005   0.01535  -0.00220   0.00187   0.18500
  60        3PX         0.00018  -0.00016  -0.00056   0.00093   0.02448
  61        3PY        -0.00000   0.00022   0.00100  -0.00082  -0.02936
  62        3PZ         0.00000   0.00000   0.00000   0.00000   0.00000
  63        4S          0.00144  -0.00629   0.00464   0.00226  -0.00008
  64        4PX         0.00007   0.00009   0.00068  -0.00018   0.00694
  65        4PY        -0.00042   0.00004  -0.00282  -0.00060   0.00018
  66        4PZ         0.00000   0.00000   0.00000   0.00000   0.00000
  67        5XX        -0.00003  -0.00857   0.00021  -0.00005  -0.00179
  68        5YY         0.00001  -0.00847   0.00005   0.00000   0.00336
  69        5ZZ         0.00008  -0.00859   0.00040  -0.00033  -0.00376
  70        5XY         0.00004  -0.00004   0.00018  -0.00011  -0.00789
  71        5XZ         0.00000   0.00000   0.00000   0.00000   0.00000
  72        5YZ         0.00000   0.00000   0.00000   0.00000   0.00000
  73 7   O  1S          0.99259   0.00005   0.00000  -0.00002  -0.17543
  74        2S          0.02546   0.00010   0.00035  -0.00013   0.38387
  75        2PX        -0.00065   0.00001   0.00006   0.00005  -0.08360
  76        2PY        -0.00104  -0.00001   0.00003  -0.00003  -0.06134
  77        2PZ         0.00000   0.00000   0.00000   0.00000   0.00000
  78        3S          0.01460  -0.00043  -0.00048   0.00045   0.38040
  79        3PX         0.00047   0.00001   0.00066  -0.00029  -0.05431
  80        3PY         0.00069   0.00012  -0.00056   0.00059  -0.01137
  81        3PZ         0.00000   0.00000   0.00000   0.00000   0.00000
  82        4S         -0.00581   0.00075   0.00661   0.00141  -0.01917
  83        4PX         0.00029   0.00004  -0.00240  -0.00068   0.01308
  84        4PY        -0.00089  -0.00013  -0.00187  -0.00012  -0.00811
  85        4PZ         0.00000   0.00000   0.00000   0.00000   0.00000
  86        5XX        -0.00876   0.00000  -0.00051   0.00002   0.00945
  87        5YY        -0.00847  -0.00004   0.00032  -0.00002  -0.00439
  88        5ZZ        -0.00852   0.00005   0.00033  -0.00017  -0.00947
  89        5XY        -0.00001   0.00014   0.00010  -0.00010  -0.00098
  90        5XZ         0.00000   0.00000   0.00000   0.00000   0.00000
  91        5YZ         0.00000   0.00000   0.00000   0.00000   0.00000
  92 8   H  1S          0.00029   0.00007   0.00009   0.00005   0.12053
  93        2S         -0.00079  -0.00009  -0.00208  -0.00035  -0.00302
  94        3PX         0.00003   0.00006  -0.00017   0.00004  -0.00626
  95        3PY        -0.00016   0.00006  -0.00006   0.00001   0.01890
  96        3PZ         0.00000   0.00000   0.00000   0.00000   0.00000
                           6         7         8         9        10
                           O         O         O         O         O
     Eigenvalues --    -1.03136  -0.77745  -0.63327  -0.53125  -0.48513
   1 1   C  1S         -0.06885  -0.06225   0.09826   0.08942   0.00000
   2        2S          0.13900   0.12617  -0.22036  -0.20027   0.00000
   3        2PX        -0.14362  -0.07727  -0.22213   0.18717   0.00000
   4        2PY         0.17718  -0.17879   0.03058   0.18271   0.00000
   5        2PZ         0.00000   0.00000   0.00000   0.00000   0.28260
   6        3S          0.06147   0.10130  -0.20225  -0.19005   0.00000
   7        3PX         0.01796   0.00232  -0.01453   0.02781   0.00000
   8        3PY        -0.02197  -0.02919   0.01443   0.09810   0.00000
   9        3PZ         0.00000   0.00000   0.00000   0.00000   0.11411
  10        4S          0.08566   0.02729  -0.02116  -0.06221   0.00000
  11        4PX        -0.03714  -0.00373   0.00907   0.01286   0.00000
  12        4PY        -0.00360  -0.01954   0.00943   0.04076   0.00000
  13        4PZ         0.00000   0.00000   0.00000   0.00000   0.01646
  14        5XX        -0.02386  -0.00144  -0.01124   0.01278   0.00000
  15        5YY         0.02039   0.00037   0.01862   0.00372   0.00000
  16        5ZZ        -0.01223  -0.00521   0.01166   0.00626   0.00000
  17        5XY        -0.01132   0.01425  -0.00993   0.00870   0.00000
  18        5XZ         0.00000   0.00000   0.00000   0.00000  -0.00133
  19        5YZ         0.00000   0.00000   0.00000   0.00000  -0.00017
  20 2   C  1S         -0.01102  -0.18838  -0.03371  -0.04973   0.00000
  21        2S          0.02126   0.36153   0.06340   0.09674   0.00000
  22        2PX        -0.00074   0.03083  -0.05909  -0.19429   0.00000
  23        2PY         0.02017   0.02692  -0.04090  -0.24414   0.00000
  24        2PZ         0.00000   0.00000   0.00000   0.00000   0.33363
  25        3S          0.00493   0.32888   0.09108   0.13724   0.00000
  26        3PX        -0.01412   0.01357  -0.01537  -0.06082   0.00000
  27        3PY         0.00851   0.00766   0.00473  -0.08853   0.00000
  28        3PZ         0.00000   0.00000   0.00000   0.00000   0.15958
  29        4S         -0.06971  -0.01650   0.02842   0.07448   0.00000
  30        4PX        -0.00056  -0.00500   0.00195   0.00216   0.00000
  31        4PY        -0.02102  -0.00205   0.00344  -0.00267   0.00000
  32        4PZ         0.00000   0.00000   0.00000   0.00000   0.01467
  33        5XX        -0.00223  -0.00695  -0.00528  -0.00308   0.00000
  34        5YY         0.00470  -0.00720  -0.00255  -0.01196   0.00000
  35        5ZZ        -0.00052  -0.01016   0.00043   0.00774   0.00000
  36        5XY         0.00190   0.00366  -0.00609  -0.01507   0.00000
  37        5XZ         0.00000   0.00000   0.00000   0.00000  -0.00972
  38        5YZ         0.00000   0.00000   0.00000   0.00000   0.00773
  39 3   H  1S          0.00113   0.12604   0.03284   0.09794   0.00000
  40        2S          0.00295   0.02783   0.02115   0.04508   0.00000
  41        3PX        -0.00086  -0.00590  -0.00165  -0.00750   0.00000
  42        3PY        -0.00055   0.01091   0.00142   0.00092   0.00000
  43        3PZ         0.00000   0.00000   0.00000   0.00000   0.00600
  44 4   H  1S          0.00586   0.12045   0.04275   0.10928   0.16389
  45        2S         -0.00061   0.02314   0.01460   0.05873   0.09399
  46        3PX         0.00086   0.00731   0.00143   0.00062   0.00594
  47        3PY         0.00050   0.00018  -0.00053  -0.00469   0.00071
  48        3PZ        -0.00043  -0.00969  -0.00291  -0.00586  -0.00145
  49 5   H  1S          0.00586   0.12045   0.04275   0.10928  -0.16389
  50        2S         -0.00061   0.02314   0.01460   0.05873  -0.09399
  51        3PX         0.00086   0.00731   0.00143   0.00062  -0.00594
  52        3PY         0.00050   0.00018  -0.00053  -0.00469  -0.00071
  53        3PZ         0.00043   0.00969   0.00291   0.00586  -0.00145
  54 6   O  1S         -0.17486   0.04618  -0.05947  -0.03444   0.00000
  55        2S          0.37907  -0.10531   0.13265   0.08452   0.00000
  56        2PX         0.04955  -0.03119  -0.08720   0.07556   0.00000
  57        2PY        -0.13250  -0.01238   0.03503   0.13784   0.00000
  58        2PZ         0.00000   0.00000   0.00000   0.00000   0.19450
  59        3S          0.36751  -0.10866   0.18286   0.08632   0.00000
  60        3PX         0.01119  -0.01160  -0.04118   0.03534   0.00000
  61        3PY        -0.04300  -0.01055   0.00933   0.07983   0.00000
  62        3PZ         0.00000   0.00000   0.00000   0.00000   0.10406
  63        4S         -0.03436  -0.00703   0.02873  -0.00785   0.00000
  64        4PX         0.00347  -0.00161   0.00124  -0.00035   0.00000
  65        4PY        -0.00024   0.01038  -0.00995   0.00068   0.00000
  66        4PZ         0.00000   0.00000   0.00000   0.00000   0.00018
  67        5XX        -0.00870  -0.00171  -0.00554   0.00822   0.00000
  68        5YY         0.00529   0.00511  -0.00436  -0.01254   0.00000
  69        5ZZ        -0.00749   0.00017  -0.00017   0.00319   0.00000
  70        5XY        -0.00573   0.00233   0.00760  -0.00253   0.00000
  71        5XZ         0.00000   0.00000   0.00000   0.00000   0.00600
  72        5YZ         0.00000   0.00000   0.00000   0.00000  -0.01520
  73 7   O  1S          0.11115   0.03373  -0.02064  -0.04673   0.00000
  74        2S         -0.24476  -0.07771   0.04459   0.11226   0.00000
  75        2PX         0.01447  -0.04344   0.35670   0.01631   0.00000
  76        2PY         0.07101  -0.00375  -0.29048   0.25636   0.00000
  77        2PZ         0.00000   0.00000   0.00000   0.00000   0.22463
  78        3S         -0.25674  -0.09829   0.05647   0.16972   0.00000
  79        3PX         0.01363  -0.01674   0.16447   0.01646   0.00000
  80        3PY         0.02916  -0.00219  -0.13167   0.12945   0.00000
  81        3PZ         0.00000   0.00000   0.00000   0.00000   0.13547
  82        4S         -0.00868  -0.02616  -0.00837   0.05224   0.00000
  83        4PX         0.00910   0.00566   0.00722  -0.00624   0.00000
  84        4PY         0.01112   0.01243  -0.01012  -0.00837   0.00000
  85        4PZ         0.00000   0.00000   0.00000   0.00000   0.01117
  86        5XX         0.00415   0.00446  -0.02423  -0.00077   0.00000
  87        5YY         0.00048  -0.00149   0.02008  -0.00865   0.00000
  88        5ZZ         0.00571  -0.00007  -0.00135   0.00488   0.00000
  89        5XY        -0.00300   0.00510  -0.00352  -0.01190   0.00000
  90        5XZ         0.00000   0.00000   0.00000   0.00000  -0.01391
  91        5YZ         0.00000   0.00000   0.00000   0.00000  -0.00685
  92 8   H  1S         -0.09477  -0.02513   0.22272  -0.10418   0.00000
  93        2S          0.00247   0.01110   0.09336  -0.07579   0.00000
  94        3PX         0.00489  -0.00165   0.00363   0.00416   0.00000
  95        3PY        -0.01363  -0.00383   0.01705  -0.00462   0.00000
  96        3PZ         0.00000   0.00000   0.00000   0.00000   0.00776
                          11        12        13        14        15
                           O         O         O         O         O
     Eigenvalues --    -0.48198  -0.43075  -0.41225  -0.39869  -0.33063
   1 1   C  1S          0.02520   0.02775   0.00000   0.00890   0.00000
   2        2S         -0.06456  -0.07356   0.00000  -0.02327   0.00000
   3        2PX         0.17442   0.08356   0.00000  -0.16963   0.00000
   4        2PY        -0.13904  -0.27399   0.00000  -0.17340   0.00000
   5        2PZ         0.00000   0.00000   0.20107   0.00000   0.16198
   6        3S         -0.12202  -0.08364   0.00000  -0.01088   0.00000
   7        3PX         0.08793   0.00284   0.00000  -0.04370   0.00000
   8        3PY        -0.11412  -0.07482   0.00000   0.01152   0.00000
   9        3PZ         0.00000   0.00000   0.09732   0.00000   0.09245
  10        4S          0.01368   0.00510   0.00000  -0.02826   0.00000
  11        4PX         0.00110  -0.01466   0.00000  -0.00711   0.00000
  12        4PY        -0.01668   0.00307   0.00000   0.03308   0.00000
  13        4PZ         0.00000   0.00000   0.02717   0.00000   0.03406
  14        5XX        -0.00178   0.02568   0.00000  -0.00226   0.00000
  15        5YY         0.00783  -0.01864   0.00000   0.00036   0.00000
  16        5ZZ         0.00226   0.00651   0.00000   0.00490   0.00000
  17        5XY        -0.00680   0.00831   0.00000   0.01977   0.00000
  18        5XZ         0.00000   0.00000   0.01841   0.00000  -0.02875
  19        5YZ         0.00000   0.00000   0.01393   0.00000   0.02962
  20 2   C  1S          0.00402  -0.00264   0.00000  -0.01144   0.00000
  21        2S         -0.01083   0.00767   0.00000   0.02329   0.00000
  22        2PX         0.23700  -0.16123   0.00000   0.27004   0.00000
  23        2PY        -0.20813   0.23180   0.00000   0.05515   0.00000
  24        2PZ         0.00000   0.00000  -0.30385   0.00000  -0.06838
  25        3S         -0.02940   0.01209   0.00000   0.08263   0.00000
  26        3PX         0.08964  -0.07150   0.00000   0.13428   0.00000
  27        3PY        -0.06790   0.09489   0.00000   0.03798   0.00000
  28        3PZ         0.00000   0.00000  -0.13989   0.00000  -0.06304
  29        4S         -0.02286  -0.01476   0.00000   0.03215   0.00000
  30        4PX         0.00658  -0.01015   0.00000   0.02454   0.00000
  31        4PY        -0.01114   0.00980   0.00000   0.00454   0.00000
  32        4PZ         0.00000   0.00000  -0.02694   0.00000  -0.03474
  33        5XX         0.00487   0.00168   0.00000  -0.00155   0.00000
  34        5YY         0.00578  -0.01129   0.00000   0.01074   0.00000
  35        5ZZ        -0.01067   0.00833   0.00000  -0.01178   0.00000
  36        5XY        -0.00909   0.01156   0.00000   0.00111   0.00000
  37        5XZ         0.00000   0.00000   0.01872   0.00000   0.00549
  38        5YZ         0.00000   0.00000   0.00246   0.00000   0.00502
  39 3   H  1S          0.18921  -0.19427   0.00000   0.07896   0.00000
  40        2S          0.15710  -0.16490   0.00000   0.05602   0.00000
  41        3PX         0.00069   0.00176   0.00000   0.00166   0.00000
  42        3PY         0.00635  -0.00378   0.00000   0.00384   0.00000
  43        3PZ         0.00000   0.00000  -0.00591   0.00000  -0.00168
  44 4   H  1S         -0.08858   0.06816  -0.17131  -0.09736  -0.04332
  45        2S         -0.05751   0.05252  -0.13679  -0.08015  -0.01260
  46        3PX         0.00122  -0.00120  -0.00511   0.00252  -0.00011
  47        3PY        -0.00439   0.00459   0.00094   0.00161   0.00159
  48        3PZ         0.00394  -0.00292   0.00129   0.00425   0.00007
  49 5   H  1S         -0.08858   0.06816   0.17131  -0.09736   0.04332
  50        2S         -0.05751   0.05252   0.13679  -0.08015   0.01260
  51        3PX         0.00122  -0.00120   0.00511   0.00252   0.00011
  52        3PY        -0.00439   0.00459  -0.00094   0.00161  -0.00159
  53        3PZ        -0.00394   0.00292   0.00129  -0.00425   0.00007
  54 6   O  1S         -0.06877  -0.06114   0.00000  -0.01426   0.00000
  55        2S          0.14212   0.13094   0.00000   0.03324   0.00000
  56        2PX        -0.03546  -0.23448   0.00000  -0.18179   0.00000
  57        2PY         0.26293   0.34734   0.00000   0.08588   0.00000
  58        2PZ         0.00000   0.00000   0.19659   0.00000   0.46811
  59        3S          0.33555   0.27157   0.00000   0.03791   0.00000
  60        3PX         0.00530  -0.11029   0.00000  -0.10337   0.00000
  61        3PY         0.07957   0.14289   0.00000   0.04351   0.00000
  62        3PZ         0.00000   0.00000   0.11257   0.00000   0.29405
  63        4S          0.07824   0.05112   0.00000   0.00580   0.00000
  64        4PX        -0.00631  -0.01309   0.00000  -0.00858   0.00000
  65        4PY         0.00743   0.02135   0.00000  -0.00238   0.00000
  66        4PZ         0.00000   0.00000   0.00285   0.00000   0.05971
  67        5XX        -0.00289  -0.00268   0.00000  -0.00497   0.00000
  68        5YY        -0.01821  -0.01302   0.00000   0.00328   0.00000
  69        5ZZ        -0.00063   0.00363   0.00000   0.00204   0.00000
  70        5XY         0.00105   0.01271   0.00000   0.01212   0.00000
  71        5XZ         0.00000   0.00000   0.00709   0.00000   0.00911
  72        5YZ         0.00000   0.00000  -0.01277   0.00000  -0.02438
  73 7   O  1S          0.04161  -0.00714   0.00000  -0.05667   0.00000
  74        2S         -0.09262   0.01858   0.00000   0.12454   0.00000
  75        2PX        -0.18224  -0.13918   0.00000   0.28661   0.00000
  76        2PY        -0.15744   0.01046   0.00000   0.36824   0.00000
  77        2PZ         0.00000   0.00000   0.39273   0.00000  -0.43108
  78        3S         -0.18011   0.04136   0.00000   0.24290   0.00000
  79        3PX        -0.09560  -0.07978   0.00000   0.16871   0.00000
  80        3PY        -0.07584   0.00193   0.00000   0.20332   0.00000
  81        3PZ         0.00000   0.00000   0.25062   0.00000  -0.29730
  82        4S         -0.04186   0.04108   0.00000   0.06565   0.00000
  83        4PX        -0.02196  -0.01632   0.00000   0.03963   0.00000
  84        4PY         0.01429  -0.00670   0.00000   0.00062   0.00000
  85        4PZ         0.00000   0.00000   0.03801   0.00000  -0.08337
  86        5XX         0.00464   0.00357   0.00000  -0.00404   0.00000
  87        5YY         0.00607  -0.00506   0.00000  -0.01516   0.00000
  88        5ZZ        -0.00275  -0.00037   0.00000   0.00562   0.00000
  89        5XY         0.01308   0.00848   0.00000  -0.01419   0.00000
  90        5XZ         0.00000   0.00000  -0.01734   0.00000   0.00999
  91        5YZ         0.00000   0.00000  -0.01120   0.00000   0.01633
  92 8   H  1S          0.04193  -0.03964   0.00000  -0.13746   0.00000
  93        2S          0.06431  -0.05759   0.00000  -0.12238   0.00000
  94        3PX        -0.00939  -0.00350   0.00000   0.01180   0.00000
  95        3PY        -0.00105  -0.00053   0.00000  -0.00397   0.00000
  96        3PZ         0.00000   0.00000   0.01302   0.00000  -0.01553
                          16        17        18        19        20
                           O         V         V         V         V
     Eigenvalues --    -0.28555  -0.01585  -0.01530   0.02332   0.04384
   1 1   C  1S         -0.01780  -0.01333   0.00000  -0.01720   0.00000
   2        2S          0.03673   0.00574   0.00000   0.04587   0.00000
   3        2PX        -0.01271   0.03929   0.00000  -0.05605   0.00000
   4        2PY        -0.07590  -0.00284   0.00000  -0.06962   0.00000
   5        2PZ         0.00000   0.00000   0.54544   0.00000  -0.00602
   6        3S          0.10741   0.19056   0.00000   0.15761   0.00000
   7        3PX         0.09147   0.19703   0.00000  -0.15456   0.00000
   8        3PY         0.01714   0.18267   0.00000  -0.06350   0.00000
   9        3PZ         0.00000   0.00000   0.54968   0.00000  -0.05681
  10        4S          0.08924   2.07945   0.00000   5.29501   0.00000
  11        4PX         0.02902   0.27496   0.00000  -1.63551   0.00000
  12        4PY        -0.01617  -0.45626   0.00000  -0.94526   0.00000
  13        4PZ         0.00000   0.00000   0.28973   0.00000   0.26739
  14        5XX        -0.03495  -0.00479   0.00000  -0.01031   0.00000
  15        5YY         0.02953  -0.01181   0.00000   0.00802   0.00000
  16        5ZZ         0.00322   0.01354   0.00000   0.00027   0.00000
  17        5XY         0.03653   0.00078   0.00000  -0.00320   0.00000
  18        5XZ         0.00000   0.00000   0.00082   0.00000   0.00250
  19        5YZ         0.00000   0.00000  -0.02996   0.00000  -0.00236
  20 2   C  1S         -0.02712   0.06275   0.00000   0.03987   0.00000
  21        2S          0.06051  -0.14665   0.00000  -0.08745   0.00000
  22        2PX         0.07020  -0.02379   0.00000   0.11219   0.00000
  23        2PY         0.18438   0.07968   0.00000  -0.00505   0.00000
  24        2PZ         0.00000   0.00000   0.01444   0.00000  -0.18594
  25        3S          0.16730  -0.36553   0.00000  -0.34433   0.00000
  26        3PX         0.08069   0.03686   0.00000   0.12488   0.00000
  27        3PY         0.09996   0.20209   0.00000  -0.08348   0.00000
  28        3PZ         0.00000   0.00000   0.20689   0.00000  -0.12343
  29        4S         -0.04902  -0.17724   0.00000  -4.75490   0.00000
  30        4PX        -0.00313  -0.13027   0.00000  -1.50560   0.00000
  31        4PY         0.00925  -0.34291   0.00000  -1.86526   0.00000
  32        4PZ         0.00000   0.00000  -0.18516   0.00000   1.05469
  33        5XX         0.00057   0.00583   0.00000   0.00353   0.00000
  34        5YY        -0.00619   0.00188   0.00000   0.00857   0.00000
  35        5ZZ         0.00100   0.01102   0.00000  -0.00431   0.00000
  36        5XY         0.00965   0.00146   0.00000   0.00981   0.00000
  37        5XZ         0.00000   0.00000   0.03012   0.00000   0.00754
  38        5YZ         0.00000   0.00000   0.02061   0.00000  -0.00358
  39 3   H  1S         -0.07176  -0.01609   0.00000  -0.00639   0.00000
  40        2S         -0.11656  -0.01869   0.00000  -0.03317   0.00000
  41        3PX         0.00293   0.00891   0.00000  -0.00422   0.00000
  42        3PY         0.00165  -0.00920   0.00000  -0.00485   0.00000
  43        3PZ         0.00000   0.00000  -0.00110   0.00000   0.00279
  44 4   H  1S          0.00236   0.01664  -0.10187  -0.01910  -0.04062
  45        2S          0.00929  -0.00238  -0.34330   0.02253  -0.18675
  46        3PX         0.00150  -0.00441   0.00267  -0.00606  -0.00494
  47        3PY         0.00299   0.00046   0.00370  -0.00344  -0.00093
  48        3PZ        -0.00022   0.00765  -0.00009   0.00583   0.00883
  49 5   H  1S          0.00236   0.01664   0.10187  -0.01910   0.04062
  50        2S          0.00929  -0.00238   0.34330   0.02253   0.18675
  51        3PX         0.00150  -0.00441  -0.00267  -0.00606   0.00494
  52        3PY         0.00299   0.00046  -0.00370  -0.00344   0.00093
  53        3PZ         0.00022  -0.00765  -0.00009  -0.00583   0.00883
  54 6   O  1S          0.00083   0.01786   0.00000  -0.00189   0.00000
  55        2S         -0.00129  -0.03942   0.00000  -0.01625   0.00000
  56        2PX         0.52729  -0.04189   0.00000   0.06910   0.00000
  57        2PY         0.28590   0.01926   0.00000   0.01470   0.00000
  58        2PZ         0.00000   0.00000  -0.36896   0.00000  -0.06825
  59        3S         -0.01222  -0.14586   0.00000   0.07892   0.00000
  60        3PX         0.33468  -0.05664   0.00000   0.03038   0.00000
  61        3PY         0.18200   0.02328   0.00000   0.03396   0.00000
  62        3PZ         0.00000   0.00000  -0.32666   0.00000  -0.01674
  63        4S         -0.00625  -0.23476   0.00000  -0.63530   0.00000
  64        4PX         0.06887  -0.07515   0.00000   0.12993   0.00000
  65        4PY         0.03964   0.11224   0.00000   0.13552   0.00000
  66        4PZ         0.00000   0.00000  -0.24346   0.00000  -0.19799
  67        5XX         0.01591   0.00247   0.00000  -0.00781   0.00000
  68        5YY        -0.01559   0.00244   0.00000  -0.00969   0.00000
  69        5ZZ         0.00171   0.00658   0.00000  -0.00574   0.00000
  70        5XY        -0.01538   0.00362   0.00000  -0.00038   0.00000
  71        5XZ         0.00000   0.00000   0.00197   0.00000  -0.00112
  72        5YZ         0.00000   0.00000  -0.00455   0.00000   0.00090
  73 7   O  1S          0.02196   0.04390   0.00000  -0.02646   0.00000
  74        2S         -0.04918  -0.11135   0.00000   0.06319   0.00000
  75        2PX         0.19205  -0.00532   0.00000   0.08115   0.00000
  76        2PY        -0.01180   0.13361   0.00000  -0.09621   0.00000
  77        2PZ         0.00000   0.00000  -0.23780   0.00000  -0.09212
  78        3S         -0.15591  -0.32564   0.00000   0.21285   0.00000
  79        3PX         0.15234   0.01652   0.00000   0.06016   0.00000
  80        3PY        -0.00151   0.14698   0.00000  -0.13897   0.00000
  81        3PZ         0.00000   0.00000  -0.20630   0.00000  -0.06053
  82        4S         -0.09104  -0.97544   0.00000   0.59655   0.00000
  83        4PX         0.03437   0.27613   0.00000  -0.14716   0.00000
  84        4PY         0.00572  -0.00481   0.00000   0.11284   0.00000
  85        4PZ         0.00000   0.00000  -0.12419   0.00000  -0.03480
  86        5XX        -0.00124   0.00029   0.00000  -0.00030   0.00000
  87        5YY         0.00886   0.00125   0.00000  -0.00376   0.00000
  88        5ZZ         0.00290   0.00944   0.00000  -0.00504   0.00000
  89        5XY        -0.00536  -0.00202   0.00000   0.00409   0.00000
  90        5XZ         0.00000   0.00000  -0.01701   0.00000   0.00020
  91        5YZ         0.00000   0.00000   0.00655   0.00000  -0.00046
  92 8   H  1S          0.03404   0.04517   0.00000  -0.05321   0.00000
  93        2S          0.06237   0.37949   0.00000  -0.29154   0.00000
  94        3PX         0.00585   0.00277   0.00000  -0.00135   0.00000
  95        3PY         0.00060  -0.01457   0.00000   0.01145   0.00000
  96        3PZ         0.00000   0.00000  -0.00922   0.00000   0.00156
                          21        22        23        24        25
                           V         V         V         V         V
     Eigenvalues --     0.04506   0.07114   0.07935   0.09013   0.11281
   1 1   C  1S         -0.00411   0.03381  -0.02762   0.00000  -0.02366
   2        2S         -0.03382  -0.05545   0.03393   0.00000  -0.00897
   3        2PX         0.06393  -0.05732  -0.05873   0.00000   0.04485
   4        2PY         0.04436   0.09118  -0.04106   0.00000  -0.04342
   5        2PZ         0.00000   0.00000   0.00000  -0.14560   0.00000
   6        3S          0.24865  -0.40788   0.49603   0.00000   0.67270
   7        3PX         0.03379  -0.22950  -0.16826   0.00000  -0.17971
   8        3PY         0.22755   0.36811  -0.01953   0.00000  -0.08080
   9        3PZ         0.00000   0.00000   0.00000  -0.13925   0.00000
  10        4S         -0.21890  -4.16796  -1.89276   0.00000  18.06427
  11        4PX         0.44331  -1.80570   0.97692   0.00000  -3.43128
  12        4PY         0.61008   2.22459   3.18136   0.00000  -4.79165
  13        4PZ         0.00000   0.00000   0.00000   2.64124   0.00000
  14        5XX        -0.01418   0.00770   0.00420   0.00000  -0.02313
  15        5YY         0.00472   0.00182  -0.00664   0.00000   0.00412
  16        5ZZ         0.00793   0.00670  -0.00370   0.00000   0.01883
  17        5XY        -0.00889   0.00186  -0.00734   0.00000  -0.01126
  18        5XZ         0.00000   0.00000   0.00000  -0.00310   0.00000
  19        5YZ         0.00000   0.00000   0.00000  -0.00383   0.00000
  20 2   C  1S          0.00697   0.01489  -0.01752   0.00000  -0.00201
  21        2S         -0.02704  -0.02906   0.03855   0.00000   0.00912
  22        2PX         0.11037  -0.03626  -0.09950   0.00000   0.00895
  23        2PY        -0.14209   0.10935  -0.03848   0.00000  -0.18471
  24        2PZ         0.00000   0.00000   0.00000   0.08895   0.00000
  25        3S         -0.02063  -0.15475   0.18430   0.00000  -0.10358
  26        3PX         0.23215   0.05254  -0.19106   0.00000   0.28240
  27        3PY        -0.14030   0.25389  -0.20595   0.00000  -0.72480
  28        3PZ         0.00000   0.00000   0.00000   0.09234   0.00000
  29        4S          1.46899   4.45777   2.83824   0.00000 -16.62365
  30        4PX        -0.25057   2.56465   0.62217   0.00000  -1.99909
  31        4PY         1.40098   0.54865  -0.69965   0.00000  -3.82325
  32        4PZ         0.00000   0.00000   0.00000  -1.95932   0.00000
  33        5XX         0.00514  -0.00663  -0.00780   0.00000  -0.00912
  34        5YY        -0.00869   0.00579   0.00842   0.00000  -0.01461
  35        5ZZ         0.00306   0.01031  -0.01235   0.00000   0.01592
  36        5XY        -0.00726  -0.01383   0.00946   0.00000   0.01256
  37        5XZ         0.00000   0.00000   0.00000  -0.00142   0.00000
  38        5YZ         0.00000   0.00000   0.00000   0.00219   0.00000
  39 3   H  1S          0.01910   0.04336  -0.01090   0.00000  -0.10214
  40        2S         -0.04309   0.08966  -0.05204   0.00000  -0.97500
  41        3PX        -0.00141   0.00495  -0.00891   0.00000  -0.00825
  42        3PY         0.00980  -0.00838  -0.00555   0.00000  -0.00176
  43        3PZ         0.00000   0.00000   0.00000  -0.00154   0.00000
  44 4   H  1S          0.01107   0.01390  -0.03087   0.00980   0.03360
  45        2S          0.05177  -0.03842  -0.02605   0.08019   0.42959
  46        3PX        -0.00216   0.00349   0.00230   0.00485   0.01022
  47        3PY         0.00246   0.00700  -0.00348   0.00351  -0.00470
  48        3PZ         0.00453   0.00423  -0.00743  -0.00377   0.00196
  49 5   H  1S          0.01107   0.01390  -0.03087  -0.00980   0.03360
  50        2S          0.05177  -0.03842  -0.02605  -0.08019   0.42959
  51        3PX        -0.00216   0.00349   0.00230  -0.00485   0.01022
  52        3PY         0.00246   0.00700  -0.00348  -0.00351  -0.00470
  53        3PZ        -0.00453  -0.00423   0.00743  -0.00377  -0.00196
  54 6   O  1S          0.01937   0.01786   0.01919   0.00000  -0.01040
  55        2S         -0.07265  -0.06560  -0.06023   0.00000   0.02122
  56        2PX        -0.00218   0.07071  -0.04427   0.00000  -0.04385
  57        2PY        -0.04988  -0.00399  -0.03943   0.00000  -0.00147
  58        2PZ         0.00000   0.00000   0.00000  -0.03843   0.00000
  59        3S         -0.07868  -0.09176  -0.12620   0.00000   0.04051
  60        3PX        -0.05249   0.00698  -0.00094   0.00000  -0.09252
  61        3PY         0.02393   0.09261   0.08066   0.00000   0.08198
  62        3PZ         0.00000   0.00000   0.00000   0.03925   0.00000
  63        4S         -1.24520  -1.47800  -0.74005   0.00000  -1.18635
  64        4PX        -0.03006   0.13942  -0.33509   0.00000   0.18443
  65        4PY         0.26675   0.11896  -0.43297   0.00000   0.24739
  66        4PZ         0.00000   0.00000   0.00000  -0.42593   0.00000
  67        5XX        -0.00575  -0.00477  -0.00629   0.00000  -0.01087
  68        5YY        -0.01453  -0.01240  -0.00297   0.00000  -0.01361
  69        5ZZ        -0.00086  -0.00326  -0.00162   0.00000   0.00793
  70        5XY         0.00217   0.00244   0.00476   0.00000  -0.00189
  71        5XZ         0.00000   0.00000   0.00000  -0.00064   0.00000
  72        5YZ         0.00000   0.00000   0.00000   0.00801   0.00000
  73 7   O  1S          0.01632  -0.02877   0.00179   0.00000  -0.01372
  74        2S         -0.04997   0.08175  -0.02702   0.00000  -0.02922
  75        2PX         0.03467  -0.00142  -0.02406   0.00000   0.11997
  76        2PY        -0.04819  -0.02469  -0.12148   0.00000  -0.12284
  77        2PZ         0.00000   0.00000   0.00000  -0.06546   0.00000
  78        3S         -0.08608   0.19884   0.09656   0.00000   0.37078
  79        3PX         0.05929  -0.07489   0.00294   0.00000   0.15603
  80        3PY        -0.06868  -0.06800  -0.11519   0.00000  -0.26175
  81        3PZ         0.00000   0.00000   0.00000  -0.01424   0.00000
  82        4S         -0.12470   1.30576   0.17645   0.00000  -1.30112
  83        4PX        -0.03521  -0.26522  -0.06881   0.00000   0.29333
  84        4PY        -0.17911   0.09158  -0.50613   0.00000   0.60176
  85        4PZ         0.00000   0.00000   0.00000  -0.27831   0.00000
  86        5XX        -0.00333  -0.00482  -0.00904   0.00000  -0.02002
  87        5YY         0.00056   0.00709  -0.00400   0.00000  -0.02603
  88        5ZZ         0.00091  -0.00015  -0.00723   0.00000  -0.00939
  89        5XY         0.00158   0.00091   0.00587   0.00000   0.00331
  90        5XZ         0.00000   0.00000   0.00000   0.00872   0.00000
  91        5YZ         0.00000   0.00000   0.00000   0.00340   0.00000
  92 8   H  1S          0.00177  -0.00436  -0.00888   0.00000  -0.10354
  93        2S         -0.12537  -0.12352  -0.41173   0.00000  -0.47082
  94        3PX         0.00078  -0.00642   0.00014   0.00000   0.00414
  95        3PY         0.00050   0.00292   0.00425   0.00000   0.00675
  96        3PZ         0.00000   0.00000   0.00000  -0.00045   0.00000
                          26        27        28        29        30
                           V         V         V         V         V
     Eigenvalues --     0.14102   0.16151   0.17401   0.19430   0.22016
   1 1   C  1S          0.03752   0.00000   0.09307  -0.01953   0.08548
   2        2S         -0.06699   0.00000  -0.18915   0.00255  -0.18483
   3        2PX        -0.08211   0.00000  -0.18502   0.01358  -0.07755
   4        2PY        -0.02772   0.00000   0.11071  -0.01436   0.15826
   5        2PZ         0.00000   0.14952   0.00000   0.00000   0.00000
   6        3S         -0.55594   0.00000  -1.29085   0.62995  -0.67507
   7        3PX        -0.01555   0.00000  -0.15014   0.58572   0.12672
   8        3PY        -0.13135   0.00000   0.01405  -0.05101   0.89128
   9        3PZ         0.00000   0.41079   0.00000   0.00000   0.00000
  10        4S        -20.79569   0.00000  18.11049   3.73866   4.64157
  11        4PX         5.26969   0.00000  -0.96948  -0.93047  -0.50697
  12        4PY         4.43903   0.00000  -5.06126  -1.57041  -0.41747
  13        4PZ         0.00000   0.83038   0.00000   0.00000   0.00000
  14        5XX         0.01227   0.00000   0.03661   0.01027   0.01356
  15        5YY         0.00885   0.00000  -0.00924  -0.01785   0.02065
  16        5ZZ        -0.00721   0.00000   0.00197  -0.01500  -0.04704
  17        5XY        -0.01571   0.00000   0.01141   0.00042  -0.00706
  18        5XZ         0.00000   0.00177   0.00000   0.00000   0.00000
  19        5YZ         0.00000   0.00564   0.00000   0.00000   0.00000
  20 2   C  1S          0.03507   0.00000  -0.03610  -0.00942  -0.09064
  21        2S         -0.06360   0.00000   0.07468   0.00369   0.10849
  22        2PX         0.09008   0.00000  -0.04948  -0.06287   0.26911
  23        2PY         0.04191   0.00000   0.17563   0.06537   0.08319
  24        2PZ         0.00000  -0.23175   0.00000   0.00000   0.00000
  25        3S         -0.47574   0.00000   0.28837   0.27534   1.65859
  26        3PX         0.30858   0.00000  -0.36762  -0.38270   1.10343
  27        3PY         0.01074   0.00000   0.66494   0.39221   0.34653
  28        3PZ         0.00000  -1.10500   0.00000   0.00000   0.00000
  29        4S         20.90410   0.00000 -16.48381  -2.90055  -2.80292
  30        4PX         3.33019   0.00000  -4.08955  -0.14877  -0.45649
  31        4PY         5.28353   0.00000  -3.22203  -0.32118  -1.09230
  32        4PZ         0.00000  -0.71964   0.00000   0.00000   0.00000
  33        5XX         0.00273   0.00000  -0.01064  -0.00975  -0.01289
  34        5YY         0.00154   0.00000   0.01326   0.02375  -0.01521
  35        5ZZ         0.01237   0.00000  -0.01088  -0.01331   0.00772
  36        5XY        -0.00516   0.00000  -0.02289  -0.01041  -0.00446
  37        5XZ         0.00000  -0.01639   0.00000   0.00000   0.00000
  38        5YZ         0.00000   0.01719   0.00000   0.00000   0.00000
  39 3   H  1S          0.00049   0.00000   0.10682   0.10147  -0.05791
  40        2S         -0.36291   0.00000   1.16916   0.74830  -1.17021
  41        3PX         0.00542   0.00000   0.00261  -0.00767   0.00127
  42        3PY        -0.00589   0.00000   0.00599  -0.00717   0.00879
  43        3PZ         0.00000  -0.01656   0.00000   0.00000   0.00000
  44 4   H  1S          0.03953   0.08569  -0.05409  -0.04707   0.03554
  45        2S          0.11852   1.18336  -0.36174  -0.55846   0.18858
  46        3PX        -0.00149  -0.00302   0.00142  -0.00176   0.00915
  47        3PY         0.00032   0.00773   0.00799   0.00625  -0.00092
  48        3PZ         0.00837  -0.00146  -0.00526  -0.00074   0.00402
  49 5   H  1S          0.03953  -0.08569  -0.05409  -0.04707   0.03554
  50        2S          0.11852  -1.18336  -0.36174  -0.55846   0.18858
  51        3PX        -0.00149   0.00302   0.00142  -0.00176   0.00915
  52        3PY         0.00032  -0.00773   0.00799   0.00625  -0.00092
  53        3PZ        -0.00837  -0.00146   0.00526   0.00074  -0.00402
  54 6   O  1S         -0.02963   0.00000  -0.00736   0.00366  -0.03297
  55        2S          0.06640   0.00000  -0.02105  -0.00599   0.06403
  56        2PX         0.00614   0.00000   0.05893   0.13540   0.06397
  57        2PY        -0.03348   0.00000   0.02170   0.06733  -0.13454
  58        2PZ         0.00000  -0.18129   0.00000   0.00000   0.00000
  59        3S          0.26437   0.00000   0.23923  -0.00065   0.29331
  60        3PX         0.03648   0.00000   0.10269   0.14435  -0.00000
  61        3PY        -0.04022   0.00000  -0.06269   0.03169  -0.12367
  62        3PZ         0.00000  -0.28533   0.00000   0.00000   0.00000
  63        4S          0.94246   0.00000  -0.61297   0.48614  -1.52435
  64        4PX        -0.17374   0.00000  -0.22575  -0.13868  -0.20376
  65        4PY        -0.34389   0.00000   0.17980  -0.23649   0.74155
  66        4PZ         0.00000   0.38300   0.00000   0.00000   0.00000
  67        5XX        -0.00746   0.00000  -0.01001   0.00506  -0.01263
  68        5YY        -0.00475   0.00000  -0.00820   0.00423  -0.00211
  69        5ZZ        -0.00856   0.00000  -0.01132   0.00093  -0.02184
  70        5XY         0.00799   0.00000   0.00492  -0.00273   0.00074
  71        5XZ         0.00000  -0.00475   0.00000   0.00000   0.00000
  72        5YZ         0.00000   0.00389   0.00000   0.00000   0.00000
  73 7   O  1S         -0.04384   0.00000  -0.04876  -0.02499  -0.05926
  74        2S          0.04760   0.00000   0.05754   0.03897   0.08772
  75        2PX        -0.03643   0.00000  -0.17020  -0.06055  -0.23783
  76        2PY        -0.13814   0.00000  -0.02872  -0.20255   0.04455
  77        2PZ         0.00000   0.08870   0.00000   0.00000   0.00000
  78        3S          0.59229   0.00000   0.61446   0.36439   0.77125
  79        3PX         0.02044   0.00000  -0.18548  -0.01762  -0.35972
  80        3PY        -0.22126   0.00000   0.00534  -0.35169   0.06145
  81        3PZ         0.00000   0.18589   0.00000   0.00000   0.00000
  82        4S         -0.48461   0.00000  -2.01381  -1.51544  -1.35197
  83        4PX        -0.48420   0.00000  -0.78888   1.80212   0.62273
  84        4PY         0.35835   0.00000   0.65065   0.35076  -0.32083
  85        4PZ         0.00000  -1.01765   0.00000   0.00000   0.00000
  86        5XX        -0.03346   0.00000  -0.05053   0.00280  -0.02179
  87        5YY        -0.01613   0.00000  -0.01616  -0.02156  -0.02545
  88        5ZZ        -0.02296   0.00000  -0.01235  -0.01162  -0.03098
  89        5XY         0.01707   0.00000   0.00488   0.01022   0.00576
  90        5XZ         0.00000  -0.01194   0.00000   0.00000   0.00000
  91        5YZ         0.00000   0.00750   0.00000   0.00000   0.00000
  92 8   H  1S         -0.09093   0.00000  -0.01242  -0.12620  -0.00301
  93        2S         -0.46609   0.00000   0.34619  -0.76623   0.06987
  94        3PX        -0.01257   0.00000  -0.01744   0.00576  -0.00323
  95        3PY         0.00659   0.00000   0.00364   0.01333   0.00550
  96        3PZ         0.00000  -0.01365   0.00000   0.00000   0.00000
                          31        32        33        34        35
                           V         V         V         V         V
     Eigenvalues --     0.22711   0.23561   0.27760   0.28830   0.29062
   1 1   C  1S          0.00000  -0.05913   0.01663   0.00000   0.01260
   2        2S          0.00000   0.09244  -0.01622   0.00000   0.00082
   3        2PX         0.00000  -0.17033   0.20645   0.00000  -0.00949
   4        2PY         0.00000  -0.10509   0.13074   0.00000  -0.03632
   5        2PZ         0.13833   0.00000   0.00000   0.03188   0.00000
   6        3S          0.00000   1.32118  -0.82791   0.00000  -0.17160
   7        3PX         0.00000  -0.49168   0.27785   0.00000   0.12246
   8        3PY         0.00000   0.21503   0.18284   0.00000  -0.05185
   9        3PZ         0.20462   0.00000   0.00000   0.36671   0.00000
  10        4S          0.00000  -7.04708  -1.70751   0.00000  -4.67173
  11        4PX         0.00000   2.40677   1.65454   0.00000  -0.40898
  12        4PY         0.00000   0.17196  -0.34134   0.00000   0.13492
  13        4PZ        -0.36560   0.00000   0.00000   3.07093   0.00000
  14        5XX         0.00000  -0.00546  -0.02337   0.00000   0.00442
  15        5YY         0.00000  -0.00503   0.00676   0.00000   0.01342
  16        5ZZ         0.00000  -0.00822   0.00646   0.00000  -0.00854
  17        5XY         0.00000  -0.00750   0.00297   0.00000   0.01004
  18        5XZ         0.00297   0.00000   0.00000  -0.00114   0.00000
  19        5YZ         0.01391   0.00000   0.00000   0.00511   0.00000
  20 2   C  1S          0.00000  -0.01201  -0.01315   0.00000  -0.10168
  21        2S          0.00000   0.00213  -0.01380   0.00000   0.13912
  22        2PX         0.00000  -0.18457   0.06254   0.00000  -0.07223
  23        2PY         0.00000  -0.07354   0.05266   0.00000  -0.10117
  24        2PZ        -0.26008   0.00000   0.00000  -0.00854   0.00000
  25        3S          0.00000   0.57139   0.24560   0.00000   2.23825
  26        3PX         0.00000  -0.82055   0.41068   0.00000  -0.29439
  27        3PY         0.00000  -0.36644   0.39777   0.00000  -0.39824
  28        3PZ        -1.10460   0.00000   0.00000  -0.25242   0.00000
  29        4S          0.00000   7.92694   0.19473   0.00000   6.27978
  30        4PX         0.00000   0.65309  -0.39975   0.00000   1.57089
  31        4PY         0.00000   2.95590  -0.31500   0.00000   1.57808
  32        4PZ        -0.38743   0.00000   0.00000  -1.27857   0.00000
  33        5XX         0.00000   0.00383   0.01074   0.00000  -0.00366
  34        5YY         0.00000   0.01099  -0.03135   0.00000   0.00005
  35        5ZZ         0.00000  -0.01620   0.01050   0.00000  -0.01424
  36        5XY         0.00000   0.02125  -0.00793   0.00000   0.01502
  37        5XZ        -0.02047   0.00000   0.00000  -0.00779   0.00000
  38        5YZ         0.00752   0.00000   0.00000  -0.00227   0.00000
  39 3   H  1S          0.00000  -0.01492  -0.04340   0.00000  -0.09388
  40        2S          0.00000  -0.33847  -0.12220   0.00000  -1.50683
  41        3PX         0.00000  -0.00555   0.00873   0.00000  -0.00647
  42        3PY         0.00000  -0.00627   0.00925   0.00000   0.00310
  43        3PZ        -0.01253   0.00000   0.00000  -0.00339   0.00000
  44 4   H  1S          0.09982  -0.06600   0.04429   0.03722  -0.07215
  45        2S          1.36381  -1.00348   0.45144   0.26809  -1.65710
  46        3PX        -0.00705  -0.00684   0.00127   0.00084  -0.00064
  47        3PY         0.00031  -0.00859   0.00159  -0.00205  -0.00623
  48        3PZ        -0.00220  -0.00415  -0.00142  -0.00005  -0.00393
  49 5   H  1S         -0.09982  -0.06600   0.04429  -0.03722  -0.07215
  50        2S         -1.36381  -1.00348   0.45144  -0.26809  -1.65710
  51        3PX         0.00705  -0.00684   0.00127  -0.00084  -0.00064
  52        3PY        -0.00031  -0.00859   0.00159   0.00205  -0.00623
  53        3PZ        -0.00220   0.00415   0.00142  -0.00005   0.00393
  54 6   O  1S          0.00000   0.01078   0.00762   0.00000  -0.01882
[...]
  91        5YZ         0.00005   0.00000   0.00000   0.00000   0.00000
  92 8   H  1S          0.00000  -0.00000  -0.00000  -0.00000   0.00000
  93        2S          0.00000   0.00001  -0.00003  -0.00001   0.00006
  94        3PX        -0.00000  -0.00000  -0.00000  -0.00000   0.00000
  95        3PY        -0.00000  -0.00000  -0.00000   0.00000   0.00000
  96        3PZ        -0.00003   0.00000  -0.00000  -0.00000  -0.00000
                          71        72        73        74        75
  71        5XZ         0.00024
  72        5YZ         0.00000   0.00213
  73 7   O  1S         -0.00000  -0.00000   2.07496
  74        2S          0.00000   0.00000  -0.04212   0.51118
  75        2PX        -0.00000   0.00000   0.00000   0.00000   0.63173
  76        2PY         0.00000   0.00000   0.00000   0.00000  -0.00000
  77        2PZ         0.00000  -0.00000   0.00000   0.00000   0.00000
  78        3S         -0.00000  -0.00000  -0.03947   0.44871   0.00000
  79        3PX        -0.00000  -0.00000   0.00000   0.00000   0.17476
  80        3PY         0.00000  -0.00000   0.00000   0.00000  -0.00000
  81        3PZ         0.00000  -0.00009   0.00000   0.00000   0.00000
  82        4S         -0.00000  -0.00000  -0.00195   0.01428   0.00000
  83        4PX        -0.00000  -0.00000   0.00000   0.00000   0.00921
  84        4PY        -0.00000   0.00000   0.00000   0.00000   0.00000
  85        4PZ        -0.00002  -0.00009   0.00000   0.00000   0.00000
  86        5XX         0.00000   0.00000  -0.00058  -0.00054   0.00000
  87        5YY         0.00000   0.00000  -0.00045  -0.00454   0.00000
  88        5ZZ         0.00000   0.00000  -0.00045  -0.00423   0.00000
  89        5XY         0.00000   0.00000  -0.00000   0.00000   0.00000
  90        5XZ         0.00000   0.00000  -0.00000  -0.00000   0.00000
  91        5YZ         0.00000   0.00000  -0.00000  -0.00000   0.00000
  92 8   H  1S         -0.00000   0.00000  -0.00137   0.02147   0.00251
  93        2S          0.00000   0.00000   0.00174  -0.02309  -0.00003
  94        3PX        -0.00000  -0.00000  -0.00000   0.00005   0.00216
  95        3PY        -0.00000  -0.00000  -0.00052   0.00675   0.00049
  96        3PZ         0.00000  -0.00000   0.00000   0.00000   0.00000
                          76        77        78        79        80
  76        2PY         0.62852
  77        2PZ         0.00000   0.77826
  78        3S          0.00000   0.00000   0.73730
  79        3PX        -0.00000   0.00000   0.00000   0.19922
  80        3PY         0.16033   0.00000   0.00000  -0.00000   0.16439
  81        3PZ         0.00000   0.25710   0.00000   0.00000   0.00000
  82        4S          0.00000   0.00000   0.06553   0.00000   0.00000
  83        4PX        -0.00000   0.00000   0.00000   0.02245  -0.00000
  84        4PY         0.00005   0.00000   0.00000   0.00000  -0.00025
  85        4PZ         0.00000   0.01795   0.00000   0.00000   0.00000
  86        5XX         0.00000   0.00000  -0.00294   0.00000   0.00000
  87        5YY         0.00000   0.00000  -0.00978   0.00000   0.00000
  88        5ZZ         0.00000   0.00000  -0.00413   0.00000   0.00000
  89        5XY         0.00000   0.00000   0.00000   0.00000   0.00000
  90        5XZ         0.00000   0.00000  -0.00000   0.00000   0.00000
  91        5YZ         0.00000   0.00000   0.00000   0.00000   0.00000
  92 8   H  1S          0.09008   0.00000   0.01733   0.00086   0.09049
  93        2S          0.03027   0.00000  -0.08307  -0.00039   0.05064
  94        3PX         0.00108   0.00000  -0.00014   0.00271   0.00044
  95        3PY         0.00737   0.00000   0.00513   0.00008   0.00101
  96        3PZ         0.00000   0.00364   0.00000   0.00000   0.00000
                          81        82        83        84        85
  81        3PZ         0.33856
  82        4S          0.00000   0.03775
  83        4PX         0.00000   0.00000   0.00830
  84        4PY         0.00000   0.00000   0.00000   0.00147
  85        4PZ         0.04814   0.00000   0.00000   0.00000   0.01710
  86        5XX         0.00000  -0.00047   0.00000   0.00000   0.00000
  87        5YY         0.00000  -0.00224   0.00000   0.00000   0.00000
  88        5ZZ         0.00000   0.00062   0.00000   0.00000   0.00000
  89        5XY         0.00000   0.00000   0.00000   0.00000   0.00000
  90        5XZ         0.00000   0.00000   0.00000   0.00000   0.00000
  91        5YZ         0.00000   0.00000   0.00000   0.00000   0.00000
  92 8   H  1S          0.00000  -0.01646  -0.00028   0.00175  -0.00000
  93        2S          0.00000  -0.03566  -0.00047  -0.00135  -0.00000
  94        3PX         0.00000  -0.00002   0.00026  -0.00000   0.00000
  95        3PY         0.00000  -0.00014   0.00000  -0.00007   0.00000
  96        3PZ         0.00475  -0.00000   0.00000  -0.00000   0.00054
                          86        87        88        89        90
  86        5XX         0.00172
  87        5YY        -0.00024   0.00169
  88        5ZZ        -0.00002  -0.00000   0.00053
  89        5XY        -0.00000  -0.00000   0.00000   0.00132
  90        5XZ         0.00000  -0.00000   0.00000   0.00000   0.00132
  91        5YZ        -0.00000   0.00000   0.00000   0.00000  -0.00000
  92 8   H  1S         -0.00130   0.00769  -0.00103  -0.00077  -0.00000
  93        2S         -0.00103   0.00490  -0.00094  -0.00013  -0.00000
  94        3PX        -0.00003   0.00001  -0.00001   0.00028   0.00000
  95        3PY        -0.00010   0.00028  -0.00010  -0.00003  -0.00000
  96        3PZ        -0.00000   0.00000  -0.00000   0.00000  -0.00007
                          91        92        93        94        95
  91        5YZ         0.00072
  92 8   H  1S         -0.00000   0.21033
  93        2S         -0.00000   0.06970   0.08449
  94        3PX         0.00000   0.00000   0.00000   0.00069
  95        3PY        -0.00000   0.00000   0.00000   0.00000   0.00177
  96        3PZ         0.00030   0.00000   0.00000   0.00000   0.00000
                          96
  96        3PZ         0.00089
     Gross orbital populations:
                           1
   1 1   C  1S          1.99249
   2        2S          0.72592
   3        2PX         0.65480
   4        2PY         0.77269
   5        2PZ         0.50391
   6        3S          0.33735
   7        3PX         0.04353
   8        3PY         0.05816
   9        3PZ         0.23963
  10        4S          0.11330
  11        4PX         0.03389
  12        4PY         0.02035
  13        4PZ         0.01984
  14        5XX         0.01208
  15        5YY         0.02029
  16        5ZZ        -0.03134
  17        5XY         0.04250
  18        5XZ         0.01577
  19        5YZ         0.01787
  20 2   C  1S          1.99205
  21        2S          0.68491
  22        2PX         0.71507
  23        2PY         0.69516
  24        2PZ         0.73096
  25        3S          0.65974
  26        3PX         0.31752
  27        3PY         0.25956
  28        3PZ         0.37973
  29        4S         -0.03434
  30        4PX         0.01384
  31        4PY        -0.00416
  32        4PZ         0.02340
  33        5XX        -0.01173
  34        5YY        -0.00650
  35        5ZZ        -0.00901
  36        5XY         0.00903
  37        5XZ         0.00809
  38        5YZ         0.00132
  39 3   H  1S          0.53337
  40        2S          0.32375
  41        3PX         0.00301
  42        3PY         0.00648
  43        3PZ         0.00240
  44 4   H  1S          0.52256
  45        2S          0.26789
  46        3PX         0.00422
  47        3PY         0.00223
  48        3PZ         0.00565
  49 5   H  1S          0.52256
  50        2S          0.26789
  51        3PX         0.00422
  52        3PY         0.00223
  53        3PZ         0.00565
  54 6   O  1S          1.99227
  55        2S          0.90770
  56        2PX         1.08659
  57        2PY         0.94691
  58        2PZ         0.84743
  59        3S          1.06079
  60        3PX         0.59525
  61        3PY         0.35947
  62        3PZ         0.52125
  63        4S          0.01449
  64        4PX         0.05839
  65        4PY         0.00424
  66        4PZ         0.03427
  67        5XX        -0.01173
  68        5YY         0.00061
  69        5ZZ        -0.00869
  70        5XY         0.00739
  71        5XZ         0.00121
  72        5YZ         0.00989
  73 7   O  1S          1.99213
  74        2S          0.90776
  75        2PX         0.92660
  76        2PY         0.92645
  77        2PZ         1.07216
  78        3S          0.97961
  79        3PX         0.45166
  80        3PY         0.46603
  81        3PZ         0.66723
  82        4S         -0.04161
  83        4PX         0.00589
  84        4PY        -0.00442
  85        4PZ         0.06341
  86        5XX         0.00926
  87        5YY        -0.00224
  88        5ZZ        -0.01057
  89        5XY         0.00243
  90        5XZ         0.00446
  91        5YZ         0.00113
  92 8   H  1S          0.49242
  93        2S          0.13084
  94        3PX         0.00809
  95        3PY         0.02161
  96        3PZ         0.01015
          Condensed to atoms (all electrons):
               1          2          3          4          5          6
     1  C    4.805745   0.289750  -0.041292  -0.023136  -0.023136   0.454418
     2  C    0.289750   5.216587   0.382349   0.388102   0.388102  -0.122993
     3  H   -0.041292   0.382349   0.573105  -0.027659  -0.027659   0.007308
     4  H   -0.023136   0.388102  -0.027659   0.487648  -0.018145  -0.006697
     5  H   -0.023136   0.388102  -0.027659  -0.018145   0.487648  -0.006697
     6  O    0.454418  -0.122993   0.007308  -0.006697  -0.006697   8.203157
     7  O    0.103524  -0.113388   0.000424   0.002320   0.002320  -0.111847
     8  H    0.027162  -0.003873   0.002443   0.000121   0.000121   0.011094
               7          8
     1  C    0.103524   0.027162
     2  C   -0.113388  -0.003873
     3  H    0.000424   0.002443
     4  H    0.002320   0.000121
     5  H    0.002320   0.000121
     6  O   -0.111847   0.011094
     7  O    8.345527   0.188479
     8  H    0.188479   0.437554
 Mulliken charges:
               1
     1  C    0.406966
     2  C   -0.424635
     3  H    0.130980
     4  H    0.197446
     5  H    0.197446
     6  O   -0.427743
     7  O   -0.417359
     8  H    0.336900
 Sum of Mulliken charges =   0.00000
 Mulliken charges with hydrogens summed into heavy atoms:
               1
     1  C    0.406966
     2  C    0.101237
     6  O   -0.427743
     7  O   -0.080460
 Electronic spatial extent (au):  <R**2>=            257.7063
 Charge=              0.0000 electrons
 Dipole moment (field-independent basis, Debye):
    X=             -0.2151    Y=             -4.6072    Z=              0.0000  Tot=              4.6123
 Quadrupole moment (field-independent basis, Debye-Ang):
   XX=            -23.8346   YY=            -25.4450   ZZ=            -23.3963
   XY=             -1.0061   XZ=              0.0000   YZ=             -0.0000
 Traceless Quadrupole moment (field-independent basis, Debye-Ang):
   XX=              0.3907   YY=             -1.2197   ZZ=              0.8290
   XY=             -1.0061   XZ=              0.0000   YZ=             -0.0000
 Octapole moment (field-independent basis, Debye-Ang**2):
  XXX=              2.1921  YYY=             -6.4637  ZZZ=             -0.0000  XYY=              6.0611
  XXY=             -5.8692  XXZ=             -0.0000  XZZ=             -0.4539  YZZ=              0.5555
  YYZ=              0.0000  XYZ=             -0.0000
 Hexadecapole moment (field-independent basis, Debye-Ang**3):
 XXXX=           -142.8876 YYYY=           -150.4867 ZZZZ=            -28.6819 XXXY=            -16.5012
 XXXZ=              0.0000 YYYX=            -13.7890 YYYZ=             -0.0000 ZZZX=              0.0000
 ZZZY=              0.0000 XXYY=            -44.8806 XXZZ=            -27.5526 YYZZ=            -29.7914
 XXYZ=              0.0000 YYXZ=              0.0000 ZZXY=             -2.6157
 N-N= 1.203792963298D+02 E-N=-7.771616581008D+02  KE= 2.269956209532D+02
 Symmetry A'   KE= 2.167489691914D+02
 Symmetry A"   KE= 1.024665176186D+01
 Orbital energies and kinetic energies (alpha):
                                 1                 2
   1         O               -19.216619         29.022042
   2         O               -19.152341         29.022569
   3         O               -10.338992         15.889930
   4         O               -10.222675         15.882247
   5         O                -1.116135          2.528018
   6         O                -1.034851          2.795064
   7         O                -0.768616          1.487352
   8         O                -0.633512          2.064291
   9         O                -0.529978          1.623008
  10         O                -0.481656          1.277141
  11         O                -0.478356          1.760566
  12         O                -0.434202          1.881532
  13         O                -0.409993          1.528804
  14         O                -0.390212          2.061921
  15         O                -0.331838          2.317381
  16         O                -0.289521          2.355944
  17         V                -0.016496          0.547167
  18         V                -0.009653          1.969918
  19         V                 0.022278          0.430077
  20         V                 0.043843          0.315953
  21         V                 0.044501          0.302392
  22         V                 0.070985          0.368441
  23         V                 0.077742          0.359409
  24         V                 0.089684          0.238626
  25         V                 0.112112          0.584831
  26         V                 0.138689          0.594627
  27         V                 0.153901          0.830976
  28         V                 0.177578          0.981871
  29         V                 0.188141          0.816858
  30         V                 0.216966          1.907744
  31         V                 0.223080          0.779894
  32         V                 0.235408          0.709609
  33         V                 0.276614          0.727347
  34         V                 0.285767          0.946940
  35         V                 0.288433          0.681956
  36         V                 0.305051          1.020804
  37         V                 0.324541          1.000164
  38         V                 0.348712          1.001135
  39         V                 0.371287          2.391233
  40         V                 0.445726          2.164053
  41         V                 0.613389          2.281807
  42         V                 0.620239          1.988603
  43         V                 0.663679          2.001988
  44         V                 0.687262          2.058430
  45         V                 0.756648          2.675282
  46         V                 0.787808          2.053950
  47         V                 0.888472          2.220589
  48         V                 0.932119          2.735139
  49         V                 0.954216          2.552505
  50         V                 1.051499          2.623085
  51         V                 1.080865          2.596819
  52         V                 1.101834          2.302553
  53         V                 1.126087          3.706788
  54         V                 1.225785          3.170430
  55         V                 1.242886          3.088580
  56         V                 1.288826          2.898718
  57         V                 1.296553          3.378394
  58         V                 1.325839          2.999477
  59         V                 1.367563          2.742628
  60         V                 1.423872          2.562821
  61         V                 1.494310          2.628785
  62         V                 1.529728          2.724114
  63         V                 1.555921          2.605009
  64         V                 1.707296          2.774575
  65         V                 1.721006          2.982921
  66         V                 1.736539          3.067286
  67         V                 1.821866          3.140449
  68         V                 1.867067          2.963115
  69         V                 1.937312          3.224761
  70         V                 2.002157          2.845173
  71         V                 2.015261          3.393397
  72         V                 2.076488          3.222970
  73         V                 2.091973          3.430690
  74         V                 2.210826          3.552354
  75         V                 2.213492          3.344957
  76         V                 2.284591          3.655066
  77         V                 2.418055          3.975783
  78         V                 2.420683          3.497525
  79         V                 2.474433          3.681099
  80         V                 2.567098          3.646160
  81         V                 2.644181          3.699078
  82         V                 2.686314          3.839527
  83         V                 2.728801          4.513311
  84         V                 2.792498          4.124727
  85         V                 2.837516          3.911415
  86         V                 2.961716          4.522331
  87         V                 3.043095          4.697899
  88         V                 3.209535          5.076621
  89         V                 3.243885          4.975503
  90         V                 3.394236          5.073960
  91         V                 3.407148          5.396608
  92         V                 3.493493          5.610964
  93         V                 4.190107         10.604900
  94         V                 4.270522         10.594189
  95         V                 4.350312         11.154291
  96         V                 4.586533         10.482642
 Total kinetic energy from orbitals= 2.269956209532D+02
 No NMR shielding tensors so no spin-rotation constants.
 Leave Link  601 at Wed Sep 11 21:57:40 2024, MaxMem=   268435456 cpu:         1.6
 (Enter /g100_work/pMI24_ChiCa/g09d1/g09d01/d01/build-node-6-2-59348/src/main/l9999.exe)
 1\1\GINC-R500N001\POpt\RB3LYP\6-31+G(d,p)\C2H4O2\ECABIATI\11-Sep-2024\
 1\\#p B3LYP/6-31+g(d,p) opt(internal) pop=full gfinput\\acetic acid op
 t\\0,1\C\C,1,cc2\H,2,hc3,1,hcc3\H,2,hc4,1,hcc4,3,dih4,0\H,2,hc5,1,hcc5
 ,3,dih5,0\O,1,oc6,2,occ6,3,dih6,0\O,1,oc7,6,oco7,2,dih7,0\H,7,ho8,1,ho
 c8,6,dih8,0\\cc2=1.51947664\hc3=1.0935735\hcc3=114.29807647\hc4=1.0933
 8077\hcc4=108.45638281\dih4=121.78322002\hc5=1.09338077\hcc5=108.45638
 281\dih5=-121.78322002\oc6=1.20587802\occ6=123.34733294\dih6=180.\oc7=
 1.36327339\oco7=119.70121222\dih7=180.\ho8=0.9671538\hoc8=111.02982505
 \dih8=180.\\Version=EM64L-G09RevD.01\State=1-A'\HF=-229.0954141\RMSD=3
 .777e-09\RMSF=6.010e-05\Dipole=1.0302886,0.,1.4937462\Quadrupole=0.572
 4077,0.6163348,-1.1887425,0.,-0.3775274,0.\PG=CS [SG(C2H2O2),X(H2)]\\@


 10 WHATSOEVER THY HAND FINDETH TO DO, DO IT WITH THY  
 MIGHT. FOR THERE IS NO WORK, NOR DEVICE, NOR KNOWLEDGE, NOR  
 WISDOM, IN THE GRAVE, WHITHER THOU GOEST.                    
 11 I RETURNED AND SAW UNDER THE SUN, THAT THE RACE IS NOT TO 
 THE SWIFT, NOR THE BATTLE TO THE STRONG, NEITHER YET BREAD TO
 THE WISE, NOR YET RICHES TO MEN OF UNDERSTANDING, NOR YET    
 FAVOR TO MEN OF SKILL. BUT TIME AND CHANCE HAPPEN TO THEM ALL.
 12 FOR MAN ALSO KNOWETH NOT HIS TIME. AS THE FISHES   
 THAT ARE TAKEN IN AN EVIL NET, AND AS THE BIRDS THAT ARE     
 CAUGHT IN THE SNARE. SO ARE THE SONS OF MEN SNARED IN AN EVIL
 TIME, WHEN IT FALLETH SUDDENLY UPON THEM.
                                         ECCLESIASTES 9
 Job cpu time:       0 days  0 hours  1 minutes 19.4 seconds.
 File lengths (MBytes):  RWF=      6 Int=      0 D2E=      0 Chk=      2 Scr=      1
 Normal termination of Gaussian 09 at Wed Sep 11 21:57:40 2024.
