 Entering Gaussian System, Link 0=/g100_work/pMI24_ChiCa/g09d1/g09d01/d01/build-node-6-2-59348/src/main/g09
 Input=geom.com
 Output=geom.log
 Initial command:
 /g100_work/pMI24_ChiCa/g09d1/g09d01/d01/build-node-6-2-59348/src/main/l1.exe "/g100_scratch/userexternal/ecabiati/g16_14386817/Gau-4260.inp" -scrdir="/g100_scratch/userexternal/ecabiati/g16_14386817/"
 Entering Link 1 = /g100_work/pMI24_ChiCa/g09d1/g09d01/d01/build-node-6-2-59348/src/main/l1.exe PID=      4261.
  
 Copyright (c) 1988,1990,1992,1993,1995,1998,2003,2009,2013,
            Gaussian, Inc.  All Rights Reserved.
  
 This is part of the Gaussian(R) 09 program.  It is based on
 the Gaussian(R) 03 system (copyright 2003, Gaussian, Inc.),
 the Gaussian(R) 98 system (copyright 1998, Gaussian, Inc.),
 the Gaussian(R) 94 system (copyright 1995, Gaussian, Inc.),
 the Gaussian 92(TM) system (copyright 1992, Gaussian, Inc.),
 the Gaussian 90(TM) system (copyright 1990, Gaussian, Inc.),
 the Gaussian 88(TM) system (copyright 1988, Gaussian, Inc.),
 the Gaussian 86(TM) system (copyright 1986, Carnegie Mellon
 University), and the Gaussian 82(TM) system (copyright 1983,
 Carnegie Mellon University). Gaussian is a federally registered
 trademark of Gaussian, Inc.
  
 This software contains proprietary and confidential information,
 including trade secrets, belonging to Gaussian, Inc.
  
 This software is provided under written license and may be
 used, copied, transmitted, or stored only in accord with that
 written license.
  
 The following legend is applicable only to US Government
 contracts under FAR:
  
                    RESTRICTED RIGHTS LEGEND
  
 Use, reproduction and disclosure by the US Government is
 subject to restrictions as set forth in subparagraphs (a)
 and (c) of the Commercial Computer Software - Restricted
 Rights clause in FAR 52.227-19.
  
 Gaussian, Inc.
 340 Quinnipiac St., Bldg. 40, Wallingford CT 06492
  
  
 ---------------------------------------------------------------
 Warning -- This program may not be used in any manner that
 competes with the business of Gaussian, Inc. or will provide
 assistance to any competitor of Gaussian, Inc.  The licensee
 of this program is prohibited from giving any competitor of
 Gaussian, Inc. access to this program.  By using this program,
 the user acknowledges that Gaussian, Inc. is engaged in the
 business of creating and licensing software in the field of
 computational chemistry and represents and warrants to the
 licensee that it is not a competitor of Gaussian, Inc. and that
 it will not use this program in any manner prohibited above.
 ---------------------------------------------------------------
  

 Cite this work as:
 Gaussian 09, Revision D.01,
 M. J. Frisch, G. W. Trucks, H. B. Schlegel, G. E. Scuseria, 
 M. A. Robb, J. R. Cheeseman, G. Scalmani, V. Barone, B. Mennucci, 
 G. A. Petersson, H. Nakatsuji, M. Caricato, X. Li, H. P. Hratchian, 
 A. F. Izmaylov, J. Bloino, G. Zheng, J. L. Sonnenberg, M. Hada, 
 M. Ehara, K. Toyota, R. Fukuda, J. Hasegawa, M. Ishida, T. Nakajima, 
 Y. Honda, O. Kitao, H. Nakai, T. Vreven, J. A. Montgomery, Jr., 
 J. E. Peralta, F. Ogliaro, M. Bearpark, J. J. Heyd, E. Brothers, 
 K. N. Kudin, V. N. Staroverov, T. Keith, R. Kobayashi, J. Normand, 
 K. Raghavachari, A. Rendell, J. C. Burant, S. S. Iyengar, J. Tomasi, 
 M. Cossi, N. Rega, J. M. Millam, M. Klene, J. E. Knox, J. B. Cross, 
 V. Bakken, C. Adamo, J. Jaramillo, R. Gomperts, R. E. Stratmann, 
 O. Yazyev, A. J. Austin, R. Cammi, C. Pomelli, J. W. Ochterski, 
 R. L. Martin, K. Morokuma, V. G. Zakrzewski, G. A. Voth, 
 P. Salvador, J. J. Dannenberg, S. Dapprich, A. D. Daniels, 
 O. Farkas, J. B. Foresman, J. V. Ortiz, J. Cioslowski, 
 and D. J. Fox, Gaussian, Inc., Wallingford CT, 2013.
 
 ******************************************
 Gaussian 09:  EM64L-G09RevD.01 24-Apr-2013
                11-Sep-2024 
 ******************************************
 %nproc=24
 Will use up to   24 processors via shared memory.
 %mem=2Gb
 %chk=acetic_acid_nmr.chk
 -----------------------------
 #p B3LYP/6-31+g(d,p) nmr=giao
 -----------------------------
 1/38=1/1;
 2/12=2,17=6,18=5,40=1/2;
 3/5=1,6=6,7=111,11=2,16=1,25=1,30=1,74=-5/1,2,8,3;
 4//1;
 5/5=2,38=5/2;
 8/6=1,10=90,11=11/1;
 10/13=100,45=16/2;
 6/7=2,8=2,9=2,10=2,28=1/1;
 99/9=1/99;
 Leave Link    1 at Wed Sep 11 22:05:35 2024, MaxMem=   268435456 cpu:         0.1
 (Enter /g100_work/pMI24_ChiCa/g09d1/g09d01/d01/build-node-6-2-59348/src/main/l101.exe)
 ---------------
 acetic acid opt
 ---------------
 Symbolic Z-matrix:
 Charge =  0 Multiplicity = 1
 c
 c                    1    cc2
 h                    2    hc3      1    hcc3
 h                    2    hc4      1    hcc4     3    dih4     0
 h                    2    hc5      1    hcc5     3    dih5     0
 o                    1    oc6      2    occ6     3    dih6     0
 o                    1    oc7      6    oco7     2    dih7     0
 h                    7    ho8      1    hoc8     6    dih8     0
       Variables:
  cc2                   1.5195                   
  hc3                   1.0936                   
  hcc3                114.2981                   
  hc4                   1.0934                   
  hcc4                108.4564                   
  dih4                121.7832                   
  hc5                   1.0934                   
  hcc5                108.4564                   
  dih5               -121.7832                   
  oc6                   1.2059                   
  occ6                123.3473                   
  dih6                180.                       
  oc7                   1.3633                   
  oco7                119.7012                   
  dih7                180.                       
  ho8                   0.9672                   
  hoc8                111.0298                   
  dih8                180.                       
 
 NAtoms=      8 NQM=        8 NQMF=       0 NMMI=      0 NMMIF=      0
                NMic=       0 NMicF=      0.
                    Isotopes and Nuclear Properties:
 (Nuclear quadrupole moments (NQMom) in fm**2, nuclear magnetic moments (NMagM)
  in nuclear magnetons)

  Atom         1           2           3           4           5           6           7           8
 IAtWgt=          12          12           1           1           1          16          16           1
 AtmWgt=  12.0000000  12.0000000   1.0078250   1.0078250   1.0078250  15.9949146  15.9949146   1.0078250
 NucSpn=           0           0           1           1           1           0           0           1
 AtZEff=   0.0000000   0.0000000   0.0000000   0.0000000   0.0000000   0.0000000   0.0000000   0.0000000
 NQMom=    0.0000000   0.0000000   0.0000000   0.0000000   0.0000000   0.0000000   0.0000000   0.0000000
 NMagM=    0.0000000   0.0000000   2.7928460   2.7928460   2.7928460   0.0000000   0.0000000   2.7928460
 AtZNuc=   6.0000000   6.0000000   1.0000000   1.0000000   1.0000000   8.0000000   8.0000000   1.0000000
 Leave Link  101 at Wed Sep 11 22:05:35 2024, MaxMem=   268435456 cpu:         0.2
 (Enter /g100_work/pMI24_ChiCa/g09d1/g09d01/d01/build-node-6-2-59348/src/main/l202.exe)
                          Input orientation:                          
 ---------------------------------------------------------------------
 Center     Atomic      Atomic             Coordinates (Angstroms)
 Number     Number       Type             X           Y           Z
 ---------------------------------------------------------------------
      1          6           0        0.000000    0.000000    0.000000
      2          6           0        0.000000    0.000000    1.519500
      3          1           0        0.996726    0.000000    1.969499
      4          1           0       -0.546279    0.881636    1.865652
      5          1           0       -0.546279   -0.881636    1.865652
      6          8           0       -1.007353    0.000000   -0.662898
      7          8           0        1.215233    0.000000   -0.617897
      8          1           0        1.933791    0.000000    0.029521
 ---------------------------------------------------------------------
                    Distance matrix (angstroms):
                    1          2          3          4          5
     1  C    0.000000
     2  C    1.519500   0.000000
     3  H    2.207349   1.093600   0.000000
     4  H    2.134563   1.093400   1.780149   0.000000
     5  H    2.134563   1.093400   1.780149   1.763271   0.000000
     6  O    1.205900   2.403669   3.308451   2.717248   2.717248
     7  O    1.363300   2.458710   2.596606   3.169893   3.169893
     8  H    1.934016   2.441226   2.154439   3.209269   3.209269
                    6          7          8
     6  O    0.000000
     7  O    2.223041   0.000000
     8  H    3.021552   0.967200   0.000000
 Stoichiometry    C2H4O2
 Framework group  CS[SG(C2H2O2),X(H2)]
 Deg. of freedom    12
 Full point group                 CS      NOp   2
 Largest Abelian subgroup         CS      NOp   2
 Largest concise Abelian subgroup CS      NOp   2
                         Standard orientation:                         
 ---------------------------------------------------------------------
 Center     Atomic      Atomic             Coordinates (Angstroms)
 Number     Number       Type             X           Y           Z
 ---------------------------------------------------------------------
      1          6           0        0.000000    0.180672    0.000000
      2          6           0       -0.920134   -1.028556    0.000000
      3          1           0       -0.399430   -1.990236    0.000000
      4          1           0       -1.564479   -0.973227    0.881636
      5          1           0       -1.564479   -0.973227   -0.881636
      6          8           0       -0.400240    1.318214    0.000000
      7          8           0        1.341258   -0.063486    0.000000
      8          1           0        1.521048   -1.013829    0.000000
 ---------------------------------------------------------------------
 Rotational constants (GHZ):     10.9953209      9.4447991      5.2458756
 Leave Link  202 at Wed Sep 11 22:05:35 2024, MaxMem=   268435456 cpu:         0.2
 (Enter /g100_work/pMI24_ChiCa/g09d1/g09d01/d01/build-node-6-2-59348/src/main/l301.exe)
 Standard basis: 6-31+G(d,p) (6D, 7F)
 Ernie: Thresh=  0.10000D-02 Tol=  0.10000D-05 Strict=F.
 There are    69 symmetry adapted cartesian basis functions of A'  symmetry.
 There are    27 symmetry adapted cartesian basis functions of A"  symmetry.
 There are    69 symmetry adapted basis functions of A'  symmetry.
 There are    27 symmetry adapted basis functions of A"  symmetry.
    96 basis functions,   156 primitive gaussians,    96 cartesian basis functions
    16 alpha electrons       16 beta electrons
       nuclear repulsion energy       120.3769627815 Hartrees.
 IExCor=  402 DFT=T Ex+Corr=B3LYP ExCW=0 ScaHFX=  0.200000
 ScaDFX=  0.800000  0.720000  1.000000  0.810000 ScalE2=  1.000000  1.000000
 IRadAn=      0 IRanWt=     -1 IRanGd=            0 ICorTp=0 IEmpDi=  4
 NAtoms=    8 NActive=    8 NUniq=    7 SFac= 1.31D+00 NAtFMM=   60 NAOKFM=F Big=F
 Integral buffers will be    131072 words long.
 Raffenetti 2 integral format.
 Two-electron integral symmetry is turned on.
 Leave Link  301 at Wed Sep 11 22:05:36 2024, MaxMem=   268435456 cpu:         0.1
 (Enter /g100_work/pMI24_ChiCa/g09d1/g09d01/d01/build-node-6-2-59348/src/main/l302.exe)
 NPDir=0 NMtPBC=     1 NCelOv=     1 NCel=       1 NClECP=     1 NCelD=      1
         NCelK=      1 NCelE2=     1 NClLst=     1 CellRange=     0.0.
 One-electron integrals computed using PRISM.
 One-electron integral symmetry used in STVInt
 NBasis=    96 RedAO= T EigKep=  3.04D-04  NBF=    69    27
 NBsUse=    96 1.00D-06 EigRej= -1.00D+00 NBFU=    69    27
 Precomputing XC quadrature grid using
 IXCGrd= 4 IRadAn=           0 IRanWt=          -1 IRanGd=           0 AccXCQ= 0.00D+00.
 Generated NRdTot=       0 NPtTot=           0 NUsed=           0 NTot=          32
 NSgBfM=    96    96    96    96    96 MxSgAt=     8 MxSgA2=     8.
 Leave Link  302 at Wed Sep 11 22:05:36 2024, MaxMem=   268435456 cpu:         1.4
 (Enter /g100_work/pMI24_ChiCa/g09d1/g09d01/d01/build-node-6-2-59348/src/main/l308.exe)
 Leave Link  308 at Wed Sep 11 22:05:36 2024, MaxMem=   268435456 cpu:         0.2
 (Enter /g100_work/pMI24_ChiCa/g09d1/g09d01/d01/build-node-6-2-59348/src/main/l303.exe)
 DipDrv:  MaxL=1.
 Leave Link  303 at Wed Sep 11 22:05:36 2024, MaxMem=   268435456 cpu:         0.2
 (Enter /g100_work/pMI24_ChiCa/g09d1/g09d01/d01/build-node-6-2-59348/src/main/l401.exe)
 ExpMin= 4.38D-02 ExpMax= 5.48D+03 ExpMxC= 8.25D+02 IAcc=2 IRadAn=         4 AccDes= 0.00D+00
 Harris functional with IExCor=  402 and IRadAn=       4 diagonalized for initial guess.
 HarFok:  IExCor=  402 AccDes= 0.00D+00 IRadAn=         4 IDoV= 1 UseB2=F ITyADJ=14
 ICtDFT=  3500011 ScaDFX=  1.000000  1.000000  1.000000  1.000000
 FoFCou: FMM=F IPFlag=           0 FMFlag=      100000 FMFlg1=           0
         NFxFlg=           0 DoJE=T BraDBF=F KetDBF=T FulRan=T
         wScrn=  0.000000 ICntrl=     500 IOpCl=  0 I1Cent=   200000004 NGrid=           0
         NMat0=    1 NMatS0=      1 NMatT0=    0 NMatD0=    1 NMtDS0=    0 NMtDT0=    0
 Petite list used in FoFCou.
 Harris En= -229.131650853988    
 JPrj=0 DoOrth=F DoCkMO=F.
 Initial guess orbital symmetries:
       Occupied  (A') (A') (A') (A') (A') (A') (A') (A') (A') (A')
                 (A") (A') (A") (A') (A") (A')
       Virtual   (A") (A') (A') (A') (A") (A') (A') (A") (A') (A")
                 (A') (A') (A') (A') (A") (A') (A') (A') (A') (A")
                 (A') (A') (A') (A') (A') (A") (A') (A") (A') (A')
                 (A") (A') (A') (A') (A') (A") (A') (A") (A') (A')
                 (A") (A') (A') (A") (A') (A') (A") (A") (A') (A')
                 (A') (A") (A') (A') (A") (A") (A') (A") (A') (A')
                 (A") (A') (A') (A") (A') (A") (A') (A') (A") (A')
                 (A') (A') (A') (A") (A') (A') (A') (A') (A') (A')
 The electronic state of the initial guess is 1-A'.
 Leave Link  401 at Wed Sep 11 22:05:36 2024, MaxMem=   268435456 cpu:         1.5
 (Enter /g100_work/pMI24_ChiCa/g09d1/g09d01/d01/build-node-6-2-59348/src/main/l502.exe)
 Closed shell SCF:
 Using DIIS extrapolation, IDIIS=  1040.
 Integral symmetry usage will be decided dynamically.
 Keep R1 ints in memory in symmetry-blocked form, NReq=16539583.
 IVT=       49354 IEndB=       49354 NGot=   268435456 MDV=   262737466
 LenX=   262737466 LenY=   262727809
 Requested convergence on RMS density matrix=1.00D-08 within 128 cycles.
 Requested convergence on MAX density matrix=1.00D-06.
 Requested convergence on             energy=1.00D-06.
 No special actions if energy rises.
 FoFCou: FMM=F IPFlag=           0 FMFlag=           0 FMFlg1=           0
         NFxFlg=           0 DoJE=F BraDBF=F KetDBF=F FulRan=T
         wScrn=  0.000000 ICntrl=     600 IOpCl=  0 I1Cent=           0 NGrid=           0
         NMat0=    1 NMatS0=   4656 NMatT0=    0 NMatD0=    1 NMtDS0=    0 NMtDT0=    0
 Petite list used in FoFCou.

 Cycle   1  Pass 1  IDiag  1:
 E= -228.943939247152    
 DIIS: error= 3.51D-02 at cycle   1 NSaved=   1.
 NSaved= 1 IEnMin= 1 EnMin= -228.943939247152     IErMin= 1 ErrMin= 3.51D-02
 ErrMax= 3.51D-02  0.00D+00 EMaxC= 1.00D-01 BMatC= 1.83D-01 BMatP= 1.83D-01
 IDIUse=3 WtCom= 6.49D-01 WtEn= 3.51D-01
 Coeff-Com:  0.100D+01
 Coeff-En:   0.100D+01
 Coeff:      0.100D+01
 Gap=     0.124 Goal=   None    Shift=    0.000
 GapD=    0.124 DampG=1.000 DampE=0.500 DampFc=0.5000 IDamp=-1.
 Damping current iteration by 5.00D-01
 RMSDP=1.08D-02 MaxDP=2.14D-01              OVMax= 2.87D-01

 Cycle   2  Pass 1  IDiag  1:
 E= -228.972355321502     Delta-E=       -0.028416074350 Rises=F Damp=T
 DIIS: error= 1.32D-02 at cycle   2 NSaved=   2.
 NSaved= 2 IEnMin= 2 EnMin= -228.972355321502     IErMin= 2 ErrMin= 1.32D-02
 ErrMax= 1.32D-02  0.00D+00 EMaxC= 1.00D-01 BMatC= 3.42D-02 BMatP= 1.83D-01
 IDIUse=3 WtCom= 8.68D-01 WtEn= 1.32D-01
 Coeff-Com:  0.264D+00 0.736D+00
 Coeff-En:   0.410D+00 0.590D+00
 Coeff:      0.283D+00 0.717D+00
 Gap=     0.279 Goal=   None    Shift=    0.000
 RMSDP=3.11D-03 MaxDP=5.45D-02 DE=-2.84D-02 OVMax= 1.96D-01

 Cycle   3  Pass 1  IDiag  1:
 E= -229.074799332817     Delta-E=       -0.102444011315 Rises=F Damp=F
 DIIS: error= 1.55D-02 at cycle   3 NSaved=   3.
 NSaved= 3 IEnMin= 3 EnMin= -229.074799332817     IErMin= 2 ErrMin= 1.32D-02
 ErrMax= 1.55D-02  0.00D+00 EMaxC= 1.00D-01 BMatC= 2.47D-02 BMatP= 3.42D-02
 IDIUse=3 WtCom= 8.45D-01 WtEn= 1.55D-01
 Coeff-Com:  0.127D+00 0.463D+00 0.410D+00
 Coeff-En:   0.000D+00 0.000D+00 0.100D+01
 Coeff:      0.107D+00 0.391D+00 0.501D+00
 Gap=     0.270 Goal=   None    Shift=    0.000
 RMSDP=1.75D-03 MaxDP=4.07D-02 DE=-1.02D-01 OVMax= 7.55D-02

 Cycle   4  Pass 1  IDiag  1:
 E= -229.091906931156     Delta-E=       -0.017107598339 Rises=F Damp=F
 DIIS: error= 7.48D-03 at cycle   4 NSaved=   4.
 NSaved= 4 IEnMin= 4 EnMin= -229.091906931156     IErMin= 4 ErrMin= 7.48D-03
 ErrMax= 7.48D-03  0.00D+00 EMaxC= 1.00D-01 BMatC= 4.67D-03 BMatP= 2.47D-02
 IDIUse=3 WtCom= 9.25D-01 WtEn= 7.48D-02
 Coeff-Com:  0.246D-01 0.757D-01 0.305D+00 0.595D+00
 Coeff-En:   0.000D+00 0.000D+00 0.175D+00 0.825D+00
 Coeff:      0.228D-01 0.701D-01 0.295D+00 0.612D+00
 Gap=     0.275 Goal=   None    Shift=    0.000
 RMSDP=6.17D-04 MaxDP=1.48D-02 DE=-1.71D-02 OVMax= 2.65D-02

 Cycle   5  Pass 1  IDiag  1:
 E= -229.095098371236     Delta-E=       -0.003191440080 Rises=F Damp=F
 DIIS: error= 1.70D-03 at cycle   5 NSaved=   5.
 NSaved= 5 IEnMin= 5 EnMin= -229.095098371236     IErMin= 5 ErrMin= 1.70D-03
 ErrMax= 1.70D-03  0.00D+00 EMaxC= 1.00D-01 BMatC= 3.91D-04 BMatP= 4.67D-03
 IDIUse=3 WtCom= 9.83D-01 WtEn= 1.70D-02
 Coeff-Com:  0.254D-02-0.115D-02 0.140D+00 0.386D+00 0.473D+00
 Coeff-En:   0.000D+00 0.000D+00 0.000D+00 0.195D-01 0.981D+00
 Coeff:      0.249D-02-0.113D-02 0.138D+00 0.380D+00 0.481D+00
 Gap=     0.273 Goal=   None    Shift=    0.000
 RMSDP=1.68D-04 MaxDP=4.21D-03 DE=-3.19D-03 OVMax= 5.54D-03

 Cycle   6  Pass 1  IDiag  1:
 E= -229.095410296949     Delta-E=       -0.000311925713 Rises=F Damp=F
 DIIS: error= 2.30D-04 at cycle   6 NSaved=   6.
 NSaved= 6 IEnMin= 6 EnMin= -229.095410296949     IErMin= 6 ErrMin= 2.30D-04
 ErrMax= 2.30D-04  0.00D+00 EMaxC= 1.00D-01 BMatC= 4.71D-06 BMatP= 3.91D-04
 IDIUse=3 WtCom= 9.98D-01 WtEn= 2.30D-03
 Coeff-Com:  0.150D-03-0.372D-02 0.256D-01 0.680D-01 0.145D+00 0.764D+00
 Coeff-En:   0.000D+00 0.000D+00 0.000D+00 0.000D+00 0.000D+00 0.100D+01
 Coeff:      0.149D-03-0.371D-02 0.255D-01 0.679D-01 0.145D+00 0.765D+00
 Gap=     0.273 Goal=   None    Shift=    0.000
 RMSDP=2.03D-05 MaxDP=3.25D-04 DE=-3.12D-04 OVMax= 5.11D-04

 Cycle   7  Pass 1  IDiag  1:
 E= -229.095413937100     Delta-E=       -0.000003640152 Rises=F Damp=F
 DIIS: error= 3.34D-05 at cycle   7 NSaved=   7.
 NSaved= 7 IEnMin= 7 EnMin= -229.095413937100     IErMin= 7 ErrMin= 3.34D-05
 ErrMax= 3.34D-05  0.00D+00 EMaxC= 1.00D-01 BMatC= 1.34D-07 BMatP= 4.71D-06
 IDIUse=1 WtCom= 1.00D+00 WtEn= 0.00D+00
 Coeff-Com:  0.105D-03-0.129D-02 0.558D-02 0.127D-01 0.392D-01 0.260D+00
 Coeff-Com:  0.684D+00
 Coeff:      0.105D-03-0.129D-02 0.558D-02 0.127D-01 0.392D-01 0.260D+00
 Coeff:      0.684D+00
 Gap=     0.273 Goal=   None    Shift=    0.000
 RMSDP=5.10D-06 MaxDP=7.24D-05 DE=-3.64D-06 OVMax= 1.36D-04

 Cycle   8  Pass 1  IDiag  1:
 E= -229.095414049524     Delta-E=       -0.000000112424 Rises=F Damp=F
 DIIS: error= 9.22D-06 at cycle   8 NSaved=   8.
 NSaved= 8 IEnMin= 8 EnMin= -229.095414049524     IErMin= 8 ErrMin= 9.22D-06
 ErrMax= 9.22D-06  0.00D+00 EMaxC= 1.00D-01 BMatC= 1.31D-08 BMatP= 1.34D-07
 IDIUse=1 WtCom= 1.00D+00 WtEn= 0.00D+00
 Coeff-Com:  0.532D-04-0.147D-03-0.250D-03-0.173D-02 0.378D-03 0.116D-01
 Coeff-Com:  0.264D+00 0.726D+00
 Coeff:      0.532D-04-0.147D-03-0.250D-03-0.173D-02 0.378D-03 0.116D-01
 Coeff:      0.264D+00 0.726D+00
 Gap=     0.273 Goal=   None    Shift=    0.000
 RMSDP=1.39D-06 MaxDP=2.22D-05 DE=-1.12D-07 OVMax= 3.29D-05

 Cycle   9  Pass 1  IDiag  1:
 E= -229.095414061745     Delta-E=       -0.000000012221 Rises=F Damp=F
 DIIS: error= 1.10D-06 at cycle   9 NSaved=   9.
 NSaved= 9 IEnMin= 9 EnMin= -229.095414061745     IErMin= 9 ErrMin= 1.10D-06
 ErrMax= 1.10D-06  0.00D+00 EMaxC= 1.00D-01 BMatC= 1.74D-10 BMatP= 1.31D-08
 IDIUse=1 WtCom= 1.00D+00 WtEn= 0.00D+00
 Coeff-Com:  0.655D-05 0.307D-05-0.251D-03-0.811D-03-0.123D-02-0.686D-02
 Coeff-Com:  0.354D-01 0.169D+00 0.805D+00
 Coeff:      0.655D-05 0.307D-05-0.251D-03-0.811D-03-0.123D-02-0.686D-02
 Coeff:      0.354D-01 0.169D+00 0.805D+00
 Gap=     0.273 Goal=   None    Shift=    0.000
 RMSDP=2.37D-07 MaxDP=3.03D-06 DE=-1.22D-08 OVMax= 5.02D-06

 Cycle  10  Pass 1  IDiag  1:
 E= -229.095414061933     Delta-E=       -0.000000000188 Rises=F Damp=F
 DIIS: error= 2.01D-07 at cycle  10 NSaved=  10.
 NSaved=10 IEnMin=10 EnMin= -229.095414061933     IErMin=10 ErrMin= 2.01D-07
 ErrMax= 2.01D-07  0.00D+00 EMaxC= 1.00D-01 BMatC= 5.89D-12 BMatP= 1.74D-10
 IDIUse=1 WtCom= 1.00D+00 WtEn= 0.00D+00
 Coeff-Com: -0.846D-06 0.422D-05-0.233D-04-0.590D-04-0.188D-03-0.160D-02
 Coeff-Com: -0.288D-02-0.675D-03 0.129D+00 0.876D+00
 Coeff:     -0.846D-06 0.422D-05-0.233D-04-0.590D-04-0.188D-03-0.160D-02
 Coeff:     -0.288D-02-0.675D-03 0.129D+00 0.876D+00
 Gap=     0.273 Goal=   None    Shift=    0.000
 RMSDP=4.43D-08 MaxDP=5.19D-07 DE=-1.88D-10 OVMax= 1.03D-06

 Cycle  11  Pass 1  IDiag  1:
 E= -229.095414061940     Delta-E=       -0.000000000006 Rises=F Damp=F
 DIIS: error= 3.93D-08 at cycle  11 NSaved=  11.
 NSaved=11 IEnMin=11 EnMin= -229.095414061940     IErMin=11 ErrMin= 3.93D-08
 ErrMax= 3.93D-08  0.00D+00 EMaxC= 1.00D-01 BMatC= 2.65D-13 BMatP= 5.89D-12
 IDIUse=1 WtCom= 1.00D+00 WtEn= 0.00D+00
 Coeff-Com: -0.350D-06 0.465D-06 0.412D-05 0.133D-04 0.215D-06-0.131D-03
 Coeff-Com: -0.182D-02-0.622D-02-0.374D-02 0.160D+00 0.852D+00
 Coeff:     -0.350D-06 0.465D-06 0.412D-05 0.133D-04 0.215D-06-0.131D-03
 Coeff:     -0.182D-02-0.622D-02-0.374D-02 0.160D+00 0.852D+00
 Gap=     0.273 Goal=   None    Shift=    0.000
 RMSDP=9.90D-09 MaxDP=2.42D-07 DE=-6.48D-12 OVMax= 1.42D-07

 SCF Done:  E(RB3LYP) =  -229.095414062     A.U. after   11 cycles
            NFock= 11  Conv=0.99D-08     -V/T= 2.0093
 KE= 2.269952594087D+02 PE=-7.771567722141D+02 EE= 2.006891359620D+02
 Leave Link  502 at Wed Sep 11 22:05:37 2024, MaxMem=   268435456 cpu:         9.4
 (Enter /g100_work/pMI24_ChiCa/g09d1/g09d01/d01/build-node-6-2-59348/src/main/l801.exe)
 DoSCS=F DFT=T ScalE2(SS,OS)=  1.000000  1.000000
 Range of M.O.s used for correlation:     1    96
 NBasis=    96 NAE=    16 NBE=    16 NFC=     0 NFV=     0
 NROrb=     96 NOA=    16 NOB=    16 NVA=    80 NVB=    80

 **** Warning!!: The largest alpha MO coefficient is  0.21946708D+02

 Leave Link  801 at Wed Sep 11 22:05:37 2024, MaxMem=   268435456 cpu:         0.1
 (Enter /g100_work/pMI24_ChiCa/g09d1/g09d01/d01/build-node-6-2-59348/src/main/l1002.exe)
 Minotr:  Closed shell wavefunction.
          Direct CPHF calculation.
          Differentiating once with respect to magnetic field using GIAOs.
          Electric field/nuclear overlap derivatives assumed to be zero.
          Using symmetry in CPHF.
          Requested convergence is 1.0D-08 RMS, and 1.0D-07 maximum.
          Secondary convergence is 1.0D-12 RMS, and 1.0D-12 maximum.
          NewPWx=T KeepS1=F KeepF1=F KeepIn=T MapXYZ=F SortEE=F KeepMc=T.
          MDV=     268435292 using IRadAn=       2.
 Generate precomputed XC quadrature information.
 Keep R3 ints in memory in symmetry-blocked form, NReq=16492948.
 FoFCou: FMM=F IPFlag=           0 FMFlag=           0 FMFlg1=           0
         NFxFlg=           0 DoJE=F BraDBF=F KetDBF=F FulRan=T
         wScrn=  0.000000 ICntrl=     600 IOpCl=  0 I1Cent=           0 NGrid=           0
         NMat0=    1 NMatS0=   4656 NMatT0=    0 NMatD0=    1 NMtDS0=    0 NMtDT0=    0
 Petite list used in FoFCou.
          Solving linear equations simultaneously, MaxMat=       0.
 FoFJK:  IHMeth= 1 ICntrl=    6127 DoSepK=F KAlg= 0 I1Cent=   0 FoldK=F
 IRaf=         1 NMat=   1 IRICut=       1 DoRegI=T DoRafI=F ISym2E= 0.
          There are     3 degrees of freedom in the 1st order CPHF.  IDoFFX=0 NUNeed=     3.
      3 vectors produced by pass  0 Test12= 4.27D-14 3.33D-08 XBig12= 1.76D+00 8.17D-01.
 AX will form     3 AO Fock derivatives at one time.
      3 vectors produced by pass  1 Test12= 4.27D-14 3.33D-08 XBig12= 7.11D-03 3.75D-02.
      3 vectors produced by pass  2 Test12= 4.27D-14 3.33D-08 XBig12= 2.42D-05 1.73D-03.
      3 vectors produced by pass  3 Test12= 4.27D-14 3.33D-08 XBig12= 4.55D-08 8.80D-05.
      3 vectors produced by pass  4 Test12= 4.27D-14 3.33D-08 XBig12= 9.07D-11 2.71D-06.
      3 vectors produced by pass  5 Test12= 4.27D-14 3.33D-08 XBig12= 1.97D-13 1.55D-07.
 InvSVY:  IOpt=1 It=  1 EMax= 6.66D-16
 Solved reduced A of dimension    18 with     3 vectors.
 Calculating GIAO nuclear magnetic shielding tensors.
 SCF GIAO Magnetic shielding tensor (ppm):
      1  C    Isotropic =    31.9868   Anisotropy =    80.8225
   XX=   -53.7403   YX=   -36.5617   ZX=     0.0000
   XY=   -18.8469   YY=    63.8323   ZY=     0.0000
   XZ=     0.0000   YZ=    -0.0000   ZZ=    85.8685
   Eigenvalues:   -59.9413    70.0333    85.8685
      2  C    Isotropic =   170.3134   Anisotropy =    42.7153
   XX=   175.6676   YX=    16.4230   ZX=    -0.0000
   XY=    14.3524   YY=   188.5500   ZY=     0.0000
   XZ=    -0.0000   YZ=    -0.0000   ZZ=   146.7226
   Eigenvalues:   146.7226   165.4273   198.7902
      3  H    Isotropic =    30.3959   Anisotropy =     6.5223
   XX=    30.2824   YX=     0.6469   ZX=     0.0000
   XY=    -2.4755   YY=    34.5568   ZY=    -0.0000
   XZ=     0.0000   YZ=     0.0000   ZZ=    26.3487
   Eigenvalues:    26.3487    30.0950    34.7441
      4  H    Isotropic =    29.3657   Anisotropy =     6.4428
   XX=    30.1135   YX=    -0.0501   ZX=    -3.7660
   XY=     1.6044   YY=    28.0889   ZY=    -1.0223
   XZ=    -3.2028   YZ=    -0.1758   ZZ=    29.8947
   Eigenvalues:    26.5095    27.9267    33.6609
      5  H    Isotropic =    29.3657   Anisotropy =     6.4428
   XX=    30.1135   YX=    -0.0501   ZX=     3.7660
   XY=     1.6044   YY=    28.0889   ZY=     1.0223
   XZ=     3.2028   YZ=     0.1758   ZZ=    29.8947
   Eigenvalues:    26.5095    27.9267    33.6609
      6  O    Isotropic =   -73.9684   Anisotropy =   562.5808
   XX=  -286.7014   YX=   108.1695   ZX=     0.0000
   XY=    71.8916   YY=  -236.2893   ZY=    -0.0000
   XZ=    -0.0000   YZ=     0.0000   ZZ=   301.0854
   Eigenvalues:  -354.9878  -168.0029   301.0854
      7  O    Isotropic =   120.8890   Anisotropy =   187.5750
   XX=   241.2169   YX=    55.2512   ZX=     0.0000
   XY=    18.2648   YY=   -40.1946   ZY=    -0.0000
   XZ=     0.0000   YZ=    -0.0000   ZZ=   161.6447
   Eigenvalues:   -44.9167   161.6447   245.9390
      8  H    Isotropic =    25.7223   Anisotropy =     6.6940
   XX=    28.4283   YX=    -1.4112   ZX=     0.0000
   XY=    -3.3534   YY=    26.9542   ZY=     0.0000
   XZ=     0.0000   YZ=    -0.0000   ZZ=    21.7844
   Eigenvalues:    21.7844    25.1976    30.1850
 End of Minotr F.D. properties file   721 does not exist.
 End of Minotr F.D. properties file   722 does not exist.
 End of Minotr F.D. properties file   788 does not exist.
 Leave Link 1002 at Wed Sep 11 22:05:38 2024, MaxMem=   268435456 cpu:        10.8
 (Enter /g100_work/pMI24_ChiCa/g09d1/g09d01/d01/build-node-6-2-59348/src/main/l601.exe)
 Copying SCF densities to generalized density rwf, IOpCl= 0 IROHF=0.

 **********************************************************************

            Population analysis using the SCF density.

 **********************************************************************

 Orbital symmetries:
       Occupied  (A') (A') (A') (A') (A') (A') (A') (A') (A') (A")
                 (A') (A') (A") (A') (A") (A')
       Virtual   (A') (A") (A') (A') (A") (A') (A') (A") (A') (A')
                 (A") (A') (A') (A') (A") (A') (A') (A') (A") (A')
                 (A') (A') (A') (A') (A') (A") (A') (A") (A') (A')
                 (A") (A') (A') (A') (A') (A') (A") (A") (A') (A")
                 (A') (A') (A') (A") (A') (A') (A") (A") (A') (A')
                 (A') (A") (A') (A") (A') (A") (A') (A') (A") (A')
                 (A') (A") (A') (A") (A') (A") (A') (A') (A") (A')
                 (A') (A') (A') (A") (A') (A') (A') (A') (A') (A')
 The electronic state is 1-A'.
 Alpha  occ. eigenvalues --  -19.21662 -19.15235 -10.33900 -10.22269  -1.11612
 Alpha  occ. eigenvalues --   -1.03484  -0.76861  -0.63350  -0.52997  -0.48165
 Alpha  occ. eigenvalues --   -0.47835  -0.43420  -0.40999  -0.39021  -0.33184
 Alpha  occ. eigenvalues --   -0.28952
 Alpha virt. eigenvalues --   -0.01650  -0.00966   0.02228   0.04384   0.04450
 Alpha virt. eigenvalues --    0.07098   0.07774   0.08968   0.11211   0.13868
 Alpha virt. eigenvalues --    0.15390   0.17757   0.18813   0.21695   0.22308
 Alpha virt. eigenvalues --    0.23540   0.27661   0.28576   0.28843   0.30505
 Alpha virt. eigenvalues --    0.32454   0.34871   0.37127   0.44571   0.61338
 Alpha virt. eigenvalues --    0.62024   0.66368   0.68726   0.75664   0.78780
 Alpha virt. eigenvalues --    0.88847   0.93210   0.95420   1.05148   1.08087
 Alpha virt. eigenvalues --    1.10183   1.12608   1.22578   1.24288   1.28883
 Alpha virt. eigenvalues --    1.29655   1.32584   1.36757   1.42387   1.49431
 Alpha virt. eigenvalues --    1.52972   1.55592   1.70729   1.72099   1.73652
 Alpha virt. eigenvalues --    1.82185   1.86706   1.93731   2.00215   2.01523
 Alpha virt. eigenvalues --    2.07646   2.09194   2.21079   2.21347   2.28457
 Alpha virt. eigenvalues --    2.41797   2.42065   2.47439   2.56706   2.64414
 Alpha virt. eigenvalues --    2.68627   2.72875   2.79246   2.83746   2.96167
 Alpha virt. eigenvalues --    3.04303   3.20947   3.24383   3.39420   3.40709
 Alpha virt. eigenvalues --    3.49343   4.19007   4.27050   4.35029   4.58652
          Condensed to atoms (all electrons):
               1          2          3          4          5          6
     1  C    4.805767   0.289734  -0.041295  -0.023134  -0.023134   0.454419
     2  C    0.289734   5.216593   0.382351   0.388096   0.388096  -0.122988
     3  H   -0.041295   0.382351   0.573104  -0.027658  -0.027658   0.007307
     4  H   -0.023134   0.388096  -0.027658   0.487650  -0.018145  -0.006696
     5  H   -0.023134   0.388096  -0.027658  -0.018145   0.487650  -0.006696
     6  O    0.454419  -0.122988   0.007307  -0.006696  -0.006696   8.203133
     7  O    0.103529  -0.113382   0.000425   0.002320   0.002320  -0.111836
     8  H    0.027167  -0.003877   0.002443   0.000121   0.000121   0.011092
               7          8
     1  C    0.103529   0.027167
     2  C   -0.113382  -0.003877
     3  H    0.000425   0.002443
     4  H    0.002320   0.000121
     5  H    0.002320   0.000121
     6  O   -0.111836   0.011092
     7  O    8.345513   0.188471
     8  H    0.188471   0.437563
 Mulliken charges:
               1
     1  C    0.406947
     2  C   -0.424621
     3  H    0.130981
     4  H    0.197445
     5  H    0.197445
     6  O   -0.427736
     7  O   -0.417361
     8  H    0.336899
 Sum of Mulliken charges =  -0.00000
 Mulliken charges with hydrogens summed into heavy atoms:
               1
     1  C    0.406947
     2  C    0.101251
     6  O   -0.427736
     7  O   -0.080462
 Electronic spatial extent (au):  <R**2>=            257.7140
 Charge=              0.0000 electrons
 Dipole moment (field-independent basis, Debye):
    X=             -0.2151    Y=             -4.6073    Z=              0.0000  Tot=              4.6123
 Quadrupole moment (field-independent basis, Debye-Ang):
   XX=            -23.8347   YY=            -25.4450   ZZ=            -23.3965
   XY=             -1.0062   XZ=             -0.0000   YZ=             -0.0000
 Traceless Quadrupole moment (field-independent basis, Debye-Ang):
   XX=              0.3907   YY=             -1.2196   ZZ=              0.8289
   XY=             -1.0062   XZ=             -0.0000   YZ=             -0.0000
 Octapole moment (field-independent basis, Debye-Ang**2):
  XXX=              2.1920  YYY=             -6.4641  ZZZ=              0.0000  XYY=              6.0614
  XXY=             -5.8694  XXZ=              0.0000  XZZ=             -0.4540  YZZ=              0.5556
  YYZ=              0.0000  XYZ=              0.0000
 Hexadecapole moment (field-independent basis, Debye-Ang**3):
 XXXX=           -142.8934 YYYY=           -150.4911 ZZZZ=            -28.6827 XXXY=            -16.5018
 XXXZ=              0.0000 YYYX=            -13.7898 YYYZ=             -0.0000 ZZZX=              0.0000
 ZZZY=              0.0000 XXYY=            -44.8818 XXZZ=            -27.5536 YYZZ=            -29.7924
 XXYZ=             -0.0000 YYXZ=             -0.0000 ZZXY=             -2.6157
 N-N= 1.203769627815D+02 E-N=-7.771567721603D+02  KE= 2.269952594087D+02
 Symmetry A'   KE= 2.167486522481D+02
 Symmetry A"   KE= 1.024660716058D+01
 Calculating spin-rotation constants.
 Leave Link  601 at Wed Sep 11 22:05:38 2024, MaxMem=   268435456 cpu:         3.0
 (Enter /g100_work/pMI24_ChiCa/g09d1/g09d01/d01/build-node-6-2-59348/src/main/l9999.exe)
 1\1\GINC-R500N001\SP\RB3LYP\6-31+G(d,p)\C2H4O2\ECABIATI\11-Sep-2024\0\
 \#p B3LYP/6-31+g(d,p) nmr=giao\\acetic acid opt\\0,1\C\C,1,1.5195\H,2,
 1.0936,1,114.2981\H,2,1.0934,1,108.4564,3,121.7832,0\H,2,1.0934,1,108.
 4564,3,-121.7832,0\O,1,1.2059,2,123.3473,3,180.,0\O,1,1.3633,6,119.701
 2,2,180.,0\H,7,0.9672,1,111.0298,6,180.,0\\Version=EM64L-G09RevD.01\St
 ate=1-A'\HF=-229.0954141\RMSD=9.901e-09\Dipole=1.0302938,0.,1.4937811\
 Quadrupole=0.5724922,0.6162513,-1.1887435,0.,-0.3774804,0.\PG=CS [SG(C
 2H2O2),X(H2)]\\@


 A BIRD IN THE HAND IS SAFER THAN ONE OVERHEAD.

                       -- NEWTON'S SEVENTH LAW
 Job cpu time:       0 days  0 hours  0 minutes 28.5 seconds.
 File lengths (MBytes):  RWF=      6 Int=      0 D2E=      0 Chk=      2 Scr=      1
 Normal termination of Gaussian 09 at Wed Sep 11 22:05:38 2024.
