 Entering Gaussian System, Link 0=/programs/64bit/g09/g09-gfortran/bin/g09
 Input=nh2_opt.com
 Output=nh2_opt.log
 Initial command:
 /programs/64bit/g09/g09-gfortran/bin/l1.exe /home/ospite/Desktop/MMfP/Project9/NH3/reactants/NH2/Gau-2558.inp -scrdir=/home/ospite/Desktop/MMfP/Project9/NH3/reactants/NH2/
 Entering Link 1 = /programs/64bit/g09/g09-gfortran/bin/l1.exe PID=      2559.
  
 Copyright (c) 1988,1990,1992,1993,1995,1998,2003,2009, Gaussian, Inc.
                  All Rights Reserved.
  
 This is part of the Gaussian(R) 09 program.  It is based on
 the Gaussian(R) 03 system (copyright 2003, Gaussian, Inc.),
 the Gaussian(R) 98 system (copyright 1998, Gaussian, Inc.),
 the Gaussian(R) 94 system (copyright 1995, Gaussian, Inc.),
 the Gaussian 92(TM) system (copyright 1992, Gaussian, Inc.),
 the Gaussian 90(TM) system (copyright 1990, Gaussian, Inc.),
 the Gaussian 88(TM) system (copyright 1988, Gaussian, Inc.),
 the Gaussian 86(TM) system (copyright 1986, Carnegie Mellon
 University), and the Gaussian 82(TM) system (copyright 1983,
 Carnegie Mellon University). Gaussian is a federally registered
 trademark of Gaussian, Inc.
  
 This software contains proprietary and confidential information,
 including trade secrets, belonging to Gaussian, Inc.
  
 This software is provided under written license and may be
 used, copied, transmitted, or stored only in accord with that
 written license.
  
 The following legend is applicable only to US Government
 contracts under FAR:
  
                    RESTRICTED RIGHTS LEGEND
  
 Use, reproduction and disclosure by the US Government is
 subject to restrictions as set forth in subparagraphs (a)
 and (c) of the Commercial Computer Software - Restricted
 Rights clause in FAR 52.227-19.
  
 Gaussian, Inc.
 340 Quinnipiac St., Bldg. 40, Wallingford CT 06492
  
  
 ---------------------------------------------------------------
 Warning -- This program may not be used in any manner that
 competes with the business of Gaussian, Inc. or will provide
 assistance to any competitor of Gaussian, Inc.  The licensee
 of this program is prohibited from giving any competitor of
 Gaussian, Inc. access to this program.  By using this program,
 the user acknowledges that Gaussian, Inc. is engaged in the
 business of creating and licensing software in the field of
 computational chemistry and represents and warrants to the
 licensee that it is not a competitor of Gaussian, Inc. and that
 it will not use this program in any manner prohibited above.
 ---------------------------------------------------------------
  

 Cite this work as:
 Gaussian 09, Revision A.02,
 M. J. Frisch, G. W. Trucks, H. B. Schlegel, G. E. Scuseria, 
 M. A. Robb, J. R. Cheeseman, G. Scalmani, V. Barone, B. Mennucci, 
 G. A. Petersson, H. Nakatsuji, M. Caricato, X. Li, H. P. Hratchian, 
 A. F. Izmaylov, J. Bloino, G. Zheng, J. L. Sonnenberg, M. Hada, 
 M. Ehara, K. Toyota, R. Fukuda, J. Hasegawa, M. Ishida, T. Nakajima, 
 Y. Honda, O. Kitao, H. Nakai, T. Vreven, J. A. Montgomery, Jr., 
 J. E. Peralta, F. Ogliaro, M. Bearpark, J. J. Heyd, E. Brothers, 
 K. N. Kudin, V. N. Staroverov, R. Kobayashi, J. Normand, 
 K. Raghavachari, A. Rendell, J. C. Burant, S. S. Iyengar, J. Tomasi, 
 M. Cossi, N. Rega, J. M. Millam, M. Klene, J. E. Knox, J. B. Cross, 
 V. Bakken, C. Adamo, J. Jaramillo, R. Gomperts, R. E. Stratmann, 
 O. Yazyev, A. J. Austin, R. Cammi, C. Pomelli, J. W. Ochterski, 
 R. L. Martin, K. Morokuma, V. G. Zakrzewski, G. A. Voth, 
 P. Salvador, J. J. Dannenberg, S. Dapprich, A. D. Daniels, 
 O. Farkas, J. B. Foresman, J. V. Ortiz, J. Cioslowski, 
 and D. J. Fox, Gaussian, Inc., Wallingford CT, 2009.
 
 ******************************************
 Gaussian 09:  EM64L-G09RevA.02 11-Jun-2009
                15-Sep-2024 
 ******************************************
 %mem=100MB
 ----------------------------------------------
 #p b3lyp/6-31+g(d,p) opt freq pop=full gfinput
 ----------------------------------------------
 1/14=-1,18=20,19=15,26=3,38=1/1,3;
 2/9=110,12=2,17=6,18=5,40=1/2;
 3/5=1,6=6,7=111,11=2,16=1,24=10,25=1,30=1,71=1,74=-5/1,2,3;
 4//1;
 5/5=2,38=5/2;
 6/7=3,28=1/1;
 7//1,2,3,16;
 1/14=-1,18=20,19=15/3(2);
 2/9=110/2;
 99//99;
 2/9=110/2;
 3/5=1,6=6,7=111,11=2,16=1,25=1,30=1,71=1,74=-5/1,2,3;
 4/5=5,16=3/1;
 5/5=2,38=5/2;
 7//1,2,3,16;
 1/14=-1,18=20,19=15/3(-5);
 2/9=110/2;
 6/7=3,19=2,28=1/1;
 99/9=1/99;
 Leave Link    1 at Sun Sep 15 20:55:13 2024, MaxMem=   13107200 cpu:       0.1
 (Enter /programs/64bit/g09/g09-gfortran/bin/l101.exe)
 ------------------------------
 NH2 with 6-31+g(d,p) basis set
 ------------------------------
 Symbolic Z-matrix:
 Charge =  0 Multiplicity = 2
 n
 h                    1    hn2
 h                    1    hn3      2    hnh3
       Variables:
  hn2                   1.03                     
  hn3                   1.03                     
  hnh3                109.471                    
 
     1 tetrahedral angles replaced.
 NAtoms=      3 NQM=      3 NQMF=      0 NMic=      0 NMicF=      0 NTot=      3.
                    Isotopes and Nuclear Properties:
 (Nuclear quadrupole moments (NQMom) in fm**2, nuclear magnetic moments (NMagM)
  in nuclear magnetons)

  Atom         1           2           3
 IAtWgt=          14           1           1
 AtmWgt=  14.0030740   1.0078250   1.0078250
 NucSpn=           2           1           1
 AtZEff=   0.0000000   0.0000000   0.0000000
 NQMom=    2.0440000   0.0000000   0.0000000
 NMagM=    0.4037610   2.7928460   2.7928460
 Leave Link  101 at Sun Sep 15 20:55:14 2024, MaxMem=   13107200 cpu:       0.2
 (Enter /programs/64bit/g09/g09-gfortran/bin/l103.exe)

 GradGradGradGradGradGradGradGradGradGradGradGradGradGradGradGradGradGrad
 Berny optimization.
 Initialization pass.
                           ----------------------------
                           !    Initial Parameters    !
                           ! (Angstroms and Degrees)  !
 --------------------------                            --------------------------
 ! Name  Definition              Value          Derivative Info.                !
 --------------------------------------------------------------------------------
 ! R1    R(1,2)                  1.03           estimate D2E/DX2                !
 ! R2    R(1,3)                  1.03           estimate D2E/DX2                !
 ! A1    A(2,1,3)              109.4712         estimate D2E/DX2                !
 --------------------------------------------------------------------------------
 Trust Radius=3.00D-01 FncErr=1.00D-07 GrdErr=1.00D-06
 Number of steps in this run=  20 maximum allowed number of steps= 100.
 GradGradGradGradGradGradGradGradGradGradGradGradGradGradGradGradGradGrad

 Leave Link  103 at Sun Sep 15 20:55:14 2024, MaxMem=   13107200 cpu:       0.0
 (Enter /programs/64bit/g09/g09-gfortran/bin/l202.exe)
                          Input orientation:                          
 ---------------------------------------------------------------------
 Center     Atomic      Atomic             Coordinates (Angstroms)
 Number     Number       Type             X           Y           Z
 ---------------------------------------------------------------------
      1          7           0        0.000000    0.000000    0.000000
      2          1           0        0.000000    0.000000    1.030000
      3          1           0        0.971093    0.000000   -0.343333
 ---------------------------------------------------------------------
                    Distance matrix (angstroms):
                    1          2          3
     1  N    0.000000
     2  H    1.030000   0.000000
     3  H    1.030000   1.681983   0.000000
 Stoichiometry    H2N(2)
 Framework group  C2V[C2(N),SGV(H2)]
 Deg. of freedom     2
 Full point group                 C2V     NOp   4
 Largest Abelian subgroup         C2V     NOp   4
 Largest concise Abelian subgroup C2      NOp   2
                         Standard orientation:                         
 ---------------------------------------------------------------------
 Center     Atomic      Atomic             Coordinates (Angstroms)
 Number     Number       Type             X           Y           Z
 ---------------------------------------------------------------------
      1          7           0        0.000000    0.000000    0.132149
      2          1           0       -0.000000    0.840991   -0.462522
      3          1           0       -0.000000   -0.840991   -0.462522
 ---------------------------------------------------------------------
 Rotational constants (GHZ):    811.0607767    354.5021446    246.6814785
 Leave Link  202 at Sun Sep 15 20:55:14 2024, MaxMem=   13107200 cpu:       0.0
 (Enter /programs/64bit/g09/g09-gfortran/bin/l301.exe)
 Standard basis: 6-31+G(d,p) (6D, 7F)
 Ernie: Thresh=  0.10000D-02 Tol=  0.10000D-05 Strict=F.
 AO basis set in the form of general basis input (Overlap normalization):
      1 0
 S   6 1.00       0.000000000000
      0.4173511460D+04  0.1834772160D-02
      0.6274579110D+03  0.1399462700D-01
      0.1429020930D+03  0.6858655181D-01
      0.4023432930D+02  0.2322408730D+00
      0.1282021290D+02  0.4690699481D+00
      0.4390437010D+01  0.3604551991D+00
 SP   3 1.00       0.000000000000
      0.1162636186D+02 -0.1149611817D+00  0.6757974388D-01
      0.2716279807D+01 -0.1691174786D+00  0.3239072959D+00
      0.7722183966D+00  0.1145851947D+01  0.7408951398D+00
 SP   1 1.00       0.000000000000
      0.2120314975D+00  0.1000000000D+01  0.1000000000D+01
 SP   1 1.00       0.000000000000
      0.6390000000D-01  0.1000000000D+01  0.1000000000D+01
 D   1 1.00       0.000000000000
      0.8000000000D+00  0.1000000000D+01
 ****
      2 0
 S   3 1.00       0.000000000000
      0.1873113696D+02  0.3349460434D-01
      0.2825394365D+01  0.2347269535D+00
      0.6401216923D+00  0.8137573261D+00
 S   1 1.00       0.000000000000
      0.1612777588D+00  0.1000000000D+01
 P   1 1.00       0.000000000000
      0.1100000000D+01  0.1000000000D+01
 ****
      3 0
 S   3 1.00       0.000000000000
      0.1873113696D+02  0.3349460434D-01
      0.2825394365D+01  0.2347269535D+00
      0.6401216923D+00  0.8137573261D+00
 S   1 1.00       0.000000000000
      0.1612777588D+00  0.1000000000D+01
 P   1 1.00       0.000000000000
      0.1100000000D+01  0.1000000000D+01
 ****

 There are    14 symmetry adapted basis functions of A1  symmetry.
 There are     2 symmetry adapted basis functions of A2  symmetry.
 There are     5 symmetry adapted basis functions of B1  symmetry.
 There are     8 symmetry adapted basis functions of B2  symmetry.
 Integral buffers will be    131072 words long.
 Raffenetti 2 integral format.
 Two-electron integral symmetry is turned on.
    29 basis functions,    46 primitive gaussians,    29 cartesian basis functions
     5 alpha electrons        4 beta electrons
       nuclear repulsion energy         7.5073150062 Hartrees.
 IExCor=  402 DFT=T Ex+Corr=B3LYP ExCW=0 ScaHFX=  0.200000
 ScaDFX=  0.800000  0.720000  1.000000  0.810000 ScalE2=  1.000000  1.000000
 IRadAn=      0 IRanWt=     -1 IRanGd=            0 ICorTp=0
 NAtoms=    3 NActive=    3 NUniq=    2 SFac= 1.69D+00 NAtFMM=   80 NAOKFM=F Big=F
 Leave Link  301 at Sun Sep 15 20:55:14 2024, MaxMem=   13107200 cpu:       0.1
 (Enter /programs/64bit/g09/g09-gfortran/bin/l302.exe)
 NPDir=0 NMtPBC=     1 NCelOv=     1 NCel=       1 NClECP=     1 NCelD=      1
         NCelK=      1 NCelE2=     1 NClLst=     1 CellRange=     0.0.
 One-electron integrals computed using PRISM.
 One-electron integral symmetry used in STVInt
 NBasis=    29 RedAO= T  NBF=    14     2     5     8
 NBsUse=    29 1.00D-06 NBFU=    14     2     5     8
 Precomputing XC quadrature grid using
 IXCGrd= 2 IRadAn=           0 IRanWt=          -1 IRanGd=           0 AccXCQ= 1.00D-10.
 NRdTot=     189 NPtTot=       23944 NUsed=       25319 NTot=       25351
 NSgBfM=    29    29    29    29    29 NAtAll=     3     3.
 Leave Link  302 at Sun Sep 15 20:55:14 2024, MaxMem=   13107200 cpu:       0.2
 (Enter /programs/64bit/g09/g09-gfortran/bin/l303.exe)
 DipDrv:  MaxL=1.
 Leave Link  303 at Sun Sep 15 20:55:14 2024, MaxMem=   13107200 cpu:       0.0
 (Enter /programs/64bit/g09/g09-gfortran/bin/l401.exe)
 Harris functional with IExCor=  402 diagonalized for initial guess.
 ExpMin= 6.39D-02 ExpMax= 4.17D+03 ExpMxC= 6.27D+02 IAcc=2 IRadAn=         0 AccDes= 0.00D+00
 HarFok:  IExCor=  402 AccDes= 0.00D+00 IRadAn=         0 IDoV= 1
 ScaDFX=  1.000000  1.000000  1.000000  1.000000
 FoFCou: FMM=F IPFlag=           0 FMFlag=      100000 FMFlg1=           0
         NFxFlg=           0 DoJE=T BraDBF=F KetDBF=T FulRan=T
         Omega=  0.000000  0.000000  1.000000  0.000000  0.000000 ICntrl=     500 IOpCl=  0
         NMat0=    1 NMatS0=    1 NMatT0=    0 NMatD0=    1 NMtDS0=    0 NMtDT0=    0
         I1Cent=           4 NGrid=           0.
 Petite list used in FoFCou.
 Harris En= -55.8663618432020    
 Initial guess orbital symmetries:
 Alpha Orbitals:
       Occupied  (A1) (A1) (B2) (A1) (B1)
       Virtual   (A1) (B2) (A1) (B1) (B2) (A1) (B2) (A1) (B1) (B2)
                 (A1) (A1) (A2) (A1) (B1) (A1) (B2) (B2) (B1) (A2)
                 (A1) (A1) (B2) (A1)
 Beta  Orbitals:
       Occupied  (A1) (A1) (B2) (A1)
       Virtual   (B1) (A1) (B2) (A1) (B1) (B2) (A1) (B2) (A1) (B1)
                 (B2) (A1) (A1) (A2) (A1) (B1) (A1) (B2) (B2) (B1)
                 (A2) (A1) (A1) (B2) (A1)
 The electronic state of the initial guess is 2-B1.
 Initial guess <Sx>= 0.0000 <Sy>= 0.0000 <Sz>= 0.5000 <S**2>= 0.7500 S= 0.5000
 Leave Link  401 at Sun Sep 15 20:55:14 2024, MaxMem=   13107200 cpu:       0.3
 (Enter /programs/64bit/g09/g09-gfortran/bin/l502.exe)
 UHF open shell SCF:
 Requested convergence on RMS density matrix=1.00D-08 within 128 cycles.
 Requested convergence on MAX density matrix=1.00D-06.
 Requested convergence on             energy=1.00D-06.
 No special actions if energy rises.
 Using DIIS extrapolation, IDIIS=  1040.
 Integral symmetry usage will be decided dynamically.
        25279 words used for storage of precomputed grid.
 Keep R1 and R2 ints in memory in canonical form, NReq=1094625.
 IEnd=       46404 IEndB=       46404 NGot=    13107200 MDV=    12888619
 LenX=    12888619 LenY=    12887337
 Symmetry not used in FoFDir.
 MinBra= 0 MaxBra= 2 Meth= 1.
 IRaf=       0 NMat=   1 IRICut=       1 DoRegI=T DoRafI=F ISym2E= 0 JSym2E=0.
 Integral accuracy reduced to 1.0D-05 until final iterations.

 Cycle   1  Pass 0  IDiag  1:
 E= -55.8574136644474    
 DIIS: error= 4.07D-02 at cycle   1 NSaved=   1.
 NSaved= 1 IEnMin= 1 EnMin= -55.8574136644474     IErMin= 1 ErrMin= 4.07D-02
 ErrMax= 4.07D-02 EMaxC= 1.00D-01 BMatC= 1.06D-01 BMatP= 1.06D-01
 IDIUse=3 WtCom= 5.93D-01 WtEn= 4.07D-01
 Coeff-Com:  0.100D+01
 Coeff-En:   0.100D+01
 Coeff:      0.100D+01
 Gap=     0.270 Goal=   None    Shift=    0.000
 Gap=     0.185 Goal=   None    Shift=    0.000
 GapD=    0.185 DampG=1.000 DampE=0.500 DampFc=0.5000 IDamp=-1.
 Damping current iteration by 5.00D-01
 RMSDP=9.77D-03 MaxDP=1.18D-01              OVMax= 1.52D-01

 Cycle   2  Pass 0  IDiag  1:
 E= -55.8682130177144     Delta-E=       -0.010799353267 Rises=F Damp=T
 DIIS: error= 1.03D-02 at cycle   2 NSaved=   2.
 NSaved= 2 IEnMin= 2 EnMin= -55.8682130177144     IErMin= 2 ErrMin= 1.03D-02
 ErrMax= 1.03D-02 EMaxC= 1.00D-01 BMatC= 7.60D-03 BMatP= 1.06D-01
 IDIUse=3 WtCom= 8.97D-01 WtEn= 1.03D-01
 Coeff-Com:  0.127D+00 0.873D+00
 Coeff-En:   0.196D+00 0.804D+00
 Coeff:      0.134D+00 0.866D+00
 Gap=     0.335 Goal=   None    Shift=    0.000
 Gap=     0.177 Goal=   None    Shift=    0.000
 RMSDP=1.31D-03 MaxDP=2.25D-02 DE=-1.08D-02 OVMax= 7.81D-02

 Cycle   3  Pass 0  IDiag  1:
 E= -55.8845187876091     Delta-E=       -0.016305769895 Rises=F Damp=F
 DIIS: error= 1.48D-03 at cycle   3 NSaved=   3.
 NSaved= 3 IEnMin= 3 EnMin= -55.8845187876091     IErMin= 3 ErrMin= 1.48D-03
 ErrMax= 1.48D-03 EMaxC= 1.00D-01 BMatC= 1.68D-04 BMatP= 7.60D-03
 IDIUse=3 WtCom= 9.85D-01 WtEn= 1.48D-02
 Coeff-Com: -0.122D-01 0.131D-01 0.999D+00
 Coeff-En:   0.000D+00 0.000D+00 0.100D+01
 Coeff:     -0.120D-01 0.129D-01 0.999D+00
 Gap=     0.340 Goal=   None    Shift=    0.000
 Gap=     0.177 Goal=   None    Shift=    0.000
 RMSDP=2.51D-04 MaxDP=3.16D-03 DE=-1.63D-02 OVMax= 4.03D-03

 Cycle   4  Pass 0  IDiag  1:
 E= -55.8845871171585     Delta-E=       -0.000068329549 Rises=F Damp=F
 DIIS: error= 4.53D-04 at cycle   4 NSaved=   4.
 NSaved= 4 IEnMin= 4 EnMin= -55.8845871171585     IErMin= 4 ErrMin= 4.53D-04
 ErrMax= 4.53D-04 EMaxC= 1.00D-01 BMatC= 1.48D-05 BMatP= 1.68D-04
 IDIUse=3 WtCom= 9.95D-01 WtEn= 4.53D-03
 Coeff-Com: -0.516D-02-0.198D-01 0.351D-01 0.990D+00
 Coeff-En:   0.000D+00 0.000D+00 0.000D+00 0.100D+01
 Coeff:     -0.514D-02-0.197D-01 0.349D-01 0.990D+00
 Gap=     0.341 Goal=   None    Shift=    0.000
 Gap=     0.176 Goal=   None    Shift=    0.000
 RMSDP=8.68D-05 MaxDP=1.20D-03 DE=-6.83D-05 OVMax= 1.39D-03

 Cycle   5  Pass 0  IDiag  1:
 E= -55.8845943662549     Delta-E=       -0.000007249096 Rises=F Damp=F
 DIIS: error= 1.33D-04 at cycle   5 NSaved=   5.
 NSaved= 5 IEnMin= 5 EnMin= -55.8845943662549     IErMin= 5 ErrMin= 1.33D-04
 ErrMax= 1.33D-04 EMaxC= 1.00D-01 BMatC= 1.43D-06 BMatP= 1.48D-05
 IDIUse=3 WtCom= 9.99D-01 WtEn= 1.33D-03
 Coeff-Com:  0.727D-03 0.337D-02-0.849D-01-0.798D-01 0.116D+01
 Coeff-En:   0.000D+00 0.000D+00 0.000D+00 0.000D+00 0.100D+01
 Coeff:      0.726D-03 0.337D-02-0.848D-01-0.797D-01 0.116D+01
 Gap=     0.341 Goal=   None    Shift=    0.000
 Gap=     0.176 Goal=   None    Shift=    0.000
 RMSDP=4.09D-05 MaxDP=5.18D-04 DE=-7.25D-06 OVMax= 5.94D-04

 Cycle   6  Pass 0  IDiag  1:
 E= -55.8845953025253     Delta-E=       -0.000000936270 Rises=F Damp=F
 DIIS: error= 3.01D-05 at cycle   6 NSaved=   6.
 NSaved= 6 IEnMin= 6 EnMin= -55.8845953025253     IErMin= 6 ErrMin= 3.01D-05
 ErrMax= 3.01D-05 EMaxC= 1.00D-01 BMatC= 4.72D-08 BMatP= 1.43D-06
 IDIUse=1 WtCom= 1.00D+00 WtEn= 0.00D+00
 Coeff-Com:  0.238D-03-0.156D-03 0.198D-01-0.279D-01-0.288D+00 0.130D+01
 Coeff:      0.238D-03-0.156D-03 0.198D-01-0.279D-01-0.288D+00 0.130D+01
 Gap=     0.341 Goal=   None    Shift=    0.000
 Gap=     0.176 Goal=   None    Shift=    0.000
 RMSDP=1.19D-05 MaxDP=1.21D-04 DE=-9.36D-07 OVMax= 1.68D-04

 Cycle   7  Pass 0  IDiag  1:
 E= -55.8845953435530     Delta-E=       -0.000000041028 Rises=F Damp=F
 DIIS: error= 2.52D-06 at cycle   7 NSaved=   7.
 NSaved= 7 IEnMin= 7 EnMin= -55.8845953435530     IErMin= 7 ErrMin= 2.52D-06
 ErrMax= 2.52D-06 EMaxC= 1.00D-01 BMatC= 3.72D-10 BMatP= 4.72D-08
 IDIUse=1 WtCom= 1.00D+00 WtEn= 0.00D+00
 Coeff-Com: -0.182D-04-0.602D-04-0.718D-03 0.307D-02 0.136D-01-0.146D+00
 Coeff-Com:  0.113D+01
 Coeff:     -0.182D-04-0.602D-04-0.718D-03 0.307D-02 0.136D-01-0.146D+00
 Coeff:      0.113D+01
 Gap=     0.341 Goal=   None    Shift=    0.000
 Gap=     0.176 Goal=   None    Shift=    0.000
 RMSDP=1.14D-06 MaxDP=1.00D-05 DE=-4.10D-08 OVMax= 1.73D-05

 Initial convergence to 1.0D-05 achieved.  Increase integral accuracy.
 Cycle   8  Pass 1  IDiag  1:
 E= -55.8846012850771     Delta-E=       -0.000005941524 Rises=F Damp=F
 DIIS: error= 3.06D-06 at cycle   1 NSaved=   1.
 NSaved= 1 IEnMin= 1 EnMin= -55.8846012850771     IErMin= 1 ErrMin= 3.06D-06
 ErrMax= 3.06D-06 EMaxC= 1.00D-01 BMatC= 6.23D-10 BMatP= 6.23D-10
 IDIUse=1 WtCom= 1.00D+00 WtEn= 0.00D+00
 Coeff-Com:  0.100D+01
 Coeff:      0.100D+01
 Gap=     0.341 Goal=   None    Shift=    0.000
 Gap=     0.176 Goal=   None    Shift=    0.000
 RMSDP=1.14D-06 MaxDP=1.00D-05 DE=-5.94D-06 OVMax= 8.62D-06

 Cycle   9  Pass 1  IDiag  1:
 E= -55.8846012852464     Delta-E=       -0.000000000169 Rises=F Damp=F
 DIIS: error= 7.23D-07 at cycle   2 NSaved=   2.
 NSaved= 2 IEnMin= 2 EnMin= -55.8846012852464     IErMin= 2 ErrMin= 7.23D-07
 ErrMax= 7.23D-07 EMaxC= 1.00D-01 BMatC= 3.39D-11 BMatP= 6.23D-10
 IDIUse=1 WtCom= 1.00D+00 WtEn= 0.00D+00
 Coeff-Com:  0.628D-01 0.937D+00
 Coeff:      0.628D-01 0.937D+00
 Gap=     0.341 Goal=   None    Shift=    0.000
 Gap=     0.176 Goal=   None    Shift=    0.000
 RMSDP=1.61D-07 MaxDP=2.57D-06 DE=-1.69D-10 OVMax= 3.34D-06

 Cycle  10  Pass 1  IDiag  1:
 E= -55.8846012852482     Delta-E=       -0.000000000002 Rises=F Damp=F
 DIIS: error= 7.11D-07 at cycle   3 NSaved=   3.
 NSaved= 3 IEnMin= 3 EnMin= -55.8846012852482     IErMin= 3 ErrMin= 7.11D-07
 ErrMax= 7.11D-07 EMaxC= 1.00D-01 BMatC= 3.56D-11 BMatP= 3.39D-11
 IDIUse=1 WtCom= 1.00D+00 WtEn= 0.00D+00
 Coeff-Com: -0.353D-01 0.508D+00 0.528D+00
 Coeff:     -0.353D-01 0.508D+00 0.528D+00
 Gap=     0.341 Goal=   None    Shift=    0.000
 Gap=     0.176 Goal=   None    Shift=    0.000
 RMSDP=7.69D-08 MaxDP=1.19D-06 DE=-1.80D-12 OVMax= 1.25D-06

 Cycle  11  Pass 1  IDiag  1:
 E= -55.8846012852565     Delta-E=       -0.000000000008 Rises=F Damp=F
 DIIS: error= 7.54D-08 at cycle   4 NSaved=   4.
 NSaved= 4 IEnMin= 4 EnMin= -55.8846012852565     IErMin= 4 ErrMin= 7.54D-08
 ErrMax= 7.54D-08 EMaxC= 1.00D-01 BMatC= 2.55D-13 BMatP= 3.39D-11
 IDIUse=1 WtCom= 1.00D+00 WtEn= 0.00D+00
 Coeff-Com: -0.147D-03-0.769D-01 0.953D-02 0.107D+01
 Coeff:     -0.147D-03-0.769D-01 0.953D-02 0.107D+01
 Gap=     0.341 Goal=   None    Shift=    0.000
 Gap=     0.176 Goal=   None    Shift=    0.000
 RMSDP=1.10D-08 MaxDP=2.15D-07 DE=-8.28D-12 OVMax= 2.92D-07

 Cycle  12  Pass 1  IDiag  1:
 E= -55.8846012852565     Delta-E=       -0.000000000000 Rises=F Damp=F
 DIIS: error= 6.31D-09 at cycle   5 NSaved=   5.
 NSaved= 5 IEnMin= 5 EnMin= -55.8846012852565     IErMin= 5 ErrMin= 6.31D-09
 ErrMax= 6.31D-09 EMaxC= 1.00D-01 BMatC= 2.08D-15 BMatP= 2.55D-13
 IDIUse=1 WtCom= 1.00D+00 WtEn= 0.00D+00
 Coeff-Com:  0.556D-03 0.573D-03-0.129D-01-0.151D+00 0.116D+01
 Coeff:      0.556D-03 0.573D-03-0.129D-01-0.151D+00 0.116D+01
 Gap=     0.341 Goal=   None    Shift=    0.000
 Gap=     0.176 Goal=   None    Shift=    0.000
 RMSDP=1.67D-09 MaxDP=2.42D-08 DE=-1.42D-14 OVMax= 3.14D-08

 SCF Done:  E(UB3LYP) =  -55.8846012853     A.U. after   12 cycles
             Convg  =    0.1666D-08             -V/T =  2.0099
 <Sx>= 0.0000 <Sy>= 0.0000 <Sz>= 0.5000 <S**2>= 0.7530 S= 0.5015
 <L.S>=  0.00000000000    
 KE= 5.533773813625D+01 PE=-1.453878102108D+02 EE= 2.665815578306D+01
 Annihilation of the first spin contaminant:
 S**2 before annihilation     0.7530,   after     0.7500
 Leave Link  502 at Sun Sep 15 20:55:16 2024, MaxMem=   13107200 cpu:       1.6
 (Enter /programs/64bit/g09/g09-gfortran/bin/l601.exe)
 Copying SCF densities to generalized density rwf, IOpCl= 1 IROHF=0.

 **********************************************************************

            Population analysis using the SCF density.

 **********************************************************************

 Orbital symmetries:
 Alpha Orbitals:
       Occupied  (A1) (A1) (B2) (A1) (B1)
       Virtual   (A1) (B2) (B1) (A1) (B2) (A1) (B2) (B1) (A1) (B2)
                 (A1) (A1) (A2) (A1) (B1) (A1) (B2) (B2) (B1) (A2)
                 (A1) (A1) (B2) (A1)
 Beta  Orbitals:
       Occupied  (A1) (A1) (B2) (A1)
       Virtual   (B1) (A1) (B2) (A1) (B1) (B2) (A1) (B2) (A1) (B1)
                 (B2) (A1) (A1) (A2) (A1) (B1) (A1) (B2) (B2) (B1)
                 (A2) (A1) (A1) (B2) (A1)
 The electronic state is 2-B1.
 Alpha  occ. eigenvalues --  -14.37765  -0.86126  -0.49258  -0.32524  -0.32331
 Alpha virt. eigenvalues --    0.01758   0.08719   0.10691   0.11601   0.19107
 Alpha virt. eigenvalues --    0.20586   0.82354   0.82760   0.85044   0.91501
 Alpha virt. eigenvalues --    0.96957   1.03014   1.42729   1.49405   1.55839
 Alpha virt. eigenvalues --    2.03582   2.12599   2.32954   2.49690   2.53799
 Alpha virt. eigenvalues --    2.86984   3.20522   3.36460   3.80039
  Beta  occ. eigenvalues --  -14.35850  -0.80774  -0.47867  -0.30060
  Beta virt. eigenvalues --   -0.12429   0.02474   0.08983   0.11892   0.13237
  Beta virt. eigenvalues --    0.19455   0.21669   0.83570   0.86460   0.90614
  Beta virt. eigenvalues --    0.91493   0.98180   1.05622   1.47254   1.51512
  Beta virt. eigenvalues --    1.61096   2.10088   2.12346   2.33492   2.51953
  Beta virt. eigenvalues --    2.56684   2.87296   3.21908   3.37318   3.83279
     Alpha Molecular Orbital Coefficients:
                           1         2         3         4         5
                        (A1)--O   (A1)--O   (B2)--O   (A1)--O   (B1)--O
     Eigenvalues --   -14.37765  -0.86126  -0.49258  -0.32524  -0.32331
   1 1   N  1S          0.99254  -0.20617   0.00000  -0.08561   0.00000
   2        2S          0.03523   0.44754   0.00000   0.19245   0.00000
   3        2PX         0.00000   0.00000   0.00000   0.00000   0.65306
   4        2PY         0.00000   0.00000   0.49740   0.00000   0.00000
   5        2PZ        -0.00159  -0.12703   0.00000   0.54527   0.00000
   6        3S          0.00445   0.45122   0.00000   0.36495   0.00000
   7        3PX         0.00000   0.00000   0.00000   0.00000   0.43144
   8        3PY         0.00000   0.00000   0.21976   0.00000   0.00000
   9        3PZ         0.00068  -0.05976   0.00000   0.32611   0.00000
  10        4S         -0.00055   0.01251   0.00000   0.04625   0.00000
  11        4PX         0.00000   0.00000   0.00000   0.00000   0.08917
  12        4PY         0.00000   0.00000   0.00887   0.00000   0.00000
  13        4PZ        -0.00039  -0.00825   0.00000   0.08113   0.00000
  14        5XX        -0.00831  -0.00208   0.00000   0.01771   0.00000
  15        5YY        -0.00844  -0.00973   0.00000  -0.00343   0.00000
  16        5ZZ        -0.00856  -0.01053   0.00000  -0.03990   0.00000
  17        5XY         0.00000   0.00000   0.00000   0.00000   0.00000
  18        5XZ         0.00000   0.00000   0.00000   0.00000  -0.02810
  19        5YZ         0.00000   0.00000  -0.03682   0.00000   0.00000
  20 2   H  1S          0.00017   0.16018   0.24648  -0.13019   0.00000
  21        2S         -0.00035   0.00538   0.16081  -0.12151   0.00000
  22        3PX         0.00000   0.00000   0.00000   0.00000   0.01826
  23        3PY         0.00020  -0.01722  -0.00315   0.00756   0.00000
  24        3PZ        -0.00014   0.00987   0.00980   0.01240   0.00000
  25 3   H  1S          0.00017   0.16018  -0.24648  -0.13019   0.00000
  26        2S         -0.00035   0.00538  -0.16081  -0.12151   0.00000
  27        3PX         0.00000   0.00000   0.00000   0.00000   0.01826
  28        3PY        -0.00020   0.01722  -0.00315  -0.00756   0.00000
  29        3PZ        -0.00014   0.00987  -0.00980   0.01240   0.00000
                           6         7         8         9        10
                        (A1)--V   (B2)--V   (B1)--V   (A1)--V   (B2)--V
     Eigenvalues --     0.01758   0.08719   0.10691   0.11601   0.19107
   1 1   N  1S          0.08729   0.00000   0.00000   0.05374   0.00000
   2        2S         -0.15414   0.00000   0.00000  -0.07974   0.00000
   3        2PX         0.00000   0.00000  -0.25854   0.00000   0.00000
   4        2PY         0.00000  -0.27855   0.00000   0.00000  -0.32822
   5        2PZ         0.19489   0.00000   0.00000  -0.18869   0.00000
   6        3S         -0.89692   0.00000   0.00000  -0.61695   0.00000
   7        3PX         0.00000   0.00000  -0.40835   0.00000   0.00000
   8        3PY         0.00000  -0.46535   0.00000   0.00000  -0.91945
   9        3PZ         0.18416   0.00000   0.00000  -0.30095   0.00000
  10        4S          1.33908   0.00000   0.00000   0.32634   0.00000
  11        4PX         0.00000   0.00000   1.17854   0.00000   0.00000
  12        4PY         0.00000   1.13088   0.00000   0.00000  -0.98085
  13        4PZ        -0.42178   0.00000   0.00000   1.19421   0.00000
  14        5XX         0.02669   0.00000   0.00000   0.01030   0.00000
  15        5YY         0.03770   0.00000   0.00000   0.02774   0.00000
  16        5ZZ         0.02470   0.00000   0.00000   0.03428   0.00000
  17        5XY         0.00000   0.00000   0.00000   0.00000   0.00000
  18        5XZ         0.00000   0.00000   0.00964   0.00000   0.00000
  19        5YZ         0.00000   0.02039   0.00000   0.00000  -0.01433
  20 2   H  1S          0.04983   0.01095   0.00000   0.03264   0.16181
  21        2S          0.02374   0.08297   0.00000   0.27889   1.71304
  22        3PX         0.00000   0.00000   0.00428   0.00000   0.00000
  23        3PY         0.01849   0.00690   0.00000   0.00436  -0.00780
  24        3PZ        -0.00973  -0.00329   0.00000   0.00251  -0.01076
  25 3   H  1S          0.04983  -0.01095   0.00000   0.03264  -0.16181
  26        2S          0.02374  -0.08297   0.00000   0.27889  -1.71304
  27        3PX         0.00000   0.00000   0.00428   0.00000   0.00000
  28        3PY        -0.01849   0.00690   0.00000  -0.00436  -0.00780
  29        3PZ        -0.00973   0.00329   0.00000   0.00251   0.01076
                          11        12        13        14        15
                        (A1)--V   (B2)--V   (B1)--V   (A1)--V   (B2)--V
     Eigenvalues --     0.20586   0.82354   0.82760   0.85044   0.91501
   1 1   N  1S         -0.06628   0.00000   0.00000   0.02125   0.00000
   2        2S          0.07122   0.00000   0.00000   0.30127   0.00000
   3        2PX         0.00000   0.00000  -0.98878   0.00000   0.00000
   4        2PY         0.00000  -0.93012   0.00000   0.00000   0.19495
   5        2PZ        -0.25771   0.00000   0.00000  -0.95661   0.00000
   6        3S          1.29904   0.00000   0.00000  -1.16110   0.00000
   7        3PX         0.00000   0.00000   1.45951   0.00000   0.00000
   8        3PY         0.00000   1.90031   0.00000   0.00000  -0.02123
   9        3PZ        -0.78953   0.00000   0.00000   1.76028   0.00000
  10        4S          2.05658   0.00000   0.00000  -0.44825   0.00000
  11        4PX         0.00000   0.00000  -0.69379   0.00000   0.00000
  12        4PY         0.00000  -0.35286   0.00000   0.00000  -0.83269
  13        4PZ        -0.62644   0.00000   0.00000  -0.42343   0.00000
  14        5XX         0.00390   0.00000   0.00000   0.01529   0.00000
  15        5YY        -0.05235   0.00000   0.00000   0.03859   0.00000
  16        5ZZ        -0.00404   0.00000   0.00000   0.00451   0.00000
  17        5XY         0.00000   0.00000   0.00000   0.00000   0.00000
  18        5XZ         0.00000   0.00000  -0.00689   0.00000   0.00000
  19        5YZ         0.00000  -0.04310   0.00000   0.00000   0.30425
  20 2   H  1S         -0.17555  -0.05931   0.00000   0.06706  -0.82204
  21        2S         -1.99421  -0.78203   0.00000   0.81228   1.55551
  22        3PX         0.00000   0.00000   0.00345   0.00000   0.00000
  23        3PY        -0.00641   0.10170   0.00000  -0.05274  -0.02402
  24        3PZ        -0.00706  -0.05629   0.00000   0.06634   0.08198
  25 3   H  1S         -0.17555   0.05931   0.00000   0.06706   0.82204
  26        2S         -1.99421   0.78203   0.00000   0.81228  -1.55551
  27        3PX         0.00000   0.00000   0.00345   0.00000   0.00000
  28        3PY         0.00641   0.10170   0.00000   0.05274  -0.02402
  29        3PZ        -0.00706   0.05629   0.00000   0.06634  -0.08198
                          16        17        18        19        20
                        (A1)--V   (A1)--V   (A2)--V   (A1)--V   (B1)--V
     Eigenvalues --     0.96957   1.03014   1.42729   1.49405   1.55839
   1 1   N  1S         -0.04115  -0.03986   0.00000   0.01337   0.00000
   2        2S          0.28201  -1.56695   0.00000   0.15263   0.00000
   3        2PX         0.00000   0.00000   0.00000   0.00000   0.02322
   4        2PY         0.00000   0.00000   0.00000   0.00000   0.00000
   5        2PZ        -0.12247  -0.17168   0.00000   0.00393   0.00000
   6        3S         -0.90152   3.40197   0.00000  -0.41424   0.00000
   7        3PX         0.00000   0.00000   0.00000   0.00000   0.18857
   8        3PY         0.00000   0.00000   0.00000   0.00000   0.00000
   9        3PZ         0.11669  -0.05352   0.00000   0.35395   0.00000
  10        4S         -1.31453  -0.61039   0.00000   0.04878   0.00000
  11        4PX         0.00000   0.00000   0.00000   0.00000  -0.05002
  12        4PY         0.00000   0.00000   0.00000   0.00000   0.00000
  13        4PZ         0.62948  -0.28494   0.00000  -0.07145   0.00000
  14        5XX         0.21935  -0.19863   0.00000  -0.35901   0.00000
  15        5YY        -0.28631  -0.35783   0.00000  -0.33549   0.00000
  16        5ZZ         0.02165  -0.24329   0.00000   0.78252   0.00000
  17        5XY         0.00000   0.00000   0.71723   0.00000   0.00000
  18        5XZ         0.00000   0.00000   0.00000   0.00000   0.82908
  19        5YZ         0.00000   0.00000   0.00000   0.00000   0.00000
  20 2   H  1S         -0.85885  -0.11108   0.00000   0.17398   0.00000
  21        2S          1.75963  -0.59743   0.00000   0.03906   0.00000
  22        3PX         0.00000   0.00000   0.33354   0.00000  -0.27447
  23        3PY        -0.10652  -0.00178   0.00000  -0.15758   0.00000
  24        3PZ        -0.00295  -0.04355   0.00000  -0.25600   0.00000
  25 3   H  1S         -0.85885  -0.11108   0.00000   0.17398   0.00000
  26        2S          1.75963  -0.59743   0.00000   0.03906   0.00000
  27        3PX         0.00000   0.00000  -0.33354   0.00000  -0.27447
  28        3PY         0.10652   0.00178   0.00000   0.15758   0.00000
  29        3PZ        -0.00295  -0.04355   0.00000  -0.25600   0.00000
                          21        22        23        24        25
                        (A1)--V   (B2)--V   (B2)--V   (B1)--V   (A2)--V
     Eigenvalues --     2.03582   2.12599   2.32954   2.49690   2.53799
   1 1   N  1S         -0.05201   0.00000   0.00000   0.00000   0.00000
   2        2S         -0.36104   0.00000   0.00000   0.00000   0.00000
   3        2PX         0.00000   0.00000   0.00000  -0.01378   0.00000
   4        2PY         0.00000  -0.11203   0.26960   0.00000   0.00000
   5        2PZ         0.12242   0.00000   0.00000   0.00000   0.00000
   6        3S          1.00897   0.00000   0.00000   0.00000   0.00000
   7        3PX         0.00000   0.00000   0.00000  -0.41772   0.00000
   8        3PY         0.00000   0.63851  -0.26189   0.00000   0.00000
   9        3PZ        -0.53524   0.00000   0.00000   0.00000   0.00000
  10        4S         -0.23036   0.00000   0.00000   0.00000   0.00000
  11        4PX         0.00000   0.00000   0.00000   0.09969   0.00000
  12        4PY         0.00000  -0.16327   0.25702   0.00000   0.00000
  13        4PZ         0.13152   0.00000   0.00000   0.00000   0.00000
  14        5XX        -0.99617   0.00000   0.00000   0.00000   0.00000
  15        5YY         0.54994   0.00000   0.00000   0.00000   0.00000
  16        5ZZ         0.09899   0.00000   0.00000   0.00000   0.00000
  17        5XY         0.00000   0.00000   0.00000   0.00000   0.81601
  18        5XZ         0.00000   0.00000   0.00000   0.63702   0.00000
  19        5YZ         0.00000  -0.21596   0.77676   0.00000   0.00000
  20 2   H  1S         -0.59631  -0.35697   0.50387   0.00000   0.00000
  21        2S          0.08816   0.06848  -0.45609   0.00000   0.00000
  22        3PX         0.00000   0.00000   0.00000   0.73665  -0.69368
  23        3PY        -0.09731  -0.50165   0.09907   0.00000   0.00000
  24        3PZ         0.19447  -0.47178  -0.44040   0.00000   0.00000
  25 3   H  1S         -0.59631   0.35697  -0.50387   0.00000   0.00000
  26        2S          0.08816  -0.06848   0.45609   0.00000   0.00000
  27        3PX         0.00000   0.00000   0.00000   0.73665   0.69368
  28        3PY         0.09731  -0.50165   0.09907   0.00000   0.00000
  29        3PZ         0.19447   0.47178   0.44040   0.00000   0.00000
                          26        27        28        29
                        (A1)--V   (A1)--V   (B2)--V   (A1)--V
     Eigenvalues --     2.86984   3.20522   3.36460   3.80039
   1 1   N  1S         -0.00078  -0.23045   0.00000  -0.39896
   2        2S         -0.06067   0.69665   0.00000   0.97865
   3        2PX         0.00000   0.00000   0.00000   0.00000
   4        2PY         0.00000   0.00000  -0.79355   0.00000
   5        2PZ        -0.02834  -0.45054   0.00000   0.38325
   6        3S          0.28053   2.13191   0.00000   2.03642
   7        3PX         0.00000   0.00000   0.00000   0.00000
   8        3PY         0.00000   0.00000  -0.96796   0.00000
   9        3PZ        -0.49207  -0.57042   0.00000   0.22069
  10        4S          0.21166   0.20345   0.00000  -0.43222
  11        4PX         0.00000   0.00000   0.00000   0.00000
  12        4PY         0.00000   0.00000   0.03097   0.00000
  13        4PZ         0.00836  -0.12310   0.00000  -0.12151
  14        5XX        -0.05522  -1.04235   0.00000  -1.09457
  15        5YY        -0.65702   0.14481   0.00000  -1.96003
  16        5ZZ         0.80010  -0.46615   0.00000  -1.49128
  17        5XY         0.00000   0.00000   0.00000   0.00000
  18        5XZ         0.00000   0.00000   0.00000   0.00000
  19        5YZ         0.00000   0.00000   1.29086   0.00000
  20 2   H  1S         -0.01311  -0.47503   0.86918   0.54428
  21        2S         -0.29362  -0.81682   0.51787  -0.07223
  22        3PX         0.00000   0.00000   0.00000   0.00000
  23        3PY         0.50094   0.70245  -0.83698  -0.50945
  24        3PZ         0.58454  -0.50809   0.58398   0.40098
  25 3   H  1S         -0.01311  -0.47503  -0.86918   0.54428
  26        2S         -0.29362  -0.81682  -0.51787  -0.07223
  27        3PX         0.00000   0.00000   0.00000   0.00000
  28        3PY        -0.50094  -0.70245  -0.83698   0.50945
  29        3PZ         0.58454  -0.50809  -0.58398   0.40098
     Beta Molecular Orbital Coefficients:
                           1         2         3         4         5
                        (A1)--O   (A1)--O   (B2)--O   (A1)--O   (B1)--V
     Eigenvalues --   -14.35850  -0.80774  -0.47867  -0.30060  -0.12429
   1 1   N  1S          0.99305  -0.19854   0.00000  -0.09042   0.00000
   2        2S          0.03321   0.42063   0.00000   0.19662   0.00000
   3        2PX         0.00000   0.00000   0.00000   0.00000   0.54281
   4        2PY         0.00000   0.00000   0.47833   0.00000   0.00000
   5        2PZ        -0.00159  -0.13265   0.00000   0.52797   0.00000
   6        3S          0.00346   0.42349   0.00000   0.38192   0.00000
   7        3PX         0.00000   0.00000   0.00000   0.00000   0.42706
   8        3PY         0.00000   0.00000   0.20533   0.00000   0.00000
   9        3PZ         0.00054  -0.05630   0.00000   0.32593   0.00000
  10        4S         -0.00033   0.00626   0.00000   0.04990   0.00000
  11        4PX         0.00000   0.00000   0.00000   0.00000   0.25983
  12        4PY         0.00000   0.00000   0.01147   0.00000   0.00000
  13        4PZ        -0.00032  -0.00459   0.00000   0.10058   0.00000
  14        5XX        -0.00811  -0.02539   0.00000   0.00410   0.00000
  15        5YY        -0.00713   0.00323   0.00000   0.00362   0.00000
  16        5ZZ        -0.00736   0.00223   0.00000  -0.03124   0.00000
  17        5XY         0.00000   0.00000   0.00000   0.00000   0.00000
  18        5XZ         0.00000   0.00000   0.00000   0.00000  -0.02232
  19        5YZ         0.00000   0.00000  -0.03367   0.00000   0.00000
  20 2   H  1S         -0.00005   0.17618   0.25811  -0.12738   0.00000
  21        2S         -0.00030   0.02915   0.17759  -0.11916   0.00000
  22        3PX         0.00000   0.00000   0.00000   0.00000   0.02403
  23        3PY         0.00031  -0.01738  -0.00395   0.00845   0.00000
  24        3PZ        -0.00022   0.00909   0.01090   0.01298   0.00000
  25 3   H  1S         -0.00005   0.17618  -0.25811  -0.12738   0.00000
  26        2S         -0.00030   0.02915  -0.17759  -0.11916   0.00000
  27        3PX         0.00000   0.00000   0.00000   0.00000   0.02403
  28        3PY        -0.00031   0.01738  -0.00395  -0.00845   0.00000
  29        3PZ        -0.00022   0.00909  -0.01090   0.01298   0.00000
                           6         7         8         9        10
                        (A1)--V   (B2)--V   (A1)--V   (B1)--V   (B2)--V
     Eigenvalues --     0.02474   0.08983   0.11892   0.13237   0.19455
   1 1   N  1S          0.08814   0.00000   0.05816   0.00000   0.00000
   2        2S         -0.13827   0.00000  -0.08052   0.00000   0.00000
   3        2PX         0.00000   0.00000   0.00000  -0.31891   0.00000
   4        2PY         0.00000  -0.26691   0.00000   0.00000  -0.33662
   5        2PZ         0.19108   0.00000  -0.19169   0.00000   0.00000
   6        3S         -0.91349   0.00000  -0.65571   0.00000   0.00000
   7        3PX         0.00000   0.00000   0.00000  -0.54839   0.00000
   8        3PY         0.00000  -0.45149   0.00000   0.00000  -0.94794
   9        3PZ         0.18997   0.00000  -0.31259   0.00000   0.00000
  10        4S          1.36456   0.00000   0.35596   0.00000   0.00000
  11        4PX         0.00000   0.00000   0.00000   1.17770   0.00000
  12        4PY         0.00000   1.16008   0.00000   0.00000  -0.94674
  13        4PZ        -0.44890   0.00000   1.18799   0.00000   0.00000
  14        5XX         0.03594   0.00000   0.01784   0.00000   0.00000
  15        5YY         0.03363   0.00000   0.02519   0.00000   0.00000
  16        5ZZ         0.02249   0.00000   0.03240   0.00000   0.00000
  17        5XY         0.00000   0.00000   0.00000   0.00000   0.00000
  18        5XZ         0.00000   0.00000   0.00000   0.01263   0.00000
  19        5YZ         0.00000   0.02063   0.00000   0.00000  -0.01274
  20 2   H  1S          0.04029  -0.00059   0.03400   0.00000   0.15405
  21        2S          0.00377   0.03738   0.27980   0.00000   1.72121
  22        3PX         0.00000   0.00000   0.00000  -0.00121   0.00000
  23        3PY         0.01864   0.00754   0.00424   0.00000  -0.00685
  24        3PZ        -0.00982  -0.00353   0.00208   0.00000  -0.01213
  25 3   H  1S          0.04029   0.00059   0.03400   0.00000  -0.15405
  26        2S          0.00377  -0.03738   0.27980   0.00000  -1.72121
  27        3PX         0.00000   0.00000   0.00000  -0.00121   0.00000
  28        3PY        -0.01864   0.00754  -0.00424   0.00000  -0.00685
  29        3PZ        -0.00982   0.00353   0.00208   0.00000   0.01213
                          11        12        13        14        15
                        (A1)--V   (B2)--V   (A1)--V   (B1)--V   (B2)--V
     Eigenvalues --     0.21669   0.83570   0.86460   0.90614   0.91493
   1 1   N  1S         -0.07234   0.00000   0.02082   0.00000   0.00000
   2        2S          0.08006   0.00000   0.26408   0.00000   0.00000
   3        2PX         0.00000   0.00000   0.00000  -1.03658   0.00000
   4        2PY         0.00000  -0.93354   0.00000   0.00000   0.20347
   5        2PZ        -0.25863   0.00000  -0.96802   0.00000   0.00000
   6        3S          1.34211   0.00000  -1.09527   0.00000   0.00000
   7        3PX         0.00000   0.00000   0.00000   1.41315   0.00000
   8        3PY         0.00000   1.89098   0.00000   0.00000  -0.02297
   9        3PZ        -0.80019   0.00000   1.75297   0.00000   0.00000
  10        4S          2.04814   0.00000  -0.48326   0.00000   0.00000
  11        4PX         0.00000   0.00000   0.00000  -0.65084   0.00000
  12        4PY         0.00000  -0.35453   0.00000   0.00000  -0.83157
  13        4PZ        -0.62942   0.00000  -0.41471   0.00000   0.00000
  14        5XX        -0.01247   0.00000   0.01994   0.00000   0.00000
  15        5YY        -0.04417   0.00000   0.02647   0.00000   0.00000
  16        5ZZ         0.00261   0.00000  -0.00372   0.00000   0.00000
  17        5XY         0.00000   0.00000   0.00000   0.00000   0.00000
  18        5XZ         0.00000   0.00000   0.00000  -0.00567   0.00000
  19        5YZ         0.00000  -0.04358   0.00000   0.00000   0.30164
  20 2   H  1S         -0.16528  -0.06499   0.05448   0.00000  -0.82249
  21        2S         -2.01754  -0.76670   0.82177   0.00000   1.55523
  22        3PX         0.00000   0.00000   0.00000   0.00194   0.00000
  23        3PY        -0.00853   0.10502  -0.05511   0.00000  -0.02513
  24        3PZ        -0.00700  -0.05764   0.06822   0.00000   0.08376
  25 3   H  1S         -0.16528   0.06499   0.05448   0.00000   0.82249
  26        2S         -2.01754   0.76670   0.82177   0.00000  -1.55523
  27        3PX         0.00000   0.00000   0.00000   0.00194   0.00000
  28        3PY         0.00853   0.10502   0.05511   0.00000  -0.02513
  29        3PZ        -0.00700   0.05764   0.06822   0.00000  -0.08376
                          16        17        18        19        20
                        (A1)--V   (A1)--V   (A2)--V   (A1)--V   (B1)--V
     Eigenvalues --     0.98180   1.05622   1.47254   1.51512   1.61096
   1 1   N  1S         -0.04891  -0.03998   0.00000   0.02209   0.00000
   2        2S          0.23954  -1.57362   0.00000   0.16633   0.00000
   3        2PX         0.00000   0.00000   0.00000   0.00000   0.02353
   4        2PY         0.00000   0.00000   0.00000   0.00000   0.00000
   5        2PZ        -0.11533  -0.14706   0.00000  -0.00292   0.00000
   6        3S         -0.73657   3.44827   0.00000  -0.50637   0.00000
   7        3PX         0.00000   0.00000   0.00000   0.00000   0.20197
   8        3PY         0.00000   0.00000   0.00000   0.00000   0.00000
   9        3PZ         0.07292  -0.09444   0.00000   0.39967   0.00000
  10        4S         -1.31164  -0.54696   0.00000   0.07972   0.00000
  11        4PX         0.00000   0.00000   0.00000   0.00000  -0.05287
  12        4PY         0.00000   0.00000   0.00000   0.00000   0.00000
  13        4PZ         0.61947  -0.29393   0.00000  -0.08704   0.00000
  14        5XX         0.17488  -0.20911   0.00000  -0.30439   0.00000
  15        5YY        -0.28714  -0.36482   0.00000  -0.34804   0.00000
  16        5ZZ         0.03683  -0.25045   0.00000   0.77574   0.00000
  17        5XY         0.00000   0.00000   0.69177   0.00000   0.00000
  18        5XZ         0.00000   0.00000   0.00000   0.00000   0.80919
  19        5YZ         0.00000   0.00000   0.00000   0.00000   0.00000
  20 2   H  1S         -0.87600  -0.08274   0.00000   0.22799   0.00000
  21        2S          1.70418  -0.66880   0.00000   0.02285   0.00000
  22        3PX         0.00000   0.00000   0.35473   0.00000  -0.29686
  23        3PY        -0.11200   0.00140   0.00000  -0.15468   0.00000
  24        3PZ        -0.00792  -0.04836   0.00000  -0.26755   0.00000
  25 3   H  1S         -0.87600  -0.08274   0.00000   0.22799   0.00000
  26        2S          1.70418  -0.66880   0.00000   0.02285   0.00000
  27        3PX         0.00000   0.00000  -0.35473   0.00000  -0.29686
  28        3PY         0.11200  -0.00140   0.00000   0.15468   0.00000
  29        3PZ        -0.00792  -0.04836   0.00000  -0.26755   0.00000
                          21        22        23        24        25
                        (A1)--V   (B2)--V   (B2)--V   (B1)--V   (A2)--V
     Eigenvalues --     2.10088   2.12346   2.33492   2.51953   2.56684
   1 1   N  1S          0.04215   0.00000   0.00000   0.00000   0.00000
   2        2S          0.38887   0.00000   0.00000   0.00000   0.00000
   3        2PX         0.00000   0.00000   0.00000  -0.01862   0.00000
   4        2PY         0.00000  -0.10933   0.27826   0.00000   0.00000
   5        2PZ        -0.13004   0.00000   0.00000   0.00000   0.00000
   6        3S         -0.96730   0.00000   0.00000   0.00000   0.00000
   7        3PX         0.00000   0.00000   0.00000  -0.41497   0.00000
   8        3PY         0.00000   0.63494  -0.27041   0.00000   0.00000
   9        3PZ         0.50060   0.00000   0.00000   0.00000   0.00000
  10        4S          0.21021   0.00000   0.00000   0.00000   0.00000
  11        4PX         0.00000   0.00000   0.00000   0.09919   0.00000
  12        4PY         0.00000  -0.15858   0.25882   0.00000   0.00000
  13        4PZ        -0.11744   0.00000   0.00000   0.00000   0.00000
  14        5XX         1.00735   0.00000   0.00000   0.00000   0.00000
  15        5YY        -0.53511   0.00000   0.00000   0.00000   0.00000
  16        5ZZ        -0.14068   0.00000   0.00000   0.00000   0.00000
  17        5XY         0.00000   0.00000   0.00000   0.00000   0.83771
  18        5XZ         0.00000   0.00000   0.00000   0.66228   0.00000
  19        5YZ         0.00000  -0.19819   0.77467   0.00000   0.00000
  20 2   H  1S          0.55267  -0.34462   0.50250   0.00000   0.00000
  21        2S         -0.07303   0.05910  -0.45643   0.00000   0.00000
  22        3PX         0.00000   0.00000   0.00000   0.72776  -0.68308
  23        3PY         0.11323  -0.50153   0.11305   0.00000   0.00000
  24        3PZ        -0.18711  -0.47877  -0.43420   0.00000   0.00000
  25 3   H  1S          0.55267   0.34462  -0.50250   0.00000   0.00000
  26        2S         -0.07303  -0.05910   0.45643   0.00000   0.00000
  27        3PX         0.00000   0.00000   0.00000   0.72776   0.68308
  28        3PY        -0.11323  -0.50153   0.11305   0.00000   0.00000
  29        3PZ        -0.18711   0.47877   0.43420   0.00000   0.00000
                          26        27        28        29
                        (A1)--V   (A1)--V   (B2)--V   (A1)--V
     Eigenvalues --     2.87296   3.21908   3.37318   3.83279
   1 1   N  1S         -0.00109  -0.21925   0.00000  -0.40481
   2        2S         -0.06188   0.67003   0.00000   1.00799
   3        2PX         0.00000   0.00000   0.00000   0.00000
   4        2PY         0.00000   0.00000  -0.79699   0.00000
   5        2PZ        -0.02918  -0.46260   0.00000   0.37209
   6        3S          0.28609   2.07355   0.00000   2.07532
   7        3PX         0.00000   0.00000   0.00000   0.00000
   8        3PY         0.00000   0.00000  -0.96847   0.00000
   9        3PZ        -0.49291  -0.57767   0.00000   0.20772
  10        4S          0.21102   0.21536   0.00000  -0.42508
  11        4PX         0.00000   0.00000   0.00000   0.00000
  12        4PY         0.00000   0.00000   0.03193   0.00000
  13        4PZ         0.00836  -0.11916   0.00000  -0.12384
  14        5XX        -0.06025  -1.02664   0.00000  -1.12056
  15        5YY        -0.66061   0.20662   0.00000  -1.95432
  16        5ZZ         0.80375  -0.41998   0.00000  -1.50204
  17        5XY         0.00000   0.00000   0.00000   0.00000
  18        5XZ         0.00000   0.00000   0.00000   0.00000
  19        5YZ         0.00000   0.00000   1.29565   0.00000
  20 2   H  1S         -0.01373  -0.49466   0.87221   0.53151
  21        2S         -0.29423  -0.81221   0.51523  -0.09019
  22        3PX         0.00000   0.00000   0.00000   0.00000
  23        3PY         0.49949   0.71399  -0.83483  -0.49061
  24        3PZ         0.58321  -0.51706   0.58250   0.38621
  25 3   H  1S         -0.01373  -0.49466  -0.87221   0.53151
  26        2S         -0.29423  -0.81221  -0.51523  -0.09019
  27        3PX         0.00000   0.00000   0.00000   0.00000
  28        3PY        -0.49949  -0.71399  -0.83483   0.49061
  29        3PZ         0.58321  -0.51706  -0.58250   0.38621
     Alpha Density Matrix:
                           1         2         3         4         5
   1 1   N  1S          1.03497
   2        2S         -0.07377   0.23857
   3        2PX         0.00000   0.00000   0.42649
   4        2PY         0.00000   0.00000  -0.00000   0.24741
   5        2PZ        -0.02207   0.04803   0.00000   0.00000   0.31346
   6        3S         -0.11986   0.27233   0.00000   0.00000   0.14167
   7        3PX         0.00000   0.00000   0.28176  -0.00000   0.00000
   8        3PY         0.00000   0.00000  -0.00000   0.10931  -0.00000
   9        3PZ        -0.01492   0.03604   0.00000   0.00000   0.18541
  10        4S         -0.00709   0.01448   0.00000   0.00000   0.02363
  11        4PX         0.00000   0.00000   0.05824  -0.00000   0.00000
  12        4PY         0.00000   0.00000  -0.00000   0.00441  -0.00000
  13        4PZ        -0.00563   0.01191   0.00000   0.00000   0.04529
  14        5XX        -0.00934   0.00218   0.00000   0.00000   0.00993
  15        5YY        -0.00608  -0.00531  -0.00000   0.00000  -0.00062
  16        5ZZ        -0.00291  -0.01269  -0.00000   0.00000  -0.02040
  17        5XY         0.00000  -0.00000  -0.00000   0.00000  -0.00000
  18        5XZ        -0.00000   0.00000  -0.01835   0.00000  -0.00000
  19        5YZ         0.00000   0.00000   0.00000  -0.01832   0.00000
  20 2   H  1S         -0.02171   0.04664   0.00000   0.12260  -0.09134
  21        2S          0.00894  -0.02099   0.00000   0.07999  -0.06694
  22        3PX         0.00000   0.00000   0.01193  -0.00000   0.00000
  23        3PY         0.00310  -0.00624   0.00000  -0.00157   0.00631
  24        3PZ        -0.00324   0.00680   0.00000   0.00487   0.00551
  25 3   H  1S         -0.02171   0.04664   0.00000  -0.12260  -0.09134
  26        2S          0.00894  -0.02099   0.00000  -0.07999  -0.06694
  27        3PX         0.00000   0.00000   0.01193  -0.00000   0.00000
  28        3PY        -0.00310   0.00624  -0.00000  -0.00157  -0.00631
  29        3PZ        -0.00324   0.00680   0.00000  -0.00487   0.00551
                           6         7         8         9        10
   6        3S          0.33680
   7        3PX         0.00000   0.18614
   8        3PY         0.00000  -0.00000   0.04829
   9        3PZ         0.09205   0.00000   0.00000   0.10992
  10        4S          0.02252   0.00000   0.00000   0.01433   0.00230
  11        4PX         0.00000   0.03847  -0.00000   0.00000   0.00000
  12        4PY         0.00000  -0.00000   0.00195  -0.00000   0.00000
  13        4PZ         0.02588   0.00000   0.00000   0.02695   0.00365
  14        5XX         0.00549   0.00000   0.00000   0.00589   0.00080
  15        5YY        -0.00568  -0.00000   0.00000  -0.00054  -0.00028
  16        5ZZ        -0.01935  -0.00000   0.00000  -0.01239  -0.00197
  17        5XY        -0.00000  -0.00000   0.00000  -0.00000  -0.00000
  18        5XZ         0.00000  -0.01212   0.00000  -0.00000   0.00000
  19        5YZ         0.00000   0.00000  -0.00809   0.00000   0.00000
  20 2   H  1S          0.02476   0.00000   0.05416  -0.05203  -0.00402
  21        2S         -0.04192   0.00000   0.03534  -0.03995  -0.00555
  22        3PX         0.00000   0.00788  -0.00000   0.00000   0.00000
  23        3PY        -0.00501  -0.00000  -0.00069   0.00349   0.00013
  24        3PZ         0.00898   0.00000   0.00215   0.00345   0.00070
  25 3   H  1S          0.02476   0.00000  -0.05416  -0.05203  -0.00402
  26        2S         -0.04192   0.00000  -0.03534  -0.03995  -0.00555
  27        3PX         0.00000   0.00788  -0.00000   0.00000   0.00000
  28        3PY         0.00501  -0.00000  -0.00069  -0.00349  -0.00013
  29        3PZ         0.00898   0.00000  -0.00215   0.00345   0.00070
                          11        12        13        14        15
  11        4PX         0.00795
  12        4PY        -0.00000   0.00008
  13        4PZ         0.00000   0.00000   0.00665
  14        5XX         0.00000   0.00000   0.00146   0.00039
  15        5YY        -0.00000   0.00000  -0.00019   0.00003   0.00018
  16        5ZZ        -0.00000   0.00000  -0.00315  -0.00061   0.00031
  17        5XY        -0.00000   0.00000  -0.00000  -0.00000  -0.00000
  18        5XZ        -0.00251   0.00000  -0.00000   0.00000   0.00000
  19        5YZ         0.00000  -0.00033   0.00000   0.00000  -0.00000
  20 2   H  1S          0.00000   0.00219  -0.01188  -0.00264  -0.00111
  21        2S          0.00000   0.00143  -0.00990  -0.00216   0.00037
  22        3PX         0.00163  -0.00000   0.00000  -0.00000  -0.00000
  23        3PY        -0.00000  -0.00003   0.00076   0.00017   0.00014
  24        3PZ         0.00000   0.00009   0.00092   0.00020  -0.00014
  25 3   H  1S          0.00000  -0.00219  -0.01188  -0.00264  -0.00111
  26        2S          0.00000  -0.00143  -0.00990  -0.00216   0.00037
  27        3PX         0.00163  -0.00000   0.00000  -0.00000  -0.00000
  28        3PY        -0.00000  -0.00003  -0.00076  -0.00017  -0.00014
  29        3PZ         0.00000  -0.00009   0.00092   0.00020  -0.00014
                          16        17        18        19        20
  16        5ZZ         0.00178
  17        5XY         0.00000   0.00000
  18        5XZ         0.00000   0.00000   0.00079
  19        5YZ        -0.00000   0.00000  -0.00000   0.00136
  20 2   H  1S          0.00351  -0.00000   0.00000  -0.00908   0.10336
  21        2S          0.00479  -0.00000   0.00000  -0.00592   0.05632
  22        3PX        -0.00000  -0.00000  -0.00051  -0.00000   0.00000
  23        3PY        -0.00012  -0.00000   0.00000   0.00012  -0.00452
  24        3PZ        -0.00060  -0.00000  -0.00000  -0.00036   0.00238
  25 3   H  1S          0.00351   0.00000   0.00000   0.00908  -0.01815
  26        2S          0.00479   0.00000   0.00000   0.00592  -0.02295
  27        3PX        -0.00000   0.00000  -0.00051   0.00000   0.00000
  28        3PY         0.00012   0.00000   0.00000   0.00012   0.00296
  29        3PZ        -0.00060   0.00000  -0.00000   0.00036  -0.00245
                          21        22        23        24        25
  21        2S          0.04065
  22        3PX         0.00000   0.00033
  23        3PY        -0.00152  -0.00000   0.00036
  24        3PZ         0.00012   0.00000  -0.00011   0.00035
  25 3   H  1S         -0.02295   0.00000  -0.00296  -0.00245   0.10336
  26        2S         -0.01107   0.00000  -0.00050  -0.00303   0.05632
  27        3PX         0.00000   0.00033  -0.00000   0.00000   0.00000
  28        3PY         0.00050  -0.00000  -0.00034   0.00005   0.00452
  29        3PZ        -0.00303   0.00000  -0.00005   0.00016   0.00238
                          26        27        28        29
  26        2S          0.04065
  27        3PX         0.00000   0.00033
  28        3PY         0.00152  -0.00000   0.00036
  29        3PZ         0.00012   0.00000   0.00011   0.00035
     Beta Density Matrix:
                           1         2         3         4         5
   1 1   N  1S          1.03375
   2        2S         -0.06831   0.21669
   3        2PX         0.00000   0.00000   0.00000
   4        2PY         0.00000   0.00000  -0.00000   0.22879
   5        2PZ        -0.02299   0.04796   0.00000   0.00000   0.29635
   6        3S         -0.11518   0.25334   0.00000   0.00000   0.14546
   7        3PX         0.00000   0.00000   0.00000   0.00000   0.00000
   8        3PY         0.00000   0.00000  -0.00000   0.09821   0.00000
   9        3PZ        -0.01776   0.04042   0.00000   0.00000   0.17955
  10        4S         -0.00609   0.01243   0.00000   0.00000   0.02551
  11        4PX         0.00000   0.00000   0.00000   0.00000   0.00000
  12        4PY         0.00000   0.00000  -0.00000   0.00549   0.00000
  13        4PZ        -0.00850   0.01783   0.00000   0.00000   0.05371
  14        5XX        -0.00338  -0.01014   0.00000   0.00000   0.00555
  15        5YY        -0.00805   0.00183   0.00000   0.00000   0.00149
  16        5ZZ        -0.00493  -0.00545  -0.00000   0.00000  -0.01678
  17        5XY         0.00000   0.00000  -0.00000   0.00000  -0.00000
  18        5XZ        -0.00000   0.00000  -0.00000   0.00000   0.00000
  19        5YZ         0.00000   0.00000   0.00000  -0.01610   0.00000
  20 2   H  1S         -0.02351   0.04906   0.00000   0.12346  -0.09062
  21        2S          0.00469  -0.01118   0.00000   0.08494  -0.06678
  22        3PX         0.00000   0.00000  -0.00000   0.00000   0.00000
  23        3PY         0.00300  -0.00564   0.00000  -0.00189   0.00676
  24        3PZ        -0.00319   0.00637   0.00000   0.00521   0.00565
  25 3   H  1S         -0.02351   0.04906   0.00000  -0.12346  -0.09062
  26        2S          0.00469  -0.01118   0.00000  -0.08494  -0.06678
  27        3PX         0.00000   0.00000  -0.00000   0.00000   0.00000
  28        3PY        -0.00300   0.00564  -0.00000  -0.00189  -0.00676
  29        3PZ        -0.00319   0.00637   0.00000  -0.00521   0.00565
                           6         7         8         9        10
   6        3S          0.32521
   7        3PX         0.00000   0.00000
   8        3PY         0.00000  -0.00000   0.04216
   9        3PZ         0.10064   0.00000   0.00000   0.10940
  10        4S          0.02171   0.00000   0.00000   0.01591   0.00253
  11        4PX         0.00000   0.00000   0.00000   0.00000   0.00000
  12        4PY         0.00000  -0.00000   0.00236   0.00000   0.00000
  13        4PZ         0.03647   0.00000   0.00000   0.03304   0.00499
  14        5XX        -0.00921   0.00000   0.00000   0.00276   0.00005
  15        5YY         0.00272   0.00000   0.00000   0.00099   0.00020
  16        5ZZ        -0.01101  -0.00000   0.00000  -0.01031  -0.00154
  17        5XY         0.00000  -0.00000   0.00000  -0.00000  -0.00000
  18        5XZ         0.00000  -0.00000   0.00000   0.00000   0.00000
  19        5YZ         0.00000   0.00000  -0.00691   0.00000   0.00000
  20 2   H  1S          0.02596   0.00000   0.05300  -0.05144  -0.00525
  21        2S         -0.03317   0.00000   0.03646  -0.04048  -0.00576
  22        3PX         0.00000  -0.00000   0.00000   0.00000   0.00000
  23        3PY        -0.00413   0.00000  -0.00081   0.00373   0.00031
  24        3PZ         0.00881   0.00000   0.00224   0.00372   0.00070
  25 3   H  1S          0.02596   0.00000  -0.05300  -0.05144  -0.00525
  26        2S         -0.03317   0.00000  -0.03646  -0.04048  -0.00576
  27        3PX         0.00000  -0.00000   0.00000   0.00000   0.00000
  28        3PY         0.00413  -0.00000  -0.00081  -0.00373  -0.00031
  29        3PZ         0.00881   0.00000  -0.00224   0.00372   0.00070
                          11        12        13        14        15
  11        4PX         0.00000
  12        4PY        -0.00000   0.00013
  13        4PZ         0.00000   0.00000   0.01014
  14        5XX         0.00000   0.00000   0.00053   0.00073
  15        5YY         0.00000   0.00000   0.00035  -0.00001   0.00007
  16        5ZZ        -0.00000   0.00000  -0.00315  -0.00013  -0.00005
  17        5XY        -0.00000   0.00000  -0.00000  -0.00000  -0.00000
  18        5XZ        -0.00000   0.00000   0.00000   0.00000  -0.00000
  19        5YZ         0.00000  -0.00039   0.00000   0.00000   0.00000
  20 2   H  1S          0.00000   0.00296  -0.01362  -0.00500   0.00011
  21        2S          0.00000   0.00204  -0.01212  -0.00123  -0.00034
  22        3PX        -0.00000   0.00000   0.00000  -0.00000   0.00000
  23        3PY         0.00000  -0.00005   0.00093   0.00047  -0.00003
  24        3PZ         0.00000   0.00013   0.00126  -0.00018   0.00008
  25 3   H  1S          0.00000  -0.00296  -0.01362  -0.00500   0.00011
  26        2S          0.00000  -0.00204  -0.01212  -0.00123  -0.00034
  27        3PX        -0.00000   0.00000   0.00000  -0.00000   0.00000
  28        3PY        -0.00000  -0.00005  -0.00093  -0.00047   0.00003
  29        3PZ         0.00000  -0.00013   0.00126  -0.00018   0.00008
                          16        17        18        19        20
  16        5ZZ         0.00103
  17        5XY         0.00000   0.00000
  18        5XZ         0.00000   0.00000   0.00000
  19        5YZ         0.00000   0.00000  -0.00000   0.00113
  20 2   H  1S          0.00437  -0.00000   0.00000  -0.00869   0.11389
  21        2S          0.00379  -0.00000   0.00000  -0.00598   0.06615
  22        3PX        -0.00000  -0.00000   0.00000  -0.00000   0.00000
  23        3PY        -0.00030  -0.00000  -0.00000   0.00013  -0.00516
  24        3PZ        -0.00038  -0.00000  -0.00000  -0.00037   0.00276
  25 3   H  1S          0.00437   0.00000   0.00000   0.00869  -0.01936
  26        2S          0.00379   0.00000   0.00000   0.00598  -0.02552
  27        3PX        -0.00000   0.00000   0.00000   0.00000   0.00000
  28        3PY         0.00030   0.00000   0.00000   0.00013   0.00312
  29        3PZ        -0.00038   0.00000  -0.00000   0.00037  -0.00286
                          21        22        23        24        25
  21        2S          0.04659
  22        3PX         0.00000   0.00000
  23        3PY        -0.00221  -0.00000   0.00039
  24        3PZ         0.00065   0.00000  -0.00009   0.00037
  25 3   H  1S         -0.02552   0.00000  -0.00312  -0.00286   0.11389
  26        2S         -0.01649   0.00000  -0.00081  -0.00322   0.06615
  27        3PX         0.00000  -0.00000   0.00000   0.00000   0.00000
  28        3PY         0.00081   0.00000  -0.00036   0.00001   0.00516
  29        3PZ        -0.00322   0.00000  -0.00001   0.00013   0.00276
                          26        27        28        29
  26        2S          0.04659
  27        3PX         0.00000   0.00000
  28        3PY         0.00221   0.00000   0.00039
  29        3PZ         0.00065   0.00000   0.00009   0.00037
    Full Mulliken population analysis:
                           1         2         3         4         5
   1 1   N  1S          2.06872
   2        2S         -0.03157   0.45526
   3        2PX         0.00000   0.00000   0.42649
   4        2PY         0.00000   0.00000   0.00000   0.47621
   5        2PZ         0.00000   0.00000   0.00000   0.00000   0.60981
   6        3S         -0.04040   0.40766   0.00000   0.00000   0.00000
   7        3PX         0.00000   0.00000   0.14632   0.00000   0.00000
   8        3PY         0.00000   0.00000   0.00000   0.10777   0.00000
   9        3PZ         0.00000   0.00000   0.00000   0.00000   0.18952
  10        4S         -0.00095   0.01102   0.00000   0.00000   0.00000
  11        4PX         0.00000   0.00000   0.00984   0.00000   0.00000
  12        4PY         0.00000   0.00000   0.00000   0.00167   0.00000
  13        4PZ         0.00000   0.00000   0.00000   0.00000   0.01673
  14        5XX        -0.00064  -0.00506   0.00000   0.00000   0.00000
  15        5YY        -0.00071  -0.00221   0.00000   0.00000   0.00000
  16        5ZZ        -0.00040  -0.01154   0.00000   0.00000   0.00000
  17        5XY        -0.00000  -0.00000   0.00000   0.00000   0.00000
  18        5XZ        -0.00000   0.00000   0.00000   0.00000   0.00000
  19        5YZ        -0.00000   0.00000   0.00000   0.00000   0.00000
  20 2   H  1S         -0.00146   0.02394   0.00000   0.06364   0.03328
  21        2S          0.00106  -0.01344   0.00000   0.02624   0.01504
  22        3PX         0.00000   0.00000   0.00168   0.00000   0.00000
  23        3PY        -0.00024   0.00303   0.00000   0.00071   0.00320
  24        3PZ        -0.00018   0.00237  -0.00000   0.00247  -0.00036
  25 3   H  1S         -0.00146   0.02394   0.00000   0.06364   0.03328
  26        2S          0.00106  -0.01344   0.00000   0.02624   0.01504
  27        3PX         0.00000   0.00000   0.00168   0.00000   0.00000
  28        3PY        -0.00024   0.00303   0.00000   0.00071   0.00320
  29        3PZ        -0.00018   0.00237   0.00000   0.00247  -0.00036
                           6         7         8         9        10
   6        3S          0.66202
   7        3PX         0.00000   0.18614
   8        3PY         0.00000   0.00000   0.09045
   9        3PZ         0.00000   0.00000   0.00000   0.21932
  10        4S          0.03428   0.00000   0.00000   0.00000   0.00482
  11        4PX         0.00000   0.02515   0.00000   0.00000   0.00000
  12        4PY         0.00000   0.00000   0.00282   0.00000   0.00000
  13        4PZ         0.00000   0.00000   0.00000   0.03922   0.00000
  14        5XX        -0.00250   0.00000   0.00000   0.00000   0.00034
  15        5YY        -0.00198   0.00000   0.00000   0.00000  -0.00003
  16        5ZZ        -0.02035   0.00000   0.00000   0.00000  -0.00142
  17        5XY        -0.00000   0.00000   0.00000   0.00000   0.00000
  18        5XZ         0.00000   0.00000   0.00000   0.00000   0.00000
  19        5YZ         0.00000   0.00000   0.00000   0.00000   0.00000
  20 2   H  1S          0.02028   0.00000   0.04829   0.03297  -0.00292
  21        2S         -0.05233   0.00000   0.03164   0.02506  -0.00815
  22        3PX         0.00000   0.00187   0.00000   0.00000   0.00000
  23        3PY         0.00159  -0.00000  -0.00004   0.00109  -0.00002
  24        3PZ         0.00218   0.00000   0.00066   0.00094   0.00004
  25 3   H  1S          0.02028   0.00000   0.04829   0.03297  -0.00292
  26        2S         -0.05233   0.00000   0.03164   0.02506  -0.00815
  27        3PX         0.00000   0.00187   0.00000   0.00000   0.00000
  28        3PY         0.00159   0.00000  -0.00004   0.00109  -0.00002
  29        3PZ         0.00218   0.00000   0.00066   0.00094   0.00004
                          11        12        13        14        15
  11        4PX         0.00795
  12        4PY         0.00000   0.00021
  13        4PZ         0.00000   0.00000   0.01679
  14        5XX         0.00000   0.00000   0.00000   0.00111
  15        5YY         0.00000   0.00000   0.00000   0.00001   0.00025
  16        5ZZ         0.00000   0.00000   0.00000  -0.00025   0.00009
  17        5XY         0.00000   0.00000   0.00000   0.00000   0.00000
  18        5XZ         0.00000   0.00000   0.00000   0.00000   0.00000
  19        5YZ         0.00000   0.00000   0.00000  -0.00000   0.00000
  20 2   H  1S          0.00000   0.00119   0.00418  -0.00106  -0.00038
  21        2S          0.00000   0.00144   0.00645  -0.00126   0.00001
  22        3PX         0.00018   0.00000   0.00000   0.00000  -0.00000
  23        3PY        -0.00000  -0.00001   0.00004  -0.00007  -0.00002
  24        3PZ         0.00000   0.00001   0.00021   0.00000  -0.00002
  25 3   H  1S          0.00000   0.00119   0.00418  -0.00106  -0.00038
  26        2S          0.00000   0.00144   0.00645  -0.00126   0.00001
  27        3PX         0.00018   0.00000   0.00000   0.00000  -0.00000
  28        3PY         0.00000  -0.00001   0.00004  -0.00007  -0.00002
  29        3PZ         0.00000   0.00001   0.00021   0.00000  -0.00002
                          16        17        18        19        20
  16        5ZZ         0.00281
  17        5XY        -0.00000   0.00000
  18        5XZ         0.00000  -0.00000   0.00079
  19        5YZ         0.00000   0.00000   0.00000   0.00249
  20 2   H  1S          0.00205   0.00000   0.00000   0.00528   0.21724
  21        2S          0.00342   0.00000   0.00000   0.00074   0.08062
  22        3PX         0.00000  -0.00000   0.00010  -0.00000   0.00000
  23        3PY         0.00013  -0.00000  -0.00000   0.00007   0.00000
  24        3PZ         0.00001  -0.00000   0.00000   0.00003   0.00000
  25 3   H  1S          0.00205  -0.00000   0.00000   0.00528  -0.00103
  26        2S          0.00342  -0.00000   0.00000   0.00074  -0.00847
  27        3PX         0.00000  -0.00000   0.00010   0.00000   0.00000
  28        3PY         0.00013   0.00000   0.00000   0.00007   0.00019
  29        3PZ         0.00001  -0.00000   0.00000   0.00003  -0.00000
                          21        22        23        24        25
  21        2S          0.08724
  22        3PX         0.00000   0.00033
  23        3PY         0.00000   0.00000   0.00075
  24        3PZ         0.00000   0.00000   0.00000   0.00072
  25 3   H  1S         -0.00847   0.00000   0.00019  -0.00000   0.21724
  26        2S         -0.01220   0.00000   0.00015  -0.00000   0.08062
  27        3PX         0.00000   0.00000  -0.00000   0.00000   0.00000
  28        3PY         0.00015  -0.00000   0.00003  -0.00000   0.00000
  29        3PZ        -0.00000   0.00000  -0.00000   0.00000   0.00000
                          26        27        28        29
  26        2S          0.08724
  27        3PX         0.00000   0.00033
  28        3PY         0.00000   0.00000   0.00075
  29        3PZ         0.00000   0.00000  -0.00000   0.00072
     Gross orbital populations:
                         Total     Alpha     Beta      Spin
   1 1   N  1S          1.99241   0.99611   0.99630  -0.00020
   2        2S          0.85536   0.44067   0.41469   0.02597
   3        2PX         0.58601   0.58601   0.00000   0.58601
   4        2PY         0.77174   0.39681   0.37493   0.02187
   5        2PZ         0.91838   0.46859   0.44979   0.01881
   6        3S          0.98215   0.49706   0.48509   0.01197
   7        3PX         0.36135   0.36135   0.00000   0.36135
   8        3PY         0.36215   0.18691   0.17524   0.01167
   9        3PZ         0.56817   0.28383   0.28435  -0.00052
  10        4S          0.02598   0.01409   0.01189   0.00220
  11        4PX         0.04331   0.04331   0.00000   0.04331
  12        4PY         0.00996   0.00430   0.00566  -0.00136
  13        4PZ         0.09449   0.04183   0.05267  -0.01084
  14        5XX        -0.01178   0.00276  -0.01454   0.01730
  15        5YY        -0.00541  -0.00799   0.00258  -0.01058
  16        5ZZ        -0.01983  -0.01458  -0.00525  -0.00932
  17        5XY         0.00000   0.00000   0.00000  -0.00000
  18        5XZ         0.00099   0.00099   0.00000   0.00099
  19        5YZ         0.01473   0.00758   0.00715   0.00044
  20 2   H  1S          0.51782   0.25028   0.26754  -0.01726
  21        2S          0.18327   0.08099   0.10228  -0.02130
  22        3PX         0.00417   0.00417  -0.00000   0.00417
  23        3PY         0.01057   0.00528   0.00530  -0.00002
  24        3PZ         0.00909   0.00448   0.00461  -0.00013
  25 3   H  1S          0.51782   0.25028   0.26754  -0.01726
  26        2S          0.18327   0.08099   0.10228  -0.02130
  27        3PX         0.00417   0.00417  -0.00000   0.00417
  28        3PY         0.01057   0.00528   0.00530  -0.00002
  29        3PZ         0.00909   0.00448   0.00461  -0.00013
          Condensed to atoms (all electrons):
              1          2          3
     1  N    6.976469   0.286851   0.286851
     2  H    0.286851   0.467526  -0.029463
     3  H    0.286851  -0.029463   0.467526
 Mulliken atomic charges:
              1
     1  N   -0.550171
     2  H    0.275086
     3  H    0.275086
 Sum of Mulliken atomic charges =  -0.00000
 Mulliken charges with hydrogens summed into heavy atoms:
              1
     1  N   -0.000000
 Sum of Mulliken charges with hydrogens summed into heavy atoms =  -0.00000
          Atomic-Atomic Spin Densities.
              1          2          3
     1  N    1.086374  -0.008656  -0.008656
     2  H   -0.008656  -0.029128   0.003253
     3  H   -0.008656   0.003253  -0.029128
 Mulliken atomic spin densities:
              1
     1  N    1.069062
     2  H   -0.034531
     3  H   -0.034531
 Sum of Mulliken atomic spin densities =   1.00000
 Electronic spatial extent (au):  <R**2>=             22.5200
 Charge=             -0.0000 electrons
 Dipole moment (field-independent basis, Debye):
    X=             -0.0000    Y=              0.0000    Z=             -2.0780  Tot=              2.0780
 Quadrupole moment (field-independent basis, Debye-Ang):
   XX=             -7.3455   YY=             -5.3767   ZZ=             -8.1314
   XY=              0.0000   XZ=              0.0000   YZ=             -0.0000
 Traceless Quadrupole moment (field-independent basis, Debye-Ang):
   XX=             -0.3943   YY=              1.5745   ZZ=             -1.1802
   XY=              0.0000   XZ=              0.0000   YZ=             -0.0000
 Octapole moment (field-independent basis, Debye-Ang**2):
  XXX=              0.0000  YYY=             -0.0000  ZZZ=             -2.3880  XYY=             -0.0000
  XXY=              0.0000  XXZ=             -0.5972  XZZ=              0.0000  YZZ=             -0.0000
  YYZ=             -1.4104  XYZ=             -0.0000
 Hexadecapole moment (field-independent basis, Debye-Ang**3):
 XXXX=             -7.5335 YYYY=             -9.7611 ZZZZ=            -12.7442 XXXY=             -0.0000
 XXXZ=             -0.0000 YYYX=             -0.0000 YYYZ=             -0.0000 ZZZX=             -0.0000
 ZZZY=             -0.0000 XXYY=             -3.1907 XXZZ=             -3.3974 YYZZ=             -3.5194
 XXYZ=             -0.0000 YYXZ=              0.0000 ZZXY=             -0.0000
 N-N= 7.507315006213D+00 E-N=-2.142637762595D+02  KE= 8.206677928675D+01
 Symmetry A1   KE= 7.636784684861D+01
 Symmetry A2   KE= 5.612891048473D-35
 Symmetry B1   KE= 1.716646208938D+00
 Symmetry B2   KE= 3.982286229196D+00
 Orbital energies and kinetic energies (alpha):
                                 1                 2
   1         (A1)--O         -14.377655         21.951137
   2         (A1)--O          -0.861257          1.940526
   3         (B2)--O          -0.492584          1.356506
   4         (A1)--O          -0.325244          1.643882
   5         (B1)--O          -0.323312          1.716646
   6         (A1)--V           0.017582          0.597069
   7         (B2)--V           0.087187          0.481837
   8         (B1)--V           0.106914          0.427400
   9         (A1)--V           0.116011          0.429288
  10         (B2)--V           0.191071          0.906830
  11         (A1)--V           0.205856          0.938427
  12         (B2)--V           0.823540          2.594612
  13         (B1)--V           0.827599          2.738549
  14         (A1)--V           0.850445          2.696754
  15         (B2)--V           0.915014          2.102625
  16         (A1)--V           0.969569          2.294580
  17         (A1)--V           1.030140          2.103427
  18         (A2)--V           1.427292          2.481848
  19         (A1)--V           1.494050          2.521806
  20         (B1)--V           1.558385          2.613441
  21         (A1)--V           2.035824          3.248029
  22         (B2)--V           2.125987          3.032521
  23         (B2)--V           2.329537          3.554860
  24         (B1)--V           2.496902          3.417256
  25         (A2)--V           2.537993          3.513801
  26         (A1)--V           2.869839          3.850643
  27         (A1)--V           3.205218          5.959014
  28         (B2)--V           3.364595          5.250674
  29         (A1)--V           3.800392          8.440491
 Orbital energies and kinetic energies (beta):
                                 1                 2
   1         (A1)--O         -14.358500         21.978054
   2         (A1)--O          -0.807740          1.830734
   3         (B2)--O          -0.478666          1.312890
   4         (A1)--O          -0.300602          1.607363
   5         (B1)--V          -0.124287          1.301533
   6         (A1)--V           0.024742          0.587316
   7         (B2)--V           0.089828          0.463650
   8         (A1)--V           0.118918          0.453393
   9         (B1)--V           0.132372          0.609966
  10         (B2)--V           0.194547          0.928351
  11         (A1)--V           0.216688          0.961722
  12         (B2)--V           0.835700          2.616728
  13         (A1)--V           0.864603          2.740568
  14         (B1)--V           0.906145          2.970535
  15         (B2)--V           0.914928          2.108459
  16         (A1)--V           0.981799          2.310229
  17         (A1)--V           1.056217          2.109437
  18         (A2)--V           1.472539          2.473027
  19         (A1)--V           1.515117          2.518526
  20         (B1)--V           1.610963          2.605978
  21         (A1)--V           2.100882          3.243052
  22         (B2)--V           2.123463          3.025930
  23         (B2)--V           2.334922          3.561965
  24         (B1)--V           2.519534          3.425279
  25         (A2)--V           2.566843          3.522622
  26         (A1)--V           2.872957          3.852765
[...]
 Orbital energies and kinetic energies (beta):
                                 1                 2
   1         (A1)--O         -14.360184         21.978219
   2         (A1)--O          -0.811757          1.821205
   3         (B2)--O          -0.467913          1.317735
   4         (A1)--O          -0.310111          1.617762
   5         (B1)--V          -0.124929          1.304627
   6         (A1)--V           0.023166          0.576093
   7         (B2)--V           0.092044          0.471605
   8         (A1)--V           0.119028          0.449056
   9         (B1)--V           0.132209          0.608603
  10         (B2)--V           0.185765          0.927430
  11         (A1)--V           0.228483          0.984928
  12         (B2)--V           0.837826          2.632995
  13         (A1)--V           0.868821          2.743021
  14         (B2)--V           0.894231          2.070387
  15         (B1)--V           0.905591          2.969204
  16         (A1)--V           1.006822          2.384750
  17         (A1)--V           1.063424          2.062182
  18         (A1)--V           1.474430          2.478928
  19         (A2)--V           1.485122          2.485103
  20         (B1)--V           1.592773          2.587286
  21         (A1)--V           2.102558          3.249490
  22         (B2)--V           2.175474          3.025027
  23         (B2)--V           2.303171          3.580779
  24         (A2)--V           2.532699          3.483830
  25         (B1)--V           2.556976          3.469140
  26         (A1)--V           2.871757          3.856324
  27         (A1)--V           3.212379          5.810278
  28         (B2)--V           3.394637          5.237724
  29         (A1)--V           3.823146          8.637648
 Total kinetic energy from orbitals= 5.535042645875D+01
  Exact polarizability:   7.110   0.000  10.696   0.000  -0.000   9.620
 Approx polarizability:   6.985   0.000  13.059   0.000   0.000  10.686
                          Isotropic Fermi Contact Couplings
        Atom                 a.u.       MegaHertz       Gauss      10(-4) cm-1
     1  N(14)              0.11732      37.90717      13.52622      12.64447
     2  H(1)              -0.01398     -62.49084     -22.29829     -20.84470
     3  H(1)              -0.01398     -62.49084     -22.29829     -20.84470
 --------------------------------------------------------
       Center         ----  Spin Dipole Couplings  ----
                      3XX-RR        3YY-RR        3ZZ-RR
 --------------------------------------------------------
     1   Atom        2.065234     -1.023954     -1.041280
     2   Atom       -0.018857      0.040278     -0.021422
     3   Atom       -0.018857      0.040278     -0.021422
 --------------------------------------------------------
                        XY            XZ            YZ
 --------------------------------------------------------
     1   Atom        0.000000      0.000000      0.000000
     2   Atom       -0.000000     -0.000000     -0.106447
     3   Atom       -0.000000     -0.000000      0.106447
 --------------------------------------------------------


 ---------------------------------------------------------------------------------
              Anisotropic Spin Dipole Couplings in Principal Axis System
 ---------------------------------------------------------------------------------

       Atom             a.u.   MegaHertz   Gauss  10(-4) cm-1        Axes

              Baa    -1.0413   -40.160   -14.330   -13.396 -0.0000 -0.0000  1.0000
     1 N(14)  Bbb    -1.0240   -39.492   -14.092   -13.173 -0.0000  1.0000  0.0000
              Bcc     2.0652    79.651    28.422    26.569  1.0000  0.0000  0.0000
 
              Baa    -0.1014   -54.102   -19.305   -18.046  0.0000  0.6007  0.7995
     2 H(1)   Bbb    -0.0189   -10.061    -3.590    -3.356  1.0000 -0.0000  0.0000
              Bcc     0.1203    64.163    22.895    21.402  0.0000  0.7995 -0.6007
 
              Baa    -0.1014   -54.102   -19.305   -18.046  0.0000 -0.6007  0.7995
     3 H(1)   Bbb    -0.0189   -10.061    -3.590    -3.356  1.0000  0.0000  0.0000
              Bcc     0.1203    64.163    22.895    21.402 -0.0000  0.7995  0.6007
 

 ---------------------------------------------------------------------------------

 No NMR shielding tensors so no spin-rotation constants.
 Leave Link  601 at Sun Sep 15 20:55:36 2024, MaxMem=   13107200 cpu:       0.3
 (Enter /programs/64bit/g09/g09-gfortran/bin/l701.exe)
 Compute integral second derivatives.
 ... and contract with generalized density number  0.
 Leave Link  701 at Sun Sep 15 20:55:36 2024, MaxMem=   13107200 cpu:       0.2
 (Enter /programs/64bit/g09/g09-gfortran/bin/l702.exe)
 L702 exits ... SP integral derivatives will be done elsewhere.
 Leave Link  702 at Sun Sep 15 20:55:36 2024, MaxMem=   13107200 cpu:       0.0
 (Enter /programs/64bit/g09/g09-gfortran/bin/l703.exe)
 Compute integral second derivatives, UseDBF=F ICtDFT=           0.
 Integral derivatives from FoFDir, PRISM(SPDF).
 Calling FoFJK, ICntrl=    100127 FMM=F ISym2X=1 I1Cent= 0 IOpClX= 1 NMat=1 NMatS=1 NMatT=0.
 FoFCou: FMM=F IPFlag=           0 FMFlag=      100000 FMFlg1=         800
         NFxFlg=           0 DoJE=F BraDBF=F KetDBF=F FulRan=T
         Omega=  0.000000  0.000000  1.000000  0.000000  0.000000 ICntrl=  100127 IOpCl=  1
         NMat0=    1 NMatS0=    1 NMatT0=    0 NMatD0=    1 NMtDS0=    0 NMtDT0=    0
         I1Cent=           0 NGrid=           0.
 Petite list used in FoFCou.
 Leave Link  703 at Sun Sep 15 20:55:38 2024, MaxMem=   13107200 cpu:       2.1
 (Enter /programs/64bit/g09/g09-gfortran/bin/l716.exe)
 Dipole        =-4.36822560D-17 8.12067427D-16-8.42753446D-01
 Polarizability= 7.11049973D+00 7.15129979D-11 1.06956217D+01
                 4.94683188D-10-1.94304277D-09 9.61973417D+00
 Full mass-weighted force constant matrix:
 Low frequencies ---  -67.0802  -66.5222  -64.4418    0.0004    0.0010    0.0016
 Low frequencies --- 1518.5030 3355.9093 3458.3495
 Diagonal vibrational polarizability:
        0.0000000       0.0054044       0.3117946
 Harmonic frequencies (cm**-1), IR intensities (KM/Mole), Raman scattering
 activities (A**4/AMU), depolarization ratios for plane and unpolarized
 incident light, reduced masses (AMU), force constants (mDyne/A),
 and normal coordinates:
                     1                      2                      3
                    A1                     A1                     B2
 Frequencies --  1518.5030              3355.9093              3458.3495
 Red. masses --     1.0917                 1.0498                 1.0902
 Frc consts  --     1.4831                 6.9659                 7.6825
 IR Inten    --    23.3897                16.2446                 2.4019
  Atom  AN      X      Y      Z        X      Y      Z        X      Y      Z
     1   7     0.00  -0.00   0.08     0.00   0.00   0.06     0.00   0.08  -0.00
     2   1    -0.00  -0.43  -0.56     0.00   0.59  -0.39    -0.00  -0.55   0.44
     3   1    -0.00   0.43  -0.56    -0.00  -0.59  -0.39    -0.00  -0.55  -0.44

 -------------------
 - Thermochemistry -
 -------------------
 Temperature   298.150 Kelvin.  Pressure   1.00000 Atm.
 Atom     1 has atomic number  7 and mass  14.00307
 Atom     2 has atomic number  1 and mass   1.00783
 Atom     3 has atomic number  1 and mass   1.00783
 Molecular mass:    16.01872 amu.
 Principal axes and moments of inertia in atomic units:
                           1         2         3
     Eigenvalues --     2.56951   4.71312   7.28263
           X            0.00000   0.00000   1.00000
           Y            1.00000  -0.00000  -0.00000
           Z            0.00000   1.00000  -0.00000
 This molecule is an asymmetric top.
 Rotational symmetry number  2.
 Rotational temperatures (Kelvin)     33.70824    18.37718    11.89320
 Rotational constants (GHZ):         702.36667   382.91883   247.81445
 Zero-point vibrational energy      49841.0 (Joules/Mol)
                                   11.91228 (Kcal/Mol)
 Vibrational temperatures:   2184.78  4828.40  4975.79
          (Kelvin)
 
 Zero-point correction=                           0.018983 (Hartree/Particle)
 Thermal correction to Energy=                    0.021821
 Thermal correction to Enthalpy=                  0.022765
 Thermal correction to Gibbs Free Energy=         0.000660
 Sum of electronic and zero-point Energies=            -55.866463
 Sum of electronic and thermal Energies=               -55.863626
 Sum of electronic and thermal Enthalpies=             -55.862682
 Sum of electronic and thermal Free Energies=          -55.884787
 
                     E (Thermal)             CV                S
                      KCal/Mol        Cal/Mol-Kelvin    Cal/Mol-Kelvin
 Total                   13.693              6.032             46.524
 Electronic               0.000              0.000              1.377
 Translational            0.889              2.981             34.259
 Rotational               0.889              2.981             10.876
 Vibrational             11.915              0.070              0.011
                       Q            Log10(Q)             Ln(Q)
 Total Bot       0.497165D+00         -0.303499         -0.698833
 Total V=0       0.268073D+09          8.428253         19.406769
 Vib (Bot)       0.185581D-08         -8.731467        -20.104945
 Vib (V=0)       0.100066D+01          0.000285          0.000657
 Electronic      0.200000D+01          0.301030          0.693147
 Translational   0.251998D+07          6.401397         14.739762
 Rotational      0.531545D+02          1.725540          3.973203
 
                                                    NH2 with 6-31+g(d,p) basis se
 t
                                                             IR Spectrum
 
      3  3                                                                   1                                                       
      4  3                                                                   5                                                       
      5  5                                                                   1                                                       
      8  6                                                                   9                                                       
 
      X  X                                                                   X                                                       
      X  X                                                                   X                                                       
         X                                                                   X                                                       
         X                                                                   X                                                       
         X                                                                   X                                                       
         X                                                                   X                                                       
         X                                                                   X                                                       
         X                                                                   X                                                       
         X                                                                   X                                                       
         X                                                                   X                                                       
         X                                                                   X                                                       
         X                                                                   X                                                       
         X                                                                   X                                                       
         X                                                                   X                                                       
                                                                             X                                                       
                                                                             X                                                       
                                                                             X                                                       
                                                                             X                                                       
                                                                             X                                                       
                                                                             X                                                       
 
 ***** Axes restored to original set *****
 -------------------------------------------------------------------
 Center     Atomic                   Forces (Hartrees/Bohr)
 Number     Number              X              Y              Z
 -------------------------------------------------------------------
      1        7          -0.000269641    0.000000000   -0.000190665
      2        1           0.000015832    0.000000000    0.000263608
      3        1           0.000253809   -0.000000000   -0.000072943
 -------------------------------------------------------------------
 Cartesian Forces:  Max     0.000269641 RMS     0.000166179
 Force constants in Cartesian coordinates: 
                1             2             3             4             5 
      1  0.410840D+00
      2  0.000000D+00 -0.295077D-03
      3 -0.744055D-01  0.000000D+00  0.463453D+00
      4 -0.378782D-01  0.000000D+00 -0.481922D-01  0.408730D-01
      5  0.000000D+00  0.147538D-03  0.000000D+00  0.000000D+00 -0.159579D-03
      6  0.412767D-02  0.000000D+00 -0.399268D+00  0.486393D-02  0.000000D+00
      7 -0.372962D+00  0.000000D+00  0.122598D+00 -0.299479D-02  0.000000D+00
      8  0.000000D+00  0.147538D-03  0.000000D+00  0.000000D+00  0.120403D-04
      9  0.702779D-01  0.000000D+00 -0.641845D-01  0.433283D-01  0.000000D+00
                6             7             8             9 
      6  0.414403D+00
      7 -0.899160D-02  0.375957D+00
      8  0.000000D+00  0.000000D+00 -0.159579D-03
      9 -0.151346D-01 -0.113606D+00  0.000000D+00  0.793191D-01
 Force constants in internal coordinates: 
                1             2             3 
      1  0.413882D+00
      2 -0.514782D-02  0.413882D+00
      3  0.290240D-01  0.290240D-01  0.157741D+00
 Leave Link  716 at Sun Sep 15 20:55:39 2024, MaxMem=   13107200 cpu:       0.0
 (Enter /programs/64bit/g09/g09-gfortran/bin/l103.exe)

 GradGradGradGradGradGradGradGradGradGradGradGradGradGradGradGradGradGrad
 Berny optimization.
 Internal  Forces:  Max     0.000264076 RMS     0.000215628
 Search for a local minimum.
 Step number   1 out of a maximum of    2
 All quantities printed in internal units (Hartrees-Bohrs-Radians)
 Second derivative matrix not updated -- analytic derivatives used.
 The second derivative matrix:
                          R1        R2        A1
           R1           0.41388
           R2          -0.00515   0.41388
           A1           0.02902   0.02902   0.15774
     Eigenvalues ---    0.15120   0.41528   0.41903
 Angle between quadratic step and forces=  15.33 degrees.
 Linear search not attempted -- first point.
 Iteration  1 RMS(Cart)=  0.00041367 RMS(Int)=  0.00000005
 Iteration  2 RMS(Cart)=  0.00000006 RMS(Int)=  0.00000000
 ClnCor:  largest displacement from symmetrization is 4.50D-15 for atom     3.
 Variable       Old X    -DE/DX   Delta X   Delta X   Delta X     New X
                                 (Linear)    (Quad)   (Total)
    R1        1.94847   0.00026   0.00000   0.00067   0.00067   1.94914
    R2        1.94847   0.00026   0.00000   0.00067   0.00067   1.94914
    A1        1.80471  -0.00000   0.00000  -0.00027  -0.00027   1.80444
         Item               Value     Threshold  Converged?
 Maximum Force            0.000264     0.000450     YES
 RMS     Force            0.000216     0.000300     YES
 Maximum Displacement     0.000413     0.001800     YES
 RMS     Displacement     0.000414     0.001200     YES
 Predicted change in Energy=-1.761183D-07
 Optimization completed.
    -- Stationary point found.
                           ----------------------------
                           !   Optimized Parameters   !
                           ! (Angstroms and Degrees)  !
 --------------------------                            --------------------------
 ! Name  Definition              Value          Derivative Info.                !
 --------------------------------------------------------------------------------
 ! R1    R(1,2)                  1.0311         -DE/DX =    0.0003              !
 ! R2    R(1,3)                  1.0311         -DE/DX =    0.0003              !
 ! A1    A(2,1,3)              103.4022         -DE/DX =    0.0                 !
 --------------------------------------------------------------------------------
 GradGradGradGradGradGradGradGradGradGradGradGradGradGradGradGradGradGrad

 Leave Link  103 at Sun Sep 15 20:55:39 2024, MaxMem=   13107200 cpu:       0.0
 (Enter /programs/64bit/g09/g09-gfortran/bin/l9999.exe)
 1\1\GINC-MOLMOD\Freq\UB3LYP\6-31+G(d,p)\H2N1(2)\OSPITE\15-Sep-2024\0\\
 #P Geom=AllCheck Guess=TCheck SCRF=Check GenChk UB3LYP/6-31+G(d,p) Fre
 q\\NH2 with 6-31+g(d,p) basis set\\0,2\N,-0.0241461841,0.,-0.017073930
 5\H,0.030436742,0.,1.0125668425\H,0.9648027549,0.,-0.3088262453\\Versi
 on=EM64L-G09RevA.02\State=2-B1\HF=-55.8854469\S2=0.752968\S2-1=0.\S2A=
 0.750005\RMSD=1.977e-10\RMSF=1.662e-04\ZeroPoint=0.0189834\Thermal=0.0
 218205\Dipole=0.6881053,0.,0.4865639\DipoleDeriv=-0.1087284,0.,0.05975
 55,0.,-0.6976786,0.,0.0597555,0.,-0.150982,0.2136619,0.,-0.1165113,0.,
 0.3488393,0.,-0.0558847,0.,-0.0838067,-0.1049335,0.,0.0567558,0.,0.348
 8393,0.,-0.0038708,0.,0.2347887\Polar=9.9783633,0.,7.1104997,-0.507178
 2,0.,10.3369925\PG=C02V [C2(N1),SGV(H2)]\NImag=0\\0.41084028,0.,-0.000
 29508,-0.07440554,0.,0.46345294,-0.03787817,0.,-0.04819219,0.04087296,
 0.,0.00014754,0.,0.,-0.00015958,0.00412767,0.,-0.39926844,0.00486393,0
 .,0.41440307,-0.37296211,0.,0.12259773,-0.00299479,0.,-0.00899160,0.37
 595690,0.,0.00014754,0.,0.,0.00001204,0.,0.,-0.00015958,0.07027787,0.,
 -0.06418450,0.04332826,0.,-0.01513464,-0.11360613,0.,0.07931914\\0.000
 26964,0.,0.00019066,-0.00001583,0.,-0.00026361,-0.00025381,0.,0.000072
 94\\\@


 I WOULD TAKE COUNSEL OF MYSELF.
 I WOULD STOP AND LOOK WITHIN
 AND LOOKING WITHIN, LOOK BACK, ALSO
 THAT I MAY LOOK AHEAD WITH CLEARER UNDERSTANDING
 OF THE WAY I HAVE BEEN MOVING, AND IN WHAT DIRECTION.
 I NEED TO KNOW IF I AM GOING FORWARD OR RETREATING,
 WHETHER I HAVE BEEN WASTING, OR ENJOYING
 THE PRECIOUS MOMENTS OF LIFE.  THERE HAVE BEEN FRICTIONS,
 ANNOYANCES AND SOMETIMES WRATH,
 BUT WERE THEY BECAUSE I WAS RIGHT AND OTHERS WRONG.....
 HAVE I HAD MY THOUGHTS TOO SHARPLY FOCUSED
 ON THAT WHICH PLEASED ME, SERVED MY SELF-ESTEEM,
 UNDERGIRDED MY SECURITY,
 OF WHICH I DID NOT INQUIRE WHETHER IT SERVED OR HAMPERED OTHERS.....
 HAVE I BEEN TRYING TO STOP THE CLOCK
 TO HOLD THE WORLD
 IN PERPETUATION OF WHAT WAS AN IS ALREADY SLIPPING AWAY.....
 HAVE I BEEN CRITICAL OF OTHERS FOR WHAT REALLY NEEDED CHANGING IN ME...
 LET ME INDEED TAKE COUNSEL OF MYSELF
 AND SET MY DIRECTIONS STRAIGHT.

                          R.T. WESTON AS ADAPTED BY D. OSBORN 1967
 Job cpu time:  0 days  0 hours  0 minutes 14.1 seconds.
 File lengths (MBytes):  RWF=      5 Int=      0 D2E=      0 Chk=      1 Scr=      1
 Normal termination of Gaussian 09 at Sun Sep 15 20:55:39 2024.
