 Entering Gaussian System, Link 0=/programs/64bit/g09/g09-gfortran/bin/g09
 Input=nh2_opt.com
 Output=nh2_opt.log
 Initial command:
 /programs/64bit/g09/g09-gfortran/bin/l1.exe /home/ospite/Desktop/MMfP/Project9/NH3/reactants/NH2/Gau-31197.inp -scrdir=/home/ospite/Desktop/MMfP/Project9/NH3/reactants/NH2/
 Entering Link 1 = /programs/64bit/g09/g09-gfortran/bin/l1.exe PID=     31198.
  
 Copyright (c) 1988,1990,1992,1993,1995,1998,2003,2009, Gaussian, Inc.
                  All Rights Reserved.
  
 This is part of the Gaussian(R) 09 program.  It is based on
 the Gaussian(R) 03 system (copyright 2003, Gaussian, Inc.),
 the Gaussian(R) 98 system (copyright 1998, Gaussian, Inc.),
 the Gaussian(R) 94 system (copyright 1995, Gaussian, Inc.),
 the Gaussian 92(TM) system (copyright 1992, Gaussian, Inc.),
 the Gaussian 90(TM) system (copyright 1990, Gaussian, Inc.),
 the Gaussian 88(TM) system (copyright 1988, Gaussian, Inc.),
 the Gaussian 86(TM) system (copyright 1986, Carnegie Mellon
 University), and the Gaussian 82(TM) system (copyright 1983,
 Carnegie Mellon University). Gaussian is a federally registered
 trademark of Gaussian, Inc.
  
 This software contains proprietary and confidential information,
 including trade secrets, belonging to Gaussian, Inc.
  
 This software is provided under written license and may be
 used, copied, transmitted, or stored only in accord with that
 written license.
  
 The following legend is applicable only to US Government
 contracts under FAR:
  
                    RESTRICTED RIGHTS LEGEND
  
 Use, reproduction and disclosure by the US Government is
 subject to restrictions as set forth in subparagraphs (a)
 and (c) of the Commercial Computer Software - Restricted
 Rights clause in FAR 52.227-19.
  
 Gaussian, Inc.
 340 Quinnipiac St., Bldg. 40, Wallingford CT 06492
  
  
 ---------------------------------------------------------------
 Warning -- This program may not be used in any manner that
 competes with the business of Gaussian, Inc. or will provide
 assistance to any competitor of Gaussian, Inc.  The licensee
 of this program is prohibited from giving any competitor of
 Gaussian, Inc. access to this program.  By using this program,
 the user acknowledges that Gaussian, Inc. is engaged in the
 business of creating and licensing software in the field of
 computational chemistry and represents and warrants to the
 licensee that it is not a competitor of Gaussian, Inc. and that
 it will not use this program in any manner prohibited above.
 ---------------------------------------------------------------
  

 Cite this work as:
 Gaussian 09, Revision A.02,
 M. J. Frisch, G. W. Trucks, H. B. Schlegel, G. E. Scuseria, 
 M. A. Robb, J. R. Cheeseman, G. Scalmani, V. Barone, B. Mennucci, 
 G. A. Petersson, H. Nakatsuji, M. Caricato, X. Li, H. P. Hratchian, 
 A. F. Izmaylov, J. Bloino, G. Zheng, J. L. Sonnenberg, M. Hada, 
 M. Ehara, K. Toyota, R. Fukuda, J. Hasegawa, M. Ishida, T. Nakajima, 
 Y. Honda, O. Kitao, H. Nakai, T. Vreven, J. A. Montgomery, Jr., 
 J. E. Peralta, F. Ogliaro, M. Bearpark, J. J. Heyd, E. Brothers, 
 K. N. Kudin, V. N. Staroverov, R. Kobayashi, J. Normand, 
 K. Raghavachari, A. Rendell, J. C. Burant, S. S. Iyengar, J. Tomasi, 
 M. Cossi, N. Rega, J. M. Millam, M. Klene, J. E. Knox, J. B. Cross, 
 V. Bakken, C. Adamo, J. Jaramillo, R. Gomperts, R. E. Stratmann, 
 O. Yazyev, A. J. Austin, R. Cammi, C. Pomelli, J. W. Ochterski, 
 R. L. Martin, K. Morokuma, V. G. Zakrzewski, G. A. Voth, 
 P. Salvador, J. J. Dannenberg, S. Dapprich, A. D. Daniels, 
 O. Farkas, J. B. Foresman, J. V. Ortiz, J. Cioslowski, 
 and D. J. Fox, Gaussian, Inc., Wallingford CT, 2009.
 
 ******************************************
 Gaussian 09:  EM64L-G09RevA.02 11-Jun-2009
                15-Sep-2024 
 ******************************************
 %mem=100MB
 -----------------------------------------
 #p b3lyp/6-31+G opt freq pop=full gfinput
 -----------------------------------------
 1/14=-1,18=20,19=15,26=3,38=1/1,3;
 2/9=110,12=2,17=6,18=5,40=1/2;
 3/5=1,6=6,7=10,11=2,16=1,24=10,25=1,30=1,71=1,74=-5/1,2,3;
 4//1;
 5/5=2,38=5/2;
 6/7=3,28=1/1;
 7//1,2,3,16;
 1/14=-1,18=20,19=15/3(2);
 2/9=110/2;
 99//99;
 2/9=110/2;
 3/5=1,6=6,7=10,11=2,16=1,25=1,30=1,71=1,74=-5/1,2,3;
 4/5=5,16=3/1;
 5/5=2,38=5/2;
 7//1,2,3,16;
 1/14=-1,18=20,19=15/3(-5);
 2/9=110/2;
 6/7=3,19=2,28=1/1;
 99/9=1/99;
 Leave Link    1 at Sun Sep 15 16:40:12 2024, MaxMem=   13107200 cpu:       0.1
 (Enter /programs/64bit/g09/g09-gfortran/bin/l101.exe)
 -------------------------
 NH2 with 6-31+G basis set
 -------------------------
 Symbolic Z-matrix:
 Charge =  0 Multiplicity = 2
 n
 h                    1    hn2
 h                    1    hn3      2    hnh3
       Variables:
  hn2                   1.03                     
  hn3                   1.03                     
  hnh3                109.471                    
 
     1 tetrahedral angles replaced.
 NAtoms=      3 NQM=      3 NQMF=      0 NMic=      0 NMicF=      0 NTot=      3.
                    Isotopes and Nuclear Properties:
 (Nuclear quadrupole moments (NQMom) in fm**2, nuclear magnetic moments (NMagM)
  in nuclear magnetons)

  Atom         1           2           3
 IAtWgt=          14           1           1
 AtmWgt=  14.0030740   1.0078250   1.0078250
 NucSpn=           2           1           1
 AtZEff=   0.0000000   0.0000000   0.0000000
 NQMom=    2.0440000   0.0000000   0.0000000
 NMagM=    0.4037610   2.7928460   2.7928460
 Leave Link  101 at Sun Sep 15 16:40:13 2024, MaxMem=   13107200 cpu:       0.2
 (Enter /programs/64bit/g09/g09-gfortran/bin/l103.exe)

 GradGradGradGradGradGradGradGradGradGradGradGradGradGradGradGradGradGrad
 Berny optimization.
 Initialization pass.
                           ----------------------------
                           !    Initial Parameters    !
                           ! (Angstroms and Degrees)  !
 --------------------------                            --------------------------
 ! Name  Definition              Value          Derivative Info.                !
 --------------------------------------------------------------------------------
 ! R1    R(1,2)                  1.03           estimate D2E/DX2                !
 ! R2    R(1,3)                  1.03           estimate D2E/DX2                !
 ! A1    A(2,1,3)              109.4712         estimate D2E/DX2                !
 --------------------------------------------------------------------------------
 Trust Radius=3.00D-01 FncErr=1.00D-07 GrdErr=1.00D-06
 Number of steps in this run=  20 maximum allowed number of steps= 100.
 GradGradGradGradGradGradGradGradGradGradGradGradGradGradGradGradGradGrad

 Leave Link  103 at Sun Sep 15 16:40:13 2024, MaxMem=   13107200 cpu:       0.0
 (Enter /programs/64bit/g09/g09-gfortran/bin/l202.exe)
                          Input orientation:                          
 ---------------------------------------------------------------------
 Center     Atomic      Atomic             Coordinates (Angstroms)
 Number     Number       Type             X           Y           Z
 ---------------------------------------------------------------------
      1          7           0        0.000000    0.000000    0.000000
      2          1           0        0.000000    0.000000    1.030000
      3          1           0        0.971093    0.000000   -0.343333
 ---------------------------------------------------------------------
                    Distance matrix (angstroms):
                    1          2          3
     1  N    0.000000
     2  H    1.030000   0.000000
     3  H    1.030000   1.681983   0.000000
 Stoichiometry    H2N(2)
 Framework group  C2V[C2(N),SGV(H2)]
 Deg. of freedom     2
 Full point group                 C2V     NOp   4
 Largest Abelian subgroup         C2V     NOp   4
 Largest concise Abelian subgroup C2      NOp   2
                         Standard orientation:                         
 ---------------------------------------------------------------------
 Center     Atomic      Atomic             Coordinates (Angstroms)
 Number     Number       Type             X           Y           Z
 ---------------------------------------------------------------------
      1          7           0        0.000000    0.000000    0.132149
      2          1           0       -0.000000    0.840991   -0.462522
      3          1           0       -0.000000   -0.840991   -0.462522
 ---------------------------------------------------------------------
 Rotational constants (GHZ):    811.0607767    354.5021446    246.6814785
 Leave Link  202 at Sun Sep 15 16:40:13 2024, MaxMem=   13107200 cpu:       0.0
 (Enter /programs/64bit/g09/g09-gfortran/bin/l301.exe)
 Standard basis: 6-31+G (6D, 7F)
 Ernie: Thresh=  0.10000D-02 Tol=  0.10000D-05 Strict=F.
 AO basis set in the form of general basis input (Overlap normalization):
      1 0
 S   6 1.00       0.000000000000
      0.4173511460D+04  0.1834772160D-02
      0.6274579110D+03  0.1399462700D-01
      0.1429020930D+03  0.6858655181D-01
      0.4023432930D+02  0.2322408730D+00
      0.1282021290D+02  0.4690699481D+00
      0.4390437010D+01  0.3604551991D+00
 SP   3 1.00       0.000000000000
      0.1162636186D+02 -0.1149611817D+00  0.6757974388D-01
      0.2716279807D+01 -0.1691174786D+00  0.3239072959D+00
      0.7722183966D+00  0.1145851947D+01  0.7408951398D+00
 SP   1 1.00       0.000000000000
      0.2120314975D+00  0.1000000000D+01  0.1000000000D+01
 SP   1 1.00       0.000000000000
      0.6390000000D-01  0.1000000000D+01  0.1000000000D+01
 ****
      2 0
 S   3 1.00       0.000000000000
      0.1873113696D+02  0.3349460434D-01
      0.2825394365D+01  0.2347269535D+00
      0.6401216923D+00  0.8137573261D+00
 S   1 1.00       0.000000000000
      0.1612777588D+00  0.1000000000D+01
 ****
      3 0
 S   3 1.00       0.000000000000
      0.1873113696D+02  0.3349460434D-01
      0.2825394365D+01  0.2347269535D+00
      0.6401216923D+00  0.8137573261D+00
 S   1 1.00       0.000000000000
      0.1612777588D+00  0.1000000000D+01
 ****

 There are     9 symmetry adapted basis functions of A1  symmetry.
 There are     0 symmetry adapted basis functions of A2  symmetry.
 There are     3 symmetry adapted basis functions of B1  symmetry.
 There are     5 symmetry adapted basis functions of B2  symmetry.
 Integral buffers will be    131072 words long.
 Raffenetti 2 integral format.
 Two-electron integral symmetry is turned on.
    17 basis functions,    34 primitive gaussians,    17 cartesian basis functions
     5 alpha electrons        4 beta electrons
       nuclear repulsion energy         7.5073150062 Hartrees.
 IExCor=  402 DFT=T Ex+Corr=B3LYP ExCW=0 ScaHFX=  0.200000
 ScaDFX=  0.800000  0.720000  1.000000  0.810000 ScalE2=  1.000000  1.000000
 IRadAn=      0 IRanWt=     -1 IRanGd=            0 ICorTp=0
 NAtoms=    3 NActive=    3 NUniq=    2 SFac= 1.69D+00 NAtFMM=   80 NAOKFM=F Big=F
 Leave Link  301 at Sun Sep 15 16:40:13 2024, MaxMem=   13107200 cpu:       0.1
 (Enter /programs/64bit/g09/g09-gfortran/bin/l302.exe)
 NPDir=0 NMtPBC=     1 NCelOv=     1 NCel=       1 NClECP=     1 NCelD=      1
         NCelK=      1 NCelE2=     1 NClLst=     1 CellRange=     0.0.
 One-electron integrals computed using PRISM.
 One-electron integral symmetry used in STVInt
 NBasis=    17 RedAO= T  NBF=     9     0     3     5
 NBsUse=    17 1.00D-06 NBFU=     9     0     3     5
 Precomputing XC quadrature grid using
 IXCGrd= 2 IRadAn=           0 IRanWt=          -1 IRanGd=           0 AccXCQ= 1.00D-10.
 NRdTot=     189 NPtTot=       23944 NUsed=       25319 NTot=       25351
 NSgBfM=    17    17    17    17    17 NAtAll=     3     3.
 Leave Link  302 at Sun Sep 15 16:40:13 2024, MaxMem=   13107200 cpu:       0.2
 (Enter /programs/64bit/g09/g09-gfortran/bin/l303.exe)
 DipDrv:  MaxL=1.
 Leave Link  303 at Sun Sep 15 16:40:13 2024, MaxMem=   13107200 cpu:       0.0
 (Enter /programs/64bit/g09/g09-gfortran/bin/l401.exe)
 Harris functional with IExCor=  402 diagonalized for initial guess.
 ExpMin= 6.39D-02 ExpMax= 4.17D+03 ExpMxC= 6.27D+02 IAcc=2 IRadAn=         0 AccDes= 0.00D+00
 HarFok:  IExCor=  402 AccDes= 0.00D+00 IRadAn=         0 IDoV= 1
 ScaDFX=  1.000000  1.000000  1.000000  1.000000
 FoFCou: FMM=F IPFlag=           0 FMFlag=      100000 FMFlg1=           0
         NFxFlg=           0 DoJE=T BraDBF=F KetDBF=T FulRan=T
         Omega=  0.000000  0.000000  1.000000  0.000000  0.000000 ICntrl=     500 IOpCl=  0
         NMat0=    1 NMatS0=    1 NMatT0=    0 NMatD0=    1 NMtDS0=    0 NMtDT0=    0
         I1Cent=           4 NGrid=           0.
 Petite list used in FoFCou.
 Harris En= -55.8485624583399    
 Initial guess orbital symmetries:
 Alpha Orbitals:
       Occupied  (A1) (A1) (B2) (A1) (B1)
       Virtual   (A1) (B2) (A1) (B1) (B2) (A1) (B2) (B1) (A1) (B2)
                 (A1) (A1)
 Beta  Orbitals:
       Occupied  (A1) (A1) (B2) (A1)
       Virtual   (B1) (A1) (B2) (A1) (B1) (B2) (A1) (B2) (B1) (A1)
                 (B2) (A1) (A1)
 The electronic state of the initial guess is 2-B1.
 Initial guess <Sx>= 0.0000 <Sy>= 0.0000 <Sz>= 0.5000 <S**2>= 0.7500 S= 0.5000
 Leave Link  401 at Sun Sep 15 16:40:14 2024, MaxMem=   13107200 cpu:       0.3
 (Enter /programs/64bit/g09/g09-gfortran/bin/l502.exe)
 UHF open shell SCF:
 Requested convergence on RMS density matrix=1.00D-08 within 128 cycles.
 Requested convergence on MAX density matrix=1.00D-06.
 Requested convergence on             energy=1.00D-06.
 No special actions if energy rises.
 Using DIIS extrapolation, IDIIS=  1040.
 Integral symmetry usage will be decided dynamically.
        25279 words used for storage of precomputed grid.
 Keep R1 and R2 ints in memory in canonical form, NReq=926457.
 IEnd=       45072 IEndB=       45072 NGot=    13107200 MDV=    13055641
 LenX=    13055641 LenY=    13054759
 Symmetry not used in FoFDir.
 MinBra= 0 MaxBra= 1 Meth= 1.
 IRaf=       0 NMat=   1 IRICut=       1 DoRegI=T DoRafI=F ISym2E= 0 JSym2E=0.
 Integral accuracy reduced to 1.0D-05 until final iterations.

 Cycle   1  Pass 0  IDiag  1:
 E= -55.8331552483890    
 DIIS: error= 3.73D-02 at cycle   1 NSaved=   1.
 NSaved= 1 IEnMin= 1 EnMin= -55.8331552483890     IErMin= 1 ErrMin= 3.73D-02
 ErrMax= 3.73D-02 EMaxC= 1.00D-01 BMatC= 9.80D-02 BMatP= 9.80D-02
 IDIUse=3 WtCom= 6.27D-01 WtEn= 3.73D-01
 Coeff-Com:  0.100D+01
 Coeff-En:   0.100D+01
 Coeff:      0.100D+01
 Gap=     0.258 Goal=   None    Shift=    0.000
 Gap=     0.177 Goal=   None    Shift=    0.000
 GapD=    0.177 DampG=1.000 DampE=0.500 DampFc=0.5000 IDamp=-1.
 Damping current iteration by 5.00D-01
 RMSDP=1.84D-02 MaxDP=1.24D-01              OVMax= 1.53D-01

 Cycle   2  Pass 0  IDiag  1:
 E= -55.8435314538072     Delta-E=       -0.010376205418 Rises=F Damp=T
 DIIS: error= 1.14D-02 at cycle   2 NSaved=   2.
 NSaved= 2 IEnMin= 2 EnMin= -55.8435314538072     IErMin= 2 ErrMin= 1.14D-02
 ErrMax= 1.14D-02 EMaxC= 1.00D-01 BMatC= 5.12D-03 BMatP= 9.80D-02
 IDIUse=3 WtCom= 8.86D-01 WtEn= 1.14D-01
 Coeff-Com:  0.148D+00 0.852D+00
 Coeff-En:   0.224D+00 0.776D+00
 Coeff:      0.157D+00 0.843D+00
 Gap=     0.324 Goal=   None    Shift=    0.000
 Gap=     0.165 Goal=   None    Shift=    0.000
 RMSDP=2.32D-03 MaxDP=2.33D-02 DE=-1.04D-02 OVMax= 7.42D-02

 Cycle   3  Pass 0  IDiag  1:
 E= -55.8600429450077     Delta-E=       -0.016511491201 Rises=F Damp=F
 DIIS: error= 1.54D-03 at cycle   3 NSaved=   3.
 NSaved= 3 IEnMin= 3 EnMin= -55.8600429450077     IErMin= 3 ErrMin= 1.54D-03
 ErrMax= 1.54D-03 EMaxC= 1.00D-01 BMatC= 9.47D-05 BMatP= 5.12D-03
 IDIUse=3 WtCom= 9.85D-01 WtEn= 1.54D-02
 Coeff-Com: -0.506D-02-0.847D-01 0.109D+01
 Coeff-En:   0.000D+00 0.000D+00 0.100D+01
 Coeff:     -0.498D-02-0.834D-01 0.109D+01
 Gap=     0.329 Goal=   None    Shift=    0.000
 Gap=     0.163 Goal=   None    Shift=    0.000
 RMSDP=4.69D-04 MaxDP=4.64D-03 DE=-1.65D-02 OVMax= 4.63D-03

 Cycle   4  Pass 0  IDiag  1:
 E= -55.8601061496175     Delta-E=       -0.000063204610 Rises=F Damp=F
 DIIS: error= 3.58D-04 at cycle   4 NSaved=   4.
 NSaved= 4 IEnMin= 4 EnMin= -55.8601061496175     IErMin= 4 ErrMin= 3.58D-04
 ErrMax= 3.58D-04 EMaxC= 1.00D-01 BMatC= 8.13D-06 BMatP= 9.47D-05
 IDIUse=3 WtCom= 9.96D-01 WtEn= 3.58D-03
 Coeff-Com: -0.296D-02 0.161D-02-0.325D+00 0.133D+01
 Coeff-En:   0.000D+00 0.000D+00 0.000D+00 0.100D+01
 Coeff:     -0.295D-02 0.160D-02-0.324D+00 0.133D+01
 Gap=     0.330 Goal=   None    Shift=    0.000
 Gap=     0.162 Goal=   None    Shift=    0.000
 RMSDP=2.10D-04 MaxDP=1.41D-03 DE=-6.32D-05 OVMax= 1.49D-03

 Cycle   5  Pass 0  IDiag  1:
 E= -55.8601130543736     Delta-E=       -0.000006904756 Rises=F Damp=F
 DIIS: error= 6.40D-05 at cycle   5 NSaved=   5.
 NSaved= 5 IEnMin= 5 EnMin= -55.8601130543736     IErMin= 5 ErrMin= 6.40D-05
 ErrMax= 6.40D-05 EMaxC= 1.00D-01 BMatC= 2.82D-07 BMatP= 8.13D-06
 IDIUse=1 WtCom= 1.00D+00 WtEn= 0.00D+00
 Coeff-Com: -0.257D-03 0.335D-02-0.565D-02-0.160D+00 0.116D+01
 Coeff:     -0.257D-03 0.335D-02-0.565D-02-0.160D+00 0.116D+01
 Gap=     0.330 Goal=   None    Shift=    0.000
 Gap=     0.162 Goal=   None    Shift=    0.000
 RMSDP=4.82D-05 MaxDP=2.91D-04 DE=-6.90D-06 OVMax= 3.41D-04

 Cycle   6  Pass 0  IDiag  1:
 E= -55.8601132979656     Delta-E=       -0.000000243592 Rises=F Damp=F
 DIIS: error= 8.96D-06 at cycle   6 NSaved=   6.
 NSaved= 6 IEnMin= 6 EnMin= -55.8601132979656     IErMin= 6 ErrMin= 8.96D-06
 ErrMax= 8.96D-06 EMaxC= 1.00D-01 BMatC= 5.61D-09 BMatP= 2.82D-07
 IDIUse=1 WtCom= 1.00D+00 WtEn= 0.00D+00
 Coeff-Com:  0.159D-03-0.656D-03 0.108D-01-0.182D-01-0.180D+00 0.119D+01
 Coeff:      0.159D-03-0.656D-03 0.108D-01-0.182D-01-0.180D+00 0.119D+01
 Gap=     0.330 Goal=   None    Shift=    0.000
 Gap=     0.162 Goal=   None    Shift=    0.000
 RMSDP=8.95D-06 MaxDP=5.06D-05 DE=-2.44D-07 OVMax= 7.45D-05

 Initial convergence to 1.0D-05 achieved.  Increase integral accuracy.
 Cycle   7  Pass 1  IDiag  1:
 E= -55.8601196116976     Delta-E=       -0.000006313732 Rises=F Damp=F
 DIIS: error= 3.00D-06 at cycle   1 NSaved=   1.
 NSaved= 1 IEnMin= 1 EnMin= -55.8601196116976     IErMin= 1 ErrMin= 3.00D-06
 ErrMax= 3.00D-06 EMaxC= 1.00D-01 BMatC= 3.94D-10 BMatP= 3.94D-10
 IDIUse=1 WtCom= 1.00D+00 WtEn= 0.00D+00
 Coeff-Com:  0.100D+01
 Coeff:      0.100D+01
 Gap=     0.330 Goal=   None    Shift=    0.000
 Gap=     0.162 Goal=   None    Shift=    0.000
 RMSDP=8.95D-06 MaxDP=5.06D-05 DE=-6.31D-06 OVMax= 9.92D-06

 Cycle   8  Pass 1  IDiag  1:
 E= -55.8601196117875     Delta-E=       -0.000000000090 Rises=F Damp=F
 DIIS: error= 1.93D-06 at cycle   2 NSaved=   2.
 NSaved= 2 IEnMin= 2 EnMin= -55.8601196117875     IErMin= 2 ErrMin= 1.93D-06
 ErrMax= 1.93D-06 EMaxC= 1.00D-01 BMatC= 2.72D-10 BMatP= 3.94D-10
 IDIUse=1 WtCom= 1.00D+00 WtEn= 0.00D+00
 Coeff-Com:  0.447D+00 0.553D+00
 Coeff:      0.447D+00 0.553D+00
 Gap=     0.330 Goal=   None    Shift=    0.000
 Gap=     0.162 Goal=   None    Shift=    0.000
 RMSDP=4.74D-07 MaxDP=3.64D-06 DE=-8.98D-11 OVMax= 4.16D-06

 Cycle   9  Pass 1  IDiag  1:
 E= -55.8601196118493     Delta-E=       -0.000000000062 Rises=F Damp=F
 DIIS: error= 6.63D-07 at cycle   3 NSaved=   3.
 NSaved= 3 IEnMin= 3 EnMin= -55.8601196118493     IErMin= 3 ErrMin= 6.63D-07
 ErrMax= 6.63D-07 EMaxC= 1.00D-01 BMatC= 2.10D-11 BMatP= 2.72D-10
 IDIUse=1 WtCom= 1.00D+00 WtEn= 0.00D+00
 Coeff-Com: -0.326D-01 0.196D+00 0.837D+00
 Coeff:     -0.326D-01 0.196D+00 0.837D+00
 Gap=     0.330 Goal=   None    Shift=    0.000
 Gap=     0.162 Goal=   None    Shift=    0.000
 RMSDP=1.29D-07 MaxDP=1.28D-06 DE=-6.19D-11 OVMax= 1.32D-06

 Cycle  10  Pass 1  IDiag  1:
 E= -55.8601196118550     Delta-E=       -0.000000000006 Rises=F Damp=F
 DIIS: error= 5.73D-08 at cycle   4 NSaved=   4.
 NSaved= 4 IEnMin= 4 EnMin= -55.8601196118550     IErMin= 4 ErrMin= 5.73D-08
 ErrMax= 5.73D-08 EMaxC= 1.00D-01 BMatC= 1.22D-13 BMatP= 2.10D-11
 IDIUse=1 WtCom= 1.00D+00 WtEn= 0.00D+00
 Coeff-Com: -0.205D-02-0.435D-01-0.114D+00 0.116D+01
 Coeff:     -0.205D-02-0.435D-01-0.114D+00 0.116D+01
 Gap=     0.330 Goal=   None    Shift=    0.000
 Gap=     0.162 Goal=   None    Shift=    0.000
 RMSDP=2.78D-08 MaxDP=2.12D-07 DE=-5.73D-12 OVMax= 2.71D-07

 Cycle  11  Pass 1  IDiag  1:
 E= -55.8601196118551     Delta-E=       -0.000000000000 Rises=F Damp=F
 DIIS: error= 1.20D-08 at cycle   5 NSaved=   5.
 NSaved= 5 IEnMin= 5 EnMin= -55.8601196118551     IErMin= 5 ErrMin= 1.20D-08
 ErrMax= 1.20D-08 EMaxC= 1.00D-01 BMatC= 8.84D-15 BMatP= 1.22D-13
 IDIUse=1 WtCom= 1.00D+00 WtEn= 0.00D+00
 Coeff-Com:  0.230D-02 0.397D-02-0.239D-02-0.376D+00 0.137D+01
 Coeff:      0.230D-02 0.397D-02-0.239D-02-0.376D+00 0.137D+01
 Gap=     0.330 Goal=   None    Shift=    0.000
 Gap=     0.162 Goal=   None    Shift=    0.000
 RMSDP=9.31D-09 MaxDP=6.08D-08 DE=-9.95D-14 OVMax= 7.46D-08

 SCF Done:  E(UB3LYP) =  -55.8601196119     A.U. after   11 cycles
             Convg  =    0.9309D-08             -V/T =  2.0061
 <Sx>= 0.0000 <Sy>= 0.0000 <Sz>= 0.5000 <S**2>= 0.7526 S= 0.5013
 <L.S>=  0.00000000000    
 KE= 5.551906161937D+01 PE=-1.454895224684D+02 EE= 2.660302623101D+01
 Annihilation of the first spin contaminant:
 S**2 before annihilation     0.7526,   after     0.7500
 Leave Link  502 at Sun Sep 15 16:40:15 2024, MaxMem=   13107200 cpu:       0.9
 (Enter /programs/64bit/g09/g09-gfortran/bin/l601.exe)
 Copying SCF densities to generalized density rwf, IOpCl= 1 IROHF=0.

 **********************************************************************

            Population analysis using the SCF density.

 **********************************************************************

 Orbital symmetries:
 Alpha Orbitals:
       Occupied  (A1) (A1) (B2) (B1) (A1)
       Virtual   (A1) (B2) (B1) (A1) (B2) (A1) (B1) (B2) (A1) (B2)
                 (A1) (A1)
 Beta  Orbitals:
       Occupied  (A1) (A1) (B2) (A1)
       Virtual   (B1) (A1) (B2) (A1) (B1) (B2) (A1) (B2) (A1) (B1)
                 (B2) (A1) (A1)
 The electronic state is 2-B1.
 Alpha  occ. eigenvalues --  -14.37669  -0.87735  -0.50199  -0.32426  -0.31675
 Alpha virt. eigenvalues --    0.01298   0.08690   0.10633   0.12046   0.18804
 Alpha virt. eigenvalues --    0.20014   0.82463   0.84883   0.86308   0.98890
 Alpha virt. eigenvalues --    1.03243   1.13728
  Beta  occ. eigenvalues --  -14.35715  -0.82412  -0.48816  -0.28876
  Beta virt. eigenvalues --   -0.12640   0.02018   0.09006   0.12380   0.13102
  Beta virt. eigenvalues --    0.19181   0.20937   0.86319   0.87804   0.90236
  Beta virt. eigenvalues --    0.98799   1.03712   1.17014
     Alpha Molecular Orbital Coefficients:
                           1         2         3         4         5
                        (A1)--O   (A1)--O   (B2)--O   (B1)--O   (A1)--O
     Eigenvalues --   -14.37669  -0.87735  -0.50199  -0.32426  -0.31675
   1 1   N  1S          0.99507  -0.20369   0.00000   0.00000  -0.08894
   2        2S          0.03075   0.44494   0.00000   0.00000   0.20262
   3        2PX         0.00000   0.00000   0.00000   0.65613   0.00000
   4        2PY         0.00000   0.00000   0.50053   0.00000   0.00000
   5        2PZ        -0.00233  -0.15454   0.00000   0.00000   0.53906
   6        3S         -0.01650   0.45892   0.00000   0.00000   0.35778
   7        3PX         0.00000   0.00000   0.00000   0.44079   0.00000
   8        3PY         0.00000   0.00000   0.20123   0.00000   0.00000
   9        3PZ         0.00252  -0.08349   0.00000   0.00000   0.32815
  10        4S          0.00101   0.02730   0.00000   0.00000   0.05086
  11        4PX         0.00000   0.00000   0.00000   0.08475   0.00000
  12        4PY         0.00000   0.00000   0.00772   0.00000   0.00000
  13        4PZ         0.00092  -0.01033   0.00000   0.00000   0.08583
  14 2   H  1S         -0.00057   0.15848   0.26555   0.00000  -0.13077
  15        2S          0.00419  -0.01677   0.16489   0.00000  -0.11772
  16 3   H  1S         -0.00057   0.15848  -0.26555   0.00000  -0.13077
  17        2S          0.00419  -0.01677  -0.16489   0.00000  -0.11772
                           6         7         8         9        10
                        (A1)--V   (B2)--V   (B1)--V   (A1)--V   (B2)--V
     Eigenvalues --     0.01298   0.08690   0.10633   0.12046   0.18804
   1 1   N  1S          0.07857   0.00000   0.00000   0.05140   0.00000
   2        2S         -0.15227   0.00000   0.00000  -0.08524   0.00000
   3        2PX         0.00000   0.00000  -0.25834   0.00000   0.00000
   4        2PY         0.00000  -0.29528   0.00000   0.00000  -0.32783
   5        2PZ         0.22054   0.00000   0.00000  -0.17556   0.00000
   6        3S         -0.83463   0.00000   0.00000  -0.59443   0.00000
   7        3PX         0.00000   0.00000  -0.40291   0.00000   0.00000
   8        3PY         0.00000  -0.49499   0.00000   0.00000  -0.90361
   9        3PZ         0.21066   0.00000   0.00000  -0.29208   0.00000
  10        4S          1.26732   0.00000   0.00000   0.34435   0.00000
  11        4PX         0.00000   0.00000   1.17720   0.00000   0.00000
  12        4PY         0.00000   1.09525   0.00000   0.00000  -1.02667
  13        4PZ        -0.45385   0.00000   0.00000   1.18124   0.00000
  14 2   H  1S          0.05904   0.01132   0.00000   0.04035   0.16627
  15        2S          0.05381   0.14539   0.00000   0.28868   1.71036
  16 3   H  1S          0.05904  -0.01132   0.00000   0.04035  -0.16627
  17        2S          0.05381  -0.14539   0.00000   0.28868  -1.71036
                          11        12        13        14        15
                        (A1)--V   (B1)--V   (B2)--V   (A1)--V   (B2)--V
     Eigenvalues --     0.20014   0.82463   0.84883   0.86308   0.98890
   1 1   N  1S         -0.05916   0.00000   0.00000   0.01166   0.00000
   2        2S          0.06925   0.00000   0.00000   0.28244   0.00000
   3        2PX         0.00000  -0.98710   0.00000   0.00000   0.00000
   4        2PY         0.00000   0.00000  -1.01044   0.00000   0.24835
   5        2PZ        -0.26513   0.00000   0.00000  -1.00308   0.00000
   6        3S          1.22338   0.00000   0.00000  -0.96060   0.00000
   7        3PX         0.00000   1.46297   0.00000   0.00000   0.00000
   8        3PY         0.00000   0.00000   1.86354   0.00000   0.20520
   9        3PZ        -0.78861   0.00000   0.00000   1.76048   0.00000
  10        4S          2.09884   0.00000   0.00000  -0.48361   0.00000
  11        4PX         0.00000  -0.69584   0.00000   0.00000   0.00000
  12        4PY         0.00000   0.00000  -0.36740   0.00000  -0.85881
  13        4PZ        -0.62570   0.00000   0.00000  -0.43185   0.00000
  14 2   H  1S         -0.18680   0.00000  -0.04561   0.04906  -1.02628
  15        2S         -1.98465   0.00000  -0.70500   0.77169   1.52156
  16 3   H  1S         -0.18680   0.00000   0.04561   0.04906   1.02628
  17        2S         -1.98465   0.00000   0.70500   0.77169  -1.52156
                          16        17
                        (A1)--V   (A1)--V
     Eigenvalues --     1.03243   1.13728
   1 1   N  1S         -0.06078   0.02479
   2        2S          0.62044  -1.71557
   3        2PX         0.00000   0.00000
   4        2PY         0.00000   0.00000
   5        2PZ        -0.11725  -0.15356
   6        3S         -1.20110   2.78641
   7        3PX         0.00000   0.00000
   8        3PY         0.00000   0.00000
   9        3PZ        -0.08945  -0.20685
  10        4S         -1.10527  -0.80648
  11        4PX         0.00000   0.00000
  12        4PY         0.00000   0.00000
  13        4PZ         0.67784  -0.07846
  14 2   H  1S         -0.97738  -0.43611
  15        2S          1.70760  -0.16733
  16 3   H  1S         -0.97738  -0.43611
  17        2S          1.70760  -0.16733
     Beta Molecular Orbital Coefficients:
                           1         2         3         4         5
                        (A1)--O   (A1)--O   (B2)--O   (A1)--O   (B1)--V
     Eigenvalues --   -14.35715  -0.82412  -0.48816  -0.28876  -0.12640
   1 1   N  1S          0.99534  -0.19561   0.00000  -0.09413   0.00000
   2        2S          0.02929   0.41983   0.00000   0.20859   0.00000
   3        2PX         0.00000   0.00000   0.00000   0.00000   0.54833
   4        2PY         0.00000   0.00000   0.48002   0.00000   0.00000
   5        2PZ        -0.00228  -0.16186   0.00000   0.51851   0.00000
   6        3S         -0.01591   0.42216   0.00000   0.37204   0.00000
   7        3PX         0.00000   0.00000   0.00000   0.00000   0.44215
   8        3PY         0.00000   0.00000   0.18739   0.00000   0.00000
   9        3PZ         0.00253  -0.07607   0.00000   0.33024   0.00000
  10        4S          0.00092   0.01801   0.00000   0.05430   0.00000
  11        4PX         0.00000   0.00000   0.00000   0.00000   0.24895
  12        4PY         0.00000   0.00000   0.00959   0.00000   0.00000
  13        4PZ         0.00087  -0.00630   0.00000   0.10832   0.00000
  14 2   H  1S         -0.00044   0.18057   0.27715  -0.12471   0.00000
  15        2S          0.00404   0.01111   0.18255  -0.11341   0.00000
  16 3   H  1S         -0.00044   0.18057  -0.27715  -0.12471   0.00000
  17        2S          0.00404   0.01111  -0.18255  -0.11341   0.00000
                           6         7         8         9        10
                        (A1)--V   (B2)--V   (A1)--V   (B1)--V   (B2)--V
     Eigenvalues --     0.02018   0.09006   0.12380   0.13102   0.19181
   1 1   N  1S          0.07909   0.00000   0.05622   0.00000   0.00000
   2        2S         -0.13739   0.00000  -0.08696   0.00000   0.00000
   3        2PX         0.00000   0.00000   0.00000  -0.31720   0.00000
   4        2PY         0.00000  -0.28222   0.00000   0.00000  -0.33974
   5        2PZ         0.21811   0.00000  -0.17756   0.00000   0.00000
   6        3S         -0.84648   0.00000  -0.63608   0.00000   0.00000
   7        3PX         0.00000   0.00000   0.00000  -0.54303   0.00000
   8        3PY         0.00000  -0.47852   0.00000   0.00000  -0.93679
   9        3PZ         0.21711   0.00000  -0.30235   0.00000   0.00000
  10        4S          1.29010   0.00000   0.36469   0.00000   0.00000
  11        4PX         0.00000   0.00000   0.00000   1.17843   0.00000
  12        4PY         0.00000   1.13053   0.00000   0.00000  -0.98810
  13        4PZ        -0.47994   0.00000   1.17657   0.00000   0.00000
  14 2   H  1S          0.04826  -0.00219   0.04187   0.00000   0.15727
  15        2S          0.03484   0.09269   0.29694   0.00000   1.72216
  16 3   H  1S          0.04826   0.00219   0.04187   0.00000  -0.15727
  17        2S          0.03484  -0.09269   0.29694   0.00000  -1.72216
                          11        12        13        14        15
                        (A1)--V   (B2)--V   (A1)--V   (B1)--V   (B2)--V
     Eigenvalues --     0.20937   0.86319   0.87804   0.90236   0.98799
   1 1   N  1S         -0.06406   0.00000   0.01243   0.00000   0.00000
   2        2S          0.07833   0.00000   0.25605   0.00000   0.00000
   3        2PX         0.00000   0.00000   0.00000  -1.03457   0.00000
   4        2PY         0.00000  -1.01625   0.00000   0.00000   0.26382
   5        2PZ        -0.26916   0.00000  -1.01280   0.00000   0.00000
   6        3S          1.25229   0.00000  -0.91501   0.00000   0.00000
   7        3PX         0.00000   0.00000   0.00000   1.41652   0.00000
   8        3PY         0.00000   1.85383   0.00000   0.00000   0.19628
   9        3PZ        -0.80021   0.00000   1.74910   0.00000   0.00000
  10        4S          2.08995   0.00000  -0.49111   0.00000   0.00000
  11        4PX         0.00000   0.00000   0.00000  -0.65307   0.00000
  12        4PY         0.00000  -0.37342   0.00000   0.00000  -0.85571
  13        4PZ        -0.62051   0.00000  -0.42917   0.00000   0.00000
  14 2   H  1S         -0.17583  -0.05536   0.04593   0.00000  -1.02421
  15        2S         -1.99944  -0.68025   0.76011   0.00000   1.52163
  16 3   H  1S         -0.17583   0.05536   0.04593   0.00000   1.02421
  17        2S         -1.99944   0.68025   0.76011   0.00000  -1.52163
                          16        17
                        (A1)--V   (A1)--V
     Eigenvalues --     1.03712   1.17014
   1 1   N  1S         -0.06255   0.03036
   2        2S          0.50733  -1.76266
   3        2PX         0.00000   0.00000
   4        2PY         0.00000   0.00000
   5        2PZ        -0.13357  -0.13240
   6        3S         -0.98172   2.86491
   7        3PX         0.00000   0.00000
   8        3PY         0.00000   0.00000
   9        3PZ        -0.10800  -0.22714
  10        4S         -1.15375  -0.70584
  11        4PX         0.00000   0.00000
  12        4PY         0.00000   0.00000
  13        4PZ         0.66542  -0.11823
  14 2   H  1S         -1.00510  -0.36688
  15        2S          1.67702  -0.29712
  16 3   H  1S         -1.00510  -0.36688
  17        2S          1.67702  -0.29712
     Alpha Density Matrix:
                           1         2         3         4         5
   1 1   N  1S          1.03957
   2        2S         -0.07806   0.23997
   3        2PX         0.00000   0.00000   0.43050
   4        2PY         0.00000   0.00000  -0.00000   0.25053
   5        2PZ        -0.01878   0.04040   0.00000   0.00000   0.31448
   6        3S         -0.14172   0.27618   0.00000   0.00000   0.12198
   7        3PX         0.00000   0.00000   0.28921  -0.00000   0.00000
   8        3PY         0.00000   0.00000  -0.00000   0.10072  -0.00000
   9        3PZ        -0.00968   0.02942   0.00000   0.00000   0.18979
  10        4S         -0.00908   0.02248   0.00000   0.00000   0.02319
  11        4PX         0.00000   0.00000   0.05561  -0.00000   0.00000
  12        4PY         0.00000   0.00000  -0.00000   0.00386  -0.00000
  13        4PZ        -0.00461   0.01282   0.00000   0.00000   0.04786
  14 2   H  1S         -0.02122   0.04400   0.00000   0.13291  -0.09498
  15        2S          0.01805  -0.03118   0.00000   0.08253  -0.06088
  16 3   H  1S         -0.02122   0.04400   0.00000  -0.13291  -0.09498
  17        2S          0.01805  -0.03118   0.00000  -0.08253  -0.06088
                           6         7         8         9        10
   6        3S          0.33889
   7        3PX         0.00000   0.19430
   8        3PY         0.00000  -0.00000   0.04049
   9        3PZ         0.07905   0.00000   0.00000   0.11466
  10        4S          0.03071   0.00000   0.00000   0.01441   0.00333
  11        4PX         0.00000   0.03736  -0.00000   0.00000   0.00000
  12        4PY         0.00000  -0.00000   0.00155  -0.00000   0.00000
  13        4PZ         0.02595   0.00000   0.00000   0.02903   0.00408
  14 2   H  1S          0.02596   0.00000   0.05344  -0.05614  -0.00232
  15        2S         -0.04988   0.00000   0.03318  -0.03722  -0.00644
  16 3   H  1S          0.02596   0.00000  -0.05344  -0.05614  -0.00232
  17        2S         -0.04988   0.00000  -0.03318  -0.03722  -0.00644
                          11        12        13        14        15
  11        4PX         0.00718
  12        4PY        -0.00000   0.00006
  13        4PZ         0.00000   0.00000   0.00747
  14 2   H  1S          0.00000   0.00205  -0.01286   0.11273
  15        2S          0.00000   0.00127  -0.00993   0.05652   0.04135
  16 3   H  1S          0.00000  -0.00205  -0.01286  -0.02830  -0.03105
  17        2S          0.00000  -0.00127  -0.00993  -0.03105  -0.01303
                          16        17
  16 3   H  1S          0.11273
  17        2S          0.05652   0.04135
     Beta Density Matrix:
                           1         2         3         4         5
   1 1   N  1S          1.03782
   2        2S         -0.07260   0.22062
   3        2PX         0.00000   0.00000   0.00000
   4        2PY         0.00000   0.00000  -0.00000   0.23042
   5        2PZ        -0.01942   0.04014   0.00000   0.00000   0.29505
   6        3S         -0.13344   0.25437   0.00000   0.00000   0.12461
   7        3PX         0.00000   0.00000   0.00000   0.00000   0.00000
   8        3PY         0.00000   0.00000  -0.00000   0.08995   0.00000
   9        3PZ        -0.01369   0.03702   0.00000   0.00000   0.18354
  10        4S         -0.00772   0.01891   0.00000   0.00000   0.02524
  11        4PX         0.00000   0.00000   0.00000   0.00000   0.00000
  12        4PY         0.00000   0.00000  -0.00000   0.00460   0.00000
  13        4PZ        -0.00810   0.01998   0.00000   0.00000   0.05718
  14 2   H  1S         -0.02402   0.04978   0.00000   0.13304  -0.09389
  15        2S          0.01253  -0.01887   0.00000   0.08763  -0.06061
  16 3   H  1S         -0.02402   0.04978   0.00000  -0.13304  -0.09389
  17        2S          0.01253  -0.01887   0.00000  -0.08763  -0.06061
                           6         7         8         9        10
   6        3S          0.31689
   7        3PX         0.00000   0.00000
   8        3PY         0.00000  -0.00000   0.03511
   9        3PZ         0.09071   0.00000   0.00000   0.11485
  10        4S          0.02779   0.00000   0.00000   0.01656   0.00327
  11        4PX         0.00000   0.00000   0.00000   0.00000   0.00000
  12        4PY         0.00000  -0.00000   0.00180   0.00000   0.00000
  13        4PZ         0.03763   0.00000   0.00000   0.03625   0.00577
  14 2   H  1S          0.02984   0.00000   0.05194  -0.05492  -0.00352
  15        2S         -0.03757   0.00000   0.03421  -0.03829  -0.00595
  16 3   H  1S          0.02984   0.00000  -0.05194  -0.05492  -0.00352
  17        2S         -0.03757   0.00000  -0.03421  -0.03829  -0.00595
                          11        12        13        14        15
  11        4PX         0.00000
  12        4PY        -0.00000   0.00009
  13        4PZ         0.00000   0.00000   0.01177
  14 2   H  1S          0.00000   0.00266  -0.01465   0.12497
  15        2S          0.00000   0.00175  -0.01235   0.06674   0.04632
  16 3   H  1S          0.00000  -0.00266  -0.01465  -0.02865  -0.03445
  17        2S          0.00000  -0.00175  -0.01235  -0.03445  -0.02032
                          16        17
  16 3   H  1S          0.12497
  17        2S          0.06674   0.04632
    Full Mulliken population analysis:
                           1         2         3         4         5
   1 1   N  1S          2.07739
   2        2S         -0.03348   0.46060
   3        2PX         0.00000   0.00000   0.43050
   4        2PY         0.00000   0.00000   0.00000   0.48095
   5        2PZ         0.00000   0.00000   0.00000   0.00000   0.60953
   6        3S         -0.04729   0.41145   0.00000   0.00000   0.00000
   7        3PX         0.00000   0.00000   0.15019   0.00000   0.00000
   8        3PY         0.00000   0.00000   0.00000   0.09902   0.00000
   9        3PZ         0.00000   0.00000   0.00000   0.00000   0.19387
  10        4S         -0.00122   0.01696   0.00000   0.00000   0.00000
  11        4PX         0.00000   0.00000   0.00940   0.00000   0.00000
  12        4PY         0.00000   0.00000   0.00000   0.00143   0.00000
  13        4PZ         0.00000   0.00000   0.00000   0.00000   0.01775
  14 2   H  1S         -0.00146   0.02346   0.00000   0.06878   0.03454
  15        2S          0.00239  -0.02091   0.00000   0.02707   0.01367
  16 3   H  1S         -0.00146   0.02346   0.00000   0.06878   0.03454
  17        2S          0.00239  -0.02091   0.00000   0.02707   0.01367
                           6         7         8         9        10
   6        3S          0.65577
   7        3PX         0.00000   0.19430
   8        3PY         0.00000   0.00000   0.07561
   9        3PZ         0.00000   0.00000   0.00000   0.22951
  10        4S          0.04533   0.00000   0.00000   0.00000   0.00661
  11        4PX         0.00000   0.02442   0.00000   0.00000   0.00000
  12        4PY         0.00000   0.00000   0.00219   0.00000   0.00000
  13        4PZ         0.00000   0.00000   0.00000   0.04268   0.00000
  14 2   H  1S          0.02231   0.00000   0.04748   0.03539  -0.00184
  15        2S         -0.06095   0.00000   0.02970   0.02353  -0.00892
  16 3   H  1S          0.02231   0.00000   0.04748   0.03539  -0.00184
  17        2S         -0.06095   0.00000   0.02970   0.02353  -0.00892
                          11        12        13        14        15
  11        4PX         0.00718
  12        4PY         0.00000   0.00015
  13        4PZ         0.00000   0.00000   0.01925
  14 2   H  1S          0.00000   0.00109   0.00451   0.23770
  15        2S          0.00000   0.00125   0.00653   0.08114   0.08767
  16 3   H  1S          0.00000   0.00109   0.00451  -0.00156  -0.01145
  17        2S          0.00000   0.00125   0.00653  -0.01145  -0.01477
                          16        17
  16 3   H  1S          0.23770
  17        2S          0.08114   0.08767
     Gross orbital populations:
                         Total     Alpha     Beta      Spin
   1 1   N  1S          1.99726   0.99866   0.99860   0.00006
   2        2S          0.86062   0.44198   0.41865   0.02333
   3        2PX         0.59009   0.59009   0.00000   0.59009
   4        2PY         0.77310   0.39850   0.37460   0.02389
   5        2PZ         0.91756   0.46956   0.44800   0.02156
   6        3S          0.98798   0.50373   0.48425   0.01947
   7        3PX         0.36891   0.36891   0.00000   0.36891
   8        3PY         0.33117   0.17122   0.15996   0.01126
   9        3PZ         0.58390   0.29118   0.29272  -0.00154
  10        4S          0.04615   0.02495   0.02121   0.00374
  11        4PX         0.04100   0.04100   0.00000   0.04100
  12        4PY         0.00846   0.00373   0.00473  -0.00100
  13        4PZ         0.10175   0.04458   0.05717  -0.01260
  14 2   H  1S          0.54009   0.26000   0.28009  -0.02009
  15        2S          0.15594   0.06597   0.08997  -0.02400
  16 3   H  1S          0.54009   0.26000   0.28009  -0.02009
  17        2S          0.15594   0.06597   0.08997  -0.02400
          Condensed to atoms (all electrons):
              1          2          3
     1  N    7.112747   0.247601   0.247601
     2  H    0.247601   0.487657  -0.039233
     3  H    0.247601  -0.039233   0.487657
 Mulliken atomic charges:
              1
     1  N   -0.607949
     2  H    0.303975
     3  H    0.303975
 Sum of Mulliken atomic charges =  -0.00000
 Mulliken charges with hydrogens summed into heavy atoms:
              1
     1  N   -0.000000
 Sum of Mulliken charges with hydrogens summed into heavy atoms =  -0.00000
          Atomic-Atomic Spin Densities.
              1          2          3
     1  N    1.123871  -0.017847  -0.017847
     2  H   -0.017847  -0.030666   0.004425
     3  H   -0.017847   0.004425  -0.030666
 Mulliken atomic spin densities:
              1
     1  N    1.088177
     2  H   -0.044088
     3  H   -0.044088
 Sum of Mulliken atomic spin densities =   1.00000
 Electronic spatial extent (au):  <R**2>=             22.7602
 Charge=             -0.0000 electrons
 Dipole moment (field-independent basis, Debye):
    X=             -0.0000    Y=              0.0000    Z=             -2.4447  Tot=              2.4447
 Quadrupole moment (field-independent basis, Debye-Ang):
   XX=             -7.3694   YY=             -5.4401   ZZ=             -8.3671
   XY=              0.0000   XZ=              0.0000   YZ=              0.0000
 Traceless Quadrupole moment (field-independent basis, Debye-Ang):
   XX=             -0.3105   YY=              1.6188   ZZ=             -1.3082
   XY=              0.0000   XZ=              0.0000   YZ=              0.0000
 Octapole moment (field-independent basis, Debye-Ang**2):
  XXX=              0.0000  YYY=             -0.0000  ZZZ=             -2.6779  XYY=             -0.0000
  XXY=              0.0000  XXZ=             -0.6739  XZZ=              0.0000  YZZ=             -0.0000
  YYZ=             -1.3499  XYZ=             -0.0000
 Hexadecapole moment (field-independent basis, Debye-Ang**3):
 XXXX=             -7.5602 YYYY=             -9.8913 ZZZZ=            -13.2350 XXXY=             -0.0000
 XXXZ=             -0.0000 YYYX=             -0.0000 YYYZ=             -0.0000 ZZZX=             -0.0000
 ZZZY=             -0.0000 XXYY=             -3.1668 XXZZ=             -3.4748 YYZZ=             -3.6582
 XXYZ=             -0.0000 YYXZ=              0.0000 ZZXY=             -0.0000
 N-N= 7.507315006213D+00 E-N=-2.143907841642D+02  KE= 8.232443255389D+01
 Symmetry A1   KE= 7.661596916196D+01
 Symmetry A2   KE= 0.000000000000D+00
 Symmetry B1   KE= 1.725825868958D+00
 Symmetry B2   KE= 3.982637522972D+00
 Orbital energies and kinetic energies (alpha):
                                 1                 2
   1         (A1)--O         -14.376686         22.049893
   2         (A1)--O          -0.877347          1.934019
   3         (B2)--O          -0.501994          1.358727
   4         (B1)--O          -0.324264          1.725826
   5         (A1)--O          -0.316750          1.645226
   6         (A1)--V           0.012979          0.596991
   7         (B2)--V           0.086903          0.513440
   8         (B1)--V           0.106334          0.425711
   9         (A1)--V           0.120461          0.421785
  10         (B2)--V           0.188036          0.891875
  11         (A1)--V           0.200141          0.920510
  12         (B1)--V           0.824626          2.729537
  13         (B2)--V           0.848835          2.808272
  14         (A1)--V           0.863081          2.815539
  15         (B2)--V           0.988903          2.321562
  16         (A1)--V           1.032427          2.670826
  17         (A1)--V           1.137284          2.748905
 Orbital energies and kinetic energies (beta):
                                 1                 2
   1         (A1)--O         -14.357147         22.066790
   2         (A1)--O          -0.824119          1.823229
   3         (B2)--O          -0.488160          1.311955
   4         (A1)--O          -0.288756          1.603397
   5         (B1)--V          -0.126397          1.318620
   6         (A1)--V           0.020178          0.588254
   7         (B2)--V           0.090056          0.490026
   8         (A1)--V           0.123801          0.448644
   9         (B1)--V           0.131024          0.602642
  10         (B2)--V           0.191809          0.920579
  11         (A1)--V           0.209365          0.944923
  12         (B2)--V           0.863190          2.835779
  13         (A1)--V           0.878042          2.854674
  14         (B1)--V           0.902359          2.959811
  15         (B2)--V           0.987989          2.335537
  16         (A1)--V           1.037117          2.652497
  17         (A1)--V           1.170135          2.821286
 Total kinetic energy from orbitals= 5.551906161937D+01
                          Isotropic Fermi Contact Couplings
        Atom                 a.u.       MegaHertz       Gauss      10(-4) cm-1
     1  N(14)              0.15940      51.50351      18.37773      17.17972
     2  H(1)              -0.01572     -70.24778     -25.06615     -23.43214
     3  H(1)              -0.01572     -70.24778     -25.06615     -23.43214
 --------------------------------------------------------
       Center         ----  Spin Dipole Couplings  ----
                      3XX-RR        3YY-RR        3ZZ-RR
 --------------------------------------------------------
     1   Atom        2.047029     -1.021695     -1.025334
     2   Atom       -0.028938      0.051825     -0.022887
     3   Atom       -0.028938      0.051825     -0.022887
 --------------------------------------------------------
                        XY            XZ            YZ
 --------------------------------------------------------
     1   Atom        0.000000      0.000000     -0.000000
     2   Atom       -0.000000      0.000000     -0.103779
     3   Atom       -0.000000     -0.000000      0.103779
 --------------------------------------------------------


 ---------------------------------------------------------------------------------
              Anisotropic Spin Dipole Couplings in Principal Axis System
 ---------------------------------------------------------------------------------

       Atom             a.u.   MegaHertz   Gauss  10(-4) cm-1        Axes

              Baa    -1.0253   -39.545   -14.111   -13.191 -0.0000  0.0000  1.0000
     1 N(14)  Bbb    -1.0217   -39.405   -14.061   -13.144 -0.0000  1.0000 -0.0000
              Bcc     2.0470    78.949    28.171    26.335  1.0000  0.0000  0.0000
 
              Baa    -0.0958   -51.129   -18.244   -17.055 -0.0000  0.5750  0.8181
     2 H(1)   Bbb    -0.0289   -15.440    -5.509    -5.150  1.0000  0.0000  0.0000
              Bcc     0.1248    66.569    23.754    22.205 -0.0000  0.8181 -0.5750
 
              Baa    -0.0958   -51.129   -18.244   -17.055  0.0000 -0.5750  0.8181
     3 H(1)   Bbb    -0.0289   -15.440    -5.509    -5.150  1.0000  0.0000  0.0000
              Bcc     0.1248    66.569    23.754    22.205 -0.0000  0.8181  0.5750
 

 ---------------------------------------------------------------------------------

 No NMR shielding tensors so no spin-rotation constants.
 Leave Link  601 at Sun Sep 15 16:40:15 2024, MaxMem=   13107200 cpu:       0.2
 (Enter /programs/64bit/g09/g09-gfortran/bin/l701.exe)
 Compute integral first derivatives.
 ... and contract with generalized density number  0.
 Leave Link  701 at Sun Sep 15 16:40:15 2024, MaxMem=   13107200 cpu:       0.1
 (Enter /programs/64bit/g09/g09-gfortran/bin/l702.exe)
 L702 exits ... SP integral derivatives will be done elsewhere.
 Leave Link  702 at Sun Sep 15 16:40:15 2024, MaxMem=   13107200 cpu:       0.0
 (Enter /programs/64bit/g09/g09-gfortran/bin/l703.exe)
 Compute integral first derivatives, UseDBF=F ICtDFT=           0.
 Integral derivatives from FoFDir, PRISM(SPDF).
 Calling FoFJK, ICntrl=      2127 FMM=F ISym2X=1 I1Cent= 0 IOpClX= 1 NMat=1 NMatS=1 NMatT=0.
 FoFCou: FMM=F IPFlag=           0 FMFlag=      100000 FMFlg1=         800
         NFxFlg=           0 DoJE=F BraDBF=F KetDBF=F FulRan=T
         Omega=  0.000000  0.000000  1.000000  0.000000  0.000000 ICntrl=    2127 IOpCl=  1
         NMat0=    1 NMatS0=    1 NMatT0=    0 NMatD0=    1 NMtDS0=    0 NMtDT0=    0
         I1Cent=           0 NGrid=           0.
 Petite list used in FoFCou.
 Leave Link  703 at Sun Sep 15 16:40:16 2024, MaxMem=   13107200 cpu:       0.3
 (Enter /programs/64bit/g09/g09-gfortran/bin/l716.exe)
 Dipole        =-5.17158462D-17 0.00000000D+00-9.61834719D-01
 ***** Axes restored to original set *****
 -------------------------------------------------------------------
 Center     Atomic                   Forces (Hartrees/Bohr)
 Number     Number              X              Y              Z
 -------------------------------------------------------------------
      1        7          -0.008992821    0.000000000   -0.006358885
      2        1           0.003297367   -0.000000000    0.004875145
      3        1           0.005695453   -0.000000000    0.001483739
 -------------------------------------------------------------------
 Cartesian Forces:  Max     0.008992821 RMS     0.004601758
 Leave Link  716 at Sun Sep 15 16:40:16 2024, MaxMem=   13107200 cpu:       0.0
 (Enter /programs/64bit/g09/g09-gfortran/bin/l103.exe)

 GradGradGradGradGradGradGradGradGradGradGradGradGradGradGradGradGradGrad
 Berny optimization.
 Internal  Forces:  Max     0.006418055 RMS     0.005438306
 Search for a local minimum.
 Step number   1 out of a maximum of   20
 All quantities printed in internal units (Hartrees-Bohrs-Radians)
 RMS Force = .54383D-02 SwitMx=.10000D-02 MixMth= 1
 Mixed Optimization -- RFO/linear search
 Second derivative matrix not updated -- first step.
 The second derivative matrix:
                          R1        R2        A1
           R1           0.42780
           R2           0.00000   0.42780
           A1           0.00000   0.00000   0.16000
     Eigenvalues ---    0.16000   0.42780   0.42780
 RFO step:  Lambda=-3.67871534D-04 EMin= 1.60000000D-01
 Linear search not attempted -- first point.
 Iteration  1 RMS(Cart)=  0.02105341 RMS(Int)=  0.00034486
 Iteration  2 RMS(Cart)=  0.00036803 RMS(Int)=  0.00000003
 Iteration  3 RMS(Cart)=  0.00000002 RMS(Int)=  0.00000000
 ClnCor:  largest displacement from symmetrization is 9.93D-16 for atom     3.
 Variable       Old X    -DE/DX   Delta X   Delta X   Delta X     New X
                                 (Linear)    (Quad)   (Total)
    R1        1.94642   0.00488   0.00000   0.01139   0.01139   1.95780
    R2        1.94642   0.00488   0.00000   0.01139   0.01139   1.95780
    A1        1.91063  -0.00642   0.00000  -0.04002  -0.04002   1.87061
         Item               Value     Threshold  Converged?
 Maximum Force            0.006418     0.000450     NO 
 RMS     Force            0.005438     0.000300     NO 
 Maximum Displacement     0.020866     0.001800     NO 
 RMS     Displacement     0.021227     0.001200     NO 
 Predicted change in Energy=-1.842787D-04
 GradGradGradGradGradGradGradGradGradGradGradGradGradGradGradGradGradGrad

 Leave Link  103 at Sun Sep 15 16:40:16 2024, MaxMem=   13107200 cpu:       0.0
 (Enter /programs/64bit/g09/g09-gfortran/bin/l202.exe)
                          Input orientation:                          
 ---------------------------------------------------------------------
 Center     Atomic      Atomic             Coordinates (Angstroms)
 Number     Number       Type             X           Y           Z
 ---------------------------------------------------------------------
      1          7           0       -0.011042   -0.000000   -0.007808
      2          1           0        0.009688   -0.000000    1.028010
      3          1           0        0.972447    0.000000   -0.333536
 ---------------------------------------------------------------------
                    Distance matrix (angstroms):
                    1          2          3
     1  N    0.000000
     2  H    1.036025   0.000000
     3  H    1.036025   1.667547   0.000000
 Stoichiometry    H2N(2)
 Framework group  C2V[C2(N),SGV(H2)]
 Deg. of freedom     2
 Full point group                 C2V     NOp   4
 Largest Abelian subgroup         C2V     NOp   4
 Largest concise Abelian subgroup C2      NOp   2
                         Standard orientation:                         
 ---------------------------------------------------------------------
 Center     Atomic      Atomic             Coordinates (Angstroms)
 Number     Number       Type             X           Y           Z
 ---------------------------------------------------------------------
      1          7           0       -0.000000    0.000000    0.136657
      2          1           0        0.000000    0.833773   -0.478299
      3          1           0       -0.000000   -0.833773   -0.478299
 ---------------------------------------------------------------------
 Rotational constants (GHZ):    758.4362597    360.6667569    244.4303536
 Leave Link  202 at Sun Sep 15 16:40:16 2024, MaxMem=   13107200 cpu:       0.0
 (Enter /programs/64bit/g09/g09-gfortran/bin/l301.exe)
 Standard basis: 6-31+G (6D, 7F)
 Ernie: Thresh=  0.10000D-02 Tol=  0.10000D-05 Strict=F.
 There are     9 symmetry adapted basis functions of A1  symmetry.
 There are     0 symmetry adapted basis functions of A2  symmetry.
 There are     3 symmetry adapted basis functions of B1  symmetry.
 There are     5 symmetry adapted basis functions of B2  symmetry.
 Integral buffers will be    131072 words long.
 Raffenetti 2 integral format.
 Two-electron integral symmetry is turned on.
    17 basis functions,    34 primitive gaussians,    17 cartesian basis functions
     5 alpha electrons        4 beta electrons
       nuclear repulsion energy         7.4682080844 Hartrees.
 IExCor=  402 DFT=T Ex+Corr=B3LYP ExCW=0 ScaHFX=  0.200000
 ScaDFX=  0.800000  0.720000  1.000000  0.810000 ScalE2=  1.000000  1.000000
 IRadAn=      0 IRanWt=     -1 IRanGd=            0 ICorTp=0
 NAtoms=    3 NActive=    3 NUniq=    2 SFac= 1.69D+00 NAtFMM=   80 NAOKFM=F Big=F
 Leave Link  301 at Sun Sep 15 16:40:16 2024, MaxMem=   13107200 cpu:       0.1
 (Enter /programs/64bit/g09/g09-gfortran/bin/l302.exe)
 NPDir=0 NMtPBC=     1 NCelOv=     1 NCel=       1 NClECP=     1 NCelD=      1
         NCelK=      1 NCelE2=     1 NClLst=     1 CellRange=     0.0.
 One-electron integrals computed using PRISM.
 One-electron integral symmetry used in STVInt
 NBasis=    17 RedAO= T  NBF=     9     0     3     5
 NBsUse=    17 1.00D-06 NBFU=     9     0     3     5
 Precomputing XC quadrature grid using
 IXCGrd= 2 IRadAn=           0 IRanWt=          -1 IRanGd=           0 AccXCQ= 1.00D-10.
 NRdTot=     189 NPtTot=       23944 NUsed=       25319 NTot=       25351
 NSgBfM=    17    17    17    17    17 NAtAll=     3     3.
 Leave Link  302 at Sun Sep 15 16:40:16 2024, MaxMem=   13107200 cpu:       0.2
 (Enter /programs/64bit/g09/g09-gfortran/bin/l303.exe)
 DipDrv:  MaxL=1.
 Leave Link  303 at Sun Sep 15 16:40:16 2024, MaxMem=   13107200 cpu:       0.0
 (Enter /programs/64bit/g09/g09-gfortran/bin/l401.exe)
 Initial guess read from the read-write file.
 B after Tr=     0.000000    0.000000    0.000000
         Rot=    1.000000    0.000000    0.000000    0.000000 Ang=   0.00 deg.
 Guess basis will be translated and rotated to current coordinates.
 Initial guess orbital symmetries:
 Alpha Orbitals:
       Occupied  (A1) (A1) (B2) (B1) (A1)
       Virtual   (A1) (B2) (B1) (A1) (B2) (A1) (B1) (B2) (A1) (B2)
                 (A1) (A1)
 Beta  Orbitals:
       Occupied  (A1) (A1) (B2) (A1)
       Virtual   (B1) (A1) (B2) (A1) (B1) (B2) (A1) (B2) (A1) (B1)
                 (B2) (A1) (A1)
 The electronic state of the initial guess is 2-B1.
 Initial guess <Sx>= 0.0000 <Sy>= 0.0000 <Sz>= 0.5000 <S**2>= 0.7526 S= 0.5013
 Generating alternative initial guess.
 Harris functional with IExCor=  402 diagonalized for initial guess.
 ExpMin= 6.39D-02 ExpMax= 4.17D+03 ExpMxC= 6.27D+02 IAcc=2 IRadAn=         0 AccDes= 0.00D+00
 HarFok:  IExCor=  402 AccDes= 0.00D+00 IRadAn=         0 IDoV= 1
 ScaDFX=  1.000000  1.000000  1.000000  1.000000
 FoFCou: FMM=F IPFlag=           0 FMFlag=      100000 FMFlg1=           0
         NFxFlg=           0 DoJE=T BraDBF=F KetDBF=T FulRan=T
         Omega=  0.000000  0.000000  1.000000  0.000000  0.000000 ICntrl=     500 IOpCl=  0
         NMat0=    1 NMatS0=    1 NMatT0=    0 NMatD0=    1 NMtDS0=    0 NMtDT0=    0
         I1Cent=           4 NGrid=           0.
 Petite list used in FoFCou.
 Harris En= -55.8482524853274    
 Leave Link  401 at Sun Sep 15 16:40:17 2024, MaxMem=   13107200 cpu:       0.4
 (Enter /programs/64bit/g09/g09-gfortran/bin/l502.exe)
 UHF open shell SCF:
 Requested convergence on RMS density matrix=1.00D-08 within 128 cycles.
 Requested convergence on MAX density matrix=1.00D-06.
 Requested convergence on             energy=1.00D-06.
 No special actions if energy rises.
 Using DIIS extrapolation, IDIIS=  1040.
 Integral symmetry usage will be decided dynamically.
        25279 words used for storage of precomputed grid.
 Keep R1 and R2 ints in memory in canonical form, NReq=926457.
 IEnd=       45072 IEndB=       45072 NGot=    13107200 MDV=    13055641
 LenX=    13055641 LenY=    13054759
 Symmetry not used in FoFDir.
 MinBra= 0 MaxBra= 1 Meth= 1.
 IRaf=       0 NMat=   1 IRICut=       1 DoRegI=T DoRafI=F ISym2E= 0 JSym2E=0.
 Integral accuracy reduced to 1.0D-05 until final iterations.

 Cycle   1  Pass 0  IDiag  1:
 E= -55.8602423045686    
 DIIS: error= 1.52D-03 at cycle   1 NSaved=   1.
 NSaved= 1 IEnMin= 1 EnMin= -55.8602423045686     IErMin= 1 ErrMin= 1.52D-03
 ErrMax= 1.52D-03 EMaxC= 1.00D-01 BMatC= 1.92D-04 BMatP= 1.92D-04
 IDIUse=3 WtCom= 9.85D-01 WtEn= 1.52D-02
 Coeff-Com:  0.100D+01
 Coeff-En:   0.100D+01
 Coeff:      0.100D+01
 Gap=     0.331 Goal=   None    Shift=    0.000
 Gap=     0.166 Goal=   None    Shift=    0.000
 GapD=    0.166 DampG=1.000 DampE=1.000 DampFc=1.0000 IDamp=-1.
 RMSDP=1.12D-03 MaxDP=7.08D-03              OVMax= 6.12D-03

 Cycle   2  Pass 0  IDiag  1:
 E= -55.8603311088777     Delta-E=       -0.000088804309 Rises=F Damp=F
 DIIS: error= 6.32D-04 at cycle   2 NSaved=   2.
 NSaved= 2 IEnMin= 2 EnMin= -55.8603311088777     IErMin= 2 ErrMin= 6.32D-04
 ErrMax= 6.32D-04 EMaxC= 1.00D-01 BMatC= 3.26D-05 BMatP= 1.92D-04
 IDIUse=3 WtCom= 9.94D-01 WtEn= 6.32D-03
 Coeff-Com:  0.170D+00 0.830D+00
 Coeff-En:   0.000D+00 0.100D+01
 Coeff:      0.169D+00 0.831D+00
 Gap=     0.333 Goal=   None    Shift=    0.000
 Gap=     0.166 Goal=   None    Shift=    0.000
 RMSDP=2.25D-04 MaxDP=1.76D-03 DE=-8.88D-05 OVMax= 1.81D-03

 Cycle   3  Pass 0  IDiag  1:
 E= -55.8603329553381     Delta-E=       -0.000001846460 Rises=F Damp=F
 DIIS: error= 5.64D-04 at cycle   3 NSaved=   3.
 NSaved= 3 IEnMin= 3 EnMin= -55.8603329553381     IErMin= 3 ErrMin= 5.64D-04
 ErrMax= 5.64D-04 EMaxC= 1.00D-01 BMatC= 2.60D-05 BMatP= 3.26D-05
 IDIUse=3 WtCom= 9.94D-01 WtEn= 5.64D-03
 Coeff-Com: -0.379D-01 0.479D+00 0.558D+00
 Coeff-En:   0.000D+00 0.440D+00 0.560D+00
 Coeff:     -0.376D-01 0.479D+00 0.559D+00
 Gap=     0.332 Goal=   None    Shift=    0.000
 Gap=     0.166 Goal=   None    Shift=    0.000
 RMSDP=1.28D-04 MaxDP=8.28D-04 DE=-1.85D-06 OVMax= 9.00D-04

 Cycle   4  Pass 0  IDiag  1:
 E= -55.8603392762721     Delta-E=       -0.000006320934 Rises=F Damp=F
 DIIS: error= 8.50D-06 at cycle   4 NSaved=   4.
 NSaved= 4 IEnMin= 4 EnMin= -55.8603392762721     IErMin= 4 ErrMin= 8.50D-06
 ErrMax= 8.50D-06 EMaxC= 1.00D-01 BMatC= 3.30D-09 BMatP= 2.60D-05
 IDIUse=1 WtCom= 1.00D+00 WtEn= 0.00D+00
 Coeff-Com: -0.112D-02-0.312D-02 0.490D-02 0.999D+00
 Coeff:     -0.112D-02-0.312D-02 0.490D-02 0.999D+00
 Gap=     0.332 Goal=   None    Shift=    0.000
 Gap=     0.166 Goal=   None    Shift=    0.000
 RMSDP=4.29D-06 MaxDP=2.71D-05 DE=-6.32D-06 OVMax= 2.63D-05

 Initial convergence to 1.0D-05 achieved.  Increase integral accuracy.
 Cycle   5  Pass 1  IDiag  1:
 E= -55.8603463300853     Delta-E=       -0.000007053813 Rises=F Damp=F
 DIIS: error= 3.05D-06 at cycle   1 NSaved=   1.
 NSaved= 1 IEnMin= 1 EnMin= -55.8603463300853     IErMin= 1 ErrMin= 3.05D-06
 ErrMax= 3.05D-06 EMaxC= 1.00D-01 BMatC= 2.97D-10 BMatP= 2.97D-10
 IDIUse=1 WtCom= 1.00D+00 WtEn= 0.00D+00
 Coeff-Com:  0.100D+01
 Coeff:      0.100D+01
 Gap=     0.332 Goal=   None    Shift=    0.000
 Gap=     0.166 Goal=   None    Shift=    0.000
 RMSDP=4.29D-06 MaxDP=2.71D-05 DE=-7.05D-06 OVMax= 9.67D-06

 Cycle   6  Pass 1  IDiag  1:
 E= -55.8603463302562     Delta-E=       -0.000000000171 Rises=F Damp=F
 DIIS: error= 1.24D-06 at cycle   2 NSaved=   2.
 NSaved= 2 IEnMin= 2 EnMin= -55.8603463302562     IErMin= 2 ErrMin= 1.24D-06
 ErrMax= 1.24D-06 EMaxC= 1.00D-01 BMatC= 6.47D-11 BMatP= 2.97D-10
 IDIUse=1 WtCom= 1.00D+00 WtEn= 0.00D+00
 Coeff-Com:  0.213D+00 0.787D+00
 Coeff:      0.213D+00 0.787D+00
 Gap=     0.332 Goal=   None    Shift=    0.000
 Gap=     0.166 Goal=   None    Shift=    0.000
 RMSDP=3.44D-07 MaxDP=3.23D-06 DE=-1.71D-10 OVMax= 3.71D-06

 Cycle   7  Pass 1  IDiag  1:
 E= -55.8603463302689     Delta-E=       -0.000000000013 Rises=F Damp=F
 DIIS: error= 8.34D-07 at cycle   3 NSaved=   3.
 NSaved= 3 IEnMin= 3 EnMin= -55.8603463302689     IErMin= 3 ErrMin= 8.34D-07
 ErrMax= 8.34D-07 EMaxC= 1.00D-01 BMatC= 3.77D-11 BMatP= 6.47D-11
 IDIUse=1 WtCom= 1.00D+00 WtEn= 0.00D+00
 Coeff-Com: -0.108D+00 0.416D+00 0.692D+00
 Coeff:     -0.108D+00 0.416D+00 0.692D+00
 Gap=     0.332 Goal=   None    Shift=    0.000
 Gap=     0.166 Goal=   None    Shift=    0.000
 RMSDP=1.75D-07 MaxDP=1.75D-06 DE=-1.27D-11 OVMax= 1.63D-06

 Cycle   8  Pass 1  IDiag  1:
 E= -55.8603463302795     Delta-E=       -0.000000000011 Rises=F Damp=F
 DIIS: error= 1.33D-07 at cycle   4 NSaved=   4.
 NSaved= 4 IEnMin= 4 EnMin= -55.8603463302795     IErMin= 4 ErrMin= 1.33D-07
 ErrMax= 1.33D-07 EMaxC= 1.00D-01 BMatC= 7.91D-13 BMatP= 3.77D-11
 IDIUse=1 WtCom= 1.00D+00 WtEn= 0.00D+00
 Coeff-Com:  0.505D-02-0.146D+00-0.569D-01 0.120D+01
 Coeff:      0.505D-02-0.146D+00-0.569D-01 0.120D+01
 Gap=     0.332 Goal=   None    Shift=    0.000
 Gap=     0.166 Goal=   None    Shift=    0.000
 RMSDP=5.05D-08 MaxDP=4.44D-07 DE=-1.06D-11 OVMax= 4.69D-07

 Cycle   9  Pass 1  IDiag  1:
 E= -55.8603463302800     Delta-E=       -0.000000000001 Rises=F Damp=F
 DIIS: error= 1.42D-08 at cycle   5 NSaved=   5.
 NSaved= 5 IEnMin= 5 EnMin= -55.8603463302800     IErMin= 5 ErrMin= 1.42D-08
 ErrMax= 1.42D-08 EMaxC= 1.00D-01 BMatC= 1.52D-14 BMatP= 7.91D-13
 IDIUse=1 WtCom= 1.00D+00 WtEn= 0.00D+00
 Coeff-Com:  0.254D-02 0.162D-01-0.155D-01-0.270D+00 0.127D+01
 Coeff:      0.254D-02 0.162D-01-0.155D-01-0.270D+00 0.127D+01
 Gap=     0.332 Goal=   None    Shift=    0.000
 Gap=     0.166 Goal=   None    Shift=    0.000
 RMSDP=1.18D-08 MaxDP=7.98D-08 DE=-5.26D-13 OVMax= 9.78D-08

 Cycle  10  Pass 1  IDiag  1:
 E= -55.8603463302800     Delta-E=        0.000000000000 Rises=F Damp=F
 DIIS: error= 2.15D-09 at cycle   6 NSaved=   6.
 NSaved= 6 IEnMin= 5 EnMin= -55.8603463302800     IErMin= 6 ErrMin= 2.15D-09
 ErrMax= 2.15D-09 EMaxC= 1.00D-01 BMatC= 3.01D-16 BMatP= 1.52D-14
 IDIUse=1 WtCom= 1.00D+00 WtEn= 0.00D+00
 Coeff-Com: -0.344D-03-0.967D-04 0.187D-02 0.274D-01-0.237D+00 0.121D+01
 Coeff:     -0.344D-03-0.967D-04 0.187D-02 0.274D-01-0.237D+00 0.121D+01
 Gap=     0.332 Goal=   None    Shift=    0.000
 Gap=     0.166 Goal=   None    Shift=    0.000
 RMSDP=1.64D-09 MaxDP=7.42D-09 DE= 4.26D-14 OVMax= 1.44D-08

 SCF Done:  E(UB3LYP) =  -55.8603463303     A.U. after   10 cycles
             Convg  =    0.1636D-08             -V/T =  2.0063
 <Sx>= 0.0000 <Sy>= 0.0000 <Sz>= 0.5000 <S**2>= 0.7526 S= 0.5013
 <L.S>=  0.00000000000    
 KE= 5.550811555081D+01 PE=-1.454028326431D+02 EE= 2.656616267758D+01
 Annihilation of the first spin contaminant:
 S**2 before annihilation     0.7526,   after     0.7500
 Leave Link  502 at Sun Sep 15 16:40:18 2024, MaxMem=   13107200 cpu:       0.8
 (Enter /programs/64bit/g09/g09-gfortran/bin/l701.exe)
 Compute integral first derivatives.
 ... and contract with generalized density number  0.
 Leave Link  701 at Sun Sep 15 16:40:18 2024, MaxMem=   13107200 cpu:       0.1
 (Enter /programs/64bit/g09/g09-gfortran/bin/l702.exe)
 L702 exits ... SP integral derivatives will be done elsewhere.
 Leave Link  702 at Sun Sep 15 16:40:18 2024, MaxMem=   13107200 cpu:       0.0
 (Enter /programs/64bit/g09/g09-gfortran/bin/l703.exe)
 Compute integral first derivatives, UseDBF=F ICtDFT=           0.
 Integral derivatives from FoFDir, PRISM(SPDF).
 Calling FoFJK, ICntrl=      2127 FMM=F ISym2X=1 I1Cent= 0 IOpClX= 1 NMat=1 NMatS=1 NMatT=0.
 FoFCou: FMM=F IPFlag=           0 FMFlag=      100000 FMFlg1=         800
         NFxFlg=           0 DoJE=F BraDBF=F KetDBF=F FulRan=T
         Omega=  0.000000  0.000000  1.000000  0.000000  0.000000 ICntrl=    2127 IOpCl=  1
         NMat0=    1 NMatS0=    1 NMatT0=    0 NMatD0=    1 NMtDS0=    0 NMtDT0=    0
         I1Cent=           0 NGrid=           0.
 Petite list used in FoFCou.
 Leave Link  703 at Sun Sep 15 16:40:18 2024, MaxMem=   13107200 cpu:       0.3
 (Enter /programs/64bit/g09/g09-gfortran/bin/l716.exe)
 Dipole        =-5.07841249D-17 0.00000000D+00-9.68036876D-01
 ***** Axes restored to original set *****
 -------------------------------------------------------------------
 Center     Atomic                   Forces (Hartrees/Bohr)
 Number     Number              X              Y              Z
 -------------------------------------------------------------------
      1        7          -0.002451274    0.000000000   -0.001733312
      2        1           0.000597763   -0.000000000    0.001754604
      3        1           0.001853511   -0.000000000   -0.000021292
 -------------------------------------------------------------------
 Cartesian Forces:  Max     0.002451274 RMS     0.001328534
 Leave Link  716 at Sun Sep 15 16:40:18 2024, MaxMem=   13107200 cpu:       0.0
 (Enter /programs/64bit/g09/g09-gfortran/bin/l103.exe)

 GradGradGradGradGradGradGradGradGradGradGradGradGradGradGradGradGradGrad
 Berny optimization.
 Using GEDIIS/GDIIS optimizer.
 Internal  Forces:  Max     0.001766213 RMS     0.001576066
 Search for a local minimum.
 Step number   2 out of a maximum of   20
 All quantities printed in internal units (Hartrees-Bohrs-Radians)
 RMS Force = .15761D-02 SwitMx=.10000D-02 MixMth= 1
 Mixed Optimization -- RFO/linear search
 Update second derivatives using D2CorX and points    1    2
 DE= -2.27D-04 DEPred=-1.84D-04 R= 1.23D+00
 SS=  1.41D+00  RLast= 4.31D-02 DXNew= 5.0454D-01 1.2942D-01
 Trust test= 1.23D+00 RLast= 4.31D-02 DXMaxT set to 3.00D-01
 The second derivative matrix:
                          R1        R2        A1
           R1           0.39727
           R2          -0.03053   0.39727
           A1           0.02665   0.02665   0.14802
 Use linear search instead of GDIIS.
     Eigenvalues ---    0.14170   0.37305   0.42780
 RFO step:  Lambda=-4.82864031D-06 EMin= 1.41701240D-01
 Quartic linear search produced a step of  0.29218.
 Iteration  1 RMS(Cart)=  0.00500432 RMS(Int)=  0.00002244
 Iteration  2 RMS(Cart)=  0.00002606 RMS(Int)=  0.00000000
 Iteration  3 RMS(Cart)=  0.00000000 RMS(Int)=  0.00000000
 ClnCor:  largest displacement from symmetrization is 1.71D-15 for atom     1.
 Variable       Old X    -DE/DX   Delta X   Delta X   Delta X     New X
                                 (Linear)    (Quad)   (Total)
    R1        1.95780   0.00177   0.00333   0.00213   0.00546   1.96326
    R2        1.95780   0.00177   0.00333   0.00213   0.00546   1.96326
    A1        1.87061  -0.00110  -0.01169   0.00250  -0.00920   1.86141
         Item               Value     Threshold  Converged?
 Maximum Force            0.001766     0.000450     NO 
 RMS     Force            0.001576     0.000300     NO 
 Maximum Displacement     0.005713     0.001800     NO 
 RMS     Displacement     0.005012     0.001200     NO 
 Predicted change in Energy=-1.490006D-05
 GradGradGradGradGradGradGradGradGradGradGradGradGradGradGradGradGradGrad

 Leave Link  103 at Sun Sep 15 16:40:18 2024, MaxMem=   13107200 cpu:       0.0
 (Enter /programs/64bit/g09/g09-gfortran/bin/l202.exe)
                          Input orientation:                          
 ---------------------------------------------------------------------
 Center     Atomic      Atomic             Coordinates (Angstroms)
 Number     Number       Type             X           Y           Z
 ---------------------------------------------------------------------
      1          7           0       -0.014065   -0.000000   -0.009945
      2          1           0        0.011500   -0.000000    1.028655
      3          1           0        0.973658    0.000000   -0.332043
 ---------------------------------------------------------------------
                    Distance matrix (angstroms):
                    1          2          3
     1  N    0.000000
     2  H    1.038915   0.000000
     3  H    1.038915   1.666508   0.000000
 Stoichiometry    H2N(2)
 Framework group  C2V[C2(N),SGV(H2)]
 Deg. of freedom     2
 Full point group                 C2V     NOp   4
 Largest Abelian subgroup         C2V     NOp   4
 Largest concise Abelian subgroup C2      NOp   2
                         Standard orientation:                         
 ---------------------------------------------------------------------
 Center     Atomic      Atomic             Coordinates (Angstroms)
 Number     Number       Type             X           Y           Z
 ---------------------------------------------------------------------
      1          7           0       -0.000000    0.000000    0.137891
      2          1           0       -0.000000    0.833254   -0.482618
      3          1           0       -0.000000   -0.833254   -0.482618
 ---------------------------------------------------------------------
 Rotational constants (GHZ):    744.9202380    361.1165902    243.2134713
 Leave Link  202 at Sun Sep 15 16:40:18 2024, MaxMem=   13107200 cpu:       0.0
 (Enter /programs/64bit/g09/g09-gfortran/bin/l301.exe)
 Standard basis: 6-31+G (6D, 7F)
 Ernie: Thresh=  0.10000D-02 Tol=  0.10000D-05 Strict=F.
 There are     9 symmetry adapted basis functions of A1  symmetry.
 There are     0 symmetry adapted basis functions of A2  symmetry.
 There are     3 symmetry adapted basis functions of B1  symmetry.
 There are     5 symmetry adapted basis functions of B2  symmetry.
 Integral buffers will be    131072 words long.
 Raffenetti 2 integral format.
 Two-electron integral symmetry is turned on.
    17 basis functions,    34 primitive gaussians,    17 cartesian basis functions
     5 alpha electrons        4 beta electrons
       nuclear repulsion energy         7.4485170553 Hartrees.
 IExCor=  402 DFT=T Ex+Corr=B3LYP ExCW=0 ScaHFX=  0.200000
 ScaDFX=  0.800000  0.720000  1.000000  0.810000 ScalE2=  1.000000  1.000000
 IRadAn=      0 IRanWt=     -1 IRanGd=            0 ICorTp=0
 NAtoms=    3 NActive=    3 NUniq=    2 SFac= 1.69D+00 NAtFMM=   80 NAOKFM=F Big=F
 Leave Link  301 at Sun Sep 15 16:40:19 2024, MaxMem=   13107200 cpu:       0.1
 (Enter /programs/64bit/g09/g09-gfortran/bin/l302.exe)
 NPDir=0 NMtPBC=     1 NCelOv=     1 NCel=       1 NClECP=     1 NCelD=      1
         NCelK=      1 NCelE2=     1 NClLst=     1 CellRange=     0.0.
 One-electron integrals computed using PRISM.
 One-electron integral symmetry used in STVInt
 NBasis=    17 RedAO= T  NBF=     9     0     3     5
 NBsUse=    17 1.00D-06 NBFU=     9     0     3     5
 Precomputing XC quadrature grid using
 IXCGrd= 2 IRadAn=           0 IRanWt=          -1 IRanGd=           0 AccXCQ= 1.00D-10.
 NRdTot=     189 NPtTot=       23944 NUsed=       25319 NTot=       25351
 NSgBfM=    17    17    17    17    17 NAtAll=     3     3.
 Leave Link  302 at Sun Sep 15 16:40:19 2024, MaxMem=   13107200 cpu:       0.2
 (Enter /programs/64bit/g09/g09-gfortran/bin/l303.exe)
 DipDrv:  MaxL=1.
 Leave Link  303 at Sun Sep 15 16:40:19 2024, MaxMem=   13107200 cpu:       0.0
 (Enter /programs/64bit/g09/g09-gfortran/bin/l401.exe)
 Initial guess read from the read-write file.
 B after Tr=     0.000000    0.000000    0.000000
         Rot=    1.000000    0.000000    0.000000    0.000000 Ang=   0.00 deg.
 Guess basis will be translated and rotated to current coordinates.
 Initial guess orbital symmetries:
 Alpha Orbitals:
       Occupied  (A1) (A1) (B2) (B1) (A1)
       Virtual   (A1) (B2) (B1) (A1) (B2) (A1) (B1) (B2) (A1) (B2)
                 (A1) (A1)
 Beta  Orbitals:
       Occupied  (A1) (A1) (B2) (A1)
       Virtual   (B1) (A1) (B2) (A1) (B1) (B2) (A1) (B2) (A1) (B1)
                 (B2) (A1) (A1)
 The electronic state of the initial guess is 2-B1.
 Initial guess <Sx>= 0.0000 <Sy>= 0.0000 <Sz>= 0.5000 <S**2>= 0.7526 S= 0.5013
 Leave Link  401 at Sun Sep 15 16:40:19 2024, MaxMem=   13107200 cpu:       0.2
 (Enter /programs/64bit/g09/g09-gfortran/bin/l502.exe)
 UHF open shell SCF:
 Requested convergence on RMS density matrix=1.00D-08 within 128 cycles.
 Requested convergence on MAX density matrix=1.00D-06.
 Requested convergence on             energy=1.00D-06.
 No special actions if energy rises.
 Using DIIS extrapolation, IDIIS=  1040.
 Integral symmetry usage will be decided dynamically.
        25279 words used for storage of precomputed grid.
 Keep R1 and R2 ints in memory in canonical form, NReq=926457.
 IEnd=       45072 IEndB=       45072 NGot=    13107200 MDV=    13055641
 LenX=    13055641 LenY=    13054759
 Symmetry not used in FoFDir.
 MinBra= 0 MaxBra= 1 Meth= 1.
 IRaf=       0 NMat=   1 IRICut=       1 DoRegI=T DoRafI=F ISym2E= 0 JSym2E=0.

 Cycle   1  Pass 1  IDiag  1:
 E= -55.8603518584720    
 DIIS: error= 5.09D-04 at cycle   1 NSaved=   1.
 NSaved= 1 IEnMin= 1 EnMin= -55.8603518584720     IErMin= 1 ErrMin= 5.09D-04
 ErrMax= 5.09D-04 EMaxC= 1.00D-01 BMatC= 2.03D-05 BMatP= 2.03D-05
 IDIUse=3 WtCom= 9.95D-01 WtEn= 5.09D-03
 Coeff-Com:  0.100D+01
 Coeff-En:   0.100D+01
 Coeff:      0.100D+01
 Gap=     0.333 Goal=   None    Shift=    0.000
 Gap=     0.167 Goal=   None    Shift=    0.000
 RMSDP=3.16D-04 MaxDP=2.06D-03              OVMax= 1.90D-03

 Cycle   2  Pass 1  IDiag  1:
 E= -55.8603596301268     Delta-E=       -0.000007771655 Rises=F Damp=F
 DIIS: error= 2.73D-04 at cycle   2 NSaved=   2.
 NSaved= 2 IEnMin= 2 EnMin= -55.8603596301268     IErMin= 2 ErrMin= 2.73D-04
 ErrMax= 2.73D-04 EMaxC= 1.00D-01 BMatC= 5.86D-06 BMatP= 2.03D-05
 IDIUse=3 WtCom= 9.97D-01 WtEn= 2.73D-03
 Coeff-Com:  0.273D+00 0.727D+00
 Coeff-En:   0.000D+00 0.100D+01
 Coeff:      0.273D+00 0.727D+00
 Gap=     0.333 Goal=   None    Shift=    0.000
 Gap=     0.167 Goal=   None    Shift=    0.000
 RMSDP=8.50D-05 MaxDP=6.65D-04 DE=-7.77D-06 OVMax= 6.58D-04

 Cycle   3  Pass 1  IDiag  1:
 E= -55.8603604234013     Delta-E=       -0.000000793274 Rises=F Damp=F
 DIIS: error= 1.82D-04 at cycle   3 NSaved=   3.
 NSaved= 3 IEnMin= 3 EnMin= -55.8603604234013     IErMin= 3 ErrMin= 1.82D-04
 ErrMax= 1.82D-04 EMaxC= 1.00D-01 BMatC= 2.64D-06 BMatP= 5.86D-06
 IDIUse=3 WtCom= 9.98D-01 WtEn= 1.82D-03
 Coeff-Com: -0.271D-01 0.402D+00 0.625D+00
 Coeff-En:   0.000D+00 0.320D+00 0.680D+00
 Coeff:     -0.271D-01 0.402D+00 0.625D+00
 Gap=     0.333 Goal=   None    Shift=    0.000
 Gap=     0.167 Goal=   None    Shift=    0.000
 RMSDP=4.19D-05 MaxDP=2.74D-04 DE=-7.93D-07 OVMax= 3.01D-04

 Cycle   4  Pass 1  IDiag  1:
 E= -55.8603610696248     Delta-E=       -0.000000646223 Rises=F Damp=F
 DIIS: error= 4.18D-06 at cycle   4 NSaved=   4.
 NSaved= 4 IEnMin= 4 EnMin= -55.8603610696248     IErMin= 4 ErrMin= 4.18D-06
 ErrMax= 4.18D-06 EMaxC= 1.00D-01 BMatC= 6.56D-10 BMatP= 2.64D-06
 IDIUse=1 WtCom= 1.00D+00 WtEn= 0.00D+00
 Coeff-Com: -0.292D-02 0.219D-02 0.147D-01 0.986D+00
 Coeff:     -0.292D-02 0.219D-02 0.147D-01 0.986D+00
 Gap=     0.333 Goal=   None    Shift=    0.000
 Gap=     0.167 Goal=   None    Shift=    0.000
 RMSDP=1.67D-06 MaxDP=1.20D-05 DE=-6.46D-07 OVMax= 1.10D-05

 Cycle   5  Pass 1  IDiag  1:
 E= -55.8603610699391     Delta-E=       -0.000000000314 Rises=F Damp=F
 DIIS: error= 4.95D-07 at cycle   5 NSaved=   5.
 NSaved= 5 IEnMin= 5 EnMin= -55.8603610699391     IErMin= 5 ErrMin= 4.95D-07
 ErrMax= 4.95D-07 EMaxC= 1.00D-01 BMatC= 1.93D-11 BMatP= 6.56D-10
 IDIUse=1 WtCom= 1.00D+00 WtEn= 0.00D+00
 Coeff-Com:  0.630D-03-0.392D-02-0.729D-02-0.112D+00 0.112D+01
 Coeff:      0.630D-03-0.392D-02-0.729D-02-0.112D+00 0.112D+01
 Gap=     0.333 Goal=   None    Shift=    0.000
 Gap=     0.167 Goal=   None    Shift=    0.000
 RMSDP=3.40D-07 MaxDP=2.50D-06 DE=-3.14D-10 OVMax= 3.19D-06

 Cycle   6  Pass 1  IDiag  1:
 E= -55.8603610699558     Delta-E=       -0.000000000017 Rises=F Damp=F
 DIIS: error= 1.81D-07 at cycle   6 NSaved=   6.
 NSaved= 6 IEnMin= 6 EnMin= -55.8603610699558     IErMin= 6 ErrMin= 1.81D-07
 ErrMax= 1.81D-07 EMaxC= 1.00D-01 BMatC= 1.93D-12 BMatP= 1.93D-11
 IDIUse=1 WtCom= 1.00D+00 WtEn= 0.00D+00
 Coeff-Com: -0.105D-03 0.110D-02 0.177D-02-0.318D-02-0.402D+00 0.140D+01
 Coeff:     -0.105D-03 0.110D-02 0.177D-02-0.318D-02-0.402D+00 0.140D+01
 Gap=     0.333 Goal=   None    Shift=    0.000
 Gap=     0.167 Goal=   None    Shift=    0.000
 RMSDP=1.32D-07 MaxDP=7.85D-07 DE=-1.67D-11 OVMax= 9.21D-07

 Cycle   7  Pass 1  IDiag  1:
 E= -55.8603610699576     Delta-E=       -0.000000000002 Rises=F Damp=F
 DIIS: error= 3.31D-08 at cycle   7 NSaved=   7.
 NSaved= 7 IEnMin= 7 EnMin= -55.8603610699576     IErMin= 7 ErrMin= 3.31D-08
 ErrMax= 3.31D-08 EMaxC= 1.00D-01 BMatC= 3.68D-14 BMatP= 1.93D-12
 IDIUse=1 WtCom= 1.00D+00 WtEn= 0.00D+00
 Coeff-Com: -0.146D-04 0.104D-03 0.144D-03 0.560D-02-0.143D-01-0.107D+00
 Coeff-Com:  0.111D+01
 Coeff:     -0.146D-04 0.104D-03 0.144D-03 0.560D-02-0.143D-01-0.107D+00
 Coeff:      0.111D+01
 Gap=     0.333 Goal=   None    Shift=    0.000
 Gap=     0.167 Goal=   None    Shift=    0.000
 RMSDP=1.68D-08 MaxDP=1.08D-07 DE=-1.80D-12 OVMax= 1.48D-07

 Cycle   8  Pass 1  IDiag  1:
[...]
 N-N= 7.448517055333D+00 E-N=-2.141947723396D+02  KE= 8.229658440443D+01
 Symmetry A1   KE= 7.660388716801D+01
 Symmetry A2   KE= 0.000000000000D+00
 Symmetry B1   KE= 1.728091195352D+00
 Symmetry B2   KE= 3.964606041068D+00
 Orbital energies and kinetic energies (alpha):
                                 1                 2
   1         (A1)--O         -14.379485         22.050300
   2         (A1)--O          -0.876560          1.929679
   3         (B2)--O          -0.494771          1.353594
   4         (B1)--O          -0.324651          1.728091
   5         (A1)--O          -0.321379          1.644695
   6         (A1)--V           0.011548          0.605547
   7         (B2)--V           0.087355          0.537007
   8         (B1)--V           0.106262          0.425574
   9         (A1)--V           0.120439          0.418793
  10         (B2)--V           0.180673          0.880497
  11         (A1)--V           0.202458          0.927283
  12         (B1)--V           0.824113          2.727409
  13         (B2)--V           0.847589          2.853563
  14         (A1)--V           0.865174          2.839973
  15         (B2)--V           0.974852          2.238556
  16         (A1)--V           1.035413          2.694651
  17         (A1)--V           1.144551          2.706657
 Orbital energies and kinetic energies (beta):
                                 1                 2
   1         (A1)--O         -14.359920         22.067211
   2         (A1)--O          -0.823327          1.817317
   3         (B2)--O          -0.480900          1.305506
   4         (A1)--O          -0.293312          1.605079
   5         (B1)--V          -0.126647          1.320592
   6         (A1)--V           0.018780          0.596848
   7         (B2)--V           0.090748          0.509720
   8         (A1)--V           0.123756          0.444717
   9         (B1)--V           0.130882          0.602555
  10         (B2)--V           0.184341          0.914050
  11         (A1)--V           0.211767          0.952315
  12         (B2)--V           0.862109          2.890604
  13         (A1)--V           0.880087          2.881771
  14         (B1)--V           0.901785          2.957927
  15         (B2)--V           0.973564          2.243336
  16         (A1)--V           1.041125          2.669431
  17         (A1)--V           1.176443          2.782889
 Total kinetic energy from orbitals= 5.550147176529D+01
  Exact polarizability:   7.191  -0.000  10.888  -0.000  -0.000   9.292
 Approx polarizability:   5.545   0.000  12.981   0.000   0.000   9.843
                          Isotropic Fermi Contact Couplings
        Atom                 a.u.       MegaHertz       Gauss      10(-4) cm-1
     1  N(14)              0.15729      50.82229      18.13466      16.95249
     2  H(1)              -0.01578     -70.55112     -25.17439     -23.53332
     3  H(1)              -0.01578     -70.55112     -25.17439     -23.53332
 --------------------------------------------------------
       Center         ----  Spin Dipole Couplings  ----
                      3XX-RR        3YY-RR        3ZZ-RR
 --------------------------------------------------------
     1   Atom        2.048981     -1.020517     -1.028464
     2   Atom       -0.029324      0.046329     -0.017005
     3   Atom       -0.029324      0.046329     -0.017005
 --------------------------------------------------------
                        XY            XZ            YZ
 --------------------------------------------------------
     1   Atom        0.000000      0.000000      0.000000
     2   Atom       -0.000000      0.000000     -0.104183
     3   Atom       -0.000000     -0.000000      0.104183
 --------------------------------------------------------


 ---------------------------------------------------------------------------------
              Anisotropic Spin Dipole Couplings in Principal Axis System
 ---------------------------------------------------------------------------------

       Atom             a.u.   MegaHertz   Gauss  10(-4) cm-1        Axes

              Baa    -1.0285   -39.666   -14.154   -13.231  0.0000  0.0000  1.0000
     1 N(14)  Bbb    -1.0205   -39.359   -14.044   -13.129 -0.0000  1.0000 -0.0000
              Bcc     2.0490    79.025    28.198    26.360  1.0000 -0.0000 -0.0000
 
              Baa    -0.0942   -50.275   -17.939   -16.770 -0.0000  0.5955  0.8034
     2 H(1)   Bbb    -0.0293   -15.646    -5.583    -5.219  1.0000  0.0000  0.0000
              Bcc     0.1236    65.921    23.522    21.989 -0.0000  0.8034 -0.5955
 
              Baa    -0.0942   -50.275   -17.939   -16.770  0.0000 -0.5955  0.8034
     3 H(1)   Bbb    -0.0293   -15.646    -5.583    -5.219  1.0000  0.0000  0.0000
              Bcc     0.1236    65.921    23.522    21.989 -0.0000  0.8034  0.5955
 

 ---------------------------------------------------------------------------------

 No NMR shielding tensors so no spin-rotation constants.
 Leave Link  601 at Sun Sep 15 16:40:27 2024, MaxMem=   13107200 cpu:       0.2
 (Enter /programs/64bit/g09/g09-gfortran/bin/l701.exe)
 Compute integral second derivatives.
 ... and contract with generalized density number  0.
 Leave Link  701 at Sun Sep 15 16:40:27 2024, MaxMem=   13107200 cpu:       0.1
 (Enter /programs/64bit/g09/g09-gfortran/bin/l702.exe)
 L702 exits ... SP integral derivatives will be done elsewhere.
 Leave Link  702 at Sun Sep 15 16:40:27 2024, MaxMem=   13107200 cpu:       0.0
 (Enter /programs/64bit/g09/g09-gfortran/bin/l703.exe)
 Compute integral second derivatives, UseDBF=F ICtDFT=           0.
 Integral derivatives from FoFDir, PRISM(SPDF).
 Calling FoFJK, ICntrl=    100127 FMM=F ISym2X=1 I1Cent= 0 IOpClX= 1 NMat=1 NMatS=1 NMatT=0.
 FoFCou: FMM=F IPFlag=           0 FMFlag=      100000 FMFlg1=         800
         NFxFlg=           0 DoJE=F BraDBF=F KetDBF=F FulRan=T
         Omega=  0.000000  0.000000  1.000000  0.000000  0.000000 ICntrl=  100127 IOpCl=  1
         NMat0=    1 NMatS0=    1 NMatT0=    0 NMatD0=    1 NMtDS0=    0 NMtDT0=    0
         I1Cent=           0 NGrid=           0.
 Petite list used in FoFCou.
 Leave Link  703 at Sun Sep 15 16:40:28 2024, MaxMem=   13107200 cpu:       0.9
 (Enter /programs/64bit/g09/g09-gfortran/bin/l716.exe)
 Dipole        =-5.06240952D-17-1.66533454D-16-9.68458661D-01
 Polarizability= 7.19147715D+00-7.43407240D-11 1.08882320D+01
                -1.08622524D-09-3.93130972D-10 9.29187678D+00
 Full mass-weighted force constant matrix:
 Low frequencies ---  -39.6557  -34.3416  -14.7486   -0.0016   -0.0006    0.0009
 Low frequencies --- 1501.5064 3261.9923 3389.7557
 Diagonal vibrational polarizability:
        0.0000000       0.0143524       0.3506095
 Harmonic frequencies (cm**-1), IR intensities (KM/Mole), Raman scattering
 activities (A**4/AMU), depolarization ratios for plane and unpolarized
 incident light, reduced masses (AMU), force constants (mDyne/A),
 and normal coordinates:
                     1                      2                      3
                    A1                     A1                     B2
 Frequencies --  1501.5064              3261.9923              3389.7557
 Red. masses --     1.0994                 1.0428                 1.0939
 Frc consts  --     1.4603                 6.5373                 7.4054
 IR Inten    --    19.2888                47.5932                 6.1281
  Atom  AN      X      Y      Z        X      Y      Z        X      Y      Z
     1   7     0.00   0.00   0.08     0.00   0.00   0.05     0.00   0.08  -0.00
     2   1    -0.00  -0.40  -0.58     0.00   0.61  -0.36    -0.00  -0.57   0.42
     3   1    -0.00   0.40  -0.58    -0.00  -0.61  -0.36    -0.00  -0.57  -0.42

 -------------------
 - Thermochemistry -
 -------------------
 Temperature   298.150 Kelvin.  Pressure   1.00000 Atm.
 Atom     1 has atomic number  7 and mass  14.00307
 Atom     2 has atomic number  1 and mass   1.00783
 Atom     3 has atomic number  1 and mass   1.00783
 Molecular mass:    16.01872 amu.
 Principal axes and moments of inertia in atomic units:
                           1         2         3
     Eigenvalues --     2.42273   4.99767   7.42040
           X           -0.00000   0.00000   1.00000
           Y            1.00000   0.00000   0.00000
           Z           -0.00000   1.00000   0.00000
 This molecule is an asymmetric top.
 Rotational symmetry number  2.
 Rotational temperatures (Kelvin)     35.75049    17.33084    11.67239
 Rotational constants (GHZ):         744.92024   361.11659   243.21347
 Zero-point vibrational energy      48767.3 (Joules/Mol)
                                   11.65566 (Kcal/Mol)
 Vibrational temperatures:   2160.33  4693.27  4877.10
          (Kelvin)
 
 Zero-point correction=                           0.018574 (Hartree/Particle)
 Thermal correction to Energy=                    0.021412
 Thermal correction to Enthalpy=                  0.022356
 Thermal correction to Gibbs Free Energy=         0.000242
 Sum of electronic and zero-point Energies=            -55.841787
 Sum of electronic and thermal Energies=               -55.838949
 Sum of electronic and thermal Enthalpies=             -55.838005
 Sum of electronic and thermal Free Energies=          -55.860119
 
                     E (Thermal)             CV                S
                      KCal/Mol        Cal/Mol-Kelvin    Cal/Mol-Kelvin
 Total                   13.436              6.036             46.543
 Electronic               0.000              0.000              1.377
 Translational            0.889              2.981             34.259
 Rotational               0.889              2.981             10.895
 Vibrational             11.659              0.075              0.012
                       Q            Log10(Q)             Ln(Q)
 Total Bot       0.773845D+00         -0.111346         -0.256384
 Total V=0       0.270585D+09          8.432303         19.416096
 Vib (Bot)       0.286194D-08         -8.543340        -19.671766
 Vib (V=0)       0.100071D+01          0.000310          0.000714
 Electronic      0.200000D+01          0.301030          0.693147
 Translational   0.251998D+07          6.401397         14.739762
 Rotational      0.536496D+02          1.729566          3.982474
 
                                                      NH2 with 6-31+G basis set
                                                             IR Spectrum
 
      3   3                                                                 1                                                        
      3   2                                                                 5                                                        
      9   6                                                                 0                                                        
      0   2                                                                 2                                                        
 
      X   X                                                                 X                                                        
      X   X                                                                 X                                                        
      X   X                                                                 X                                                        
          X                                                                 X                                                        
          X                                                                 X                                                        
          X                                                                 X                                                        
          X                                                                 X                                                        
          X                                                                 X                                                        
          X                                                                                                                          
          X                                                                                                                          
          X                                                                                                                          
          X                                                                                                                          
          X                                                                                                                          
          X                                                                                                                          
          X                                                                                                                          
          X                                                                                                                          
          X                                                                                                                          
          X                                                                                                                          
          X                                                                                                                          
          X                                                                                                                          
 
 ***** Axes restored to original set *****
 -------------------------------------------------------------------
 Center     Atomic                   Forces (Hartrees/Bohr)
 Number     Number              X              Y              Z
 -------------------------------------------------------------------
      1        7          -0.000002357    0.000000000   -0.000001666
      2        1           0.000023582    0.000000000   -0.000030850
      3        1          -0.000021225   -0.000000000    0.000032516
 -------------------------------------------------------------------
 Cartesian Forces:  Max     0.000032516 RMS     0.000018330
 Force constants in Cartesian coordinates: 
                1             2             3             4             5 
      1  0.379193D+00
      2  0.000000D+00 -0.786401D-04
      3 -0.967577D-01  0.000000D+00  0.447611D+00
      4 -0.352548D-01  0.000000D+00 -0.346298D-01  0.404929D-01
      5  0.000000D+00  0.393201D-04  0.000000D+00  0.000000D+00 -0.496488D-04
      6  0.222513D-01  0.000000D+00 -0.378148D+00 -0.992203D-02  0.000000D+00
      7 -0.343939D+00  0.000000D+00  0.131387D+00 -0.523802D-02  0.000000D+00
      8  0.000000D+00  0.393201D-04  0.000000D+00  0.000000D+00  0.103287D-04
      9  0.745063D-01  0.000000D+00 -0.694638D-01  0.445519D-01  0.000000D+00
                6             7             8             9 
      6  0.394778D+00
      7 -0.123293D-01  0.349177D+00
      8  0.000000D+00  0.000000D+00 -0.496488D-04
      9 -0.166304D-01 -0.119058D+00  0.000000D+00  0.860943D-01
 Force constants in internal coordinates: 
                1             2             3 
      1  0.394078D+00
      2 -0.702941D-02  0.394078D+00
      3  0.365784D-01  0.365784D-01  0.158770D+00
 Leave Link  716 at Sun Sep 15 16:40:28 2024, MaxMem=   13107200 cpu:       0.1
 (Enter /programs/64bit/g09/g09-gfortran/bin/l103.exe)

 GradGradGradGradGradGradGradGradGradGradGradGradGradGradGradGradGradGrad
 Berny optimization.
 Internal  Forces:  Max     0.000047774 RMS     0.000037030
 Search for a local minimum.
 Step number   1 out of a maximum of    2
 All quantities printed in internal units (Hartrees-Bohrs-Radians)
 Second derivative matrix not updated -- analytic derivatives used.
 The second derivative matrix:
                          R1        R2        A1
           R1           0.39408
           R2          -0.00703   0.39408
           A1           0.03658   0.03658   0.15877
     Eigenvalues ---    0.14759   0.39822   0.40111
 Angle between quadratic step and forces=  26.98 degrees.
 Linear search not attempted -- first point.
 Iteration  1 RMS(Cart)=  0.00018850 RMS(Int)=  0.00000002
 Iteration  2 RMS(Cart)=  0.00000001 RMS(Int)=  0.00000000
 ClnCor:  largest displacement from symmetrization is 2.22D-16 for atom     3.
 Variable       Old X    -DE/DX   Delta X   Delta X   Delta X     New X
                                 (Linear)    (Quad)   (Total)
    R1        1.96326  -0.00003   0.00000  -0.00005  -0.00005   1.96321
    R2        1.96326  -0.00003   0.00000  -0.00005  -0.00005   1.96321
    A1        1.86141  -0.00005   0.00000  -0.00028  -0.00028   1.86114
         Item               Value     Threshold  Converged?
 Maximum Force            0.000048     0.000450     YES
 RMS     Force            0.000037     0.000300     YES
 Maximum Displacement     0.000203     0.001800     YES
 RMS     Displacement     0.000189     0.001200     YES
 Predicted change in Energy=-8.188934D-09
 Optimization completed.
    -- Stationary point found.
                           ----------------------------
                           !   Optimized Parameters   !
                           ! (Angstroms and Degrees)  !
 --------------------------                            --------------------------
 ! Name  Definition              Value          Derivative Info.                !
 --------------------------------------------------------------------------------
 ! R1    R(1,2)                  1.0389         -DE/DX =    0.0                 !
 ! R2    R(1,3)                  1.0389         -DE/DX =    0.0                 !
 ! A1    A(2,1,3)              106.6512         -DE/DX =    0.0                 !
 --------------------------------------------------------------------------------
 GradGradGradGradGradGradGradGradGradGradGradGradGradGradGradGradGradGrad

 Leave Link  103 at Sun Sep 15 16:40:28 2024, MaxMem=   13107200 cpu:       0.0
 (Enter /programs/64bit/g09/g09-gfortran/bin/l9999.exe)
 1\1\GINC-MOLMOD\Freq\UB3LYP\6-31+G\H2N1(2)\OSPITE\15-Sep-2024\0\\#P Ge
 om=AllCheck Guess=TCheck SCRF=Check GenChk UB3LYP/6-31+G Freq\\NH2 wit
 h 6-31+G basis set\\0,2\N,-0.0140648,0.,-0.0099453155\H,0.0114997449,0
 .,1.0286548779\H,0.9736583679,0.,-0.3320428958\\Version=EM64L-G09RevA.
 02\State=2-B1\HF=-55.8603611\S2=0.75259\S2-1=0.\S2A=0.750005\RMSD=1.23
 4e-10\RMSF=1.833e-05\ZeroPoint=0.0185745\Thermal=0.0214119\Dipole=0.79
 07432,0.,0.5591399\DipoleDeriv=-0.061477,0.,0.0861362,0.,-0.8255836,0.
 ,0.0861362,0.,-0.1223846,0.2311857,0.,-0.1406105,0.,0.4127918,0.,-0.08
 72633,0.,-0.1392549,-0.1697086,0.,0.0544743,0.,0.4127918,0.,0.001127,0
 .,0.2616395\Polar=9.8239952,0.,7.1914772,-0.7525291,0.,10.3561136\PG=C
 02V [C2(N1),SGV(H2)]\NImag=0\\0.37919336,0.,-0.00007864,-0.09675765,0.
 ,0.44761135,-0.03525483,0.,-0.03462984,0.04049285,0.,0.00003932,0.,0.,
 -0.00004965,0.02225133,0.,-0.37814752,-0.00992203,0.,0.39477794,-0.343
 93853,0.,0.13138749,-0.00523802,0.,-0.01232929,0.34917655,0.,0.0000393
 2,0.,0.,0.00001033,0.,0.,-0.00004965,0.07450632,0.,-0.06946383,0.04455
 188,0.,-0.01663042,-0.11905820,0.,0.08609425\\0.00000236,0.,0.00000167
 ,-0.00002358,0.,0.00003085,0.00002123,0.,-0.00003252\\\@


 IF YOU WISH TO UNDERSTAND THE FRAGRANCE OF THE ROSE, 
 OR THE TENACITY OF THE OAK; 
 IF YOU ARE NOT SATISFIED UNTIL YOU KNOW THE SECRET PATHS 
 BY WHICH THE SUNSHINE AND THE AIR ACHIEVE THESE WONDERS; 
 IF YOU WISH TO SEE THE PATTERN WHICH UNDERLIES ONE LARGE FIELD OF 
 HUMAN EXPERIENCE AND HUMAN MEASUREMENT, THEN TAKE UP CHEMISTRY.

                                         -- C. A. COULSON, 1973.
 Job cpu time:  0 days  0 hours  0 minutes  6.4 seconds.
 File lengths (MBytes):  RWF=      5 Int=      0 D2E=      0 Chk=      1 Scr=      1
 Normal termination of Gaussian 09 at Sun Sep 15 16:40:28 2024.
