 Entering Gaussian System, Link 0=/programs/64bit/g09/g09-gfortran/bin/g09
 Input=ch3_cc-pVTZ.com
 Output=ch3_cc-pVTZ.log
 Initial command:
 /programs/64bit/g09/g09-gfortran/bin/l1.exe /home/ospite/Desktop/MMfP/Project6/CH3/g09/DFT/B3PW91/Gau-18152.inp -scrdir=/home/ospite/Desktop/MMfP/Project6/CH3/g09/DFT/B3PW91/
 Entering Link 1 = /programs/64bit/g09/g09-gfortran/bin/l1.exe PID=     18153.
  
 Copyright (c) 1988,1990,1992,1993,1995,1998,2003,2009, Gaussian, Inc.
                  All Rights Reserved.
  
 This is part of the Gaussian(R) 09 program.  It is based on
 the Gaussian(R) 03 system (copyright 2003, Gaussian, Inc.),
 the Gaussian(R) 98 system (copyright 1998, Gaussian, Inc.),
 the Gaussian(R) 94 system (copyright 1995, Gaussian, Inc.),
 the Gaussian 92(TM) system (copyright 1992, Gaussian, Inc.),
 the Gaussian 90(TM) system (copyright 1990, Gaussian, Inc.),
 the Gaussian 88(TM) system (copyright 1988, Gaussian, Inc.),
 the Gaussian 86(TM) system (copyright 1986, Carnegie Mellon
 University), and the Gaussian 82(TM) system (copyright 1983,
 Carnegie Mellon University). Gaussian is a federally registered
 trademark of Gaussian, Inc.
  
 This software contains proprietary and confidential information,
 including trade secrets, belonging to Gaussian, Inc.
  
 This software is provided under written license and may be
 used, copied, transmitted, or stored only in accord with that
 written license.
  
 The following legend is applicable only to US Government
 contracts under FAR:
  
                    RESTRICTED RIGHTS LEGEND
  
 Use, reproduction and disclosure by the US Government is
 subject to restrictions as set forth in subparagraphs (a)
 and (c) of the Commercial Computer Software - Restricted
 Rights clause in FAR 52.227-19.
  
 Gaussian, Inc.
 340 Quinnipiac St., Bldg. 40, Wallingford CT 06492
  
  
 ---------------------------------------------------------------
 Warning -- This program may not be used in any manner that
 competes with the business of Gaussian, Inc. or will provide
 assistance to any competitor of Gaussian, Inc.  The licensee
 of this program is prohibited from giving any competitor of
 Gaussian, Inc. access to this program.  By using this program,
 the user acknowledges that Gaussian, Inc. is engaged in the
 business of creating and licensing software in the field of
 computational chemistry and represents and warrants to the
 licensee that it is not a competitor of Gaussian, Inc. and that
 it will not use this program in any manner prohibited above.
 ---------------------------------------------------------------
  

 Cite this work as:
 Gaussian 09, Revision A.02,
 M. J. Frisch, G. W. Trucks, H. B. Schlegel, G. E. Scuseria, 
 M. A. Robb, J. R. Cheeseman, G. Scalmani, V. Barone, B. Mennucci, 
 G. A. Petersson, H. Nakatsuji, M. Caricato, X. Li, H. P. Hratchian, 
 A. F. Izmaylov, J. Bloino, G. Zheng, J. L. Sonnenberg, M. Hada, 
 M. Ehara, K. Toyota, R. Fukuda, J. Hasegawa, M. Ishida, T. Nakajima, 
 Y. Honda, O. Kitao, H. Nakai, T. Vreven, J. A. Montgomery, Jr., 
 J. E. Peralta, F. Ogliaro, M. Bearpark, J. J. Heyd, E. Brothers, 
 K. N. Kudin, V. N. Staroverov, R. Kobayashi, J. Normand, 
 K. Raghavachari, A. Rendell, J. C. Burant, S. S. Iyengar, J. Tomasi, 
 M. Cossi, N. Rega, J. M. Millam, M. Klene, J. E. Knox, J. B. Cross, 
 V. Bakken, C. Adamo, J. Jaramillo, R. Gomperts, R. E. Stratmann, 
 O. Yazyev, A. J. Austin, R. Cammi, C. Pomelli, J. W. Ochterski, 
 R. L. Martin, K. Morokuma, V. G. Zakrzewski, G. A. Voth, 
 P. Salvador, J. J. Dannenberg, S. Dapprich, A. D. Daniels, 
 O. Farkas, J. B. Foresman, J. V. Ortiz, J. Cioslowski, 
 and D. J. Fox, Gaussian, Inc., Wallingford CT, 2009.
 
 ******************************************
 Gaussian 09:  EM64L-G09RevA.02 11-Jun-2009
                17-Aug-2024 
 ******************************************
 %mem=100MB
 --------------------------------------------------------------------
 #p b3pw91/cc-pVTZ opt freq symmetry=(follow,pg=C3v) pop=full gfinput
 --------------------------------------------------------------------
 1/14=-1,18=20,19=15,26=3,38=1/1,3;
 2/9=110,12=2,17=6,18=5,19=2314885530821997379,40=1/2;
 3/5=16,6=1,11=2,16=1,24=10,25=1,30=1,71=1,74=-6/1,2,3;
 4//1;
 5/5=2,38=5/2;
 6/7=3,28=1/1;
 7//1,2,3,16;
 1/14=-1,18=20,19=15/3(2);
 2/9=110,15=5,19=2314885530821997379/2;
 99//99;
 2/9=110,15=5,19=2314885530821997379/2;
 3/5=16,6=1,11=2,16=1,25=1,30=1,71=1,74=-6/1,2,3;
 4/5=5,16=3/1;
 5/5=2,38=5/2;
 7//1,2,3,16;
 1/14=-1,18=20,19=15/3(-5);
 2/9=110,15=5,19=2314885530821997379/2;
 6/7=3,19=2,28=1/1;
 99/9=1/99;
 Leave Link    1 at Sat Aug 17 23:45:13 2024, MaxMem=   13107200 cpu:       0.1
 (Enter /programs/64bit/g09/g09-gfortran/bin/l101.exe)
 --------------------------------------------------
 methyl with imposed symmetry and cc-pVTZ basis set
 --------------------------------------------------
 Symbolic Z-matrix:
 Charge =  0 Multiplicity = 2
 C1
 H2                   1    d
 H3                   1    d        2    a
 H4                   1    d        2    -a       3    t        0
       Variables:
  d                     1.09                     
  a                   120.                       
  t                     0.                       
 
 NAtoms=      4 NQM=      4 NQMF=      0 NMic=      0 NMicF=      0 NTot=      4.
                    Isotopes and Nuclear Properties:
 (Nuclear quadrupole moments (NQMom) in fm**2, nuclear magnetic moments (NMagM)
  in nuclear magnetons)

  Atom         1           2           3           4
 IAtWgt=          12           1           1           1
 AtmWgt=  12.0000000   1.0078250   1.0078250   1.0078250
 NucSpn=           0           1           1           1
 AtZEff=   0.0000000   0.0000000   0.0000000   0.0000000
 NQMom=    0.0000000   0.0000000   0.0000000   0.0000000
 NMagM=    0.0000000   2.7928460   2.7928460   2.7928460
 Leave Link  101 at Sat Aug 17 23:45:13 2024, MaxMem=   13107200 cpu:       0.1
 (Enter /programs/64bit/g09/g09-gfortran/bin/l103.exe)

 GradGradGradGradGradGradGradGradGradGradGradGradGradGradGradGradGradGrad
 Berny optimization.
 Initialization pass.
                           ----------------------------
                           !    Initial Parameters    !
                           ! (Angstroms and Degrees)  !
 --------------------------                            --------------------------
 ! Name  Definition              Value          Derivative Info.                !
 --------------------------------------------------------------------------------
 ! R1    R(1,2)                  1.09           estimate D2E/DX2                !
 ! R2    R(1,3)                  1.09           estimate D2E/DX2                !
 ! R3    R(1,4)                  1.09           estimate D2E/DX2                !
 ! A1    A(2,1,3)              120.0            estimate D2E/DX2                !
 ! A2    A(2,1,4)              120.0            estimate D2E/DX2                !
 ! A3    A(3,1,4)              120.0            estimate D2E/DX2                !
 ! D1    D(2,1,4,3)            180.0            estimate D2E/DX2                !
 --------------------------------------------------------------------------------
 Trust Radius=3.00D-01 FncErr=1.00D-07 GrdErr=1.00D-06
 Number of steps in this run=  20 maximum allowed number of steps= 100.
 GradGradGradGradGradGradGradGradGradGradGradGradGradGradGradGradGradGrad

 Leave Link  103 at Sat Aug 17 23:45:13 2024, MaxMem=   13107200 cpu:       0.0
 (Enter /programs/64bit/g09/g09-gfortran/bin/l202.exe)
                          Input orientation:                          
 ---------------------------------------------------------------------
 Center     Atomic      Atomic             Coordinates (Angstroms)
 Number     Number       Type             X           Y           Z
 ---------------------------------------------------------------------
      1          6           0        0.000000    0.000000    0.000000
      2          1           0        0.000000    0.000000    1.090000
      3          1           0        0.943968    0.000000   -0.545000
      4          1           0       -0.943968    0.000000   -0.545000
 ---------------------------------------------------------------------
                    Distance matrix (angstroms):
                    1          2          3          4
     1  C    0.000000
     2  H    1.090000   0.000000
     3  H    1.090000   1.887935   0.000000
     4  H    1.090000   1.887935   1.887935   0.000000
 Symm:  InNGrp=C3V  InAxis=0.
 This structure is nearly, but not quite of a higher symmetry.
 Consider Symm=Loose if the higher symmetry is desired.
 Stoichiometry    CH3(2)
 Framework group  C2[C2(CH),X(H2)]
 Deg. of freedom     3
 Full point group                 C2      NOp   2
 Largest Abelian subgroup         C2      NOp   2
 Largest concise Abelian subgroup C2      NOp   2
                         Standard orientation:                         
 ---------------------------------------------------------------------
 Center     Atomic      Atomic             Coordinates (Angstroms)
 Number     Number       Type             X           Y           Z
 ---------------------------------------------------------------------
      1          6           0        0.000000    0.000000    0.000000
      2          1           0        0.000000    0.000000    1.090000
      3          1           0        0.000000    0.943968   -0.545000
      4          1           0       -0.000000   -0.943968   -0.545000
 ---------------------------------------------------------------------
 Rotational constants (GHZ):    281.3764836    281.3764836    140.6882418
 Leave Link  202 at Sat Aug 17 23:45:13 2024, MaxMem=   13107200 cpu:       0.0
 (Enter /programs/64bit/g09/g09-gfortran/bin/l301.exe)
 Standard basis: CC-pVTZ (5D, 7F)
 Ernie: Thresh=  0.10000D-02 Tol=  0.10000D-05 Strict=F.
 Ernie:  3 primitive shells out of 50 were deleted.
 AO basis set in the form of general basis input (Overlap normalization):
      1 0
 S   7 1.00       0.000000000000
      0.8236000000D+04  0.5419783203D-03
      0.1235000000D+04  0.4192873817D-02
      0.2808000000D+03  0.2152216205D-01
      0.7927000000D+02  0.8353432195D-01
      0.2559000000D+02  0.2395828457D+00
      0.8997000000D+01  0.4428528419D+00
      0.3319000000D+01  0.3517995618D+00
 S   6 1.00       0.000000000000
      0.2808000000D+03 -0.5949224937D-04
      0.7927000000D+02 -0.1148158310D-02
      0.2559000000D+02 -0.1001913745D-01
      0.8997000000D+01 -0.6121949230D-01
      0.3319000000D+01 -0.1732698541D+00
      0.3643000000D+00  0.1072915192D+01
 S   1 1.00       0.000000000000
      0.9059000000D+00  0.1000000000D+01
 S   1 1.00       0.000000000000
      0.1285000000D+00  0.1000000000D+01
 P   3 1.00       0.000000000000
      0.1871000000D+02  0.3942638716D-01
      0.4133000000D+01  0.2440889849D+00
      0.1200000000D+01  0.8154920089D+00
 P   1 1.00       0.000000000000
      0.3827000000D+00  0.1000000000D+01
 P   1 1.00       0.000000000000
      0.1209000000D+00  0.1000000000D+01
 D   1 1.00       0.000000000000
      0.1097000000D+01  0.1000000000D+01
 D   1 1.00       0.000000000000
      0.3180000000D+00  0.1000000000D+01
 F   1 1.00       0.000000000000
      0.7610000000D+00  0.1000000000D+01
 ****
      2 0
 S   3 1.00       0.000000000000
      0.3387000000D+02  0.2549486323D-01
      0.5095000000D+01  0.1903627659D+00
      0.1159000000D+01  0.8521620222D+00
 S   1 1.00       0.000000000000
      0.3258000000D+00  0.1000000000D+01
 S   1 1.00       0.000000000000
      0.1027000000D+00  0.1000000000D+01
 P   1 1.00       0.000000000000
      0.1407000000D+01  0.1000000000D+01
 P   1 1.00       0.000000000000
      0.3880000000D+00  0.1000000000D+01
 D   1 1.00       0.000000000000
      0.1057000000D+01  0.1000000000D+01
 ****
      3 0
 S   3 1.00       0.000000000000
      0.3387000000D+02  0.2549486323D-01
      0.5095000000D+01  0.1903627659D+00
      0.1159000000D+01  0.8521620222D+00
 S   1 1.00       0.000000000000
      0.3258000000D+00  0.1000000000D+01
 S   1 1.00       0.000000000000
      0.1027000000D+00  0.1000000000D+01
 P   1 1.00       0.000000000000
      0.1407000000D+01  0.1000000000D+01
 P   1 1.00       0.000000000000
      0.3880000000D+00  0.1000000000D+01
 D   1 1.00       0.000000000000
      0.1057000000D+01  0.1000000000D+01
 ****
      4 0
 S   3 1.00       0.000000000000
      0.3387000000D+02  0.2549486323D-01
      0.5095000000D+01  0.1903627659D+00
      0.1159000000D+01  0.8521620222D+00
 S   1 1.00       0.000000000000
      0.3258000000D+00  0.1000000000D+01
 S   1 1.00       0.000000000000
      0.1027000000D+00  0.1000000000D+01
 P   1 1.00       0.000000000000
      0.1407000000D+01  0.1000000000D+01
 P   1 1.00       0.000000000000
      0.3880000000D+00  0.1000000000D+01
 D   1 1.00       0.000000000000
      0.1057000000D+01  0.1000000000D+01
 ****

 There are    38 symmetry adapted basis functions of A   symmetry.
 There are    34 symmetry adapted basis functions of B   symmetry.
 Integral buffers will be    131072 words long.
 Raffenetti 2 integral format.
 Two-electron integral symmetry is turned on.
    72 basis functions,   103 primitive gaussians,    80 cartesian basis functions
     5 alpha electrons        4 beta electrons
       nuclear repulsion energy         9.5795885928 Hartrees.
 IExCor=  408 DFT=T Ex+Corr=B3PW91 ExCW=0 ScaHFX=  0.200000
 ScaDFX=  0.800000  0.720000  1.000000  0.810000 ScalE2=  1.000000  1.000000
 IRadAn=      0 IRanWt=     -1 IRanGd=            0 ICorTp=0
 NAtoms=    4 NActive=    4 NUniq=    3 SFac= 1.33D+00 NAtFMM=   80 NAOKFM=F Big=F
 Leave Link  301 at Sat Aug 17 23:45:13 2024, MaxMem=   13107200 cpu:       0.1
 (Enter /programs/64bit/g09/g09-gfortran/bin/l302.exe)
 NPDir=0 NMtPBC=     1 NCelOv=     1 NCel=       1 NClECP=     1 NCelD=      1
         NCelK=      1 NCelE2=     1 NClLst=     1 CellRange=     0.0.
 One-electron integrals computed using PRISM.
 One-electron integral symmetry used in STVInt
 NBasis=    72 RedAO= T  NBF=    38    34
 NBsUse=    72 1.00D-06 NBFU=    38    34
 Precomputing XC quadrature grid using
 IXCGrd= 2 IRadAn=           0 IRanWt=          -1 IRanGd=           0 AccXCQ= 1.00D-10.
 NRdTot=     247 NPtTot=       31236 NUsed=       33030 NTot=       33062
 NSgBfM=    80    80    80    80    80 NAtAll=     4     4.
 Leave Link  302 at Sat Aug 17 23:45:14 2024, MaxMem=   13107200 cpu:       0.2
 (Enter /programs/64bit/g09/g09-gfortran/bin/l303.exe)
 DipDrv:  MaxL=1.
 Leave Link  303 at Sat Aug 17 23:45:14 2024, MaxMem=   13107200 cpu:       0.0
 (Enter /programs/64bit/g09/g09-gfortran/bin/l401.exe)
 Harris functional with IExCor=  408 diagonalized for initial guess.
 ExpMin= 1.03D-01 ExpMax= 8.24D+03 ExpMxC= 2.81D+02 IAcc=1 IRadAn=         1 AccDes= 0.00D+00
 HarFok:  IExCor=  408 AccDes= 0.00D+00 IRadAn=         1 IDoV= 1
 ScaDFX=  1.000000  1.000000  1.000000  1.000000
 FoFCou: FMM=F IPFlag=           0 FMFlag=      100000 FMFlg1=           0
         NFxFlg=           0 DoJE=T BraDBF=F KetDBF=T FulRan=T
         Omega=  0.000000  0.000000  1.000000  0.000000  0.000000 ICntrl=     500 IOpCl=  0
         NMat0=    1 NMatS0=    1 NMatT0=    0 NMatD0=    1 NMtDS0=    0 NMtDT0=    0
         I1Cent=           4 NGrid=           0.
 Petite list used in FoFCou.
 Harris En= -39.8687374994136    
 Initial guess orbital symmetries:
 Alpha Orbitals:
       Occupied  (A) (A) (A) (B) (B)
       Virtual   (A) (A) (B) (A) (B) (A) (B) (A) (B) (A) (A) (B)
                 (B) (A) (A) (B) (B) (B) (A) (B) (A) (A) (B) (A)
                 (B) (A) (A) (B) (B) (A) (B) (A) (B) (B) (A) (B)
                 (A) (B) (A) (A) (A) (A) (B) (A) (B) (A) (B) (B)
                 (A) (B) (B) (A) (B) (A) (B) (A) (A) (B) (A) (B)
                 (B) (A) (A) (A) (B) (B) (A)
 Beta  Orbitals:
       Occupied  (A) (A) (A) (B)
       Virtual   (B) (A) (A) (B) (A) (B) (A) (B) (A) (B) (A) (A)
                 (B) (B) (A) (A) (B) (B) (B) (A) (B) (A) (A) (B)
                 (A) (B) (A) (A) (B) (B) (A) (B) (A) (B) (B) (A)
                 (B) (A) (B) (A) (A) (A) (A) (B) (A) (B) (A) (B)
                 (B) (A) (B) (B) (A) (B) (A) (B) (A) (A) (B) (A)
                 (B) (B) (A) (A) (A) (B) (B) (A)
 The electronic state of the initial guess is 2-B.
 Initial guess <Sx>= 0.0000 <Sy>= 0.0000 <Sz>= 0.5000 <S**2>= 0.7500 S= 0.5000
 Leave Link  401 at Sat Aug 17 23:45:14 2024, MaxMem=   13107200 cpu:       0.6
 (Enter /programs/64bit/g09/g09-gfortran/bin/l502.exe)
 UHF open shell SCF:
 Requested convergence on RMS density matrix=1.00D-08 within 128 cycles.
 Requested convergence on MAX density matrix=1.00D-06.
 Requested convergence on             energy=1.00D-06.
 No special actions if energy rises.
 Using DIIS extrapolation, IDIIS=  1040.
 Integral symmetry usage will be decided dynamically.
        32981 words used for storage of precomputed grid.
 Keep R1 and R2 ints in memory in canonical form, NReq=12512356.
 IEnd=       71495 IEndB=       71495 NGot=    13107200 MDV=     2557958
 LenX=     2557958 LenY=     2551117
 Symmetry not used in FoFDir.
 MinBra= 0 MaxBra= 3 Meth= 1.
 IRaf=       0 NMat=   1 IRICut=       1 DoRegI=T DoRafI=F ISym2E= 0 JSym2E=0.
 Integral accuracy reduced to 1.0D-05 until final iterations.

 Cycle   1  Pass 0  IDiag  1:
 E= -39.7985525972449    
 DIIS: error= 3.31D-02 at cycle   1 NSaved=   1.
 NSaved= 1 IEnMin= 1 EnMin= -39.7985525972449     IErMin= 1 ErrMin= 3.31D-02
 ErrMax= 3.31D-02 EMaxC= 1.00D-01 BMatC= 1.59D-01 BMatP= 1.59D-01
 IDIUse=3 WtCom= 6.69D-01 WtEn= 3.31D-01
 Coeff-Com:  0.100D+01
 Coeff-En:   0.100D+01
 Coeff:      0.100D+01
 Gap=     0.233 Goal=   None    Shift=    0.000
 Gap=     0.372 Goal=   None    Shift=    0.000
 GapD=    0.233 DampG=1.000 DampE=0.500 DampFc=0.5000 IDamp=-1.
 Damping current iteration by 5.00D-01
 RMSDP=3.19D-03 MaxDP=1.29D-01              OVMax= 1.43D-01

 Cycle   2  Pass 0  IDiag  1:
 E= -39.8195989075744     Delta-E=       -0.021046310330 Rises=F Damp=T
 DIIS: error= 9.20D-03 at cycle   2 NSaved=   2.
 NSaved= 2 IEnMin= 2 EnMin= -39.8195989075744     IErMin= 2 ErrMin= 9.20D-03
 ErrMax= 9.20D-03 EMaxC= 1.00D-01 BMatC= 6.53D-03 BMatP= 1.59D-01
 IDIUse=3 WtCom= 9.08D-01 WtEn= 9.20D-02
 Coeff-Com: -0.866D-02 0.101D+01
 Coeff-En:   0.000D+00 0.100D+01
 Coeff:     -0.786D-02 0.101D+01
 Gap=     0.295 Goal=   None    Shift=    0.000
 Gap=     0.346 Goal=   None    Shift=    0.000
 RMSDP=4.41D-04 MaxDP=1.05D-02 DE=-2.10D-02 OVMax= 8.02D-02

 Cycle   3  Pass 0  IDiag  1:
 E= -39.8413389689537     Delta-E=       -0.021740061379 Rises=F Damp=F
 DIIS: error= 1.70D-03 at cycle   3 NSaved=   3.
 NSaved= 3 IEnMin= 3 EnMin= -39.8413389689537     IErMin= 3 ErrMin= 1.70D-03
 ErrMax= 1.70D-03 EMaxC= 1.00D-01 BMatC= 2.00D-04 BMatP= 6.53D-03
 IDIUse=3 WtCom= 9.83D-01 WtEn= 1.70D-02
 Coeff-Com: -0.245D-01 0.314D-01 0.993D+00
 Coeff-En:   0.000D+00 0.000D+00 0.100D+01
 Coeff:     -0.241D-01 0.308D-01 0.993D+00
 Gap=     0.298 Goal=   None    Shift=    0.000
 Gap=     0.349 Goal=   None    Shift=    0.000
 RMSDP=8.36D-05 MaxDP=2.28D-03 DE=-2.17D-02 OVMax= 4.71D-03

 Cycle   4  Pass 0  IDiag  1:
 E= -39.8414174122359     Delta-E=       -0.000078443282 Rises=F Damp=F
 DIIS: error= 2.96D-04 at cycle   4 NSaved=   4.
 NSaved= 4 IEnMin= 4 EnMin= -39.8414174122359     IErMin= 4 ErrMin= 2.96D-04
 ErrMax= 2.96D-04 EMaxC= 1.00D-01 BMatC= 9.80D-06 BMatP= 2.00D-04
 IDIUse=3 WtCom= 9.97D-01 WtEn= 2.96D-03
 Coeff-Com:  0.257D-02-0.202D-01-0.202D+00 0.122D+01
 Coeff-En:   0.000D+00 0.000D+00 0.000D+00 0.100D+01
 Coeff:      0.257D-02-0.201D-01-0.201D+00 0.122D+01
 Gap=     0.299 Goal=   None    Shift=    0.000
 Gap=     0.349 Goal=   None    Shift=    0.000
 RMSDP=3.45D-05 MaxDP=9.49D-04 DE=-7.84D-05 OVMax= 1.40D-03

 Cycle   5  Pass 0  IDiag  1:
 E= -39.8414248706486     Delta-E=       -0.000007458413 Rises=F Damp=F
 DIIS: error= 5.51D-05 at cycle   5 NSaved=   5.
 NSaved= 5 IEnMin= 5 EnMin= -39.8414248706486     IErMin= 5 ErrMin= 5.51D-05
 ErrMax= 5.51D-05 EMaxC= 1.00D-01 BMatC= 5.34D-07 BMatP= 9.80D-06
 IDIUse=1 WtCom= 1.00D+00 WtEn= 0.00D+00
 Coeff-Com:  0.373D-03 0.578D-02 0.163D-01-0.362D+00 0.134D+01
 Coeff:      0.373D-03 0.578D-02 0.163D-01-0.362D+00 0.134D+01
 Gap=     0.299 Goal=   None    Shift=    0.000
 Gap=     0.349 Goal=   None    Shift=    0.000
 RMSDP=9.55D-06 MaxDP=1.99D-04 DE=-7.46D-06 OVMax= 4.15D-04

 Initial convergence to 1.0D-05 achieved.  Increase integral accuracy.
 Cycle   6  Pass 1  IDiag  1:
 E= -39.8414290954592     Delta-E=       -0.000004224811 Rises=F Damp=F
 DIIS: error= 7.48D-06 at cycle   1 NSaved=   1.
 NSaved= 1 IEnMin= 1 EnMin= -39.8414290954592     IErMin= 1 ErrMin= 7.48D-06
 ErrMax= 7.48D-06 EMaxC= 1.00D-01 BMatC= 1.46D-08 BMatP= 1.46D-08
 IDIUse=1 WtCom= 1.00D+00 WtEn= 0.00D+00
 Coeff-Com:  0.100D+01
 Coeff:      0.100D+01
 Gap=     0.299 Goal=   None    Shift=    0.000
 Gap=     0.349 Goal=   None    Shift=    0.000
 RMSDP=9.55D-06 MaxDP=1.99D-04 DE=-4.22D-06 OVMax= 3.36D-05

 Cycle   7  Pass 1  IDiag  1:
 E= -39.8414291008825     Delta-E=       -0.000000005423 Rises=F Damp=F
 DIIS: error= 3.34D-06 at cycle   2 NSaved=   2.
 NSaved= 2 IEnMin= 2 EnMin= -39.8414291008825     IErMin= 2 ErrMin= 3.34D-06
 ErrMax= 3.34D-06 EMaxC= 1.00D-01 BMatC= 9.20D-10 BMatP= 1.46D-08
 IDIUse=1 WtCom= 1.00D+00 WtEn= 0.00D+00
 Coeff-Com: -0.122D+00 0.112D+01
 Coeff:     -0.122D+00 0.112D+01
 Gap=     0.299 Goal=   None    Shift=    0.000
 Gap=     0.349 Goal=   None    Shift=    0.000
 RMSDP=3.05D-07 MaxDP=5.95D-06 DE=-5.42D-09 OVMax= 1.67D-05

 Cycle   8  Pass 1  IDiag  1:
 E= -39.8414291014507     Delta-E=       -0.000000000568 Rises=F Damp=F
 DIIS: error= 1.83D-06 at cycle   3 NSaved=   3.
 NSaved= 3 IEnMin= 3 EnMin= -39.8414291014507     IErMin= 3 ErrMin= 1.83D-06
 ErrMax= 1.83D-06 EMaxC= 1.00D-01 BMatC= 2.75D-10 BMatP= 9.20D-10
 IDIUse=1 WtCom= 1.00D+00 WtEn= 0.00D+00
 Coeff-Com: -0.686D-01 0.316D+00 0.753D+00
 Coeff:     -0.686D-01 0.316D+00 0.753D+00
 Gap=     0.299 Goal=   None    Shift=    0.000
 Gap=     0.349 Goal=   None    Shift=    0.000
 RMSDP=1.07D-07 MaxDP=3.39D-06 DE=-5.68D-10 OVMax= 6.22D-06

 Cycle   9  Pass 1  IDiag  1:
 E= -39.8414291015422     Delta-E=       -0.000000000091 Rises=F Damp=F
 DIIS: error= 8.41D-07 at cycle   4 NSaved=   4.
 NSaved= 4 IEnMin= 4 EnMin= -39.8414291015422     IErMin= 4 ErrMin= 8.41D-07
 ErrMax= 8.41D-07 EMaxC= 1.00D-01 BMatC= 6.17D-11 BMatP= 2.75D-10
 IDIUse=1 WtCom= 1.00D+00 WtEn= 0.00D+00
 Coeff-Com:  0.590D-02-0.211D+00 0.263D+00 0.942D+00
 Coeff:      0.590D-02-0.211D+00 0.263D+00 0.942D+00
 Gap=     0.299 Goal=   None    Shift=    0.000
 Gap=     0.349 Goal=   None    Shift=    0.000
 RMSDP=6.11D-08 MaxDP=1.32D-06 DE=-9.15D-11 OVMax= 3.38D-06

 Cycle  10  Pass 1  IDiag  1:
 E= -39.8414291015685     Delta-E=       -0.000000000026 Rises=F Damp=F
 DIIS: error= 6.78D-08 at cycle   5 NSaved=   5.
 NSaved= 5 IEnMin= 5 EnMin= -39.8414291015685     IErMin= 5 ErrMin= 6.78D-08
 ErrMax= 6.78D-08 EMaxC= 1.00D-01 BMatC= 4.32D-13 BMatP= 6.17D-11
 IDIUse=1 WtCom= 1.00D+00 WtEn= 0.00D+00
 Coeff-Com:  0.224D-02-0.389D-02-0.316D-01-0.388D-01 0.107D+01
 Coeff:      0.224D-02-0.389D-02-0.316D-01-0.388D-01 0.107D+01
 Gap=     0.299 Goal=   None    Shift=    0.000
 Gap=     0.349 Goal=   None    Shift=    0.000
 RMSDP=7.87D-09 MaxDP=3.09D-07 DE=-2.63D-11 OVMax= 3.52D-07

 SCF Done:  E(UB3PW91) =  -39.8414291016     A.U. after   10 cycles
             Convg  =    0.7866D-08             -V/T =  2.0087
 <Sx>= 0.0000 <Sy>= 0.0000 <Sz>= 0.5000 <S**2>= 0.7545 S= 0.5023
 <L.S>=  0.00000000000    
 KE= 3.949628817172D+01 PE=-1.110053406177D+02 EE= 2.208803475161D+01
 Annihilation of the first spin contaminant:
 S**2 before annihilation     0.7545,   after     0.7500
 Leave Link  502 at Sat Aug 17 23:45:28 2024, MaxMem=   13107200 cpu:      12.9
 (Enter /programs/64bit/g09/g09-gfortran/bin/l601.exe)
 Copying SCF densities to generalized density rwf, IOpCl= 1 IROHF=0.

 **********************************************************************

            Population analysis using the SCF density.

 **********************************************************************

 Orbital symmetries:
 Alpha Orbitals:
       Occupied  (A) (A) (A) (B) (B)
       Virtual   (A) (B) (A) (B) (A) (B) (A) (A) (A) (B) (A) (B)
                 (B) (A) (B) (A) (B) (A) (B) (A) (B) (B) (A) (A)
                 (B) (A) (B) (A) (B) (A) (A) (B) (B) (B) (A) (B)
                 (A) (A) (B) (A) (A) (A) (B) (A) (B) (A) (B) (B)
                 (A) (B) (B) (A) (B) (A) (B) (A) (A) (B) (B) (A)
                 (A) (B) (A) (A) (B) (B) (A)
 Beta  Orbitals:
       Occupied  (A) (A) (A) (B)
       Virtual   (B) (A) (B) (A) (B) (A) (A) (B) (A) (B) (A) (A)
                 (B) (B) (B) (A) (A) (B) (A) (B) (A) (B) (B) (A)
                 (A) (B) (A) (B) (A) (A) (B) (A) (B) (B) (B) (A)
                 (B) (A) (A) (B) (A) (A) (A) (B) (A) (B) (B) (A)
                 (B) (A) (B) (B) (A) (B) (A) (B) (A) (A) (B) (B)
                 (A) (A) (B) (A) (B) (A) (B) (A)
 The electronic state is 2-B.
 Alpha  occ. eigenvalues --  -10.17759  -0.68932  -0.42180  -0.42180  -0.23989
 Alpha virt. eigenvalues --    0.05875   0.12659   0.12659   0.25611   0.25611
 Alpha virt. eigenvalues --    0.30599   0.32761   0.47394   0.47963   0.47963
 Alpha virt. eigenvalues --    0.54946   0.54946   0.82981   0.87323   0.89205
 Alpha virt. eigenvalues --    0.89206   0.95547   1.06710   1.06710   1.24713
 Alpha virt. eigenvalues --    1.24713   1.31911   1.31911   1.53670   2.01096
 Alpha virt. eigenvalues --    2.09659   2.23485   2.23485   2.50628   2.50628
 Alpha virt. eigenvalues --    2.57325   2.57325   2.82743   2.85903   2.87674
 Alpha virt. eigenvalues --    2.89642   2.89643   2.95362   2.95362   3.18868
 Alpha virt. eigenvalues --    3.20306   3.33450   3.33451   3.58174   3.58174
 Alpha virt. eigenvalues --    3.61565   3.61565   3.85548   3.87096   3.88408
 Alpha virt. eigenvalues --    3.93115   3.93115   4.06115   4.06116   4.64136
 Alpha virt. eigenvalues --    4.76117   4.78649   4.78649   4.85322   4.85322
 Alpha virt. eigenvalues --    4.90155   4.90155   5.48495   5.61929   5.61929
 Alpha virt. eigenvalues --    6.11994  12.39681
  Beta  occ. eigenvalues --  -10.16236  -0.64583  -0.41115  -0.41115
  Beta virt. eigenvalues --   -0.06170   0.06892   0.13027   0.13027   0.26298
  Beta virt. eigenvalues --    0.26298   0.36590   0.37903   0.48724   0.48724
  Beta virt. eigenvalues --    0.49857   0.58279   0.58279   0.82760   0.89975
  Beta virt. eigenvalues --    0.89976   0.91930   0.97700   1.09626   1.09626
  Beta virt. eigenvalues --    1.25164   1.25164   1.32353   1.32353   1.55509
  Beta virt. eigenvalues --    2.10948   2.11077   2.25692   2.25692   2.53303
  Beta virt. eigenvalues --    2.53303   2.60999   2.60999   2.82708   2.90872
  Beta virt. eigenvalues --    2.90872   2.92084   2.96673   3.00272   3.00272
  Beta virt. eigenvalues --    3.18970   3.21214   3.33780   3.33780   3.58800
  Beta virt. eigenvalues --    3.58800   3.63090   3.63090   3.84999   3.87225
  Beta virt. eigenvalues --    3.89003   3.92908   3.92909   4.07075   4.07075
  Beta virt. eigenvalues --    4.66104   4.77043   4.79307   4.79307   4.85390
  Beta virt. eigenvalues --    4.85391   4.93514   4.93515   5.49793   5.62445
  Beta virt. eigenvalues --    5.62445   6.12410  12.42492
     Alpha Molecular Orbital Coefficients:
                           1         2         3         4         5
                           O         O         O         O         O
     Eigenvalues --   -10.17759  -0.68932  -0.42180  -0.42180  -0.23989
   1 1   C  1S          0.97547  -0.19385   0.00000   0.00000   0.00000
   2        2S          0.00293   0.44141   0.00000   0.00000   0.00000
   3        3S          0.05121   0.11152   0.00000   0.00000   0.00000
   4        4S          0.01658   0.22388   0.00001   0.00000   0.00000
   5        5PX         0.00000   0.00000   0.00000  -0.00000   0.33165
   6        5PY         0.00000   0.00000   0.00000   0.25644  -0.00000
   7        5PZ         0.00000   0.00000   0.25644   0.00000   0.00000
   8        6PX         0.00000   0.00000   0.00000  -0.00000   0.43462
   9        6PY         0.00000   0.00000   0.00000   0.28736   0.00000
  10        6PZ         0.00000   0.00000   0.28736   0.00000   0.00000
  11        7PX         0.00000   0.00000   0.00000  -0.00000   0.40054
  12        7PY         0.00000   0.00000   0.00000   0.13740   0.00000
  13        7PZ         0.00000   0.00000   0.13739   0.00000   0.00000
  14        8D 0        0.00059   0.00095   0.01083   0.00000   0.00000
  15        8D+1        0.00000   0.00000   0.00000  -0.00000  -0.00000
  16        8D-1        0.00000   0.00000   0.00000  -0.01250  -0.00000
  17        8D+2       -0.00102  -0.00165   0.00625   0.00000   0.00000
  18        8D-2        0.00000   0.00000   0.00000   0.00000   0.00000
  19        9D 0        0.00176  -0.00068   0.00893   0.00000   0.00000
  20        9D+1        0.00000   0.00000   0.00000   0.00000   0.00000
  21        9D-1        0.00000   0.00000   0.00000  -0.01031  -0.00000
  22        9D+2       -0.00305   0.00119   0.00515   0.00000   0.00000
  23        9D-2        0.00000  -0.00000   0.00000   0.00000   0.00000
  24       10F 0        0.00161   0.00298  -0.00153   0.00000   0.00000
  25       10F+1        0.00000   0.00000   0.00000   0.00000  -0.00197
  26       10F-1        0.00000   0.00000   0.00000  -0.00063   0.00000
  27       10F+2        0.00125   0.00231   0.00198   0.00000   0.00000
  28       10F-2       -0.00000   0.00000  -0.00000   0.00000   0.00000
  29       10F+3        0.00000   0.00000   0.00000   0.00000   0.00254
  30       10F-3        0.00000   0.00000   0.00000   0.00242  -0.00000
  31 2   H  1S          0.00011   0.08943   0.17111   0.00000   0.00000
  32        2S         -0.00859   0.09897   0.24807   0.00000   0.00000
  33        3S         -0.00252   0.01386   0.09794   0.00000   0.00000
  34        4PX         0.00000   0.00000   0.00000   0.00000   0.00926
  35        4PY         0.00000   0.00000   0.00000   0.00526   0.00000
  36        4PZ         0.00108  -0.00864  -0.01291   0.00000   0.00000
  37        5PX         0.00000   0.00000   0.00000  -0.00000   0.02130
  38        5PY         0.00000   0.00000   0.00000   0.01175   0.00000
  39        5PZ         0.00463  -0.00729  -0.01282   0.00000   0.00000
  40        6D 0       -0.00158   0.00192   0.00356   0.00000   0.00000
  41        6D+1        0.00000   0.00000   0.00000   0.00000  -0.00407
  42        6D-1        0.00000   0.00000   0.00000  -0.00275   0.00000
  43        6D+2       -0.00004   0.00017   0.00041   0.00000   0.00000
  44        6D-2        0.00000   0.00000  -0.00000   0.00000   0.00000
  45 3   H  1S          0.00011   0.08943  -0.08556   0.14819   0.00000
  46        2S         -0.00859   0.09898  -0.12404   0.21483  -0.00000
  47        3S         -0.00252   0.01387  -0.04897   0.08482  -0.00000
  48        4PX        -0.00000  -0.00000  -0.00000  -0.00000   0.00926
  49        4PY         0.00094  -0.00748   0.00787  -0.00837   0.00000
  50        4PZ        -0.00054   0.00432   0.00072   0.00787  -0.00000
  51        5PX         0.00000   0.00000   0.00000   0.00000   0.02130
  52        5PY         0.00401  -0.00631   0.01064  -0.00668   0.00000
  53        5PZ        -0.00231   0.00364   0.00561   0.01064  -0.00000
  54        6D 0        0.00022  -0.00035   0.00214   0.00042   0.00000
  55        6D+1       -0.00000   0.00000   0.00000  -0.00000   0.00203
  56        6D-1        0.00121  -0.00151   0.00023  -0.00315   0.00000
  57        6D+2        0.00100  -0.00114   0.00206  -0.00119   0.00000
  58        6D-2        0.00000  -0.00000   0.00000  -0.00000  -0.00352
  59 4   H  1S          0.00011   0.08943  -0.08556  -0.14819  -0.00000
  60        2S         -0.00859   0.09898  -0.12404  -0.21483   0.00000
  61        3S         -0.00252   0.01387  -0.04897  -0.08482   0.00000
  62        4PX         0.00000   0.00000   0.00000  -0.00000   0.00926
  63        4PY        -0.00094   0.00748  -0.00787  -0.00837   0.00000
  64        4PZ        -0.00054   0.00432   0.00072  -0.00787   0.00000
  65        5PX        -0.00000  -0.00000  -0.00000   0.00000   0.02130
  66        5PY        -0.00401   0.00631  -0.01064  -0.00668   0.00000
  67        5PZ        -0.00231   0.00364   0.00561  -0.01064   0.00000
  68        6D 0        0.00022  -0.00035   0.00214  -0.00042  -0.00000
  69        6D+1        0.00000  -0.00000  -0.00000  -0.00000   0.00203
  70        6D-1       -0.00121   0.00151  -0.00023  -0.00315   0.00000
  71        6D+2        0.00100  -0.00114   0.00206   0.00119  -0.00000
  72        6D-2        0.00000  -0.00000   0.00000   0.00000   0.00352
                           6         7         8         9        10
                           V         V         V         V         V
     Eigenvalues --     0.05875   0.12659   0.12659   0.25611   0.25611
   1 1   C  1S         -0.10236   0.00000   0.00000   0.00000   0.00000
   2        2S          0.31528   0.00000   0.00000   0.00000   0.00001
   3        3S          0.08670   0.00000  -0.00000   0.00000  -0.00000
   4        4S          2.56525   0.00000   0.00001   0.00000   0.00024
   5        5PX         0.00000   0.00000   0.00000   0.00000   0.00000
   6        5PY         0.00000  -0.19014   0.00000  -0.08135   0.00000
   7        5PZ         0.00000   0.00000  -0.19014   0.00000  -0.08135
   8        6PX         0.00000   0.00000   0.00000   0.00000   0.00000
   9        6PY         0.00000  -0.36264   0.00000   0.45723   0.00000
  10        6PZ        -0.00002   0.00000  -0.36264   0.00000   0.45723
  11        7PX         0.00000   0.00000   0.00000  -0.00000   0.00000
  12        7PY         0.00000  -1.53237   0.00000   2.06971   0.00000
  13        7PZ        -0.00003   0.00000  -1.53239   0.00000   2.06969
  14        8D 0       -0.00465   0.00000   0.00840   0.00000  -0.01515
  15        8D+1        0.00000  -0.00000   0.00000  -0.00000   0.00000
  16        8D-1        0.00000  -0.00970   0.00000   0.01750   0.00000
  17        8D+2        0.00805   0.00000   0.00485   0.00000  -0.00875
  18        8D-2        0.00000   0.00000   0.00000   0.00000  -0.00000
  19        9D 0        0.03701   0.00000  -0.04891   0.00000   0.41601
  20        9D+1        0.00000  -0.00000   0.00000  -0.00000   0.00000
  21        9D-1        0.00000   0.05648   0.00000  -0.48035   0.00000
  22        9D+2       -0.06413   0.00000  -0.02824   0.00000   0.24016
  23        9D-2       -0.00000   0.00000   0.00000   0.00000  -0.00000
  24       10F 0        0.00749   0.00000  -0.00232   0.00000   0.02784
  25       10F+1        0.00000  -0.00000   0.00000   0.00000   0.00000
  26       10F-1        0.00000  -0.00095   0.00000   0.01136   0.00000
  27       10F+2        0.00580   0.00000   0.00299   0.00000  -0.03593
  28       10F-2        0.00000   0.00000  -0.00000   0.00000   0.00000
  29       10F+3        0.00000  -0.00000   0.00000   0.00000   0.00000
  30       10F-3        0.00000   0.00366   0.00000  -0.04401   0.00000
  31 2   H  1S         -0.02741   0.00000   0.02764   0.00000  -0.06722
  32        2S         -0.18985   0.00000   0.19267   0.00000  -1.73270
  33        3S         -1.13309   0.00000   2.44864   0.00000  -0.52823
  34        4PX         0.00000  -0.00000   0.00000   0.00000   0.00000
  35        4PY         0.00000  -0.01319   0.00000   0.00558   0.00000
  36        4PZ        -0.01541   0.00000   0.02253   0.00000   0.03235
  37        5PX         0.00000   0.00000   0.00000   0.00000   0.00000
  38        5PY         0.00000   0.00492   0.00000   0.17146   0.00000
  39        5PZ         0.08520   0.00000  -0.10554   0.00000   0.35405
  40        6D 0       -0.00418   0.00000   0.00682   0.00000  -0.03240
  41        6D+1        0.00000  -0.00000   0.00000   0.00000   0.00000
  42        6D-1        0.00000   0.00214   0.00000  -0.00915   0.00000
  43        6D+2        0.00235   0.00000   0.00148   0.00000  -0.00817
  44        6D-2       -0.00000   0.00000   0.00000   0.00000   0.00000
  45 3   H  1S         -0.02741   0.02394  -0.01382  -0.05821   0.03361
  46        2S         -0.18990   0.16685  -0.09634  -1.50049   0.86622
  47        3S         -1.13312   2.12057  -1.22432  -0.45746   0.26407
  48        4PX         0.00000   0.00000   0.00000  -0.00000   0.00000
  49        4PY        -0.01335   0.01361  -0.01547   0.02566  -0.01159
  50        4PZ         0.00771  -0.01547  -0.00426  -0.01159   0.01227
  51        5PX         0.00000  -0.00000   0.00000   0.00000  -0.00000
  52        5PY         0.07380  -0.07793   0.04783   0.30839  -0.07904
  53        5PZ        -0.04261   0.04783  -0.02269  -0.07906   0.21710
  54        6D 0       -0.00100  -0.00237  -0.00049   0.01153   0.00126
  55        6D+1        0.00000  -0.00000  -0.00000   0.00000   0.00000
  56        6D-1        0.00212  -0.00445   0.00381   0.02182  -0.01788
  57        6D+2        0.00419  -0.00350   0.00095   0.01578  -0.00454
  58        6D-2       -0.00000   0.00000   0.00000  -0.00000  -0.00000
  59 4   H  1S         -0.02741  -0.02394  -0.01382   0.05821   0.03361
  60        2S         -0.18990  -0.16685  -0.09634   1.50049   0.86622
  61        3S         -1.13312  -2.12057  -1.22432   0.45746   0.26407
  62        4PX        -0.00000   0.00000  -0.00000  -0.00000  -0.00000
  63        4PY         0.01335   0.01361   0.01547   0.02566   0.01159
  64        4PZ         0.00771   0.01547  -0.00426   0.01159   0.01227
  65        5PX        -0.00000  -0.00000  -0.00000   0.00000   0.00000
  66        5PY        -0.07380  -0.07793  -0.04783   0.30839   0.07904
  67        5PZ        -0.04261  -0.04783  -0.02269   0.07906   0.21710
  68        6D 0       -0.00100   0.00237  -0.00049  -0.01153   0.00126
  69        6D+1       -0.00000  -0.00000   0.00000   0.00000  -0.00000
  70        6D-1       -0.00212  -0.00445  -0.00381   0.02182   0.01788
  71        6D+2        0.00419   0.00350   0.00095  -0.01578  -0.00454
  72        6D-2       -0.00000  -0.00000   0.00000   0.00000  -0.00000
                          11        12        13        14        15
                           V         V         V         V         V
     Eigenvalues --     0.30599   0.32761   0.47394   0.47963   0.47963
   1 1   C  1S          0.00000  -0.03990   0.15698   0.00005   0.00000
   2        2S          0.00000   0.06918  -0.34455  -0.00010   0.00000
   3        3S          0.00000  -0.02282  -0.21786  -0.00006   0.00000
   4        4S          0.00000   1.60499   7.32291   0.00211   0.00000
   5        5PX        -0.26701   0.00000   0.00000   0.00000  -0.00000
   6        5PY         0.00000   0.00000   0.00000   0.00000  -0.32806
   7        5PZ         0.00000   0.00000  -0.00009   0.32806   0.00000
   8        6PX        -0.77951   0.00000   0.00000   0.00000  -0.00000
   9        6PY        -0.00000   0.00000   0.00000   0.00000   0.22422
  10        6PZ         0.00000   0.00001   0.00008  -0.22422   0.00000
  11        7PX         1.27061   0.00000   0.00000   0.00000   0.00000
  12        7PY        -0.00000   0.00000   0.00000   0.00000   2.81974
  13        7PZ         0.00000  -0.00006   0.00081  -2.81974   0.00000
  14        8D 0        0.00000  -0.00690   0.02464  -0.03450   0.00000
  15        8D+1        0.00000   0.00000   0.00000   0.00000  -0.00000
  16        8D-1        0.00000   0.00000   0.00000   0.00000  -0.03984
  17        8D+2        0.00000   0.01196  -0.04265  -0.01993   0.00000
  18        8D-2        0.00000   0.00000   0.00000   0.00000   0.00000
  19        9D 0        0.00000  -0.04938   0.33068  -0.64291   0.00000
  20        9D+1       -0.00000   0.00000   0.00000   0.00000  -0.00000
  21        9D-1        0.00000   0.00000   0.00000   0.00000  -0.74247
  22        9D+2        0.00000   0.08553  -0.57231  -0.37139   0.00000
  23        9D-2        0.00000   0.00000   0.00000   0.00000   0.00000
  24       10F 0        0.00000   0.03436   0.10161  -0.03123   0.00000
  25       10F+1        0.00596   0.00000   0.00000   0.00000   0.00000
  26       10F-1       -0.00000   0.00000   0.00000   0.00000   0.01276
  27       10F+2        0.00000   0.02662   0.07869   0.04038   0.00000
  28       10F-2        0.00000  -0.00000  -0.00000  -0.00000   0.00000
  29       10F+3       -0.00769   0.00000   0.00000   0.00000  -0.00000
  30       10F-3        0.00000   0.00000   0.00000   0.00000  -0.04943
  31 2   H  1S          0.00000  -0.09727   0.07858  -0.12112   0.00000
  32        2S          0.00000  -0.94903  -1.16897   0.63502   0.00000
  33        3S          0.00000   0.13712  -1.71074   2.92344   0.00000
  34        4PX         0.00935   0.00000   0.00000   0.00000   0.00000
  35        4PY         0.00000   0.00000   0.00000   0.00000   0.01081
  36        4PZ         0.00000   0.01892   0.01010  -0.00365   0.00000
  37        5PX        -0.07146   0.00000   0.00000   0.00000  -0.00000
  38        5PY         0.00000   0.00000   0.00000   0.00000  -0.11365
  39        5PZ         0.00000   0.00688   0.76272  -0.78945   0.00000
  40        6D 0        0.00000  -0.01438  -0.05741   0.04611   0.00000
  41        6D+1        0.00122   0.00000   0.00000   0.00000   0.00000
  42        6D-1       -0.00000   0.00000   0.00000   0.00000   0.00363
  43        6D+2        0.00000   0.00130   0.01002   0.00349   0.00000
  44        6D-2        0.00000  -0.00000  -0.00000  -0.00000   0.00000
  45 3   H  1S         -0.00000  -0.09728   0.07852   0.06059   0.10491
  46        2S          0.00000  -0.94910  -1.16868  -0.31801  -0.55024
  47        3S          0.00000   0.13713  -1.70945  -1.46245  -2.53220
  48        4PX         0.00935   0.00000  -0.00000  -0.00000   0.00000
  49        4PY        -0.00000   0.01639   0.00875  -0.00310   0.00544
  50        4PZ         0.00000  -0.00946  -0.00505  -0.00902   0.00310
  51        5PX        -0.07146  -0.00000   0.00000   0.00000  -0.00000
  52        5PY        -0.00000   0.00595   0.66021   0.39133   0.56384
  53        5PZ         0.00000  -0.00345  -0.38121  -0.11230  -0.39114
  54        6D 0       -0.00000   0.00095   0.00066   0.00637   0.00559
  55        6D+1       -0.00061  -0.00000  -0.00000  -0.00000  -0.00000
  56        6D-1       -0.00000   0.01022   0.03870   0.01649   0.03217
  57        6D+2       -0.00000   0.01015   0.04354   0.01526   0.02327
  58        6D-2        0.00106   0.00000   0.00000   0.00000  -0.00000
  59 4   H  1S          0.00000  -0.09728   0.07852   0.06059  -0.10491
  60        2S         -0.00000  -0.94910  -1.16868  -0.31801   0.55024
  61        3S         -0.00000   0.13713  -1.70945  -1.46245   2.53220
  62        4PX         0.00935  -0.00000   0.00000   0.00000   0.00000
  63        4PY        -0.00000  -0.01639  -0.00875   0.00310   0.00544
  64        4PZ        -0.00000  -0.00946  -0.00505  -0.00902  -0.00310
  65        5PX        -0.07146   0.00000  -0.00000  -0.00000  -0.00000
  66        5PY        -0.00000  -0.00595  -0.66021  -0.39133   0.56384
  67        5PZ        -0.00000  -0.00345  -0.38121  -0.11230   0.39114
  68        6D 0        0.00000   0.00095   0.00066   0.00637  -0.00559
  69        6D+1       -0.00061   0.00000   0.00000   0.00000  -0.00000
  70        6D-1       -0.00000  -0.01022  -0.03870  -0.01649   0.03217
  71        6D+2        0.00000   0.01015   0.04354   0.01526  -0.02327
  72        6D-2       -0.00106   0.00000   0.00000   0.00000   0.00000
                          16        17        18        19        20
                           V         V         V         V         V
     Eigenvalues --     0.54946   0.54946   0.82981   0.87323   0.89205
   1 1   C  1S         -0.00000   0.00000   0.00000  -0.01066   0.00000
   2        2S          0.00000   0.00000   0.00000   0.04311   0.00000
   3        3S          0.00000   0.00000   0.00000  -0.11318   0.00000
   4        4S         -0.00000   0.00000   0.00000   2.86143   0.00000
   5        5PX         0.00000  -0.00000  -0.00000   0.00000   0.00000
   6        5PY         0.00000  -0.00000  -0.00000   0.00000   0.13048
   7        5PZ        -0.00000   0.00000   0.00000   0.00003   0.00000
   8        6PX         0.00000  -0.00000   0.00000   0.00000  -0.00000
   9        6PY         0.00000  -0.00000  -0.00004   0.00000   1.05942
  10        6PZ        -0.00000   0.00000   0.00000   0.00029   0.00000
  11        7PX         0.00000  -0.00000   0.00000   0.00000   0.00000
  12        7PY         0.00000   0.00000  -0.00004   0.00000   2.19234
  13        7PZ         0.00000   0.00000   0.00000   0.00051   0.00000
  14        8D 0       -0.00000   0.00000   0.00000  -0.00418   0.00000
  15        8D+1        0.00000   0.00721  -0.00000   0.00000  -0.00000
  16        8D-1        0.00000   0.00000   0.00000   0.00000  -0.02581
  17        8D+2        0.00000   0.00000   0.00000   0.00725   0.00000
  18        8D-2        0.00721   0.00000   0.00000   0.00000   0.00000
  19        9D 0       -0.00000   0.00000   0.00000   0.73962   0.00000
  20        9D+1        0.00000   0.53231  -0.00000   0.00000   0.00000
  21        9D-1        0.00000   0.00000   0.00003   0.00000  -1.17670
  22        9D+2       -0.00000   0.00000   0.00000  -1.28047   0.00000
  23        9D-2        0.53231   0.00000   0.00000  -0.00000   0.00000
  24       10F 0       -0.00000   0.00000   0.00000   0.07869   0.00000
  25       10F+1        0.00000  -0.00965   0.00000   0.00000   0.00000
  26       10F-1        0.00000  -0.00000  -0.10964   0.00000   0.01226
  27       10F+2        0.00000   0.00000   0.00000   0.06094   0.00000
  28       10F-2        0.01221   0.00000   0.00000   0.00000   0.00000
  29       10F+3        0.00000  -0.00747  -0.00000   0.00000   0.00000
  30       10F-3        0.00000   0.00000  -0.02831   0.00000  -0.04750
  31 2   H  1S         -0.00000   0.00000   0.00000  -0.01444   0.00000
  32        2S          0.00000   0.00000   0.00000  -1.32085   0.00000
  33        3S          0.00000   0.00000   0.00000  -0.22704   0.00000
  34        4PX         0.00000  -0.03236   0.00000   0.00000   0.00000
  35        4PY         0.00000   0.00000  -0.02866   0.00000   0.03886
  36        4PZ        -0.00000   0.00000   0.00000   0.04957   0.00000
  37        5PX         0.00000   0.47192  -0.00000   0.00000  -0.00000
  38        5PY         0.00000   0.00000   0.75472   0.00000  -0.58784
  39        5PZ        -0.00000   0.00000   0.00000  -0.01756   0.00000
  40        6D 0        0.00000   0.00000   0.00000  -0.01476   0.00000
  41        6D+1        0.00000   0.00955   0.00000   0.00000   0.00000
  42        6D-1        0.00000  -0.00000  -0.03271   0.00000  -0.01141
  43        6D+2        0.00000   0.00000   0.00000  -0.00949   0.00000
  44        6D-2        0.00187   0.00000   0.00000   0.00000   0.00000
  45 3   H  1S         -0.00000  -0.00000  -0.00000  -0.01445   0.02321
  46        2S         -0.00000   0.00000   0.00006  -1.31998  -2.01012
  47        3S          0.00000  -0.00000   0.00001  -0.22681  -0.59776
  48        4PX        -0.02802   0.01618   0.00000   0.00000  -0.00000
  49        4PY         0.00000  -0.00000   0.01433   0.04292   0.04240
  50        4PZ        -0.00000   0.00000   0.02482  -0.02477  -0.00205
  51        5PX         0.40869  -0.23596  -0.00000  -0.00000   0.00000
  52        5PY        -0.00000  -0.00000  -0.37736  -0.01534  -0.03032
  53        5PZ        -0.00000   0.00000  -0.65359   0.00872  -0.32191
  54        6D 0        0.00000  -0.00000  -0.02453   0.00801   0.00173
  55        6D+1       -0.00333   0.00379  -0.00000   0.00000   0.00000
  56        6D-1        0.00000  -0.00000   0.01635   0.01517   0.01528
  57        6D+2        0.00000  -0.00000  -0.01416   0.00365   0.02782
  58        6D-2        0.00763  -0.00333  -0.00000  -0.00000  -0.00000
  59 4   H  1S         -0.00000   0.00000   0.00000  -0.01445  -0.02321
  60        2S         -0.00000  -0.00000  -0.00006  -1.31998   2.01012
  61        3S          0.00000   0.00000  -0.00001  -0.22681   0.59776
  62        4PX         0.02802   0.01618   0.00000  -0.00000  -0.00000
  63        4PY        -0.00000  -0.00000   0.01433  -0.04292   0.04240
  64        4PZ        -0.00000  -0.00000  -0.02482  -0.02477   0.00205
  65        5PX        -0.40869  -0.23596  -0.00000   0.00000   0.00000
  66        5PY         0.00000  -0.00000  -0.37736   0.01534  -0.03032
  67        5PZ        -0.00000  -0.00000   0.65359   0.00872   0.32191
  68        6D 0        0.00000   0.00000   0.02453   0.00801  -0.00173
  69        6D+1        0.00333   0.00379  -0.00000  -0.00000   0.00000
  70        6D-1       -0.00000  -0.00000   0.01635  -0.01517   0.01528
  71        6D+2        0.00000   0.00000   0.01416   0.00365  -0.02782
  72        6D-2        0.00763   0.00333   0.00000  -0.00000   0.00000
                          21        22        23        24        25
                           V         V         V         V         V
     Eigenvalues --     0.89206   0.95547   1.06710   1.06710   1.24713
   1 1   C  1S         -0.00000   0.00000   0.00000   0.00000   0.00000
   2        2S         -0.00001   0.00000   0.00000   0.00000  -0.00001
   3        3S         -0.00003   0.00000   0.00000   0.00000  -0.00001
   4        4S          0.00069   0.00000   0.00000   0.00000  -0.00000
   5        5PX         0.00000  -0.14454   0.00000  -0.00000   0.00000
   6        5PY         0.00000  -0.00000   0.00000  -0.00000   0.00000
   7        5PZ        -0.13047   0.00000  -0.00000   0.00000  -0.14406
   8        6PX         0.00000  -0.54946   0.00000  -0.00000   0.00000
   9        6PY         0.00000   0.00000   0.00000   0.00000   0.00000
  10        6PZ        -1.05944   0.00000  -0.00000   0.00000  -3.76832
  11        7PX         0.00000  -0.77108   0.00000  -0.00000   0.00000
  12        7PY         0.00000   0.00000   0.00000   0.00000   0.00000
  13        7PZ        -2.19235   0.00000  -0.00000   0.00000  -1.09402
  14        8D 0       -0.02235   0.00000  -0.00000   0.00000  -0.07288
  15        8D+1        0.00000  -0.00000   0.00000  -0.02032   0.00000
  16        8D-1        0.00000  -0.00000   0.00000  -0.00000   0.00000
  17        8D+2       -0.01290   0.00000  -0.00000   0.00000  -0.04207
  18        8D-2       -0.00000   0.00000  -0.02032   0.00000  -0.00000
  19        9D 0       -1.01890   0.00000  -0.00000   0.00000  -3.14987
  20        9D+1        0.00000  -0.00000   0.00000   1.57077   0.00000
  21        9D-1        0.00000  -0.00000   0.00000  -0.00000   0.00000
  22        9D+2       -0.58866   0.00000  -0.00000   0.00000  -1.81858
  23        9D-2       -0.00000   0.00000   1.57077   0.00000  -0.00000
  24       10F 0       -0.03002   0.00000  -0.00000   0.00000  -0.10217
  25       10F+1        0.00000  -0.02614   0.00000   0.05182   0.00000
  26       10F-1        0.00000   0.00000   0.00000   0.00000   0.00000
  27       10F+2        0.03879   0.00000   0.00000   0.00000   0.13189
  28       10F-2        0.00000   0.00000  -0.06555   0.00000   0.00000
  29       10F+3        0.00000   0.03374   0.00000   0.04014   0.00000
  30       10F-3        0.00000  -0.00000   0.00000  -0.00000   0.00000
  31 2   H  1S         -0.02681   0.00000  -0.00000   0.00000  -0.15167
  32        2S          2.32081   0.00000   0.00000   0.00000   5.47087
  33        3S          0.69019   0.00000   0.00000   0.00000   0.40435
  34        4PX         0.00000  -0.05408   0.00000   0.07035   0.00000
  35        4PY         0.00000  -0.00000   0.00000  -0.00000   0.00000
  36        4PZ        -0.04357   0.00000  -0.00000   0.00000  -0.03316
  37        5PX         0.00000   0.90616   0.00000  -1.38480   0.00000
  38        5PY         0.00000   0.00000   0.00000   0.00000   0.00000
  39        5PZ        -0.15555   0.00000  -0.00000   0.00000  -2.55637
  40        6D 0        0.03434   0.00000   0.00000   0.00000   0.13910
  41        6D+1        0.00000  -0.01823   0.00000   0.07245   0.00000
  42        6D-1        0.00000  -0.00000   0.00000   0.00000   0.00000
  43        6D+2       -0.01115   0.00000   0.00000   0.00000   0.01040
  44        6D-2        0.00000   0.00000   0.02439   0.00000  -0.00000
  45 3   H  1S          0.01340   0.00000   0.00000   0.00000   0.07583
  46        2S         -1.16087  -0.00000  -0.00000  -0.00000  -2.73543
  47        3S         -0.34518  -0.00000  -0.00000  -0.00000  -0.20217
  48        4PX         0.00000  -0.05408   0.06093  -0.03518  -0.00000
  49        4PY         0.00206   0.00000  -0.00000   0.00000   0.04729
  50        4PZ        -0.04004  -0.00000   0.00000  -0.00000   0.04875
  51        5PX        -0.00000   0.90616  -1.19927   0.69240   0.00000
  52        5PY         0.32189   0.00000   0.00000   0.00000   0.45716
  53        5PZ         0.40200  -0.00000  -0.00000  -0.00000  -1.76452
  54        6D 0       -0.00888   0.00000   0.00000   0.00000  -0.01501
  55        6D+1       -0.00000   0.00912  -0.02081   0.03640  -0.00000
  56        6D-1        0.01541   0.00000   0.00000   0.00000   0.07247
  57        6D+2        0.01036   0.00000   0.00000   0.00000   0.02629
  58        6D-2        0.00000  -0.01579   0.06043  -0.02081  -0.00000
  59 4   H  1S          0.01340  -0.00000   0.00000  -0.00000   0.07583
  60        2S         -1.16087   0.00000  -0.00000   0.00000  -2.73543
  61        3S         -0.34518   0.00000  -0.00000   0.00000  -0.20217
  62        4PX        -0.00000  -0.05408  -0.06093  -0.03518   0.00000
  63        4PY        -0.00206   0.00000   0.00000   0.00000  -0.04729
  64        4PZ        -0.04004   0.00000   0.00000   0.00000   0.04875
  65        5PX         0.00000   0.90616   1.19927   0.69240  -0.00000
  66        5PY        -0.32189   0.00000  -0.00000   0.00000  -0.45716
  67        5PZ         0.40200   0.00000  -0.00000   0.00000  -1.76452
  68        6D 0       -0.00888  -0.00000   0.00000  -0.00000  -0.01501
  69        6D+1        0.00000   0.00912   0.02081   0.03640   0.00000
  70        6D-1       -0.01541   0.00000  -0.00000   0.00000  -0.07247
  71        6D+2        0.01036  -0.00000   0.00000  -0.00000   0.02629
  72        6D-2        0.00000   0.01579   0.06043   0.02081  -0.00000
                          26        27        28        29        30
                           V         V         V         V         V
     Eigenvalues --     1.24713   1.31911   1.31911   1.53670   2.01096
   1 1   C  1S          0.00000   0.00000  -0.00000  -0.09556   0.00000
   2        2S          0.00000   0.00000   0.00001   1.42437   0.00000
   3        3S          0.00000   0.00000   0.00001   0.80011   0.00000
   4        4S          0.00000   0.00000   0.00001   4.13277   0.00000
   5        5PX        -0.00000   0.00000   0.00000   0.00000  -1.26481
   6        5PY        -0.14406   0.25658   0.00000   0.00000  -0.00000
   7        5PZ         0.00000   0.00000   0.25658  -0.00000   0.00000
   8        6PX         0.00000  -0.00000   0.00000   0.00000   1.66071
   9        6PY        -3.76826   3.16295   0.00000   0.00000   0.00000
  10        6PZ         0.00000   0.00000   3.16287  -0.00002   0.00000
  11        7PX        -0.00000   0.00000   0.00000   0.00000  -0.47882
  12        7PY        -1.09399   2.10367   0.00000   0.00000   0.00000
  13        7PZ         0.00000   0.00000   2.10365  -0.00002   0.00000
  14        8D 0        0.00000   0.00000   0.03301  -0.05766   0.00000
  15        8D+1        0.00000  -0.00000   0.00000   0.00000   0.00000
  16        8D-1        0.08415  -0.03812   0.00000   0.00000  -0.00000
  17        8D+2        0.00000   0.00000   0.01906   0.09987   0.00000
  18        8D-2        0.00000   0.00000   0.00000   0.00000   0.00000
  19        9D 0        0.00000   0.00000   0.20625   0.44469   0.00000
  20        9D+1        0.00000  -0.00000   0.00000   0.00000  -0.00000
  21        9D-1        3.63716  -0.23822   0.00000   0.00000  -0.00000
  22        9D+2        0.00000   0.00000   0.11908  -0.77025   0.00000
  23        9D-2        0.00000   0.00000   0.00000  -0.00000   0.00000
  24       10F 0        0.00000   0.00000   0.03985  -0.13689   0.00000
  25       10F+1        0.00000  -0.00000   0.00000   0.00000  -0.04486
  26       10F-1       -0.04171   0.01627   0.00000   0.00000  -0.00000
  27       10F+2        0.00000   0.00000  -0.05145  -0.10603   0.00000
  28       10F-2        0.00000   0.00000   0.00000  -0.00000   0.00000
  29       10F+3       -0.00000   0.00000   0.00000   0.00000   0.05791
  30       10F-3        0.16154  -0.06301   0.00000   0.00000  -0.00000
  31 2   H  1S          0.00000   0.00000  -0.14597  -0.25913   0.00000
  32        2S          0.00000   0.00000  -2.69405  -1.20970   0.00000
  33        3S          0.00000   0.00000  -1.96155  -0.95215   0.00000
  34        4PX         0.00000  -0.00000   0.00000   0.00000   0.01093
  35        4PY         0.07606   0.06531   0.00000   0.00000  -0.00000
  36        4PZ         0.00000   0.00000  -0.06787  -0.13074   0.00000
  37        5PX        -0.00000   0.00000   0.00000   0.00000  -0.20547
  38        5PY        -1.50059  -0.94084   0.00000   0.00000  -0.00000
  39        5PZ         0.00000   0.00000   2.43392   1.21608   0.00000
  40        6D 0        0.00000   0.00000  -0.10895   0.04152   0.00000
  41        6D+1        0.00000   0.00000   0.00000   0.00000   0.02701
  42        6D-1        0.04169   0.02687   0.00000   0.00000  -0.00000
  43        6D+2        0.00000   0.00000  -0.00436  -0.00316   0.00000
  44        6D-2        0.00000   0.00000  -0.00000   0.00000   0.00000
  45 3   H  1S         -0.13135  -0.12641   0.07298  -0.25913   0.00000
  46        2S          4.73787  -2.33320   1.34702  -1.20974  -0.00000
  47        3S          0.35014  -1.69875   0.98077  -0.95217  -0.00000
  48        4PX        -0.00000  -0.00000   0.00000   0.00000   0.01093
  49        4PY        -0.00586  -0.03457   0.05767  -0.11322   0.00000
  50        4PZ         0.04729   0.05767   0.03202   0.06537  -0.00000
  51        5PX         0.00000  -0.00000  -0.00000   0.00000  -0.20547
  52        5PY        -2.29238   1.59026  -1.46131   1.05318   0.00000
  53        5PZ         0.45714  -1.46133  -0.09718  -0.60805  -0.00000
  54        6D 0       -0.03654   0.00417  -0.02568  -0.00314  -0.00000
  55        6D+1       -0.00000  -0.00000  -0.00000   0.00000  -0.01350
  56        6D-1       -0.08383   0.07912  -0.03016  -0.02977  -0.00000
  57        6D+2       -0.08164   0.05310  -0.04410  -0.02894   0.00000
  58        6D-2        0.00000  -0.00000   0.00000   0.00000   0.02339
  59 4   H  1S          0.13135   0.12641   0.07298  -0.25913  -0.00000
  60        2S         -4.73787   2.33320   1.34702  -1.20974   0.00000
  61        3S         -0.35014   1.69875   0.98077  -0.95217   0.00000
  62        4PX        -0.00000  -0.00000  -0.00000  -0.00000   0.01093
  63        4PY        -0.00586  -0.03457  -0.05767   0.11322   0.00000
  64        4PZ        -0.04729  -0.05767   0.03202   0.06537   0.00000
  65        5PX         0.00000  -0.00000   0.00000  -0.00000  -0.20547
  66        5PY        -2.29238   1.59026   1.46131  -1.05318   0.00000
  67        5PZ        -0.45714   1.46133  -0.09718  -0.60805   0.00000
  68        6D 0        0.03654  -0.00417  -0.02568  -0.00314   0.00000
  69        6D+1       -0.00000  -0.00000   0.00000  -0.00000  -0.01350
  70        6D-1       -0.08383   0.07912   0.03016   0.02977  -0.00000
  71        6D+2        0.08164  -0.05310  -0.04410  -0.02894  -0.00000
  72        6D-2       -0.00000   0.00000   0.00000   0.00000  -0.02339
                          31        32        33        34        35
                           V         V         V         V         V
     Eigenvalues --     2.09659   2.23485   2.23485   2.50628   2.50628
   1 1   C  1S         -0.09005   0.00000  -0.00000   0.00000   0.00000
   2        2S          1.40178   0.00000   0.00003   0.00000  -0.00000
   3        3S          0.90371   0.00000   0.00002   0.00000  -0.00000
   4        4S          4.58923   0.00000   0.00012   0.00000  -0.00002
   5        5PX         0.00000  -0.00000   0.00000   0.00000   0.00000
   6        5PY         0.00000   0.05458   0.00000  -1.10480   0.00000
   7        5PZ        -0.00001   0.00000   0.05458   0.00000  -1.10480
   8        6PX         0.00000   0.00000   0.00000  -0.00000   0.00000
   9        6PY         0.00000  -1.73907   0.00000   5.44409   0.00000
  10        6PZ         0.00005   0.00000  -1.73907   0.00000   5.44408
  11        7PX         0.00000  -0.00000   0.00000   0.00000   0.00000
  12        7PY         0.00000  -0.97007   0.00000   0.90536   0.00000
  13        7PZ         0.00000   0.00000  -0.97007   0.00000   0.90536
  14        8D 0        0.12545   0.00000  -0.19894   0.00000   0.00377
  15        8D+1        0.00000   0.00000   0.00000  -0.00000   0.00000
  16        8D-1        0.00000   0.22972   0.00000  -0.00435   0.00000
  17        8D+2       -0.21727   0.00000  -0.11486   0.00000   0.00218
  18        8D-2        0.00000   0.00000   0.00000   0.00000   0.00000
  19        9D 0        0.39746   0.00000   0.21769   0.00000   1.60385
  20        9D+1        0.00000  -0.00000   0.00000   0.00000   0.00000
  21        9D-1        0.00000  -0.25135   0.00000  -1.85197   0.00000
  22        9D+2       -0.68845   0.00000   0.12566   0.00000   0.92598
  23        9D-2       -0.00000   0.00000   0.00000   0.00000  -0.00000
  24       10F 0        0.43791   0.00000  -0.34922   0.00000  -0.09166
  25       10F+1        0.00000   0.00000   0.00000  -0.00000   0.00000
  26       10F-1        0.00000  -0.14257   0.00000  -0.03742   0.00000
  27       10F+2        0.33919   0.00000   0.45086   0.00000   0.11833
  28       10F-2       -0.00000   0.00000  -0.00000   0.00000   0.00000
  29       10F+3        0.00000  -0.00000   0.00000   0.00000   0.00000
  30       10F-3        0.00000   0.55218   0.00000   0.14493   0.00000
  31 2   H  1S          0.53972   0.00000  -0.91204   0.00000   0.46879
  32        2S         -2.54747   0.00000   2.55757   0.00000  -5.29938
  33        3S         -0.54950   0.00000   0.07114   0.00000  -0.15591
  34        4PX         0.00000   0.00000   0.00000  -0.00000   0.00000
  35        4PY         0.00000   0.00056   0.00000   0.08634   0.00000
  36        4PZ         0.03460   0.00000  -0.09702   0.00000   0.16411
  37        5PX         0.00000   0.00000   0.00000   0.00000   0.00000
  38        5PY         0.00000   0.65116   0.00000  -0.08150   0.00000
  39        5PZ         1.00939   0.00000  -0.89753   0.00000   2.32397
  40        6D 0       -0.04176   0.00000   0.08866   0.00000  -0.23669
  41        6D+1        0.00000  -0.00000   0.00000   0.00000   0.00000
  42        6D-1        0.00000  -0.01646   0.00000  -0.05445   0.00000
  43        6D+2        0.01925   0.00000   0.12603   0.00000   0.17512
  44        6D-2       -0.00000   0.00000   0.00000   0.00000   0.00000
  45 3   H  1S          0.53969  -0.78986   0.45604   0.40599  -0.23440
  46        2S         -2.54739   2.21496  -1.27887  -4.58941   2.64970
  47        3S         -0.54952   0.06162  -0.03559  -0.13503   0.07796
  48        4PX         0.00000  -0.00000   0.00000  -0.00000   0.00000
  49        4PY         0.02996  -0.07263   0.04226   0.14467  -0.03368
  50        4PZ        -0.01730   0.04226  -0.02383  -0.03368   0.10578
  51        5PX         0.00000  -0.00000  -0.00000   0.00000   0.00000
  52        5PY         0.87413  -0.51038   0.67064   1.72261  -1.04160
  53        5PZ        -0.50470   0.67061   0.26397  -1.04160   0.51987
  54        6D 0       -0.00728  -0.07432   0.05716  -0.05247   0.07745
  55        6D+1        0.00000  -0.00000  -0.00000   0.00000   0.00000
  56        6D-1        0.02298  -0.10896   0.05341   0.07445  -0.07442
  57        6D+2        0.03915   0.02191  -0.00442   0.23972  -0.11117
  58        6D-2       -0.00000   0.00000  -0.00000  -0.00000   0.00000
  59 4   H  1S          0.53969   0.78986   0.45604  -0.40599  -0.23440
  60        2S         -2.54739  -2.21496  -1.27887   4.58941   2.64970
  61        3S         -0.54952  -0.06162  -0.03559   0.13503   0.07796
  62        4PX        -0.00000  -0.00000  -0.00000  -0.00000  -0.00000
  63        4PY        -0.02996  -0.07263  -0.04226   0.14467   0.03368
  64        4PZ        -0.01730  -0.04226  -0.02383   0.03368   0.10578
  65        5PX        -0.00000  -0.00000   0.00000   0.00000  -0.00000
  66        5PY        -0.87413  -0.51038  -0.67064   1.72261   1.04160
  67        5PZ        -0.50470  -0.67061   0.26397   1.04160   0.51987
  68        6D 0       -0.00728   0.07432   0.05716   0.05247   0.07745
  69        6D+1       -0.00000  -0.00000   0.00000   0.00000  -0.00000
  70        6D-1       -0.02298  -0.10896  -0.05341   0.07445   0.07442
  71        6D+2        0.03915  -0.02191  -0.00442  -0.23972  -0.11117
  72        6D-2       -0.00000  -0.00000  -0.00000   0.00000   0.00000
                          36        37        38        39        40
                           V         V         V         V         V
     Eigenvalues --     2.57325   2.57325   2.82743   2.85903   2.87674
   1 1   C  1S          0.00000   0.00000   0.00000   0.00000  -0.02222
   2        2S         -0.00000   0.00000   0.00000   0.00000   0.27352
   3        3S         -0.00000   0.00000   0.00000   0.00000  -0.03143
   4        4S         -0.00000   0.00000   0.00000   0.00000   1.17485
   5        5PX         0.00000   0.00000   0.00000   0.18274   0.00000
   6        5PY         0.00000  -0.00000  -0.00000   0.00000   0.00000
   7        5PZ        -0.00000   0.00000   0.00000   0.00000   0.00001
   8        6PX         0.00000  -0.00000  -0.00000  -0.43077   0.00000
   9        6PY         0.00000   0.00000  -0.00000  -0.00000   0.00000
  10        6PZ         0.00000   0.00000   0.00000   0.00000  -0.00005
  11        7PX         0.00000  -0.00000  -0.00000  -0.31668   0.00000
  12        7PY         0.00000   0.00000  -0.00001   0.00000   0.00000
  13        7PZ        -0.00000   0.00000   0.00000   0.00000   0.00001
  14        8D 0       -0.00000   0.00000   0.00000   0.00000  -0.49266
  15        8D+1        0.00000   0.61131  -0.00000   0.00000   0.00000
  16        8D-1        0.00000  -0.00000  -0.00001   0.00000   0.00000
  17        8D+2        0.00000   0.00000   0.00000   0.00000   0.85326
  18        8D-2        0.61131   0.00000   0.00000   0.00000   0.00000
  19        9D 0       -0.00000   0.00000   0.00000   0.00000   0.51115
  20        9D+1        0.00000  -0.21061   0.00000  -0.00000   0.00000
  21        9D-1        0.00000  -0.00000   0.00002  -0.00000   0.00000
  22        9D+2        0.00000   0.00000   0.00000   0.00000  -0.88526
  23        9D-2       -0.21060   0.00000   0.00000   0.00000  -0.00000
  24       10F 0       -0.00000   0.00000   0.00000   0.00000   0.36719
  25       10F+1        0.00000   0.36188  -0.00000  -0.59219   0.00000
  26       10F-1        0.00000   0.00000   0.86604  -0.00000   0.00000
  27       10F+2       -0.00000   0.00000   0.00000   0.00000   0.28441
  28       10F-2       -0.45775   0.00000   0.00000   0.00000   0.00000
  29       10F+3        0.00000   0.28031   0.00000   0.76451   0.00000
  30       10F-3        0.00000   0.00000   0.22361  -0.00000   0.00000
  31 2   H  1S         -0.00000   0.00000   0.00000   0.00000  -0.03514
  32        2S          0.00000   0.00000   0.00000   0.00000  -0.68377
  33        3S          0.00000   0.00000   0.00000   0.00000  -0.07221
  34        4PX         0.00000   0.27723  -0.00000  -0.18877   0.00000
  35        4PY         0.00000   0.00000   0.29509  -0.00000   0.00000
  36        4PZ         0.00000   0.00000   0.00000   0.00000   0.31591
  37        5PX         0.00000  -0.28101   0.00000   0.48430   0.00000
  38        5PY         0.00000  -0.00000  -0.50770   0.00000   0.00000
  39        5PZ        -0.00000   0.00000   0.00000   0.00000  -0.08533
  40        6D 0        0.00000   0.00000   0.00000   0.00000  -0.03143
  41        6D+1        0.00000  -0.22868   0.00000   0.04466   0.00000
  42        6D-1        0.00000  -0.00000  -0.01412  -0.00000   0.00000
  43        6D+2        0.00000   0.00000   0.00000   0.00000   0.04214
  44        6D-2       -0.15462   0.00000   0.00000   0.00000   0.00000
  45 3   H  1S         -0.00000   0.00000  -0.00000  -0.00000  -0.03512
  46        2S          0.00000  -0.00000   0.00002   0.00000  -0.68381
  47        3S          0.00000  -0.00000   0.00000  -0.00000  -0.07221
  48        4PX         0.24009  -0.13862  -0.00000  -0.18877   0.00000
  49        4PY        -0.00000   0.00000  -0.14755   0.00000   0.27358
  50        4PZ        -0.00000  -0.00000  -0.25555   0.00000  -0.15794
  51        5PX        -0.24337   0.14051   0.00000   0.48430   0.00000
  52        5PY        -0.00000   0.00000   0.25385  -0.00000  -0.07384
  53        5PZ         0.00000  -0.00000   0.43968  -0.00000   0.04265
  54        6D 0       -0.00000  -0.00000  -0.01059   0.00000  -0.02343
  55        6D+1        0.03207  -0.17314  -0.00000  -0.02233   0.00000
  56        6D-1       -0.00000   0.00000   0.00706   0.00000   0.00533
  57        6D+2        0.00000   0.00000  -0.00612   0.00000   0.04675
  58        6D-2       -0.21017   0.03207   0.00000   0.03868   0.00000
  59 4   H  1S         -0.00000  -0.00000   0.00000   0.00000  -0.03512
  60        2S          0.00000   0.00000  -0.00002  -0.00000  -0.68381
  61        3S          0.00000   0.00000  -0.00000   0.00000  -0.07221
  62        4PX        -0.24009  -0.13862  -0.00000  -0.18877  -0.00000
  63        4PY         0.00000   0.00000  -0.14755   0.00000  -0.27358
  64        4PZ        -0.00000   0.00000   0.25555  -0.00000  -0.15794
  65        5PX         0.24337   0.14051   0.00000   0.48430  -0.00000
  66        5PY         0.00000   0.00000   0.25385  -0.00000   0.07384
  67        5PZ         0.00000   0.00000  -0.43968   0.00000   0.04265
  68        6D 0       -0.00000   0.00000   0.01059  -0.00000  -0.02343
  69        6D+1       -0.03207  -0.17314  -0.00000  -0.02233  -0.00000
  70        6D-1        0.00000   0.00000   0.00706   0.00000  -0.00533
  71        6D+2        0.00000  -0.00000   0.00612  -0.00000   0.04675
  72        6D-2       -0.21017  -0.03207  -0.00000  -0.03868   0.00000
                          41        42        43        44        45
                           V         V         V         V         V
     Eigenvalues --     2.89642   2.89643   2.95362   2.95362   3.18868
   1 1   C  1S          0.00000   0.00000  -0.00000   0.00000   0.00000
   2        2S          0.00000  -0.00001   0.00000   0.00000   0.00000
   3        3S          0.00000   0.00000   0.00000   0.00000   0.00000
   4        4S          0.00000  -0.00005   0.00000   0.00000   0.00000
   5        5PX         0.00000   0.00000   0.00000  -0.00000   0.00000
   6        5PY        -0.22475   0.00000   0.00000  -0.00000   0.00000
   7        5PZ         0.00000   0.22475  -0.00000   0.00000  -0.00000
   8        6PX        -0.00000   0.00000   0.00000  -0.00000   0.00000
   9        6PY         0.89461   0.00000   0.00000   0.00000   0.00000
  10        6PZ         0.00000  -0.89462   0.00000   0.00000   0.00000
  11        7PX        -0.00000   0.00000   0.00000  -0.00000   0.00000
  12        7PY        -0.43107   0.00000   0.00000  -0.00000   0.00000
  13        7PZ         0.00000   0.43106  -0.00000   0.00000   0.00000
  14        8D 0        0.00000  -0.78362   0.00000   0.00000   0.00000
  15        8D+1        0.00000   0.00000   0.00000  -0.77803   0.00000
  16        8D-1       -0.90486   0.00000   0.00000  -0.00000   0.00000
  17        8D+2        0.00000  -0.45246   0.00000   0.00000  -0.00000
  18        8D-2        0.00000  -0.00000  -0.77803   0.00000  -0.00000
  19        9D 0        0.00000   1.20363  -0.00000   0.00000   0.00000
  20        9D+1       -0.00000   0.00000   0.00000   1.26533   0.00000
  21        9D-1        1.38986   0.00000   0.00000   0.00000   0.00000
  22        9D+2        0.00000   0.69496  -0.00000   0.00000   0.00000
  23        9D-2        0.00000   0.00000   1.26533   0.00000  -0.00000
  24       10F 0        0.00000   0.19371   0.00000   0.00000   0.00000
  25       10F+1       -0.00000   0.00000   0.00000   0.59776   0.00000
  26       10F-1       -0.07910   0.00000   0.00000   0.00000   0.00000
  27       10F+2        0.00000  -0.25011   0.00000   0.00000  -0.00000
  28       10F-2        0.00000  -0.00000  -0.75611   0.00000   0.00000
  29       10F+3        0.00000   0.00000   0.00000   0.46302   0.00000
  30       10F-3        0.30630   0.00000   0.00000  -0.00000   0.00000
  31 2   H  1S          0.00000  -0.17689   0.00000   0.00000  -0.00000
  32        2S          0.00000  -0.04679  -0.00000   0.00000  -0.00000
  33        3S          0.00000  -0.01845  -0.00000   0.00000  -0.00000
  34        4PX        -0.00000   0.00000   0.00000  -0.07245   0.00000
  35        4PY        -0.22610   0.00000   0.00000  -0.00000   0.00000
  36        4PZ         0.00000   0.36477  -0.00000   0.00000  -0.00000
  37        5PX         0.00000   0.00000   0.00000  -0.73413   0.00000
  38        5PY        -0.42245   0.00000   0.00000  -0.00000   0.00000
  39        5PZ         0.00000  -0.74398   0.00000   0.00000   0.00000
  40        6D 0        0.00000  -0.00809   0.00000   0.00000  -0.00000
  41        6D+1       -0.00000   0.00000   0.00000   0.20350   0.00000
  42        6D-1        0.23369   0.00000   0.00000   0.00000   0.00000
  43        6D+2        0.00000   0.04155   0.00000   0.00000  -0.00000
  44        6D-2        0.00000  -0.00000  -0.30391   0.00000   0.58004
  45 3   H  1S          0.15319   0.08845  -0.00000  -0.00000   0.00000
  46        2S          0.04056   0.02344  -0.00000   0.00000   0.00000
  47        3S          0.01598   0.00923  -0.00000  -0.00000   0.00000
  48        4PX        -0.00000   0.00000  -0.06274   0.03622  -0.00000
  49        4PY        -0.33011  -0.06006   0.00000  -0.00000  -0.00000
  50        4PZ         0.06006   0.26077  -0.00000   0.00000   0.00000
  51        5PX         0.00000  -0.00000  -0.63578   0.36707   0.00000
  52        5PY         0.45237   0.50508  -0.00000   0.00000  -0.00000
  53        5PZ        -0.50508   0.13084  -0.00000  -0.00000   0.00000
  54        6D 0       -0.06513   0.16478  -0.00000   0.00000  -0.00000
  55        6D+1        0.00000  -0.00000  -0.21971  -0.17706  -0.50233
  56        6D-1        0.06875  -0.09523   0.00000   0.00000  -0.00000
  57        6D+2       -0.07764   0.07202  -0.00000  -0.00000  -0.00000
  58        6D-2        0.00000   0.00000   0.07664  -0.21971  -0.29002
  59 4   H  1S         -0.15319   0.08845  -0.00000   0.00000   0.00000
  60        2S         -0.04056   0.02344  -0.00000  -0.00000   0.00000
  61        3S         -0.01598   0.00923  -0.00000   0.00000   0.00000
  62        4PX        -0.00000  -0.00000   0.06274   0.03622   0.00000
  63        4PY        -0.33011   0.06006  -0.00000  -0.00000   0.00000
  64        4PZ        -0.06006   0.26077  -0.00000  -0.00000   0.00000
  65        5PX         0.00000   0.00000   0.63578   0.36707  -0.00000
  66        5PY         0.45237  -0.50508   0.00000   0.00000   0.00000
  67        5PZ         0.50508   0.13084  -0.00000   0.00000   0.00000
  68        6D 0        0.06513   0.16478  -0.00000  -0.00000  -0.00000
  69        6D+1        0.00000   0.00000   0.21971  -0.17706   0.50233
  70        6D-1        0.06875   0.09523  -0.00000   0.00000   0.00000
  71        6D+2        0.07764   0.07202  -0.00000   0.00000  -0.00000
  72        6D-2       -0.00000   0.00000   0.07664   0.21971  -0.29002
                          46        47        48        49        50
                           V         V         V         V         V
     Eigenvalues --     3.20306   3.33450   3.33451   3.58174   3.58174
   1 1   C  1S         -0.09080   0.00000   0.00000   0.00000   0.00000
   2        2S          0.08532   0.00000   0.00000   0.00000   0.00000
   3        3S          0.34609  -0.00000   0.00000  -0.00000   0.00000
   4        4S          1.15262  -0.00001   0.00000  -0.00000   0.00000
   5        5PX         0.00000   0.00000  -0.00000   0.00000   0.00000
   6        5PY         0.00000   0.00000  -0.77469   0.00000   0.00000
   7        5PZ        -0.00000  -0.77469   0.00000  -0.00000   0.00000
   8        6PX         0.00000   0.00000  -0.00000   0.00000   0.00000
   9        6PY         0.00000   0.00000   5.26472   0.00000  -0.00000
  10        6PZ         0.00001   5.26471   0.00000   0.00000   0.00000
  11        7PX         0.00000   0.00000   0.00000   0.00000   0.00000
  12        7PY         0.00000   0.00000   1.41450   0.00000  -0.00000
  13        7PZ         0.00000   1.41450   0.00000  -0.00000   0.00000
  14        8D 0        0.05848   0.08278   0.00000  -0.00000   0.00000
  15        8D+1        0.00000   0.00000   0.00000   0.00000  -0.21967
  16        8D-1        0.00000   0.00000  -0.09559   0.00000  -0.00000
  17        8D+2       -0.10128   0.04779   0.00000  -0.00000   0.00000
  18        8D-2       -0.00000  -0.00000   0.00000  -0.21967   0.00000
  19        9D 0        0.24161   2.18119   0.00000   0.00000   0.00000
  20        9D+1        0.00000   0.00000  -0.00000   0.00000   0.27642
  21        9D-1        0.00000   0.00000  -2.51862   0.00000   0.00000
  22        9D+2       -0.41848   1.25932   0.00000   0.00000   0.00000
  23        9D-2        0.00000   0.00000   0.00000   0.27642   0.00000
  24       10F 0        0.36899   0.36915   0.00000  -0.00000   0.00000
  25       10F+1        0.00000   0.00000   0.00000   0.00000   0.35109
  26       10F-1        0.00000   0.00000   0.15071   0.00000   0.00000
  27       10F+2        0.28582  -0.47658   0.00000   0.00000   0.00000
  28       10F-2       -0.00000  -0.00000   0.00000  -0.44410   0.00000
  29       10F+3        0.00000   0.00000  -0.00000   0.00000   0.27195
  30       10F-3        0.00000   0.00000  -0.58369   0.00000  -0.00000
  31 2   H  1S         -0.46082  -0.60051   0.00000   0.00000   0.00000
  32        2S         -0.04241  -4.68551   0.00000  -0.00000   0.00000
  33        3S         -0.30540  -0.99471   0.00000   0.00000   0.00000
  34        4PX         0.00000   0.00000   0.00000   0.00000   0.68804
  35        4PY         0.00000   0.00000   0.15275   0.00000   0.00000
  36        4PZ        -0.13829  -0.24654   0.00000   0.00000   0.00000
  37        5PX         0.00000   0.00000   0.00000   0.00000  -0.66830
  38        5PY         0.00000   0.00000   0.14122   0.00000  -0.00000
  39        5PZ         0.24327   2.66122   0.00000  -0.00000   0.00000
  40        6D 0       -0.21864  -0.47392   0.00000   0.00000   0.00000
  41        6D+1        0.00000   0.00000  -0.00000   0.00000   0.25183
  42        6D-1        0.00000   0.00000   0.05324   0.00000   0.00000
  43        6D+2        0.40052  -0.35193   0.00000  -0.00000   0.00000
  44        6D-2        0.00000  -0.00000   0.00000   0.57635   0.00000
  45 3   H  1S         -0.46082   0.30026  -0.52006   0.00000   0.00000
  46        2S         -0.04240   2.34276  -4.05777   0.00000   0.00000
  47        3S         -0.30540   0.49736  -0.86145  -0.00000   0.00000
  48        4PX         0.00000   0.00000  -0.00000   0.59585  -0.34401
  49        4PY        -0.11976   0.17290  -0.14671  -0.00000   0.00000
  50        4PZ         0.06915   0.05293   0.17290   0.00000   0.00000
  51        5PX        -0.00000  -0.00000  -0.00000  -0.57876   0.33414
  52        5PY         0.21068  -1.09119   2.03122   0.00000  -0.00000
  53        5PZ        -0.12163   0.77122  -1.09119   0.00000   0.00000
[...]
 --------------------------------------------------------


 ---------------------------------------------------------------------------------
              Anisotropic Spin Dipole Couplings in Principal Axis System
 ---------------------------------------------------------------------------------

       Atom             a.u.   MegaHertz   Gauss  10(-4) cm-1        Axes

              Baa    -0.5805   -77.902   -27.797   -25.985  0.0000  1.0000 -0.0000
     1 C(13)  Bbb    -0.5805   -77.902   -27.797   -25.985  1.0000 -0.0000  0.0000
              Bcc     1.1611   155.804    55.595    51.970  0.0000  0.0000  1.0000
 
              Baa    -0.0772   -41.190   -14.698   -13.739  1.0000 -0.0000  0.0000
     2 H(1)   Bbb     0.0043     2.310     0.824     0.771  0.0000  0.0000  1.0000
              Bcc     0.0729    38.879    13.873    12.969  0.0000  1.0000 -0.0000
 
              Baa    -0.0772   -41.190   -14.697   -13.739 -0.5000  0.8660  0.0000
     3 H(1)   Bbb     0.0043     2.310     0.824     0.771  0.0000  0.0000  1.0000
              Bcc     0.0729    38.879    13.873    12.969  0.8660  0.5000 -0.0000
 
              Baa    -0.0772   -41.190   -14.697   -13.739  0.5000  0.8660  0.0000
     4 H(1)   Bbb     0.0043     2.310     0.824     0.771  0.0000  0.0000  1.0000
              Bcc     0.0729    38.879    13.873    12.969  0.8660 -0.5000 -0.0000
 

 ---------------------------------------------------------------------------------

 No NMR shielding tensors so no spin-rotation constants.
 Leave Link  601 at Sat Aug 17 23:47:47 2024, MaxMem=   13107200 cpu:       0.4
 (Enter /programs/64bit/g09/g09-gfortran/bin/l701.exe)
 Compute integral second derivatives.
 ... and contract with generalized density number  0.
 Leave Link  701 at Sat Aug 17 23:47:47 2024, MaxMem=   13107200 cpu:       0.3
 (Enter /programs/64bit/g09/g09-gfortran/bin/l702.exe)
 L702 exits ... SP integral derivatives will be done elsewhere.
 Leave Link  702 at Sat Aug 17 23:47:47 2024, MaxMem=   13107200 cpu:       0.0
 (Enter /programs/64bit/g09/g09-gfortran/bin/l703.exe)
 Compute integral second derivatives, UseDBF=F ICtDFT=           0.
 Integral derivatives from FoFDir, PRISM(SPDF).
 Calling FoFJK, ICntrl=    100127 FMM=F ISym2X=1 I1Cent= 0 IOpClX= 1 NMat=1 NMatS=1 NMatT=0.
 FoFCou: FMM=F IPFlag=           0 FMFlag=      100000 FMFlg1=         800
         NFxFlg=           0 DoJE=F BraDBF=F KetDBF=F FulRan=T
         Omega=  0.000000  0.000000  1.000000  0.000000  0.000000 ICntrl=  100127 IOpCl=  1
         NMat0=    1 NMatS0=    1 NMatT0=    0 NMatD0=    1 NMtDS0=    0 NMtDT0=    0
         I1Cent=           0 NGrid=           0.
 Petite list used in FoFCou.
 Leave Link  703 at Sat Aug 17 23:48:10 2024, MaxMem=   13107200 cpu:      22.5
 (Enter /programs/64bit/g09/g09-gfortran/bin/l716.exe)
 Dipole        =-1.21607965D-11-3.09508545D-06-5.41612317D-33
 Polarizability= 1.39670905D+01 2.40604489D-09 1.39673478D+01
                -7.06691027D-10-1.47672694D-09 1.03781096D+01
 Full mass-weighted force constant matrix:
 Low frequencies ---  -66.6666  -53.8368  -53.1550    0.0005    0.0015    0.0019
 Low frequencies ---  514.7097 1397.4744 1397.6497
 Diagonal vibrational polarizability:
        0.0580640       0.0580794       7.8171049
 Harmonic frequencies (cm**-1), IR intensities (KM/Mole), Raman scattering
 activities (A**4/AMU), depolarization ratios for plane and unpolarized
 incident light, reduced masses (AMU), force constants (mDyne/A),
 and normal coordinates:
                     1                      2                      3
                    A"                     A'                     A'
 Frequencies --   514.7089              1397.4743              1397.6497
 Red. masses --     1.2356                 1.1022                 1.1022
 Frc consts  --     0.1929                 1.2682                 1.2686
 IR Inten    --    76.9549                 3.4290                 3.4299
  Atom  AN      X      Y      Z        X      Y      Z        X      Y      Z
     1   6    -0.00  -0.00   0.14    -0.09  -0.00  -0.00    -0.00   0.09   0.00
     2   1     0.00  -0.00  -0.57     0.81  -0.00   0.00     0.00   0.07  -0.00
     3   1     0.00  -0.00  -0.57     0.15  -0.38   0.00     0.38  -0.59  -0.00
     4   1     0.00   0.00  -0.57     0.15   0.38   0.00    -0.38  -0.59  -0.00
                     4                      5                      6
                    A'                     A'                     A'
 Frequencies --  3116.5950              3298.6822              3298.6906
 Red. masses --     1.0078                 1.1182                 1.1182
 Frc consts  --     5.7676                 7.1689                 7.1691
 IR Inten    --     0.0000                 4.3779                 4.3720
  Atom  AN      X      Y      Z        X      Y      Z        X      Y      Z
     1   6     0.00  -0.00  -0.00    -0.00   0.10  -0.00     0.10   0.00   0.00
     2   1    -0.00  -0.58   0.00    -0.00  -0.81   0.00     0.02  -0.00  -0.00
     3   1     0.50   0.29   0.00    -0.36  -0.19   0.00    -0.61  -0.36  -0.00
     4   1    -0.50   0.29   0.00     0.36  -0.19   0.00    -0.60   0.36  -0.00

 -------------------
 - Thermochemistry -
 -------------------
 Temperature   298.150 Kelvin.  Pressure   1.00000 Atm.
 Atom     1 has atomic number  6 and mass  12.00000
 Atom     2 has atomic number  1 and mass   1.00783
 Atom     3 has atomic number  1 and mass   1.00783
 Atom     4 has atomic number  1 and mass   1.00783
 Molecular mass:    15.02348 amu.
 Principal axes and moments of inertia in atomic units:
                           1         2         3
     Eigenvalues --     6.28482   6.28493  12.56975
           X            1.00000   0.00000   0.00000
           Y           -0.00000   1.00000   0.00000
           Z            0.00000  -0.00000   1.00000
 This molecule is an asymmetric top.
 Rotational symmetry number  1.
 Rotational temperatures (Kelvin)     13.78142    13.78120     6.89065
 Rotational constants (GHZ):         287.15856   287.15387   143.57811
 Zero-point vibrational energy      77899.6 (Joules/Mol)
                                   18.61846 (Kcal/Mol)
 Warning -- explicit consideration of   1 degrees of freedom as
           vibrations may cause significant error
 Vibrational temperatures:    740.55  2010.65  2010.90  4484.08  4746.06
          (Kelvin)           4746.07
 
 Zero-point correction=                           0.029670 (Hartree/Particle)
 Thermal correction to Energy=                    0.032731
 Thermal correction to Enthalpy=                  0.033676
 Thermal correction to Gibbs Free Energy=         0.009884
 Sum of electronic and zero-point Energies=            -39.811981
 Sum of electronic and thermal Energies=               -39.808920
 Sum of electronic and thermal Enthalpies=             -39.807976
 Sum of electronic and thermal Free Energies=          -39.831768
 
                     E (Thermal)             CV                S
                      KCal/Mol        Cal/Mol-Kelvin    Cal/Mol-Kelvin
 Total                   20.539              7.393             50.075
 Electronic               0.000              0.000              1.377
 Translational            0.889              2.981             34.068
 Rotational               0.889              2.981             13.971
 Vibrational             18.762              1.431              0.659
 Vibration     1          0.870              1.217              0.622
                       Q            Log10(Q)             Ln(Q)
 Total Bot       0.284377D-04         -4.546105        -10.467794
 Total V=0       0.126271D+10          9.101303         20.956524
 Vib (Bot)       0.246290D-13        -13.608553        -31.334850
 Vib (Bot)    1  0.315121D+00         -0.501523         -1.154799
 Vib (V=0)       0.109359D+01          0.038855          0.089468
 Vib (V=0)    1  0.109102D+01          0.037832          0.087110
 Electronic      0.200000D+01          0.301030          0.693147
 Translational   0.228882D+07          6.359611         14.643545
 Rotational      0.252236D+03          2.401806          5.530364
 
                                          methyl with imposed symmetry and cc-pVT
 Z basis set
                                                             IR Spectrum
 
      3      3                                                                 1                                                     
      2      1                                                                 3                                 5                   
      9      1                                                                 9                                 1                   
      9      7                                                                 7                                 5                   
 
      X                                                                        X                                 X                   
      X                                                                        X                                 X                   
                                                                                                                 X                   
                                                                                                                 X                   
                                                                                                                 X                   
                                                                                                                 X                   
                                                                                                                 X                   
                                                                                                                 X                   
                                                                                                                 X                   
                                                                                                                 X                   
                                                                                                                 X                   
                                                                                                                 X                   
                                                                                                                 X                   
                                                                                                                 X                   
                                                                                                                 X                   
                                                                                                                 X                   
                                                                                                                 X                   
                                                                                                                 X                   
                                                                                                                 X                   
                                                                                                                 X                   
 
 ***** Axes restored to original set *****
 -------------------------------------------------------------------
 Center     Atomic                   Forces (Hartrees/Bohr)
 Number     Number              X              Y              Z
 -------------------------------------------------------------------
      1        6           0.000000000    0.000000000   -0.000002025
      2        1          -0.000000000   -0.000000000    0.000221412
      3        1           0.000192068    0.000000000   -0.000109693
      4        1          -0.000192068   -0.000000000   -0.000109693
 -------------------------------------------------------------------
 Cartesian Forces:  Max     0.000221412 RMS     0.000110632
 Force constants in Cartesian coordinates: 
                1             2             3             4             5 
      1  0.615492D+00
      2  0.000000D+00  0.242121D-01
      3  0.000000D+00  0.000000D+00  0.615448D+00
      4 -0.533614D-01  0.000000D+00  0.000000D+00  0.446966D-01
      5  0.000000D+00 -0.809255D-02  0.000000D+00  0.000000D+00  0.263298D-02
      6  0.000000D+00  0.000000D+00 -0.356941D+00  0.000000D+00  0.000000D+00
      7 -0.281065D+00  0.000000D+00  0.131429D+00  0.433239D-02  0.000000D+00
      8  0.000000D+00 -0.805977D-02  0.000000D+00  0.000000D+00  0.272978D-02
      9  0.131433D+00  0.000000D+00 -0.129254D+00  0.233782D-01  0.000000D+00
     10 -0.281065D+00  0.000000D+00 -0.131429D+00  0.433239D-02  0.000000D+00
     11  0.000000D+00 -0.805977D-02  0.000000D+00  0.000000D+00  0.272978D-02
     12 -0.131433D+00  0.000000D+00 -0.129254D+00 -0.233782D-01  0.000000D+00
                6             7             8             9            10 
      6  0.370616D+00
      7 -0.403520D-02  0.289153D+00
      8  0.000000D+00  0.000000D+00  0.258024D-02
      9 -0.683729D-02 -0.141102D+00  0.000000D+00  0.126177D+00
     10  0.403520D-02 -0.124203D-01  0.000000D+00 -0.137085D-01  0.289153D+00
     11  0.000000D+00  0.000000D+00  0.274975D-02  0.000000D+00  0.000000D+00
     12 -0.683729D-02  0.137085D-01  0.000000D+00  0.991395D-02  0.141102D+00
               11            12 
     11  0.258024D-02
     12  0.000000D+00  0.126177D+00
 Force constants in internal coordinates: 
                1             2             3             4             5 
      1  0.370616D+00
      2 -0.759868D-04  0.370607D+00
      3 -0.759868D-04 -0.781212D-04  0.370607D+00
      4  0.539570D-02  0.538277D-02 -0.107906D-01  0.621118D-01
      5  0.539570D-02 -0.107906D-01  0.538277D-02 -0.310498D-01  0.621118D-01
      6 -0.107914D-01  0.540787D-02  0.540787D-02 -0.310620D-01 -0.310620D-01
      7  0.000000D+00  0.000000D+00  0.000000D+00  0.000000D+00  0.000000D+00
                6             7 
      6  0.621241D-01
      7  0.000000D+00  0.850097D-02
 Leave Link  716 at Sat Aug 17 23:48:10 2024, MaxMem=   13107200 cpu:       0.0
 (Enter /programs/64bit/g09/g09-gfortran/bin/l103.exe)

 GradGradGradGradGradGradGradGradGradGradGradGradGradGradGradGradGradGrad
 Berny optimization.
 Internal  Forces:  Max     0.000221412 RMS     0.000144849
 Search for a local minimum.
 Step number   1 out of a maximum of    2
 All quantities printed in internal units (Hartrees-Bohrs-Radians)
 Second derivative matrix not updated -- analytic derivatives used.
 The second derivative matrix:
                          R1        R2        R3        A1        A2
           R1           0.37062
           R2          -0.00008   0.37061
           R3          -0.00008  -0.00008   0.37061
           A1           0.00540   0.00538  -0.01079   0.06211
           A2           0.00540  -0.01079   0.00538  -0.03105   0.06211
           A3          -0.01079   0.00541   0.00541  -0.03106  -0.03106
           D1          -0.00000  -0.00000   0.00000   0.00000  -0.00000
                          A3        D1
           A3           0.06212
           D1           0.00000   0.00850
     Eigenvalues ---    0.00850   0.09222   0.09224   0.37046   0.37162
     Eigenvalues ---    0.371631000.00000
 Angle between quadratic step and forces=   0.77 degrees.
 Linear search not attempted -- first point.
 Iteration  1 RMS(Cart)=  0.00039105 RMS(Int)=  0.00000000
 Iteration  2 RMS(Cart)=  0.00000000 RMS(Int)=  0.00000000
 ClnCor:  largest displacement from symmetrization is 6.22D-11 for atom     1.
 Variable       Old X    -DE/DX   Delta X   Delta X   Delta X     New X
                                 (Linear)    (Quad)   (Total)
    R1        2.03896   0.00022   0.00000   0.00060   0.00060   2.03956
    R2        2.03897   0.00022   0.00000   0.00060   0.00060   2.03956
    R3        2.03897   0.00022   0.00000   0.00060   0.00060   2.03956
    A1        2.09439  -0.00000   0.00000  -0.00001  -0.00001   2.09438
    A2        2.09439  -0.00000   0.00000  -0.00001  -0.00001   2.09438
    A3        2.09441   0.00000   0.00000   0.00002   0.00002   2.09442
    D1        3.14159  -0.00000   0.00000   0.00000   0.00000   3.14159
         Item               Value     Threshold  Converged?
 Maximum Force            0.000221     0.000450     YES
 RMS     Force            0.000145     0.000300     YES
 Maximum Displacement     0.000591     0.001800     YES
 RMS     Displacement     0.000391     0.001200     YES
 Predicted change in Energy=-1.982393D-07
 Optimization completed.
    -- Stationary point found.
                           ----------------------------
                           !   Optimized Parameters   !
                           ! (Angstroms and Degrees)  !
 --------------------------                            --------------------------
 ! Name  Definition              Value          Derivative Info.                !
 --------------------------------------------------------------------------------
 ! R1    R(1,2)                  1.079          -DE/DX =    0.0002              !
 ! R2    R(1,3)                  1.079          -DE/DX =    0.0002              !
 ! R3    R(1,4)                  1.079          -DE/DX =    0.0002              !
 ! A1    A(2,1,3)              119.9997         -DE/DX =    0.0                 !
 ! A2    A(2,1,4)              119.9997         -DE/DX =    0.0                 !
 ! A3    A(3,1,4)              120.0007         -DE/DX =    0.0                 !
 ! D1    D(2,1,4,3)            180.0            -DE/DX =    0.0                 !
 --------------------------------------------------------------------------------
 GradGradGradGradGradGradGradGradGradGradGradGradGradGradGradGradGradGrad

 Leave Link  103 at Sat Aug 17 23:48:10 2024, MaxMem=   13107200 cpu:       0.0
 (Enter /programs/64bit/g09/g09-gfortran/bin/l9999.exe)
 1\1\GINC-MOLMOD\Freq\UB3PW91\CC-pVTZ\C1H3(2)\OSPITE\17-Aug-2024\0\\#P 
 Geom=AllCheck Guess=TCheck SCRF=Check GenChk UB3PW91/CC-pVTZ Freq\\met
 hyl with imposed symmetry and cc-pVTZ basis set\\0,2\C,0.,0.,-0.000002
 3579\H,0.,0.,1.0789711415\H,0.9344233688,0.,-0.5394843918\H,-0.9344233
 688,0.,-0.5394843918\\Version=EM64L-G09RevA.02\State=2-A"\HF=-39.84165
 16\S2=0.754417\S2-1=0.\S2A=0.75001\RMSD=1.044e-09\RMSF=1.106e-04\ZeroP
 oint=0.0296704\Thermal=0.0327314\Dipole=0.,0.,0.0000031\DipoleDeriv=0.
 0133498,0.,0.,0.,-0.4366175,0.,0.,0.,0.0133817,0.04717,0.,0.,0.,0.1455
 841,0.,0.,0.,-0.0560933,-0.0302599,0.,0.0447104,0.,0.1455167,0.,0.0446
 843,0.,0.0213558,-0.0302599,0.,-0.0447104,0.,0.1455167,0.,-0.0446843,0
 .,0.0213558\Polar=13.9670905,0.,10.3781096,0.,0.,13.9673478\PG=CS [SG(
 C1H3)]\NImag=0\\0.61549184,0.,0.02421208,0.,0.,0.61544823,-0.05336136,
 0.,0.,0.04469658,0.,-0.00809255,0.,0.,0.00263298,0.,0.,-0.35694094,0.,
 0.,0.37061552,-0.28106524,0.,0.13142896,0.00433239,0.,-0.00403520,0.28
 915312,0.,-0.00805977,0.,0.,0.00272978,0.,0.,0.00258024,0.13143261,0.,
 -0.12925365,0.02337815,0.,-0.00683729,-0.14110226,0.,0.12617699,-0.281
 06524,0.,-0.13142896,0.00433239,0.,0.00403520,-0.01242027,0.,-0.013708
 50,0.28915312,0.,-0.00805977,0.,0.,0.00272978,0.,0.,0.00274975,0.,0.,0
 .00258024,-0.13143261,0.,-0.12925365,-0.02337816,0.,-0.00683729,0.0137
 0850,0.,0.00991395,0.14110226,0.,0.12617699\\0.,0.,0.00000203,0.,0.,-0
 .00022141,-0.00019207,0.,0.00010969,0.00019207,0.,0.00010969\\\@


 EVERYTHING'S GOT A MORAL, IF ONLY YOU CAN FIND IT.

                                    -- LEWIS CARROL, ALICE IN WONDERLAND
 Job cpu time:  0 days  0 hours  2 minutes 13.7 seconds.
 File lengths (MBytes):  RWF=     10 Int=      0 D2E=      0 Chk=      2 Scr=      1
 Normal termination of Gaussian 09 at Sat Aug 17 23:48:11 2024.
