 Entering Gaussian System, Link 0=/programs/64bit/g09/g09-gfortran/bin/g09
 Input=ch3_aug-cc-pVDZ.com
 Output=ch3_aug-cc-pVDZ.log
 Initial command:
 /programs/64bit/g09/g09-gfortran/bin/l1.exe /home/ospite/Desktop/MMfP/Project6/CH3/g09/DFT/B3PW91/Gau-18029.inp -scrdir=/home/ospite/Desktop/MMfP/Project6/CH3/g09/DFT/B3PW91/
 Entering Link 1 = /programs/64bit/g09/g09-gfortran/bin/l1.exe PID=     18030.
  
 Copyright (c) 1988,1990,1992,1993,1995,1998,2003,2009, Gaussian, Inc.
                  All Rights Reserved.
  
 This is part of the Gaussian(R) 09 program.  It is based on
 the Gaussian(R) 03 system (copyright 2003, Gaussian, Inc.),
 the Gaussian(R) 98 system (copyright 1998, Gaussian, Inc.),
 the Gaussian(R) 94 system (copyright 1995, Gaussian, Inc.),
 the Gaussian 92(TM) system (copyright 1992, Gaussian, Inc.),
 the Gaussian 90(TM) system (copyright 1990, Gaussian, Inc.),
 the Gaussian 88(TM) system (copyright 1988, Gaussian, Inc.),
 the Gaussian 86(TM) system (copyright 1986, Carnegie Mellon
 University), and the Gaussian 82(TM) system (copyright 1983,
 Carnegie Mellon University). Gaussian is a federally registered
 trademark of Gaussian, Inc.
  
 This software contains proprietary and confidential information,
 including trade secrets, belonging to Gaussian, Inc.
  
 This software is provided under written license and may be
 used, copied, transmitted, or stored only in accord with that
 written license.
  
 The following legend is applicable only to US Government
 contracts under FAR:
  
                    RESTRICTED RIGHTS LEGEND
  
 Use, reproduction and disclosure by the US Government is
 subject to restrictions as set forth in subparagraphs (a)
 and (c) of the Commercial Computer Software - Restricted
 Rights clause in FAR 52.227-19.
  
 Gaussian, Inc.
 340 Quinnipiac St., Bldg. 40, Wallingford CT 06492
  
  
 ---------------------------------------------------------------
 Warning -- This program may not be used in any manner that
 competes with the business of Gaussian, Inc. or will provide
 assistance to any competitor of Gaussian, Inc.  The licensee
 of this program is prohibited from giving any competitor of
 Gaussian, Inc. access to this program.  By using this program,
 the user acknowledges that Gaussian, Inc. is engaged in the
 business of creating and licensing software in the field of
 computational chemistry and represents and warrants to the
 licensee that it is not a competitor of Gaussian, Inc. and that
 it will not use this program in any manner prohibited above.
 ---------------------------------------------------------------
  

 Cite this work as:
 Gaussian 09, Revision A.02,
 M. J. Frisch, G. W. Trucks, H. B. Schlegel, G. E. Scuseria, 
 M. A. Robb, J. R. Cheeseman, G. Scalmani, V. Barone, B. Mennucci, 
 G. A. Petersson, H. Nakatsuji, M. Caricato, X. Li, H. P. Hratchian, 
 A. F. Izmaylov, J. Bloino, G. Zheng, J. L. Sonnenberg, M. Hada, 
 M. Ehara, K. Toyota, R. Fukuda, J. Hasegawa, M. Ishida, T. Nakajima, 
 Y. Honda, O. Kitao, H. Nakai, T. Vreven, J. A. Montgomery, Jr., 
 J. E. Peralta, F. Ogliaro, M. Bearpark, J. J. Heyd, E. Brothers, 
 K. N. Kudin, V. N. Staroverov, R. Kobayashi, J. Normand, 
 K. Raghavachari, A. Rendell, J. C. Burant, S. S. Iyengar, J. Tomasi, 
 M. Cossi, N. Rega, J. M. Millam, M. Klene, J. E. Knox, J. B. Cross, 
 V. Bakken, C. Adamo, J. Jaramillo, R. Gomperts, R. E. Stratmann, 
 O. Yazyev, A. J. Austin, R. Cammi, C. Pomelli, J. W. Ochterski, 
 R. L. Martin, K. Morokuma, V. G. Zakrzewski, G. A. Voth, 
 P. Salvador, J. J. Dannenberg, S. Dapprich, A. D. Daniels, 
 O. Farkas, J. B. Foresman, J. V. Ortiz, J. Cioslowski, 
 and D. J. Fox, Gaussian, Inc., Wallingford CT, 2009.
 
 ******************************************
 Gaussian 09:  EM64L-G09RevA.02 11-Jun-2009
                17-Aug-2024 
 ******************************************
 %mem=100MB
 ----------------------------------------------------------------------
 #p b3pw91/aug-cc-pVDZ opt freq symmetry=(follow,pg=C3v) pop=full gfinp
 ut
 ----------------------------------------------------------------------
 1/14=-1,18=20,19=15,26=3,38=1/1,3;
 2/9=110,12=2,17=6,18=5,19=2314885530821997379,40=1/2;
 3/5=16,7=10,11=2,16=1,24=10,25=1,30=1,71=1,74=-6/1,2,3;
 4//1;
 5/5=2,38=5/2;
 6/7=3,28=1/1;
 7//1,2,3,16;
 1/14=-1,18=20,19=15/3(2);
 2/9=110,15=5,19=2314885530821997379/2;
 99//99;
 2/9=110,15=5,19=2314885530821997379/2;
 3/5=16,7=10,11=2,16=1,25=1,30=1,71=1,74=-6/1,2,3;
 4/5=5,16=3/1;
 5/5=2,38=5/2;
 7//1,2,3,16;
 1/14=-1,18=20,19=15/3(-5);
 2/9=110,15=5,19=2314885530821997379/2;
 6/7=3,19=2,28=1/1;
 99/9=1/99;
 Leave Link    1 at Sat Aug 17 23:41:03 2024, MaxMem=   13107200 cpu:       0.1
 (Enter /programs/64bit/g09/g09-gfortran/bin/l101.exe)
 ------------------------------------------------------
 methyl with imposed symmetry and aug-cc-pVDZ basis set
 ------------------------------------------------------
 Symbolic Z-matrix:
 Charge =  0 Multiplicity = 2
 C1
 H2                   1    d
 H3                   1    d        2    a
 H4                   1    d        2    -a       3    t        0
       Variables:
  d                     1.09                     
  a                   120.                       
  t                     0.                       
 
 NAtoms=      4 NQM=      4 NQMF=      0 NMic=      0 NMicF=      0 NTot=      4.
                    Isotopes and Nuclear Properties:
 (Nuclear quadrupole moments (NQMom) in fm**2, nuclear magnetic moments (NMagM)
  in nuclear magnetons)

  Atom         1           2           3           4
 IAtWgt=          12           1           1           1
 AtmWgt=  12.0000000   1.0078250   1.0078250   1.0078250
 NucSpn=           0           1           1           1
 AtZEff=   0.0000000   0.0000000   0.0000000   0.0000000
 NQMom=    0.0000000   0.0000000   0.0000000   0.0000000
 NMagM=    0.0000000   2.7928460   2.7928460   2.7928460
 Leave Link  101 at Sat Aug 17 23:41:03 2024, MaxMem=   13107200 cpu:       0.1
 (Enter /programs/64bit/g09/g09-gfortran/bin/l103.exe)

 GradGradGradGradGradGradGradGradGradGradGradGradGradGradGradGradGradGrad
 Berny optimization.
 Initialization pass.
                           ----------------------------
                           !    Initial Parameters    !
                           ! (Angstroms and Degrees)  !
 --------------------------                            --------------------------
 ! Name  Definition              Value          Derivative Info.                !
 --------------------------------------------------------------------------------
 ! R1    R(1,2)                  1.09           estimate D2E/DX2                !
 ! R2    R(1,3)                  1.09           estimate D2E/DX2                !
 ! R3    R(1,4)                  1.09           estimate D2E/DX2                !
 ! A1    A(2,1,3)              120.0            estimate D2E/DX2                !
 ! A2    A(2,1,4)              120.0            estimate D2E/DX2                !
 ! A3    A(3,1,4)              120.0            estimate D2E/DX2                !
 ! D1    D(2,1,4,3)            180.0            estimate D2E/DX2                !
 --------------------------------------------------------------------------------
 Trust Radius=3.00D-01 FncErr=1.00D-07 GrdErr=1.00D-06
 Number of steps in this run=  20 maximum allowed number of steps= 100.
 GradGradGradGradGradGradGradGradGradGradGradGradGradGradGradGradGradGrad

 Leave Link  103 at Sat Aug 17 23:41:03 2024, MaxMem=   13107200 cpu:       0.0
 (Enter /programs/64bit/g09/g09-gfortran/bin/l202.exe)
                          Input orientation:                          
 ---------------------------------------------------------------------
 Center     Atomic      Atomic             Coordinates (Angstroms)
 Number     Number       Type             X           Y           Z
 ---------------------------------------------------------------------
      1          6           0        0.000000    0.000000    0.000000
      2          1           0        0.000000    0.000000    1.090000
      3          1           0        0.943968    0.000000   -0.545000
      4          1           0       -0.943968    0.000000   -0.545000
 ---------------------------------------------------------------------
                    Distance matrix (angstroms):
                    1          2          3          4
     1  C    0.000000
     2  H    1.090000   0.000000
     3  H    1.090000   1.887935   0.000000
     4  H    1.090000   1.887935   1.887935   0.000000
 Symm:  InNGrp=C3V  InAxis=0.
 This structure is nearly, but not quite of a higher symmetry.
 Consider Symm=Loose if the higher symmetry is desired.
 Stoichiometry    CH3(2)
 Framework group  C2[C2(CH),X(H2)]
 Deg. of freedom     3
 Full point group                 C2      NOp   2
 Largest Abelian subgroup         C2      NOp   2
 Largest concise Abelian subgroup C2      NOp   2
                         Standard orientation:                         
 ---------------------------------------------------------------------
 Center     Atomic      Atomic             Coordinates (Angstroms)
 Number     Number       Type             X           Y           Z
 ---------------------------------------------------------------------
      1          6           0        0.000000    0.000000    0.000000
      2          1           0        0.000000    0.000000    1.090000
      3          1           0        0.000000    0.943968   -0.545000
      4          1           0       -0.000000   -0.943968   -0.545000
 ---------------------------------------------------------------------
 Rotational constants (GHZ):    281.3764836    281.3764836    140.6882418
 Leave Link  202 at Sat Aug 17 23:41:03 2024, MaxMem=   13107200 cpu:       0.0
 (Enter /programs/64bit/g09/g09-gfortran/bin/l301.exe)
 Standard basis: Aug-CC-pVDZ (5D, 7F)
 Ernie: Thresh=  0.10000D-02 Tol=  0.10000D-05 Strict=F.
 Ernie:  2 primitive shells out of 46 were deleted.
 AO basis set in the form of general basis input (Overlap normalization):
      1 0
 S   7 1.00       0.000000000000
      0.6665000000D+04  0.6935163173D-03
      0.1000000000D+04  0.5341502433D-02
      0.2280000000D+03  0.2713667141D-01
      0.6471000000D+02  0.1019923853D+00
      0.2106000000D+02  0.2755086365D+00
      0.7495000000D+01  0.4510864331D+00
      0.2797000000D+01  0.2875657448D+00
 S   7 1.00       0.000000000000
      0.6665000000D+04  0.7733547404D-05
      0.2280000000D+03  0.2780721367D-03
      0.6471000000D+02 -0.2578756542D-02
      0.2106000000D+02 -0.8950876838D-02
      0.7495000000D+01 -0.1060588547D+00
      0.2797000000D+01 -0.1315176856D+00
      0.5215000000D+00  0.1099486598D+01
 S   1 1.00       0.000000000000
      0.1596000000D+00  0.1000000000D+01
 S   1 1.00       0.000000000000
      0.4690000000D-01  0.1000000000D+01
 P   3 1.00       0.000000000000
      0.9439000000D+01  0.5697925159D-01
      0.2002000000D+01  0.3132072115D+00
      0.5456000000D+00  0.7603767417D+00
 P   1 1.00       0.000000000000
      0.1517000000D+00  0.1000000000D+01
 P   1 1.00       0.000000000000
      0.4041000000D-01  0.1000000000D+01
 D   1 1.00       0.000000000000
      0.5500000000D+00  0.1000000000D+01
 D   1 1.00       0.000000000000
      0.1510000000D+00  0.1000000000D+01
 ****
      2 0
 S   3 1.00       0.000000000000
      0.1301000000D+02  0.3349872639D-01
      0.1962000000D+01  0.2348008012D+00
      0.4446000000D+00  0.8136829579D+00
 S   1 1.00       0.000000000000
      0.1220000000D+00  0.1000000000D+01
 S   1 1.00       0.000000000000
      0.2974000000D-01  0.1000000000D+01
 P   1 1.00       0.000000000000
      0.7270000000D+00  0.1000000000D+01
 P   1 1.00       0.000000000000
      0.1410000000D+00  0.1000000000D+01
 ****
      3 0
 S   3 1.00       0.000000000000
      0.1301000000D+02  0.3349872639D-01
      0.1962000000D+01  0.2348008012D+00
      0.4446000000D+00  0.8136829579D+00
 S   1 1.00       0.000000000000
      0.1220000000D+00  0.1000000000D+01
 S   1 1.00       0.000000000000
      0.2974000000D-01  0.1000000000D+01
 P   1 1.00       0.000000000000
      0.7270000000D+00  0.1000000000D+01
 P   1 1.00       0.000000000000
      0.1410000000D+00  0.1000000000D+01
 ****
      4 0
 S   3 1.00       0.000000000000
      0.1301000000D+02  0.3349872639D-01
      0.1962000000D+01  0.2348008012D+00
      0.4446000000D+00  0.8136829579D+00
 S   1 1.00       0.000000000000
      0.1220000000D+00  0.1000000000D+01
 S   1 1.00       0.000000000000
      0.2974000000D-01  0.1000000000D+01
 P   1 1.00       0.000000000000
      0.7270000000D+00  0.1000000000D+01
 P   1 1.00       0.000000000000
      0.1410000000D+00  0.1000000000D+01
 ****

 There are    27 symmetry adapted basis functions of A   symmetry.
 There are    23 symmetry adapted basis functions of B   symmetry.
 Integral buffers will be    131072 words long.
 Raffenetti 2 integral format.
 Two-electron integral symmetry is turned on.
    50 basis functions,    76 primitive gaussians,    52 cartesian basis functions
     5 alpha electrons        4 beta electrons
       nuclear repulsion energy         9.5795885928 Hartrees.
 IExCor=  408 DFT=T Ex+Corr=B3PW91 ExCW=0 ScaHFX=  0.200000
 ScaDFX=  0.800000  0.720000  1.000000  0.810000 ScalE2=  1.000000  1.000000
 IRadAn=      0 IRanWt=     -1 IRanGd=            0 ICorTp=0
 NAtoms=    4 NActive=    4 NUniq=    3 SFac= 1.33D+00 NAtFMM=   80 NAOKFM=F Big=F
 Leave Link  301 at Sat Aug 17 23:41:03 2024, MaxMem=   13107200 cpu:       0.1
 (Enter /programs/64bit/g09/g09-gfortran/bin/l302.exe)
 NPDir=0 NMtPBC=     1 NCelOv=     1 NCel=       1 NClECP=     1 NCelD=      1
         NCelK=      1 NCelE2=     1 NClLst=     1 CellRange=     0.0.
 One-electron integrals computed using PRISM.
 One-electron integral symmetry used in STVInt
 NBasis=    50 RedAO= T  NBF=    27    23
 NBsUse=    50 1.00D-06 NBFU=    27    23
 Precomputing XC quadrature grid using
 IXCGrd= 2 IRadAn=           0 IRanWt=          -1 IRanGd=           0 AccXCQ= 1.00D-10.
 NRdTot=     259 NPtTot=       32550 NUsed=       34428 NTot=       34460
 NSgBfM=    52    52    52    52    52 NAtAll=     4     4.
 Leave Link  302 at Sat Aug 17 23:41:03 2024, MaxMem=   13107200 cpu:       0.2
 (Enter /programs/64bit/g09/g09-gfortran/bin/l303.exe)
 DipDrv:  MaxL=1.
 Leave Link  303 at Sat Aug 17 23:41:03 2024, MaxMem=   13107200 cpu:       0.0
 (Enter /programs/64bit/g09/g09-gfortran/bin/l401.exe)
 Harris functional with IExCor=  408 diagonalized for initial guess.
 ExpMin= 2.97D-02 ExpMax= 6.66D+03 ExpMxC= 2.28D+02 IAcc=3 IRadAn=         0 AccDes= 0.00D+00
 HarFok:  IExCor=  408 AccDes= 0.00D+00 IRadAn=         0 IDoV= 1
 ScaDFX=  1.000000  1.000000  1.000000  1.000000
 FoFCou: FMM=F IPFlag=           0 FMFlag=      100000 FMFlg1=           0
         NFxFlg=           0 DoJE=T BraDBF=F KetDBF=T FulRan=T
         Omega=  0.000000  0.000000  1.000000  0.000000  0.000000 ICntrl=     500 IOpCl=  0
         NMat0=    1 NMatS0=    1 NMatT0=    0 NMatD0=    1 NMtDS0=    0 NMtDT0=    0
         I1Cent=           4 NGrid=           0.
 Petite list used in FoFCou.
 Harris En= -39.8513035626432    
 Initial guess orbital symmetries:
 Alpha Orbitals:
       Occupied  (A) (A) (A) (B) (B)
       Virtual   (A) (B) (A) (B) (B) (A) (A) (B) (A) (A) (A) (B)
                 (B) (A) (B) (B) (A) (A) (A) (B) (A) (B) (B) (A)
                 (A) (B) (B) (A) (A) (B) (A) (B) (A) (B) (B) (B)
                 (A) (A) (A) (B) (B) (A) (A) (B) (A)
 Beta  Orbitals:
       Occupied  (A) (A) (A) (B)
       Virtual   (B) (A) (B) (A) (B) (B) (A) (A) (B) (A) (A) (A)
                 (B) (B) (A) (B) (B) (A) (A) (A) (B) (A) (B) (B)
                 (A) (A) (B) (B) (A) (A) (B) (A) (B) (A) (B) (B)
                 (B) (A) (A) (A) (B) (B) (A) (A) (B) (A)
 The electronic state of the initial guess is 2-B.
 Initial guess <Sx>= 0.0000 <Sy>= 0.0000 <Sz>= 0.5000 <S**2>= 0.7500 S= 0.5000
 Leave Link  401 at Sat Aug 17 23:41:04 2024, MaxMem=   13107200 cpu:       0.7
 (Enter /programs/64bit/g09/g09-gfortran/bin/l502.exe)
 UHF open shell SCF:
 Requested convergence on RMS density matrix=1.00D-08 within 128 cycles.
 Requested convergence on MAX density matrix=1.00D-06.
 Requested convergence on             energy=1.00D-06.
 No special actions if energy rises.
 Using DIIS extrapolation, IDIIS=  1040.
 Integral symmetry usage will be decided dynamically.
        34379 words used for storage of precomputed grid.
 Keep R1 and R2 ints in memory in canonical form, NReq=2833478.
 IEnd=       61417 IEndB=       61417 NGot=    13107200 MDV=    11164890
 LenX=    11164890 LenY=    11161745
 Symmetry not used in FoFDir.
 MinBra= 0 MaxBra= 2 Meth= 1.
 IRaf=       0 NMat=   1 IRICut=       1 DoRegI=T DoRafI=F ISym2E= 0 JSym2E=0.

 Cycle   1  Pass 1  IDiag  1:
 E= -39.7915819981440    
 DIIS: error= 3.11D-02 at cycle   1 NSaved=   1.
 NSaved= 1 IEnMin= 1 EnMin= -39.7915819981440     IErMin= 1 ErrMin= 3.11D-02
 ErrMax= 3.11D-02 EMaxC= 1.00D-01 BMatC= 1.21D-01 BMatP= 1.21D-01
 IDIUse=3 WtCom= 6.89D-01 WtEn= 3.11D-01
 Coeff-Com:  0.100D+01
 Coeff-En:   0.100D+01
 Coeff:      0.100D+01
 Gap=     0.171 Goal=   None    Shift=    0.000
 Gap=     0.363 Goal=   None    Shift=    0.000
 GapD=    0.171 DampG=1.000 DampE=0.500 DampFc=0.5000 IDamp=-1.
 Damping current iteration by 5.00D-01
 RMSDP=6.31D-03 MaxDP=1.47D-01              OVMax= 1.63D-01

 Cycle   2  Pass 1  IDiag  1:
 E= -39.8097352779519     Delta-E=       -0.018153279808 Rises=F Damp=T
 DIIS: error= 7.15D-03 at cycle   2 NSaved=   2.
 NSaved= 2 IEnMin= 2 EnMin= -39.8097352779519     IErMin= 2 ErrMin= 7.15D-03
 ErrMax= 7.15D-03 EMaxC= 1.00D-01 BMatC= 3.74D-03 BMatP= 1.21D-01
 IDIUse=3 WtCom= 9.28D-01 WtEn= 7.15D-02
 Coeff-Com:  0.904D-02 0.991D+00
 Coeff-En:   0.000D+00 0.100D+01
 Coeff:      0.839D-02 0.992D+00
 Gap=     0.236 Goal=   None    Shift=    0.000
 Gap=     0.347 Goal=   None    Shift=    0.000
 RMSDP=1.63D-03 MaxDP=1.86D-02 DE=-1.82D-02 OVMax= 9.47D-02

 Cycle   3  Pass 1  IDiag  1:
 E= -39.8289799509676     Delta-E=       -0.019244673016 Rises=F Damp=F
 DIIS: error= 1.17D-03 at cycle   3 NSaved=   3.
 NSaved= 3 IEnMin= 3 EnMin= -39.8289799509676     IErMin= 3 ErrMin= 1.17D-03
 ErrMax= 1.17D-03 EMaxC= 1.00D-01 BMatC= 1.22D-04 BMatP= 3.74D-03
 IDIUse=3 WtCom= 9.88D-01 WtEn= 1.17D-02
 Coeff-Com: -0.188D-01-0.359D-02 0.102D+01
 Coeff-En:   0.000D+00 0.000D+00 0.100D+01
 Coeff:     -0.185D-01-0.355D-02 0.102D+01
 Gap=     0.241 Goal=   None    Shift=    0.000
 Gap=     0.343 Goal=   None    Shift=    0.000
 RMSDP=2.13D-04 MaxDP=2.96D-03 DE=-1.92D-02 OVMax= 4.19D-03

 Cycle   4  Pass 1  IDiag  1:
 E= -39.8290452059945     Delta-E=       -0.000065255027 Rises=F Damp=F
 DIIS: error= 2.72D-04 at cycle   4 NSaved=   4.
 NSaved= 4 IEnMin= 4 EnMin= -39.8290452059945     IErMin= 4 ErrMin= 2.72D-04
 ErrMax= 2.72D-04 EMaxC= 1.00D-01 BMatC= 9.59D-06 BMatP= 1.22D-04
 IDIUse=3 WtCom= 9.97D-01 WtEn= 2.72D-03
 Coeff-Com:  0.126D-02-0.144D-01-0.289D+00 0.130D+01
 Coeff-En:   0.000D+00 0.000D+00 0.000D+00 0.100D+01
 Coeff:      0.126D-02-0.143D-01-0.288D+00 0.130D+01
 Gap=     0.241 Goal=   None    Shift=    0.000
 Gap=     0.343 Goal=   None    Shift=    0.000
 RMSDP=8.34D-05 MaxDP=1.21D-03 DE=-6.53D-05 OVMax= 1.61D-03

 Cycle   5  Pass 1  IDiag  1:
 E= -39.8290529649384     Delta-E=       -0.000007758944 Rises=F Damp=F
 DIIS: error= 4.81D-05 at cycle   5 NSaved=   5.
 NSaved= 5 IEnMin= 5 EnMin= -39.8290529649384     IErMin= 5 ErrMin= 4.81D-05
 ErrMax= 4.81D-05 EMaxC= 1.00D-01 BMatC= 3.29D-07 BMatP= 9.59D-06
 IDIUse=1 WtCom= 1.00D+00 WtEn= 0.00D+00
 Coeff-Com:  0.776D-03 0.428D-02 0.180D-01-0.299D+00 0.128D+01
 Coeff:      0.776D-03 0.428D-02 0.180D-01-0.299D+00 0.128D+01
 Gap=     0.241 Goal=   None    Shift=    0.000
 Gap=     0.343 Goal=   None    Shift=    0.000
 RMSDP=1.56D-05 MaxDP=2.45D-04 DE=-7.76D-06 OVMax= 3.42D-04

 Cycle   6  Pass 1  IDiag  1:
 E= -39.8290532556658     Delta-E=       -0.000000290727 Rises=F Damp=F
 DIIS: error= 5.16D-06 at cycle   6 NSaved=   6.
 NSaved= 6 IEnMin= 6 EnMin= -39.8290532556658     IErMin= 6 ErrMin= 5.16D-06
 ErrMax= 5.16D-06 EMaxC= 1.00D-01 BMatC= 2.42D-09 BMatP= 3.29D-07
 IDIUse=1 WtCom= 1.00D+00 WtEn= 0.00D+00
 Coeff-Com: -0.864D-04-0.367D-03 0.395D-02 0.860D-02-0.144D+00 0.113D+01
 Coeff:     -0.864D-04-0.367D-03 0.395D-02 0.860D-02-0.144D+00 0.113D+01
 Gap=     0.241 Goal=   None    Shift=    0.000
 Gap=     0.343 Goal=   None    Shift=    0.000
 RMSDP=1.06D-06 MaxDP=2.04D-05 DE=-2.91D-07 OVMax= 3.01D-05

 Cycle   7  Pass 1  IDiag  1:
 E= -39.8290532576232     Delta-E=       -0.000000001957 Rises=F Damp=F
 DIIS: error= 8.40D-07 at cycle   7 NSaved=   7.
 NSaved= 7 IEnMin= 7 EnMin= -39.8290532576232     IErMin= 7 ErrMin= 8.40D-07
 ErrMax= 8.40D-07 EMaxC= 1.00D-01 BMatC= 3.88D-11 BMatP= 2.42D-09
 IDIUse=1 WtCom= 1.00D+00 WtEn= 0.00D+00
 Coeff-Com:  0.239D-04 0.811D-05-0.703D-03 0.717D-03 0.116D-01-0.170D+00
 Coeff-Com:  0.116D+01
 Coeff:      0.239D-04 0.811D-05-0.703D-03 0.717D-03 0.116D-01-0.170D+00
 Coeff:      0.116D+01
 Gap=     0.241 Goal=   None    Shift=    0.000
 Gap=     0.343 Goal=   None    Shift=    0.000
 RMSDP=1.36D-07 MaxDP=2.19D-06 DE=-1.96D-09 OVMax= 3.15D-06

 Cycle   8  Pass 1  IDiag  1:
 E= -39.8290532576423     Delta-E=       -0.000000000019 Rises=F Damp=F
 DIIS: error= 5.91D-08 at cycle   8 NSaved=   8.
 NSaved= 8 IEnMin= 8 EnMin= -39.8290532576423     IErMin= 8 ErrMin= 5.91D-08
 ErrMax= 5.91D-08 EMaxC= 1.00D-01 BMatC= 1.09D-13 BMatP= 3.88D-11
 IDIUse=1 WtCom= 1.00D+00 WtEn= 0.00D+00
 Coeff-Com: -0.144D-05 0.234D-05 0.693D-05-0.544D-04 0.271D-03 0.858D-03
 Coeff-Com: -0.541D-01 0.105D+01
 Coeff:     -0.144D-05 0.234D-05 0.693D-05-0.544D-04 0.271D-03 0.858D-03
 Coeff:     -0.541D-01 0.105D+01
 Gap=     0.241 Goal=   None    Shift=    0.000
 Gap=     0.343 Goal=   None    Shift=    0.000
 RMSDP=7.06D-09 MaxDP=2.61D-07 DE=-1.91D-11 OVMax= 2.78D-07

 SCF Done:  E(UB3PW91) =  -39.8290532576     A.U. after    8 cycles
             Convg  =    0.7061D-08             -V/T =  2.0088
 <Sx>= 0.0000 <Sy>= 0.0000 <Sz>= 0.5000 <S**2>= 0.7543 S= 0.5021
 <L.S>=  0.00000000000    
 KE= 3.948103319850D+01 PE=-1.109333861688D+02 EE= 2.204371111988D+01
 Annihilation of the first spin contaminant:
 S**2 before annihilation     0.7543,   after     0.7500
 Leave Link  502 at Sat Aug 17 23:41:14 2024, MaxMem=   13107200 cpu:       7.8
 (Enter /programs/64bit/g09/g09-gfortran/bin/l601.exe)
 Copying SCF densities to generalized density rwf, IOpCl= 1 IROHF=0.

 **********************************************************************

            Population analysis using the SCF density.

 **********************************************************************

 Orbital symmetries:
 Alpha Orbitals:
       Occupied  (A) (A) (B) (A) (B)
       Virtual   (A) (A) (B) (B) (B) (A) (A) (A) (A) (B) (A) (B)
                 (B) (A) (B) (B) (A) (A) (B) (A) (A) (B) (B) (A)
                 (B) (A) (B) (A) (A) (B) (A) (B) (A) (B) (B) (B)
                 (A) (A) (A) (B) (B) (A) (A) (B) (A)
 Beta  Orbitals:
       Occupied  (A) (A) (A) (B)
       Virtual   (B) (A) (A) (B) (B) (B) (A) (A) (A) (B) (A) (A)
                 (B) (B) (A) (B) (B) (A) (A) (B) (A) (B) (A) (A)
                 (B) (A) (B) (B) (A) (A) (B) (A) (B) (B) (A) (B)
                 (B) (A) (A) (A) (B) (B) (A) (A) (B) (A)
 The electronic state is 2-B.
 Alpha  occ. eigenvalues --  -10.19013  -0.69180  -0.42300  -0.42300  -0.24071
 Alpha virt. eigenvalues --    0.00047   0.03431   0.03431   0.06916   0.10699
 Alpha virt. eigenvalues --    0.10700   0.11609   0.17233   0.17303   0.17303
 Alpha virt. eigenvalues --    0.25589   0.25589   0.34987   0.34989   0.37756
 Alpha virt. eigenvalues --    0.40892   0.43010   0.46036   0.46959   0.46959
 Alpha virt. eigenvalues --    0.50955   0.50955   0.52185   0.52186   0.71186
 Alpha virt. eigenvalues --    0.71588   0.91101   0.91102   1.24030   1.24031
 Alpha virt. eigenvalues --    1.27724   1.27724   1.51396   1.56930   1.69094
 Alpha virt. eigenvalues --    1.70415   1.70415   1.83851   1.98164   1.98164
 Alpha virt. eigenvalues --    2.15913   2.15913   2.48330   2.65030   2.65030
  Beta  occ. eigenvalues --  -10.17489  -0.64833  -0.41195  -0.41195
  Beta virt. eigenvalues --   -0.06868   0.00554   0.03500   0.03502   0.09690
  Beta virt. eigenvalues --    0.10927   0.10927   0.12535   0.17668   0.17669
  Beta virt. eigenvalues --    0.20012   0.27238   0.27239   0.35266   0.35267
  Beta virt. eigenvalues --    0.40391   0.40779   0.46540   0.47088   0.47558
  Beta virt. eigenvalues --    0.47559   0.52915   0.52916   0.53030   0.53031
  Beta virt. eigenvalues --    0.73282   0.78799   0.92144   0.92145   1.24711
  Beta virt. eigenvalues --    1.24711   1.31162   1.31162   1.56564   1.56894
  Beta virt. eigenvalues --    1.70474   1.70988   1.70988   1.88487   2.01478
  Beta virt. eigenvalues --    2.01479   2.16320   2.16321   2.49011   2.65976
  Beta virt. eigenvalues --    2.65977
     Alpha Molecular Orbital Coefficients:
                           1         2         3         4         5
                           O         O         O         O         O
     Eigenvalues --   -10.19013  -0.69180  -0.42300  -0.42300  -0.24071
   1 1   C  1S          0.99696  -0.19646   0.00000  -0.00000   0.00000
   2        2S          0.03581   0.40292   0.00000  -0.00000   0.00000
   3        3S         -0.06204   0.27433   0.00000   0.00001   0.00000
   4        4S         -0.01818   0.01401   0.00000   0.00003   0.00000
   5        5PX         0.00000   0.00000  -0.00000   0.00000   0.61081
   6        5PY         0.00000   0.00000   0.45750   0.00000  -0.00000
   7        5PZ         0.00000   0.00000   0.00000   0.45750   0.00000
   8        6PX         0.00000   0.00000  -0.00000   0.00000   0.44848
   9        6PY         0.00000   0.00000   0.04690   0.00000   0.00000
  10        6PZ        -0.00000  -0.00000   0.00000   0.04691   0.00000
  11        7PX         0.00000   0.00000  -0.00000   0.00000   0.07857
  12        7PY         0.00000   0.00000  -0.00645   0.00000   0.00000
  13        7PZ        -0.00000   0.00000   0.00000  -0.00646   0.00000
  14        8D 0        0.00076  -0.00661   0.00000   0.01754   0.00000
  15        8D+1        0.00000   0.00000   0.00000   0.00000  -0.00000
  16        8D-1        0.00000   0.00000  -0.02025   0.00000  -0.00000
  17        8D+2       -0.00131   0.01145   0.00000   0.01012   0.00000
  18        8D-2        0.00000   0.00000   0.00000   0.00000   0.00000
  19        9D 0       -0.00167  -0.00547   0.00000  -0.06784   0.00000
  20        9D+1        0.00000   0.00000  -0.00000   0.00000   0.00002
  21        9D-1        0.00000   0.00000   0.07834   0.00000  -0.00000
  22        9D+2        0.00290   0.00946   0.00000  -0.03917   0.00000
  23        9D-2        0.00000  -0.00000   0.00000   0.00000   0.00000
  24 2   H  1S         -0.00080   0.19588   0.00000   0.38099   0.00000
  25        2S          0.02083   0.02742   0.00000   0.36869   0.00000
  26        3S          0.00230   0.00080   0.00000   0.01450   0.00000
  27        4PX         0.00000   0.00000  -0.00000   0.00000   0.02105
  28        4PY         0.00000   0.00000   0.01297   0.00000  -0.00000
  29        4PZ         0.00204  -0.02581   0.00000  -0.01188   0.00000
  30        5PX         0.00000   0.00000   0.00000   0.00000   0.01020
  31        5PY         0.00000   0.00000  -0.03566   0.00000  -0.00000
  32        5PZ        -0.00668  -0.00714   0.00000  -0.07171   0.00000
  33 3   H  1S         -0.00080   0.19588   0.32995  -0.19050  -0.00000
  34        2S          0.02083   0.02741   0.31931  -0.18436  -0.00000
  35        3S          0.00230   0.00081   0.01256  -0.00726  -0.00000
  36        4PX        -0.00000  -0.00000   0.00000  -0.00000   0.02106
  37        4PY         0.00176  -0.02235  -0.00567   0.01076   0.00000
  38        4PZ        -0.00102   0.01291   0.01076   0.00675  -0.00000
  39        5PX        -0.00000   0.00000   0.00000  -0.00000   0.01022
  40        5PY        -0.00578  -0.00618  -0.06270   0.01561   0.00000
  41        5PZ         0.00334   0.00356   0.01561  -0.04467  -0.00000
  42 4   H  1S         -0.00080   0.19588  -0.32995  -0.19050   0.00000
  43        2S          0.02083   0.02741  -0.31931  -0.18436   0.00000
  44        3S          0.00230   0.00081  -0.01256  -0.00726   0.00000
  45        4PX         0.00000   0.00000   0.00000   0.00000   0.02106
  46        4PY        -0.00176   0.02235  -0.00567  -0.01076   0.00000
  47        4PZ        -0.00102   0.01291  -0.01076   0.00675   0.00000
  48        5PX         0.00000  -0.00000   0.00000   0.00000   0.01022
  49        5PY         0.00578   0.00618  -0.06270  -0.01561   0.00000
  50        5PZ         0.00334   0.00356  -0.01561  -0.04467   0.00000
                           6         7         8         9        10
                           V         V         V         V         V
     Eigenvalues --     0.00047   0.03431   0.03431   0.06916   0.10699
   1 1   C  1S         -0.06206  -0.00001   0.00000   0.00000   0.00000
   2        2S          0.13096   0.00003   0.00000   0.00000   0.00000
   3        3S          0.79940  -0.00002   0.00000   0.00000   0.00000
   4        4S          1.87923  -0.00003   0.00000   0.00000   0.00000
   5        5PX         0.00000   0.00000   0.00000  -0.24079   0.00000
   6        5PY         0.00000   0.00000  -0.13589  -0.00000   0.07336
   7        5PZ         0.00002  -0.13587   0.00000   0.00000   0.00000
   8        6PX         0.00000   0.00000   0.00000  -0.20130   0.00000
   9        6PY         0.00000   0.00000  -0.29914  -0.00000  -1.27435
  10        6PZ        -0.00002  -0.29929   0.00000   0.00000   0.00000
  11        7PX         0.00000   0.00000  -0.00000   1.19804   0.00000
  12        7PY         0.00000   0.00000  -1.19045   0.00000  -3.84223
  13        7PZ        -0.00002  -1.19099   0.00000   0.00000   0.00000
  14        8D 0       -0.00439  -0.00323   0.00000   0.00000   0.00000
  15        8D+1        0.00000   0.00000  -0.00000  -0.00001   0.00000
  16        8D-1        0.00000   0.00000   0.00373   0.00000  -0.02427
  17        8D+2        0.00760  -0.00187   0.00000   0.00000   0.00000
  18        8D-2        0.00000   0.00000   0.00000   0.00000   0.00000
  19        9D 0        0.02672   0.06203   0.00000   0.00000   0.00000
  20        9D+1        0.00000   0.00000   0.00000   0.00012  -0.00000
  21        9D-1        0.00000   0.00000  -0.07164  -0.00000   0.31026
  22        9D+2       -0.04627   0.03584   0.00000   0.00000   0.00000
  23        9D-2       -0.00000  -0.00000   0.00000   0.00000   0.00000
  24 2   H  1S         -0.01901  -0.03017   0.00000   0.00000   0.00000
  25        2S         -0.42305   0.29315   0.00000   0.00000   0.00000
  26        3S         -0.81240   3.92291   0.00000   0.00000   0.00000
  27        4PX         0.00000   0.00000   0.00000   0.00466   0.00000
  28        4PY         0.00000   0.00000  -0.00424   0.00000  -0.01774
  29        4PZ        -0.01169   0.01013   0.00000   0.00000   0.00000
  30        5PX         0.00000   0.00000   0.00000  -0.09821   0.00000
  31        5PY         0.00000   0.00000   0.12911  -0.00000  -0.07821
  32        5PZ         0.05791  -0.07545   0.00000   0.00000   0.00000
  33 3   H  1S         -0.01902   0.01508  -0.02613  -0.00000   0.12624
  34        2S         -0.42310  -0.14655   0.25363   0.00000   2.49966
  35        3S         -0.81202  -1.96151   3.39672  -0.00000   4.59956
  36        4PX         0.00000  -0.00000   0.00000   0.00466   0.00000
  37        4PY        -0.01012  -0.00623   0.00654   0.00000  -0.01569
  38        4PZ         0.00584  -0.00065  -0.00623   0.00000  -0.00119
  39        5PX         0.00000   0.00000   0.00000  -0.09811   0.00000
  40        5PY         0.05014   0.08858  -0.02426  -0.00000  -0.44379
  41        5PZ        -0.02893   0.07803   0.08854   0.00000   0.21109
  42 4   H  1S         -0.01902   0.01508   0.02613   0.00000  -0.12624
  43        2S         -0.42310  -0.14655  -0.25363  -0.00000  -2.49966
  44        3S         -0.81202  -1.96151  -3.39672   0.00000  -4.59956
  45        4PX        -0.00000   0.00000   0.00000   0.00466   0.00000
  46        4PY         0.01012   0.00623   0.00654   0.00000  -0.01569
  47        4PZ         0.00584  -0.00065   0.00623  -0.00000   0.00119
  48        5PX        -0.00000  -0.00000   0.00000  -0.09811   0.00000
  49        5PY        -0.05014  -0.08858  -0.02426  -0.00000  -0.44379
  50        5PZ        -0.02893   0.07803  -0.08854  -0.00000  -0.21109
                          11        12        13        14        15
                           V         V         V         V         V
     Eigenvalues --     0.10700   0.11609   0.17233   0.17303   0.17303
   1 1   C  1S         -0.00004   0.06673  -0.06687  -0.00037   0.00000
   2        2S          0.00023  -0.32800   0.08288   0.00045   0.00000
   3        3S         -0.00158   1.56087   1.09954   0.00612   0.00000
   4        4S         -0.00605   6.70285   4.07114   0.02288   0.00000
   5        5PX         0.00000   0.00000   0.00000   0.00000  -0.00000
   6        5PY         0.00000   0.00000   0.00000   0.00000   0.35630
   7        5PZ         0.07339   0.00004  -0.00195   0.35629   0.00000
   8        6PX         0.00000   0.00000   0.00000   0.00000   0.00000
   9        6PY         0.00000   0.00000   0.00000   0.00000   0.04163
  10        6PZ        -1.27420  -0.00121  -0.00067   0.04168   0.00000
  11        7PX         0.00000   0.00000   0.00000   0.00000  -0.00000
  12        7PY         0.00000   0.00000   0.00000   0.00000  -1.71420
  13        7PZ        -3.84201  -0.00290   0.00896  -1.71403   0.00000
  14        8D 0        0.02102   0.00475  -0.02124  -0.05901   0.00000
  15        8D+1        0.00000   0.00000   0.00000   0.00000  -0.00000
  16        8D-1        0.00000   0.00000   0.00000   0.00000   0.06800
  17        8D+2        0.01214  -0.00819   0.03757  -0.03379   0.00000
  18        8D-2        0.00000   0.00000  -0.00000  -0.00000   0.00000
  19        9D 0       -0.26876   0.11734  -0.05728   0.28607   0.00000
  20        9D+1        0.00000   0.00000   0.00000   0.00000  -0.00000
  21        9D-1        0.00000   0.00000   0.00000   0.00000  -0.33065
  22        9D+2       -0.15500  -0.20390   0.09513   0.16587   0.00000
  23        9D-2       -0.00000  -0.00000   0.00000  -0.00000   0.00000
  24 2   H  1S          0.14576   0.04554  -0.18395  -0.15317   0.00000
  25        2S          2.88757  -1.36513  -1.43426  -0.55987   0.00000
  26        3S          5.31197  -1.52231  -0.57828   3.40986   0.00000
  27        4PX         0.00000   0.00000   0.00000   0.00000   0.00000
  28        4PY         0.00000   0.00000   0.00000   0.00000   0.01973
  29        4PZ        -0.01503   0.02580   0.00596  -0.03297   0.00000
  30        5PX         0.00000   0.00000   0.00000   0.00000   0.00000
  31        5PY         0.00000   0.00000   0.00000   0.00000   0.65987
  32        5PZ        -0.56603   0.45589  -0.10261  -0.47943   0.00000
  33 3   H  1S         -0.07289   0.04536  -0.18526   0.07504  -0.13176
  34        2S         -1.44168  -1.36920  -1.44054   0.26791  -0.47781
  35        3S         -2.65402  -1.52835  -0.55100  -1.70970   2.95605
  36        4PX        -0.00000  -0.00000  -0.00000  -0.00000   0.00000
  37        4PY        -0.00121   0.02235   0.00487   0.02286  -0.01982
  38        4PZ        -0.01705  -0.01292  -0.00292   0.00653   0.02284
  39        5PX         0.00000   0.00000   0.00000   0.00000   0.00000
  40        5PY         0.21075   0.39553  -0.09349   0.49259  -0.19421
  41        5PZ        -0.19993  -0.22851   0.05010   0.37547   0.49308
  42 4   H  1S         -0.07289   0.04536  -0.18526   0.07504   0.13176
  43        2S         -1.44168  -1.36920  -1.44054   0.26791   0.47781
  44        3S         -2.65402  -1.52835  -0.55100  -1.70970  -2.95605
  45        4PX         0.00000   0.00000   0.00000   0.00000   0.00000
  46        4PY         0.00121  -0.02235  -0.00487  -0.02286  -0.01982
  47        4PZ        -0.01705  -0.01292  -0.00292   0.00653  -0.02284
  48        5PX        -0.00000  -0.00000  -0.00000  -0.00000   0.00000
  49        5PY        -0.21075  -0.39553   0.09349  -0.49259  -0.19421
  50        5PZ        -0.19993  -0.22851   0.05010   0.37547  -0.49308
                          16        17        18        19        20
                           V         V         V         V         V
     Eigenvalues --     0.25589   0.25589   0.34987   0.34989   0.37756
   1 1   C  1S         -0.00000   0.00000   0.00000  -0.00000   0.00000
   2        2S         -0.00000   0.00000   0.00000   0.00001   0.00000
   3        3S          0.00000   0.00000   0.00000  -0.00015   0.00000
   4        4S          0.00000   0.00000   0.00000   0.00021   0.00000
   5        5PX         0.00000   0.00002  -0.00000   0.00000   0.38903
   6        5PY         0.00000   0.00000  -0.19866   0.00000  -0.00000
   7        5PZ         0.00000   0.00000   0.00000  -0.19865   0.00000
   8        6PX         0.00000   0.00015  -0.00000   0.00000   1.63568
   9        6PY         0.00000  -0.00000  -3.95809   0.00000  -0.00000
  10        6PZ        -0.00000   0.00000   0.00000  -3.95837   0.00000
  11        7PX         0.00000  -0.00000  -0.00000   0.00000   0.89342
  12        7PY         0.00000  -0.00000  -3.55169   0.00000  -0.00000
  13        7PZ        -0.00000   0.00000   0.00000  -3.55176   0.00000
  14        8D 0       -0.00000   0.00000   0.00000  -0.06995   0.00000
  15        8D+1        0.00000   0.05219  -0.00000   0.00000  -0.00002
  16        8D-1        0.00000   0.00000   0.08077   0.00000   0.00000
  17        8D+2       -0.00000   0.00000   0.00000  -0.04037   0.00000
  18        8D-2        0.05219   0.00000   0.00000  -0.00000   0.00000
  19        9D 0       -0.00000   0.00000   0.00000  -0.61117   0.00000
  20        9D+1        0.00000   0.02085   0.00000   0.00000   0.00024
  21        9D-1        0.00000   0.00000   0.70551   0.00000   0.00000
  22        9D+2       -0.00000   0.00000   0.00000  -0.35292   0.00000
  23        9D-2        0.02083   0.00000   0.00000   0.00000   0.00000
  24 2   H  1S          0.00000   0.00000   0.00000  -0.07778   0.00000
  25        2S          0.00000   0.00000   0.00000   6.75101   0.00000
  26        3S          0.00000   0.00000   0.00000   3.54108   0.00000
  27        4PX         0.00000   0.00218  -0.00000   0.00000   0.01659
  28        4PY         0.00000   0.00000   0.01243   0.00000   0.00000
  29        4PZ         0.00000   0.00000   0.00000  -0.02338   0.00000
  30        5PX         0.00000   1.01804   0.00000   0.00000  -1.22588
  31        5PY         0.00000  -0.00000   0.91452   0.00000   0.00000
  32        5PZ        -0.00000   0.00000   0.00000  -1.38262   0.00000
  33 3   H  1S         -0.00000   0.00000  -0.06734   0.03886  -0.00000
  34        2S         -0.00000   0.00000   5.84582  -3.37553   0.00000
  35        3S         -0.00000   0.00000   3.06664  -1.77058   0.00000
  36        4PX         0.00189  -0.00109  -0.00000  -0.00000   0.01660
  37        4PY         0.00000   0.00000  -0.01443   0.01550  -0.00000
  38        4PZ        -0.00000   0.00000   0.01551   0.00348   0.00000
  39        5PX         0.88174  -0.50915   0.00000  -0.00000  -1.22544
  40        5PY         0.00000  -0.00000  -0.80803   0.99455   0.00000
  41        5PZ        -0.00000   0.00000   0.99459   0.34014   0.00000
  42 4   H  1S         -0.00000  -0.00000   0.06734   0.03886   0.00000
  43        2S         -0.00000  -0.00000  -5.84582  -3.37553  -0.00000
  44        3S         -0.00000  -0.00000  -3.06664  -1.77058  -0.00000
  45        4PX        -0.00189  -0.00109  -0.00000   0.00000   0.01660
  46        4PY        -0.00000   0.00000  -0.01443  -0.01550  -0.00000
  47        4PZ        -0.00000  -0.00000  -0.01551   0.00348  -0.00000
  48        5PX        -0.88174  -0.50915   0.00000   0.00000  -1.22544
  49        5PY        -0.00000  -0.00000  -0.80803  -0.99455   0.00000
  50        5PZ        -0.00000  -0.00000  -0.99459   0.34014  -0.00000
                          21        22        23        24        25
                           V         V         V         V         V
     Eigenvalues --     0.40892   0.43010   0.46036   0.46959   0.46959
   1 1   C  1S          0.00000  -0.10142  -0.11624   0.00000   0.00007
   2        2S          0.00000   0.02570  -0.00625   0.00000  -0.00001
   3        3S          0.00000   5.34286   9.55068   0.00000  -0.00536
   4        4S          0.00000   7.85386   3.37176   0.00000  -0.00269
   5        5PX        -0.00000   0.00000   0.00000   0.00000   0.00000
   6        5PY        -0.00003   0.00000   0.00000   0.24821   0.00000
   7        5PZ         0.00000   0.00003   0.00009   0.00000   0.24829
   8        6PX        -0.00000   0.00000   0.00000   0.00000   0.00000
   9        6PY        -0.00037   0.00000   0.00000  -3.61898   0.00000
  10        6PZ         0.00000   0.00004  -0.00248   0.00000  -3.61785
  11        7PX        -0.00000   0.00000   0.00000   0.00000   0.00000
  12        7PY        -0.00024   0.00000   0.00000   0.47836   0.00000
  13        7PZ         0.00000   0.00013  -0.00005   0.00000   0.47889
  14        8D 0        0.00000   0.00882   0.00788   0.00000  -0.00630
  15        8D+1       -0.00000   0.00000   0.00000  -0.00000   0.00000
  16        8D-1        0.00001   0.00000   0.00000   0.00729   0.00000
  17        8D+2        0.00000  -0.01527  -0.01366   0.00000  -0.00366
  18        8D-2        0.00000   0.00000   0.00000   0.00000  -0.00000
  19        9D 0        0.00000   0.69773  -0.20509   0.00000  -2.30102
  20        9D+1        0.00000   0.00000   0.00000   0.00000   0.00000
  21        9D-1       -0.00009   0.00000   0.00000   2.65692   0.00000
  22        9D+2        0.00000  -1.20895   0.35264   0.00000  -1.32858
  23        9D-2        0.00000  -0.00000  -0.00000   0.00000   0.00000
  24 2   H  1S          0.00000   0.03549  -0.05711   0.00000  -0.18468
  25        2S          0.00000  -3.94317  -3.41545   0.00000   9.82115
  26        3S          0.00000  -1.09989  -0.57358   0.00000  -1.02554
  27        4PX        -0.00000   0.00000   0.00000   0.00000   0.00000
  28        4PY        -0.00661   0.00000   0.00000   0.02749   0.00000
  29        4PZ         0.00000  -0.00129   0.00657   0.00000  -0.01054
  30        5PX        -0.00000   0.00000   0.00000  -0.00000   0.00000
  31        5PY         1.21913   0.00000   0.00000  -2.44609   0.00000
  32        5PZ         0.00000   0.57865   2.02067   0.00000  -3.56356
  33 3   H  1S          0.00001   0.03552  -0.05699  -0.15998   0.09246
  34        2S          0.00041  -3.94359  -3.42446   8.50512  -4.90740
  35        3S          0.00024  -1.09967  -0.57334  -0.88801   0.51344
  36        4PX        -0.00000  -0.00000  -0.00000   0.00000   0.00000
  37        4PY         0.00330  -0.00112   0.00570  -0.00103   0.01647
  38        4PZ         0.00572   0.00065  -0.00327   0.01646   0.01798
  39        5PX         0.00000   0.00000   0.00000   0.00000  -0.00000
  40        5PY        -0.60959   0.50114   1.75241  -3.28400   0.48236
  41        5PZ        -1.05552  -0.28958  -1.01288   0.48372  -2.72483
  42 4   H  1S         -0.00001   0.03552  -0.05699   0.15998   0.09246
  43        2S         -0.00041  -3.94359  -3.42446  -8.50512  -4.90740
  44        3S         -0.00024  -1.09967  -0.57334   0.88801   0.51344
  45        4PX        -0.00000   0.00000   0.00000   0.00000  -0.00000
  46        4PY         0.00330   0.00112  -0.00570  -0.00103  -0.01647
  47        4PZ        -0.00572   0.00065  -0.00327  -0.01646   0.01798
  48        5PX         0.00000  -0.00000  -0.00000   0.00000   0.00000
  49        5PY        -0.60959  -0.50114  -1.75241  -3.28400  -0.48236
  50        5PZ         1.05552  -0.28958  -1.01288  -0.48372  -2.72483
                          26        27        28        29        30
                           V         V         V         V         V
     Eigenvalues --     0.50955   0.50955   0.52185   0.52186   0.71186
   1 1   C  1S         -0.00000   0.00000   0.00000   0.00001   0.00000
   2        2S          0.00000   0.00000   0.00000  -0.00000   0.00000
   3        3S          0.00000   0.00000   0.00000  -0.00071   0.00000
   4        4S          0.00000   0.00000   0.00000  -0.00026   0.00000
   5        5PX         0.00000  -0.00006   0.00000   0.00000  -0.97667
   6        5PY         0.00000  -0.00000  -0.37720   0.00000  -0.00000
   7        5PZ        -0.00000   0.00000   0.00000  -0.37717   0.00000
   8        6PX         0.00000  -0.00006   0.00000   0.00000   3.05883
   9        6PY         0.00000  -0.00000  -5.68754   0.00000   0.00000
  10        6PZ        -0.00000   0.00000   0.00000  -5.68796   0.00000
  11        7PX         0.00000  -0.00015   0.00000   0.00000  -0.04517
  12        7PY         0.00000  -0.00000  -1.62808   0.00000  -0.00000
  13        7PZ        -0.00000   0.00000   0.00000  -1.62790   0.00000
  14        8D 0        0.00000   0.00000   0.00000   0.03091   0.00000
  15        8D+1        0.00000  -0.02034   0.00000   0.00000  -0.00001
  16        8D-1        0.00000  -0.00000  -0.03568   0.00000  -0.00000
  17        8D+2        0.00000   0.00000   0.00000   0.01783   0.00000
  18        8D-2       -0.02034   0.00000   0.00000   0.00000   0.00000
  19        9D 0        0.00000   0.00000   0.00000   0.93163   0.00000
  20        9D+1        0.00000   2.32489  -0.00000   0.00000  -0.00007
  21        9D-1        0.00000  -0.00000  -1.07615   0.00000   0.00000
  22        9D+2        0.00000   0.00000   0.00000   0.53782   0.00000
  23        9D-2        2.32489   0.00000   0.00000  -0.00000   0.00000
  24 2   H  1S          0.00000   0.00000   0.00000   0.20425   0.00000
  25        2S          0.00000   0.00000   0.00000   8.66630   0.00000
  26        3S          0.00000   0.00000   0.00000   2.30458   0.00000
  27        4PX         0.00000   0.01134  -0.00000   0.00000  -0.05755
  28        4PY         0.00000  -0.00000  -0.01098   0.00000  -0.00000
  29        4PZ         0.00000   0.00000   0.00000   0.04021   0.00000
  30        5PX         0.00000  -2.25490   0.00000   0.00000  -0.95227
  31        5PY         0.00000   0.00000   1.14752   0.00000  -0.00000
  32        5PZ        -0.00000   0.00000   0.00000  -4.53599   0.00000
  33 3   H  1S         -0.00000   0.00000   0.17689  -0.10208   0.00000
  34        2S         -0.00000   0.00000   7.50387  -4.33282  -0.00000
  35        3S         -0.00000   0.00000   1.99602  -1.15221   0.00000
  36        4PX         0.00983  -0.00567   0.00000  -0.00000  -0.05754
  37        4PY        -0.00000   0.00000   0.02741  -0.02216   0.00000
  38        4PZ        -0.00000  -0.00000  -0.02217   0.00182  -0.00000
  39        5PX        -1.95288   1.12760  -0.00000   0.00000  -0.95235
  40        5PY         0.00000  -0.00000  -3.11457   2.46066   0.00000
  41        5PZ         0.00000   0.00000   2.46081  -0.27352  -0.00000
  42 4   H  1S         -0.00000  -0.00000  -0.17689  -0.10208  -0.00000
  43        2S         -0.00000  -0.00000  -7.50387  -4.33282   0.00000
  44        3S         -0.00000  -0.00000  -1.99602  -1.15221  -0.00000
  45        4PX        -0.00983  -0.00567   0.00000   0.00000  -0.05754
  46        4PY         0.00000   0.00000   0.02741   0.02216   0.00000
  47        4PZ        -0.00000   0.00000   0.02217   0.00182   0.00000
  48        5PX         1.95288   1.12760  -0.00000  -0.00000  -0.95235
  49        5PY        -0.00000  -0.00000  -3.11457  -2.46066   0.00000
  50        5PZ         0.00000  -0.00000  -2.46081  -0.27352   0.00000
                          31        32        33        34        35
                           V         V         V         V         V
     Eigenvalues --     0.71588   0.91101   0.91102   1.24030   1.24031
   1 1   C  1S          0.05539   0.00000   0.00000   0.00000   0.00000
   2        2S         -0.49098   0.00000   0.00000   0.00002   0.00000
   3        3S          1.93464   0.00000   0.00002  -0.00015   0.00000
   4        4S          1.64408   0.00000   0.00009  -0.00010   0.00000
   5        5PX         0.00000   0.00000   0.00000   0.00000  -0.00000
   6        5PY         0.00000  -0.90191   0.00000   0.00000   0.22163
   7        5PZ        -0.00002   0.00000   0.90191   0.22162   0.00000
   8        6PX         0.00000  -0.00000   0.00000   0.00000   0.00000
   9        6PY         0.00000   8.30233   0.00000   0.00000  -5.25570
  10        6PZ         0.00042   0.00000  -8.30246  -5.25567   0.00000
  11        7PX         0.00000  -0.00000   0.00000   0.00000   0.00000
  12        7PY         0.00000   2.16337   0.00000   0.00000  -0.59047
  13        7PZ        -0.00007   0.00000  -2.16347  -0.59046   0.00000
  14        8D 0        0.15100   0.00000  -0.17031   0.54984   0.00000
  15        8D+1        0.00000   0.00000   0.00000   0.00000  -0.00000
  16        8D-1        0.00000  -0.19666   0.00000   0.00000  -0.63490
  17        8D+2       -0.26154   0.00000  -0.09834   0.31745   0.00000
  18        8D-2       -0.00000   0.00000   0.00000  -0.00000   0.00000
  19        9D 0       -0.23271   0.00000   1.31575  -3.43086   0.00000
  20        9D+1        0.00000   0.00000   0.00000   0.00000   0.00000
  21        9D-1        0.00000   1.51932   0.00000   0.00000   3.96161
  22        9D+2        0.40318   0.00000   0.75965  -1.98080   0.00000
  23        9D-2       -0.00000   0.00000  -0.00000   0.00000   0.00000
  24 2   H  1S          0.70980   0.00000  -0.17172   1.20902   0.00000
  25        2S         -1.47986   0.00000   9.10450   8.76519   0.00000
  26        3S         -0.12403   0.00000   2.00513   0.14913   0.00000
  27        4PX         0.00000   0.00000   0.00000   0.00000  -0.00000
  28        4PY         0.00000   0.01535   0.00000   0.00000  -0.12966
  29        4PZ         0.15915   0.00000  -0.27832   0.04324   0.00000
  30        5PX         0.00000   0.00000   0.00000   0.00000  -0.00000
  31        5PY         0.00000  -2.37899   0.00000   0.00000  -1.64840
  32        5PZ         0.16217   0.00000  -2.99119  -2.00050   0.00000
  33 3   H  1S          0.70978   0.14874   0.08588  -0.60451   1.04703
  34        2S         -1.47868  -7.88460  -4.55231  -4.38250   7.59087
  35        3S         -0.12418  -1.73641  -1.00258  -0.07454   0.12914
  36        4PX        -0.00000   0.00000   0.00000  -0.00000   0.00000
  37        4PY         0.13782   0.21258   0.11387  -0.07487   0.00001
  38        4PZ        -0.07957  -0.11387  -0.08109  -0.08643  -0.07487
  39        5PX         0.00000   0.00000   0.00000   0.00000  -0.00000
  40        5PY         0.14002   1.64861   2.32537   0.15244  -1.91247
  41        5PZ        -0.08077  -2.32535   1.03647  -1.73642   0.15246
  42 4   H  1S          0.70978  -0.14874   0.08588  -0.60451  -1.04703
  43        2S         -1.47868   7.88460  -4.55231  -4.38250  -7.59087
  44        3S         -0.12418   1.73641  -1.00258  -0.07454  -0.12914
  45        4PX         0.00000   0.00000  -0.00000   0.00000   0.00000
  46        4PY        -0.13782   0.21258  -0.11387   0.07487   0.00001
  47        4PZ        -0.07957   0.11387  -0.08109  -0.08643   0.07487
  48        5PX        -0.00000   0.00000  -0.00000  -0.00000  -0.00000
  49        5PY        -0.14002   1.64861  -2.32537  -0.15244  -1.91247
  50        5PZ        -0.08077   2.32535   1.03647  -1.73642  -0.15246
                          36        37        38        39        40
                           V         V         V         V         V
     Eigenvalues --     1.27724   1.27724   1.51396   1.56930   1.69094
   1 1   C  1S          0.00000   0.00000  -0.12191   0.00000   0.00000
   2        2S          0.00000   0.00000  -1.67842   0.00000   0.00000
   3        3S         -0.00000   0.00000  10.37967   0.00000   0.00000
   4        4S         -0.00000   0.00000   5.07906   0.00000   0.00000
   5        5PX         0.00000   0.00000   0.00000  -0.00000  -0.35685
   6        5PY         0.00000  -0.00000   0.00000  -0.00000  -0.00000
   7        5PZ        -0.00000   0.00000  -0.00000   0.00000   0.00000
   8        6PX         0.00000  -0.00005   0.00000   0.00000   0.40639
   9        6PY         0.00000   0.00000   0.00000   0.00007   0.00000
  10        6PZ         0.00000   0.00000   0.00008   0.00000   0.00000
  11        7PX         0.00000  -0.00002   0.00000   0.00000   0.31834
  12        7PY         0.00000   0.00000   0.00000   0.00000   0.00000
  13        7PZ         0.00000   0.00000   0.00000   0.00000   0.00000
  14        8D 0       -0.00000   0.00000  -0.40924   0.00000   0.00000
  15        8D+1        0.00000  -0.78089   0.00000   0.00000   0.00000
  16        8D-1        0.00000   0.00000   0.00000  -0.00000  -0.00000
  17        8D+2       -0.00000   0.00000   0.70885   0.00000   0.00000
  18        8D-2       -0.78089   0.00000   0.00000   0.00000   0.00000
  19        9D 0        0.00000   0.00000   0.59247   0.00000   0.00000
  20        9D+1        0.00000   0.88868   0.00000  -0.00000  -0.00001
  21        9D-1        0.00000  -0.00000   0.00000  -0.00003  -0.00000
  22        9D+2        0.00000   0.00000  -1.02621   0.00000   0.00000
  23        9D-2        0.88868   0.00000   0.00000   0.00000   0.00000
  24 2   H  1S         -0.00000   0.00000  -0.04175   0.00000   0.00000
  25        2S         -0.00000   0.00000  -4.41153   0.00000   0.00000
  26        3S         -0.00000   0.00000  -0.63055   0.00000   0.00000
  27        4PX         0.00000  -0.48187   0.00000   0.00000   0.69269
  28        4PY         0.00000   0.00000   0.00000   0.66421  -0.00000
  29        4PZ        -0.00000   0.00000   0.20005   0.00000   0.00000
  30        5PX         0.00000  -0.21308   0.00000  -0.00000  -0.45678
  31        5PY         0.00000   0.00000   0.00000  -0.59536  -0.00000
  32        5PZ         0.00000   0.00000   1.02660   0.00000   0.00000
  33 3   H  1S          0.00000  -0.00000  -0.04172  -0.00001  -0.00000
  34        2S          0.00000  -0.00000  -4.41144  -0.00009  -0.00000
  35        3S          0.00000  -0.00000  -0.63055   0.00000  -0.00000
  36        4PX        -0.41731   0.24094  -0.00000   0.00000   0.69268
  37        4PY        -0.00000   0.00000   0.17325  -0.33211  -0.00000
  38        4PZ         0.00000   0.00000  -0.10004  -0.57523  -0.00000
  39        5PX        -0.18455   0.10657  -0.00000  -0.00000  -0.45679
  40        5PY        -0.00000   0.00000   0.88902   0.29771   0.00000
  41        5PZ         0.00000  -0.00000  -0.51329   0.51560  -0.00000
  42 4   H  1S          0.00000   0.00000  -0.04172   0.00001   0.00000
  43        2S          0.00000   0.00000  -4.41144   0.00009   0.00000
  44        3S          0.00000   0.00000  -0.63055  -0.00000   0.00000
  45        4PX         0.41731   0.24094   0.00000   0.00000   0.69268
  46        4PY         0.00000   0.00000  -0.17325  -0.33211  -0.00000
  47        4PZ         0.00000  -0.00000  -0.10004   0.57523   0.00000
  48        5PX         0.18455   0.10657   0.00000  -0.00000  -0.45679
  49        5PY         0.00000   0.00000  -0.88902   0.29771   0.00000
  50        5PZ         0.00000   0.00000  -0.51329  -0.51560   0.00000
                          41        42        43        44        45
                           V         V         V         V         V
     Eigenvalues --     1.70415   1.70415   1.83851   1.98164   1.98164
   1 1   C  1S          0.00000  -0.00000  -0.22915   0.00000   0.00000
   2        2S          0.00000  -0.00001  -2.59673   0.00000   0.00000
   3        3S          0.00000   0.00005  15.72878  -0.00000   0.00000
   4        4S          0.00000   0.00006   3.90500  -0.00000   0.00000
   5        5PX        -0.00000   0.00000   0.00000   0.00000  -0.00000
   6        5PY         0.29903   0.00000   0.00000   0.00000   0.00000
   7        5PZ         0.00000   0.29903   0.00000  -0.00000   0.00000
   8        6PX         0.00000   0.00000   0.00000   0.00000   0.00001
   9        6PY        -7.53316   0.00000   0.00000   0.00000  -0.00000
  10        6PZ         0.00000  -7.53314  -0.00012   0.00000   0.00000
  11        7PX         0.00000   0.00000   0.00000   0.00000   0.00001
  12        7PY        -0.44662   0.00000   0.00000   0.00000  -0.00000
  13        7PZ         0.00000  -0.44662  -0.00001   0.00000   0.00000
  14        8D 0        0.00000  -0.37453   0.41115  -0.00000   0.00000
  15        8D+1       -0.00000   0.00000   0.00000   0.00000   1.10008
  16        8D-1        0.43244   0.00000   0.00000   0.00000  -0.00000
  17        8D+2        0.00000  -0.21620  -0.71213   0.00000   0.00000
  18        8D-2        0.00000   0.00000   0.00000   1.10009   0.00000
  19        9D 0        0.00000  -0.54988   0.24196  -0.00000   0.00000
  20        9D+1        0.00000   0.00000   0.00000   0.00000  -0.73477
  21        9D-1        0.63500   0.00000   0.00000   0.00000   0.00000
  22        9D+2        0.00000  -0.31751  -0.41914   0.00000   0.00000
  23        9D-2        0.00000  -0.00000  -0.00000  -0.73477   0.00000
  24 2   H  1S          0.00000   1.10684  -0.81976   0.00000   0.00000
  25        2S          0.00000   9.61495  -5.03646   0.00000   0.00000
  26        3S          0.00000   0.26582  -0.50037   0.00000   0.00000
  27        4PX         0.00000   0.00000   0.00000   0.00000  -0.94364
  28        4PY         0.67572   0.00000   0.00000   0.00000   0.00000
  29        4PZ         0.00000   0.23561  -0.01837  -0.00000   0.00000
  30        5PX        -0.00000   0.00000   0.00000   0.00000   0.84216
  31        5PY         0.07556   0.00000   0.00000   0.00000  -0.00000
  32        5PZ         0.00000  -3.58899   1.91554  -0.00000   0.00000
  33 3   H  1S          0.95856  -0.55341  -0.81979   0.00000   0.00000
  34        2S          8.32686  -4.80754  -5.03672   0.00000   0.00000
  35        3S          0.23021  -0.13292  -0.50038   0.00000  -0.00000
  36        4PX         0.00000  -0.00000  -0.00000  -0.81722   0.47183
  37        4PY         0.34563   0.19058  -0.01591   0.00000   0.00000
  38        4PZ         0.19057   0.56569   0.00919  -0.00000   0.00000
  39        5PX        -0.00000   0.00000   0.00000   0.72933  -0.42109
  40        5PY        -2.67284   1.58680   1.65898  -0.00000  -0.00000
  41        5PZ         1.58681  -0.84056  -0.95782   0.00000   0.00000
  42 4   H  1S         -0.95856  -0.55341  -0.81979   0.00000  -0.00000
  43        2S         -8.32686  -4.80754  -5.03672   0.00000  -0.00000
  44        3S         -0.23021  -0.13292  -0.50038   0.00000   0.00000
  45        4PX         0.00000   0.00000   0.00000   0.81722   0.47183
  46        4PY         0.34563  -0.19058   0.01591  -0.00000   0.00000
  47        4PZ        -0.19057   0.56569   0.00919  -0.00000  -0.00000
  48        5PX        -0.00000  -0.00000  -0.00000  -0.72933  -0.42109
  49        5PY        -2.67284  -1.58680  -1.65898   0.00000  -0.00000
  50        5PZ        -1.58681  -0.84056  -0.95782   0.00000  -0.00000
                          46        47        48        49        50
                           V         V         V         V         V
     Eigenvalues --     2.15913   2.15913   2.48330   2.65030   2.65030
   1 1   C  1S          0.00000  -0.00000  -0.07431   0.00000   0.00000
   2        2S          0.00000  -0.00001   1.12346   0.00000  -0.00001
   3        3S          0.00000   0.00005   3.34225   0.00000  -0.00004
   4        4S          0.00000   0.00001   0.66783   0.00000  -0.00003
   5        5PX        -0.00000   0.00000   0.00000   0.00000   0.00000
   6        5PY         0.85608   0.00000   0.00000   1.08171   0.00000
   7        5PZ         0.00000   0.85608   0.00001   0.00000   1.08171
   8        6PX         0.00000   0.00000   0.00000  -0.00000   0.00000
   9        6PY        -1.55373   0.00000   0.00000   3.48160   0.00000
  10        6PZ         0.00000  -1.55372   0.00003   0.00000   3.48161
  11        7PX         0.00000   0.00000   0.00000  -0.00000   0.00000
  12        7PY        -0.38772   0.00000   0.00000   0.71768   0.00000
  13        7PZ         0.00000  -0.38771  -0.00000   0.00000   0.71769
  14        8D 0        0.00000  -0.35804   0.48814   0.00000   1.57488
  15        8D+1        0.00000   0.00000   0.00000  -0.00000   0.00000
  16        8D-1        0.41343   0.00000   0.00000  -1.81852   0.00000
  17        8D+2        0.00000  -0.20672  -0.84546   0.00000   0.90927
  18        8D-2        0.00000   0.00000  -0.00000   0.00000   0.00000
  19        9D 0        0.00000  -0.82471   0.00108   0.00000  -0.29662
  20        9D+1        0.00000   0.00000   0.00000   0.00000   0.00000
  21        9D-1        0.95230   0.00000   0.00000   0.34250   0.00000
  22        9D+2        0.00000  -0.47615  -0.00186   0.00000  -0.17125
  23        9D-2        0.00000  -0.00000   0.00000   0.00000  -0.00000
  24 2   H  1S          0.00000   0.23177  -0.89312   0.00000  -1.68908
  25        2S          0.00000   2.46110  -1.07923   0.00000  -3.13301
  26        3S          0.00000   0.50329  -0.03313   0.00000  -0.62490
  27        4PX        -0.00000   0.00000   0.00000   0.00000   0.00000
  28        4PY        -0.76845   0.00000   0.00000   0.56793   0.00000
  29        4PZ         0.00000   0.78223   1.01903   0.00000   1.23585
  30        5PX        -0.00000   0.00000   0.00000   0.00000   0.00000
  31        5PY        -0.21728   0.00000   0.00000  -0.88176   0.00000
  32        5PZ         0.00000  -0.89355   0.17056   0.00000   0.83057
  33 3   H  1S          0.20072  -0.11588  -0.89310  -1.46279   0.84455
  34        2S          2.13141  -1.23058  -1.07917  -2.71328   1.56653
  35        3S          0.43587  -0.25165  -0.03314  -0.54117   0.31245
  36        4PX         0.00000  -0.00000   0.00000  -0.00000  -0.00000
  37        4PY         0.39456  -0.67147   0.88250   1.06887  -0.28923
  38        4PZ        -0.67147  -0.38078  -0.50951  -0.28922   0.73491
  39        5PX        -0.00000   0.00000  -0.00000   0.00000  -0.00000
  40        5PY        -0.72449   0.29284   0.14769   0.40249  -0.74147
  41        5PZ         0.29284  -0.38635  -0.08527  -0.74146  -0.45368
  42 4   H  1S         -0.20072  -0.11588  -0.89310   1.46279   0.84455
  43        2S         -2.13141  -1.23058  -1.07917   2.71328   1.56653
  44        3S         -0.43587  -0.25165  -0.03314   0.54117   0.31245
  45        4PX         0.00000   0.00000  -0.00000  -0.00000   0.00000
  46        4PY         0.39456   0.67147  -0.88250   1.06887   0.28923
  47        4PZ         0.67147  -0.38078  -0.50951   0.28922   0.73491
  48        5PX        -0.00000  -0.00000   0.00000   0.00000   0.00000
  49        5PY        -0.72449  -0.29284  -0.14769   0.40249   0.74147
  50        5PZ        -0.29284  -0.38635  -0.08527   0.74146  -0.45368
     Beta Molecular Orbital Coefficients:
                           1         2         3         4         5
                           O         O         O         O         V
     Eigenvalues --   -10.17489  -0.64833  -0.41195  -0.41195  -0.06868
   1 1   C  1S          0.99717  -0.18966  -0.00000   0.00000   0.00000
   2        2S          0.03316   0.37696   0.00000   0.00000   0.00000
   3        3S         -0.05717   0.23592   0.00001   0.00000   0.00000
   4        4S         -0.01760   0.00620   0.00002   0.00000   0.00000
   5        5PX         0.00000   0.00000   0.00000  -0.00000   0.49138
   6        5PY         0.00000   0.00000   0.00000   0.43914  -0.00000
   7        5PZ         0.00000   0.00000   0.43914   0.00000   0.00000
   8        6PX         0.00000   0.00000   0.00000  -0.00000   0.34688
   9        6PY         0.00000   0.00000   0.00000   0.00484   0.00000
  10        6PZ        -0.00000  -0.00000   0.00484   0.00000   0.00000
  11        7PX         0.00000   0.00000   0.00000  -0.00000   0.24537
  12        7PY         0.00000   0.00000   0.00000  -0.01990   0.00000
  13        7PZ        -0.00000   0.00000  -0.01991   0.00000   0.00000
  14        8D 0        0.00112   0.00756   0.01569   0.00000   0.00000
  15        8D+1        0.00000   0.00000   0.00000   0.00000  -0.00000
  16        8D-1        0.00000   0.00000   0.00000  -0.01812  -0.00000
  17        8D+2       -0.00194  -0.01309   0.00906   0.00000   0.00000
  18        8D-2       -0.00000  -0.00000  -0.00000   0.00000   0.00000
  19        9D 0       -0.00171  -0.00088  -0.07116   0.00000   0.00000
  20        9D+1        0.00000   0.00000   0.00000  -0.00000   0.00003
  21        9D-1        0.00000   0.00000   0.00000   0.08216  -0.00000
  22        9D+2        0.00295   0.00151  -0.04108   0.00000   0.00000
  23        9D-2        0.00000  -0.00000   0.00000   0.00000   0.00000
  24 2   H  1S         -0.00085   0.21178   0.40332   0.00000   0.00000
  25        2S          0.01950   0.04273   0.40571   0.00000   0.00000
  26        3S          0.00223   0.00187   0.02721   0.00000   0.00000
  27        4PX         0.00000   0.00000   0.00000  -0.00000   0.02888
  28        4PY         0.00000   0.00000   0.00000   0.01370  -0.00000
  29        4PZ         0.00183  -0.02528  -0.01326   0.00000   0.00000
  30        5PX         0.00000   0.00000   0.00000   0.00000   0.05820
  31        5PY         0.00000   0.00000   0.00000  -0.02782  -0.00000
  32        5PZ        -0.00608  -0.00882  -0.06878   0.00000   0.00000
  33 3   H  1S         -0.00085   0.21178  -0.20166   0.34929  -0.00000
  34        2S          0.01950   0.04272  -0.20286   0.35136  -0.00000
  35        3S          0.00223   0.00188  -0.01361   0.02356  -0.00000
  36        4PX        -0.00000  -0.00000   0.00000   0.00000   0.02888
  37        4PY         0.00158  -0.02189   0.01168  -0.00652   0.00000
  38        4PZ        -0.00091   0.01264   0.00696   0.01167  -0.00000
  39        5PX        -0.00000   0.00000  -0.00000   0.00000   0.05823
  40        5PY        -0.00526  -0.00764   0.01774  -0.05854   0.00000
  41        5PZ         0.00304   0.00441  -0.03806   0.01774  -0.00000
  42 4   H  1S         -0.00085   0.21178  -0.20166  -0.34929   0.00000
  43        2S          0.01950   0.04272  -0.20286  -0.35136   0.00000
  44        3S          0.00223   0.00188  -0.01361  -0.02356   0.00000
  45        4PX         0.00000   0.00000  -0.00000   0.00000   0.02888
  46        4PY        -0.00158   0.02189  -0.01168  -0.00652   0.00000
  47        4PZ        -0.00091   0.01264   0.00696  -0.01167   0.00000
  48        5PX         0.00000  -0.00000   0.00000   0.00000   0.05823
  49        5PY         0.00526   0.00764  -0.01774  -0.05854   0.00000
  50        5PZ         0.00304   0.00441  -0.03806  -0.01774   0.00000
                           6         7         8         9        10
                           V         V         V         V         V
     Eigenvalues --     0.00554   0.03500   0.03502   0.09690   0.10927
   1 1   C  1S         -0.05989   0.00001   0.00000   0.00000   0.00000
   2        2S          0.11103  -0.00000   0.00000   0.00000   0.00000
   3        3S          0.80641  -0.00016   0.00000   0.00000   0.00000
   4        4S          2.16488  -0.00023   0.00000   0.00000   0.00000
   5        5PX         0.00000   0.00000   0.00000  -0.29027   0.00000
   6        5PY         0.00000   0.00000  -0.12935   0.00000   0.06977
   7        5PZ        -0.00001  -0.12932   0.00000   0.00000   0.00000
   8        6PX         0.00000   0.00000   0.00000  -0.29374   0.00000
   9        6PY         0.00000   0.00000  -0.27846  -0.00000  -1.29773
  10        6PZ         0.00005  -0.27866   0.00000   0.00000   0.00000
  11        7PX         0.00000   0.00000  -0.00000   1.21284  -0.00000
  12        7PY         0.00000   0.00000  -1.25272  -0.00000  -3.81899
  13        7PZ        -0.00003  -1.25368   0.00000   0.00000   0.00000
  14        8D 0        0.00122  -0.00343   0.00000   0.00000   0.00000
  15        8D+1        0.00000   0.00000   0.00000  -0.00001  -0.00000
  16        8D-1        0.00000   0.00000   0.00395   0.00000  -0.02483
  17        8D+2       -0.00211  -0.00198   0.00000   0.00000   0.00000
  18        8D-2        0.00000   0.00000   0.00000   0.00000   0.00000
  19        9D 0        0.02653   0.06339   0.00000   0.00000   0.00000
  20        9D+1        0.00000   0.00000  -0.00000   0.00011   0.00000
  21        9D-1        0.00000   0.00000  -0.07317   0.00000   0.34004
  22        9D+2       -0.04592   0.03663   0.00000   0.00000   0.00000
  23        9D-2       -0.00000  -0.00000   0.00000   0.00000   0.00000
  24 2   H  1S         -0.01018  -0.03597   0.00000   0.00000   0.00000
  25        2S         -0.46315   0.25741   0.00000   0.00000   0.00000
  26        3S         -0.87680   4.02133   0.00000   0.00000   0.00000
  27        4PX         0.00000   0.00000   0.00000  -0.00131   0.00000
  28        4PY         0.00000   0.00000  -0.00488  -0.00000  -0.01867
  29        4PZ        -0.01007   0.00998   0.00000   0.00000   0.00000
  30        5PX         0.00000   0.00000   0.00000  -0.13684   0.00000
  31        5PY         0.00000   0.00000   0.13476  -0.00000  -0.10755
  32        5PZ         0.06083  -0.05647   0.00000   0.00000   0.00000
  33 3   H  1S         -0.01017   0.01799  -0.03116   0.00000   0.12645
  34        2S         -0.46301  -0.12857   0.22254   0.00000   2.57874
  35        3S         -0.87711  -2.01056   3.48132   0.00000   4.54042
  36        4PX         0.00000  -0.00000   0.00000  -0.00131   0.00000
  37        4PY        -0.00872  -0.00644   0.00627  -0.00000  -0.01490
  38        4PZ         0.00504  -0.00117  -0.00644   0.00000  -0.00217
  39        5PX         0.00000   0.00000   0.00000  -0.13673   0.00000
  40        5PY         0.05264   0.08285  -0.00860  -0.00000  -0.47827
  41        5PZ        -0.03039   0.08706   0.08277   0.00000   0.21403
  42 4   H  1S         -0.01017   0.01799   0.03116  -0.00000  -0.12645
  43        2S         -0.46301  -0.12857  -0.22254  -0.00000  -2.57874
  44        3S         -0.87711  -2.01056  -3.48132  -0.00000  -4.54042
  45        4PX        -0.00000   0.00000   0.00000  -0.00131   0.00000
  46        4PY         0.00872   0.00644   0.00627  -0.00000  -0.01490
  47        4PZ         0.00504  -0.00117   0.00644  -0.00000   0.00217
  48        5PX        -0.00000  -0.00000   0.00000  -0.13673   0.00000
  49        5PY        -0.05264  -0.08285  -0.00860  -0.00000  -0.47827
  50        5PZ        -0.03039   0.08706  -0.08277  -0.00000  -0.21403
                          11        12        13        14        15
                           V         V         V         V         V
     Eigenvalues --     0.10927   0.12535   0.17668   0.17669   0.20012
   1 1   C  1S         -0.00004   0.06951   0.00002   0.00000  -0.07561
   2        2S          0.00026  -0.32516  -0.00003   0.00000   0.09034
   3        3S         -0.00187   1.68876  -0.00028   0.00000   1.19331
   4        4S         -0.00635   6.70927  -0.00068   0.00000   4.60147
   5        5PX         0.00000   0.00000   0.00000  -0.00000   0.00000
   6        5PY         0.00000   0.00000   0.00000   0.35171   0.00000
   7        5PZ         0.06982   0.00004   0.35171   0.00000   0.00010
   8        6PX         0.00000   0.00000   0.00000   0.00000   0.00000
   9        6PY         0.00000   0.00000   0.00000  -0.06503   0.00000
  10        6PZ        -1.29775  -0.00094  -0.06489   0.00000  -0.00015
  11        7PX         0.00000   0.00000   0.00000  -0.00000   0.00000
  12        7PY         0.00000   0.00000   0.00000  -1.77227   0.00000
  13        7PZ        -3.81877  -0.00276  -1.77192   0.00000  -0.00074
  14        8D 0        0.02150  -0.00435  -0.05887   0.00000  -0.01033
  15        8D+1        0.00000   0.00000   0.00000  -0.00000   0.00000
  16        8D-1        0.00000   0.00000   0.00000   0.06798   0.00000
  17        8D+2        0.01241   0.00759  -0.03399   0.00000   0.01789
  18        8D-2        0.00000   0.00000  -0.00000   0.00000   0.00000
  19        9D 0       -0.29463   0.12889   0.30383   0.00000   0.00346
  20        9D+1        0.00000   0.00000   0.00000  -0.00000   0.00000
  21        9D-1        0.00000   0.00000   0.00000  -0.35076   0.00000
  22        9D+2       -0.16985  -0.22394   0.17542   0.00000  -0.00619
  23        9D-2       -0.00000  -0.00000  -0.00000   0.00000  -0.00000
  24 2   H  1S          0.14601   0.03541  -0.13563   0.00000  -0.17146
  25        2S          2.97936  -1.41609  -0.39985   0.00000  -1.62987
  26        3S          5.24352  -1.50079   3.45835   0.00000  -0.63017
  27        4PX         0.00000   0.00000   0.00000   0.00000   0.00000
  28        4PY         0.00000   0.00000   0.00000   0.02216   0.00000
  29        4PZ        -0.01368   0.02582  -0.03600   0.00000   0.00326
  30        5PX         0.00000   0.00000   0.00000   0.00000   0.00000
  31        5PY         0.00000   0.00000   0.00000   0.69690   0.00000
  32        5PZ        -0.60241   0.49163  -0.54197   0.00000  -0.12860
  33 3   H  1S         -0.07302   0.03522   0.06786  -0.11748  -0.17145
  34        2S         -1.48733  -1.41966   0.20043  -0.34630  -1.63065
  35        3S         -2.61975  -1.50645  -1.72909   2.99552  -0.63216
  36        4PX        -0.00000  -0.00000   0.00000   0.00000  -0.00000
  37        4PY        -0.00219   0.02236   0.02518  -0.02146   0.00283
  38        4PZ        -0.01740  -0.01292   0.00762   0.02518  -0.00163
  39        5PX         0.00000   0.00000   0.00000   0.00000   0.00000
  40        5PY         0.21370   0.42630   0.53651  -0.23233  -0.11096
  41        5PZ        -0.23099  -0.24638   0.38717   0.53647   0.06398
  42 4   H  1S         -0.07302   0.03522   0.06786   0.11748  -0.17145
  43        2S         -1.48733  -1.41966   0.20043   0.34630  -1.63065
  44        3S         -2.61975  -1.50645  -1.72909  -2.99552  -0.63216
  45        4PX         0.00000   0.00000  -0.00000   0.00000   0.00000
  46        4PY         0.00219  -0.02236  -0.02518  -0.02146  -0.00283
  47        4PZ        -0.01740  -0.01292   0.00762  -0.02518  -0.00163
  48        5PX        -0.00000  -0.00000  -0.00000   0.00000  -0.00000
  49        5PY        -0.21370  -0.42630  -0.53651  -0.23233   0.11096
  50        5PZ        -0.23099  -0.24638   0.38717  -0.53647   0.06398
                          16        17        18        19        20
                           V         V         V         V         V
     Eigenvalues --     0.27238   0.27239   0.35266   0.35267   0.40391
   1 1   C  1S         -0.00000   0.00000   0.00000   0.00001   0.00000
   2        2S         -0.00000   0.00000   0.00000   0.00001   0.00000
   3        3S          0.00000   0.00000   0.00000  -0.00059   0.00000
   4        4S          0.00000   0.00000   0.00000   0.00014   0.00000
   5        5PX         0.00000   0.00001  -0.00000   0.00000   0.37097
   6        5PY         0.00000   0.00000  -0.19135   0.00000  -0.00000
   7        5PZ         0.00000   0.00000   0.00000  -0.19132   0.00000
   8        6PX         0.00000   0.00011  -0.00000   0.00000   1.90924
   9        6PY         0.00000  -0.00000  -3.89939   0.00000   0.00000
  10        6PZ        -0.00000   0.00000   0.00000  -3.90007   0.00000
  11        7PX         0.00000  -0.00000  -0.00000   0.00000   0.84078
  12        7PY         0.00000  -0.00000  -3.52567   0.00000  -0.00000
  13        7PZ        -0.00000   0.00000   0.00000  -3.52572   0.00000
  14        8D 0        0.00000   0.00000   0.00000  -0.06831   0.00000
  15        8D+1        0.00000   0.04213  -0.00000   0.00000  -0.00001
  16        8D-1        0.00000   0.00000   0.07888   0.00000   0.00000
  17        8D+2       -0.00000   0.00000   0.00000  -0.03943   0.00000
  18        8D-2        0.04213   0.00000   0.00000  -0.00000   0.00000
  19        9D 0       -0.00000   0.00000   0.00000  -0.59729   0.00000
  20        9D+1        0.00000  -0.09441   0.00000   0.00000   0.00026
  21        9D-1        0.00000   0.00000   0.68928   0.00000  -0.00000
  22        9D+2       -0.00000   0.00000   0.00000  -0.34484   0.00000
  23        9D-2       -0.09443   0.00000   0.00000   0.00000   0.00000
  24 2   H  1S          0.00000   0.00000   0.00000  -0.08630   0.00000
  25        2S          0.00000   0.00000   0.00000   6.61005   0.00000
  26        3S          0.00000   0.00000   0.00000   3.49351   0.00000
  27        4PX         0.00000   0.00426  -0.00000   0.00000   0.01993
  28        4PY         0.00000   0.00000   0.01363   0.00000  -0.00000
  29        4PZ         0.00000   0.00000   0.00000  -0.02349   0.00000
  30        5PX         0.00000   1.13140   0.00000   0.00000  -1.28860
  31        5PY         0.00000  -0.00000   0.92752   0.00000   0.00000
  32        5PZ        -0.00000   0.00000   0.00000  -1.30563   0.00000
  33 3   H  1S         -0.00000   0.00000  -0.07472   0.04312  -0.00000
  34        2S         -0.00000   0.00000   5.72285  -3.30476  -0.00000
  35        3S         -0.00000  -0.00000   3.02553  -1.74683   0.00000
  36        4PX         0.00369  -0.00213  -0.00000  -0.00000   0.01993
  37        4PY         0.00000   0.00000  -0.01421   0.01608   0.00000
  38        4PZ        -0.00000   0.00000   0.01608   0.00436   0.00000
  39        5PX         0.97989  -0.56579   0.00000  -0.00000  -1.28818
  40        5PY         0.00000  -0.00000  -0.74679   0.96667   0.00000
  41        5PZ        -0.00000   0.00000   0.96663   0.36904  -0.00000
  42 4   H  1S         -0.00000  -0.00000   0.07472   0.04312   0.00000
  43        2S         -0.00000  -0.00000  -5.72285  -3.30476   0.00000
  44        3S         -0.00000   0.00000  -3.02553  -1.74683  -0.00000
  45        4PX        -0.00369  -0.00213  -0.00000   0.00000   0.01993
  46        4PY        -0.00000   0.00000  -0.01421  -0.01608   0.00000
  47        4PZ        -0.00000  -0.00000  -0.01608   0.00436  -0.00000
  48        5PX        -0.97989  -0.56579   0.00000   0.00000  -1.28818
  49        5PY        -0.00000  -0.00000  -0.74679  -0.96667   0.00000
  50        5PZ        -0.00000  -0.00000  -0.96663   0.36904   0.00000
                          21        22        23        24        25
                           V         V         V         V         V
     Eigenvalues --     0.40779   0.46540   0.47088   0.47558   0.47559
   1 1   C  1S          0.00000  -0.15082  -0.03747   0.00000   0.00008
   2        2S          0.00000  -0.02438   0.00290   0.00000   0.00000
   3        3S          0.00000  10.23839   4.27042   0.00000  -0.00647
   4        4S          0.00000   8.05032  -1.90363   0.00000  -0.00108
   5        5PX        -0.00000   0.00000   0.00000   0.00000   0.00000
   6        5PY        -0.00001   0.00000   0.00000   0.27015   0.00000
   7        5PZ         0.00000   0.00007   0.00018   0.00000   0.27025
   8        6PX        -0.00000   0.00000   0.00000   0.00000   0.00000
   9        6PY        -0.00024   0.00000   0.00000  -3.38303   0.00000
  10        6PZ         0.00000  -0.00086  -0.00358   0.00000  -3.38162
  11        7PX        -0.00000   0.00000   0.00000   0.00000   0.00000
  12        7PY        -0.00002   0.00000   0.00000   0.54943   0.00000
  13        7PZ         0.00000  -0.00010   0.00020   0.00000   0.55018
  14        8D 0        0.00000   0.01838   0.01356   0.00000  -0.00834
  15        8D+1       -0.00000   0.00000   0.00000  -0.00000   0.00000
  16        8D-1        0.00000   0.00000   0.00000   0.00962   0.00000
  17        8D+2        0.00000  -0.03184  -0.02351   0.00000  -0.00480
  18        8D-2        0.00000   0.00000  -0.00000   0.00000  -0.00000
  19        9D 0        0.00000   0.41905  -0.60946   0.00000  -2.35386
[...]
 
              Baa    -0.0740   -39.488   -14.090   -13.172  1.0000  0.0000  0.0000
     2 H(1)   Bbb    -0.0009    -0.456    -0.163    -0.152  0.0000  0.0000  1.0000
              Bcc     0.0749    39.944    14.253    13.324 -0.0000  1.0000 -0.0000
 
              Baa    -0.0740   -39.488   -14.090   -13.172 -0.5000  0.8660  0.0000
     3 H(1)   Bbb    -0.0009    -0.456    -0.163    -0.152  0.0000  0.0000  1.0000
              Bcc     0.0749    39.944    14.253    13.324  0.8660  0.5000 -0.0000
 
              Baa    -0.0740   -39.488   -14.090   -13.172  0.5000  0.8660 -0.0000
     4 H(1)   Bbb    -0.0009    -0.456    -0.163    -0.152  0.0000  0.0000  1.0000
              Bcc     0.0749    39.944    14.253    13.324  0.8660 -0.5000 -0.0000
 

 ---------------------------------------------------------------------------------

 No NMR shielding tensors so no spin-rotation constants.
 Leave Link  601 at Sat Aug 17 23:42:32 2024, MaxMem=   13107200 cpu:       0.3
 (Enter /programs/64bit/g09/g09-gfortran/bin/l701.exe)
 Compute integral second derivatives.
 ... and contract with generalized density number  0.
 Leave Link  701 at Sat Aug 17 23:42:32 2024, MaxMem=   13107200 cpu:       0.2
 (Enter /programs/64bit/g09/g09-gfortran/bin/l702.exe)
 L702 exits ... SP integral derivatives will be done elsewhere.
 Leave Link  702 at Sat Aug 17 23:42:32 2024, MaxMem=   13107200 cpu:       0.0
 (Enter /programs/64bit/g09/g09-gfortran/bin/l703.exe)
 Compute integral second derivatives, UseDBF=F ICtDFT=           0.
 Integral derivatives from FoFDir, PRISM(SPDF).
 Calling FoFJK, ICntrl=    100127 FMM=F ISym2X=1 I1Cent= 0 IOpClX= 1 NMat=1 NMatS=1 NMatT=0.
 FoFCou: FMM=F IPFlag=           0 FMFlag=      100000 FMFlg1=         800
         NFxFlg=           0 DoJE=F BraDBF=F KetDBF=F FulRan=T
         Omega=  0.000000  0.000000  1.000000  0.000000  0.000000 ICntrl=  100127 IOpCl=  1
         NMat0=    1 NMatS0=    1 NMatT0=    0 NMatD0=    1 NMtDS0=    0 NMtDT0=    0
         I1Cent=           0 NGrid=           0.
 Petite list used in FoFCou.
 Leave Link  703 at Sat Aug 17 23:42:46 2024, MaxMem=   13107200 cpu:       9.2
 (Enter /programs/64bit/g09/g09-gfortran/bin/l716.exe)
 Dipole        =-2.66065359D-10-7.82179269D-06 1.04936061D-32
 Polarizability= 1.59346209D+01 1.13422829D-03 1.59298809D+01
                 3.35143973D-05-7.75391711D-05 1.58731000D+01
 Full mass-weighted force constant matrix:
 Low frequencies ---  -49.4916  -33.0430  -29.7911   -0.0016   -0.0016   -0.0014
 Low frequencies ---  543.6190 1377.1087 1377.2081
 Diagonal vibrational polarizability:
        0.0525314       0.0527256       7.0966659
 Harmonic frequencies (cm**-1), IR intensities (KM/Mole), Raman scattering
 activities (A**4/AMU), depolarization ratios for plane and unpolarized
 incident light, reduced masses (AMU), force constants (mDyne/A),
 and normal coordinates:
                     1                      2                      3
                    A"                     A'                     A'
 Frequencies --   543.6185              1377.1087              1377.2081
 Red. masses --     1.2356                 1.1021                 1.1021
 Frc consts  --     0.2151                 1.2314                 1.2316
 IR Inten    --    77.9309                 2.9529                 2.9617
  Atom  AN      X      Y      Z        X      Y      Z        X      Y      Z
     1   6     0.00  -0.00   0.14    -0.09  -0.00   0.00    -0.00   0.09  -0.00
     2   1    -0.00   0.00  -0.57     0.81  -0.00  -0.00     0.03   0.07   0.00
     3   1     0.00   0.00  -0.57     0.13  -0.36  -0.00     0.39  -0.60   0.00
     4   1    -0.00  -0.00  -0.57     0.16   0.40  -0.00    -0.38  -0.58   0.00
                     4                      5                      6
                    A'                     A'                     A'
 Frequencies --  3112.4873              3308.6850              3308.7150
 Red. masses --     1.0078                 1.1184                 1.1183
 Frc consts  --     5.7524                 7.2134                 7.2135
 IR Inten    --     0.0000                 4.3339                 4.3443
  Atom  AN      X      Y      Z        X      Y      Z        X      Y      Z
     1   6     0.00  -0.00   0.00     0.08  -0.06  -0.00     0.06   0.08   0.00
     2   1     0.00  -0.58  -0.00     0.01   0.51   0.00     0.01  -0.63  -0.00
     3   1     0.50   0.29  -0.00    -0.25  -0.16   0.00    -0.66  -0.37  -0.00
     4   1    -0.50   0.29  -0.00    -0.70   0.40   0.00    -0.10   0.08  -0.00

 -------------------
 - Thermochemistry -
 -------------------
 Temperature   298.150 Kelvin.  Pressure   1.00000 Atm.
 Atom     1 has atomic number  6 and mass  12.00000
 Atom     2 has atomic number  1 and mass   1.00783
 Atom     3 has atomic number  1 and mass   1.00783
 Atom     4 has atomic number  1 and mass   1.00783
 Molecular mass:    15.02348 amu.
 Principal axes and moments of inertia in atomic units:
                           1         2         3
     Eigenvalues --     6.38716   6.38720  12.77436
           X            1.00000  -0.00001   0.00000
           Y            0.00001   1.00000   0.00000
           Z            0.00000  -0.00000   1.00000
 This molecule is an asymmetric top.
 Rotational symmetry number  1.
 Rotational temperatures (Kelvin)     13.56062    13.56054     6.78029
 Rotational constants (GHZ):         282.55776   282.55605   141.27845
 Zero-point vibrational energy      77923.7 (Joules/Mol)
                                   18.62421 (Kcal/Mol)
 Warning -- explicit consideration of   1 degrees of freedom as
           vibrations may cause significant error
 Vibrational temperatures:    782.14  1981.35  1981.49  4478.17  4760.45
          (Kelvin)           4760.50
 
 Zero-point correction=                           0.029680 (Hartree/Particle)
 Thermal correction to Energy=                    0.032722
 Thermal correction to Enthalpy=                  0.033666
 Thermal correction to Gibbs Free Energy=         0.009881
 Sum of electronic and zero-point Energies=            -39.799383
 Sum of electronic and thermal Energies=               -39.796340
 Sum of electronic and thermal Enthalpies=             -39.795396
 Sum of electronic and thermal Free Energies=          -39.819182
 
                     E (Thermal)             CV                S
                      KCal/Mol        Cal/Mol-Kelvin    Cal/Mol-Kelvin
 Total                   20.534              7.344             50.061
 Electronic               0.000              0.000              1.377
 Translational            0.889              2.981             34.068
 Rotational               0.889              2.981             14.019
 Vibrational             18.756              1.383              0.597
 Vibration     1          0.899              1.154              0.558
                       Q            Log10(Q)             Ln(Q)
 Total Bot       0.285225D-04         -4.544812        -10.464817
 Total V=0       0.127882D+10          9.106810         20.969205
 Vib (Bot)       0.241114D-13        -13.617778        -31.356092
 Vib (Bot)    1  0.290447D+00         -0.536933         -1.236335
 Vib (V=0)       0.108105D+01          0.033844          0.077930
 Vib (V=0)    1  0.107824D+01          0.032715          0.075328
 Electronic      0.200000D+01          0.301030          0.693147
 Translational   0.228882D+07          6.359611         14.643545
 Rotational      0.258419D+03          2.412325          5.554583
 
                                        methyl with imposed symmetry and aug-cc-p
 VDZ basis set
                                                             IR Spectrum
 
      3      3                                                                  1                                                    
      3      1                                                                  3                               5                    
      0      1                                                                  7                               4                    
      9      2                                                                  7                               4                    
 
      X                                                                         X                               X                    
      X                                                                         X                               X                    
                                                                                                                X                    
                                                                                                                X                    
                                                                                                                X                    
                                                                                                                X                    
                                                                                                                X                    
                                                                                                                X                    
                                                                                                                X                    
                                                                                                                X                    
                                                                                                                X                    
                                                                                                                X                    
                                                                                                                X                    
                                                                                                                X                    
                                                                                                                X                    
                                                                                                                X                    
                                                                                                                X                    
                                                                                                                X                    
                                                                                                                X                    
                                                                                                                X                    
 
 ***** Axes restored to original set *****
 -------------------------------------------------------------------
 Center     Atomic                   Forces (Hartrees/Bohr)
 Number     Number              X              Y              Z
 -------------------------------------------------------------------
      1        6          -0.000000001    0.000000000   -0.000000634
      2        1           0.000000000   -0.000000000    0.000081617
      3        1           0.000070676   -0.000000000   -0.000040492
      4        1          -0.000070675    0.000000000   -0.000040491
 -------------------------------------------------------------------
 Cartesian Forces:  Max     0.000081617 RMS     0.000040754
 Force constants in Cartesian coordinates: 
                1             2             3             4             5 
      1  0.616849D+00
      2  0.000000D+00  0.270083D-01
      3 -0.325006D-05  0.000000D+00  0.616732D+00
      4 -0.517333D-01  0.000000D+00  0.000000D+00  0.434288D-01
      5  0.000000D+00 -0.902215D-02  0.000000D+00  0.000000D+00  0.299130D-02
      6  0.300945D-05  0.000000D+00 -0.359459D+00  0.000000D+00  0.000000D+00
      7 -0.282560D+00  0.000000D+00  0.133219D+00  0.415202D-02  0.000000D+00
      8  0.000000D+00 -0.899307D-02  0.000000D+00  0.000000D+00  0.301543D-02
      9  0.133217D+00  0.000000D+00 -0.128638D+00  0.227059D-01  0.000000D+00
     10 -0.282556D+00  0.000000D+00 -0.133216D+00  0.415249D-02  0.000000D+00
     11  0.000000D+00 -0.899307D-02  0.000000D+00  0.000000D+00  0.301543D-02
     12 -0.133217D+00  0.000000D+00 -0.128635D+00 -0.227054D-01  0.000000D+00
                6             7             8             9            10 
      6  0.371759D+00
      7 -0.486432D-02  0.289712D+00
      8  0.000000D+00  0.000000D+00  0.294211D-02
      9 -0.614914D-02 -0.142140D+00  0.000000D+00  0.125484D+00
     10  0.486175D-02 -0.113037D-01  0.000000D+00 -0.137833D-01  0.289707D+00
     11  0.000000D+00  0.000000D+00  0.303553D-02  0.000000D+00  0.000000D+00
     12 -0.615057D-02  0.137849D-01  0.000000D+00  0.930344D-02  0.142138D+00
               11            12 
     11  0.294211D-02
     12  0.000000D+00  0.125482D+00
 Force constants in internal coordinates: 
                1             2             3             4             5 
      1  0.371759D+00
      2 -0.113807D-02  0.371751D+00
      3 -0.113512D-02 -0.113371D-02  0.371746D+00
      4  0.531545D-02  0.528607D-02 -0.106296D-01  0.612313D-01
      5  0.531482D-02 -0.106311D-01  0.528554D-02 -0.306115D-01  0.612308D-01
      6 -0.106303D-01  0.534507D-02  0.534407D-02 -0.306198D-01 -0.306193D-01
      7  0.000000D+00  0.000000D+00  0.000000D+00  0.000000D+00  0.000000D+00
                6             7 
      6  0.612391D-01
      7  0.000000D+00  0.955117D-02
 Leave Link  716 at Sat Aug 17 23:42:46 2024, MaxMem=   13107200 cpu:       0.0
 (Enter /programs/64bit/g09/g09-gfortran/bin/l103.exe)

 GradGradGradGradGradGradGradGradGradGradGradGradGradGradGradGradGradGrad
 Berny optimization.
 Internal  Forces:  Max     0.000081617 RMS     0.000053359
 Search for a local minimum.
 Step number   1 out of a maximum of    2
 All quantities printed in internal units (Hartrees-Bohrs-Radians)
 Second derivative matrix not updated -- analytic derivatives used.
 The second derivative matrix:
                          R1        R2        R3        A1        A2
           R1           0.37176
           R2          -0.00114   0.37175
           R3          -0.00114  -0.00113   0.37175
           A1           0.00532   0.00529  -0.01063   0.06123
           A2           0.00531  -0.01063   0.00529  -0.03061   0.06123
           A3          -0.01063   0.00535   0.00534  -0.03062  -0.03062
           D1          -0.00000   0.00000   0.00000   0.00000  -0.00000
                          A3        D1
           A3           0.06124
           D1           0.00000   0.00955
     Eigenvalues ---    0.00955   0.09094   0.09095   0.36948   0.37378
     Eigenvalues ---    0.373801000.00000
 Angle between quadratic step and forces=   0.55 degrees.
 Linear search not attempted -- first point.
 Iteration  1 RMS(Cart)=  0.00014443 RMS(Int)=  0.00000000
 Iteration  2 RMS(Cart)=  0.00000000 RMS(Int)=  0.00000000
 ClnCor:  largest displacement from symmetrization is 8.19D-10 for atom     1.
 Variable       Old X    -DE/DX   Delta X   Delta X   Delta X     New X
                                 (Linear)    (Quad)   (Total)
    R1        2.05549   0.00008   0.00000   0.00022   0.00022   2.05571
    R2        2.05550   0.00008   0.00000   0.00022   0.00022   2.05572
    R3        2.05550   0.00008   0.00000   0.00022   0.00022   2.05572
    A1        2.09439  -0.00000   0.00000  -0.00000  -0.00000   2.09439
    A2        2.09439  -0.00000   0.00000  -0.00000  -0.00000   2.09439
    A3        2.09440   0.00000   0.00000   0.00000   0.00000   2.09440
    D1        3.14159   0.00000   0.00000   0.00000   0.00000   3.14159
         Item               Value     Threshold  Converged?
 Maximum Force            0.000082     0.000450     YES
 RMS     Force            0.000053     0.000300     YES
 Maximum Displacement     0.000219     0.001800     YES
 RMS     Displacement     0.000144     0.001200     YES
 Predicted change in Energy=-2.697189D-08
 Optimization completed.
    -- Stationary point found.
                           ----------------------------
                           !   Optimized Parameters   !
                           ! (Angstroms and Degrees)  !
 --------------------------                            --------------------------
 ! Name  Definition              Value          Derivative Info.                !
 --------------------------------------------------------------------------------
 ! R1    R(1,2)                  1.0877         -DE/DX =    0.0001              !
 ! R2    R(1,3)                  1.0877         -DE/DX =    0.0001              !
 ! R3    R(1,4)                  1.0877         -DE/DX =    0.0001              !
 ! A1    A(2,1,3)              119.9999         -DE/DX =    0.0                 !
 ! A2    A(2,1,4)              119.9999         -DE/DX =    0.0                 !
 ! A3    A(3,1,4)              120.0001         -DE/DX =    0.0                 !
 ! D1    D(2,1,4,3)            180.0            -DE/DX =    0.0                 !
 --------------------------------------------------------------------------------
 GradGradGradGradGradGradGradGradGradGradGradGradGradGradGradGradGradGrad

 Leave Link  103 at Sat Aug 17 23:42:46 2024, MaxMem=   13107200 cpu:       0.0
 (Enter /programs/64bit/g09/g09-gfortran/bin/l9999.exe)
 1\1\GINC-MOLMOD\Freq\UB3PW91\Aug-CC-pVDZ\C1H3(2)\OSPITE\17-Aug-2024\0\
 \#P Geom=AllCheck Guess=TCheck SCRF=Check GenChk UB3PW91/Aug-CC-pVDZ F
 req\\methyl with imposed symmetry and aug-cc-pVDZ basis set\\0,2\C,0.,
 0.,0.0000000595\H,0.,0.,1.0877191407\H,0.9419952789,0.,-0.5438596001\H
 ,-0.9419952789,0.,-0.5438596001\\Version=EM64L-G09RevA.02\State=2-A"\H
 F=-39.8290624\S2=0.754239\S2-1=0.\S2A=0.750009\RMSD=1.664e-10\RMSF=4.0
 75e-05\ZeroPoint=0.0296796\Thermal=0.0327222\Dipole=0.,0.,-0.0000078\D
 ipoleDeriv=0.0175488,0.0000085,-0.0000132,-0.0000026,-0.4393775,0.0000
 028,0.0000385,0.0000017,0.0176827,0.0438169,-0.0000018,-0.0000072,0.00
 00021,0.1465917,-0.000004,-0.0000217,-0.0000019,-0.0556618,-0.0307297,
 -0.0000022,0.043118,-0.0000012,0.1463928,0.0000019,0.0429739,0.0000009
 ,0.0189692,-0.030636,-0.0000045,-0.0430976,0.0000017,0.146393,-0.00000
 07,-0.0429907,-0.0000008,0.0190099\Polar=15.9346209,-0.0000335,15.8731
 ,-0.0011342,-0.0000775,15.9298809\PG=CS [SG(C1H3)]\NImag=0\\0.61684910
 ,0.00000002,0.02700829,-0.00000325,0.00000009,0.61673186,-0.05173329,-
 0.00000002,-0.00000008,0.04342879,0.00000008,-0.00902215,-0.00000023,-
 0.00000001,0.00299130,0.00000301,-0.00000009,-0.35945896,-0.00000044,0
 .00000016,0.37175868,-0.28255986,0.00000002,0.13321946,0.00415202,-0.0
 0000006,-0.00486432,0.28971155,-0.00000010,-0.00899307,0.00000013,0.00
 000002,0.00301543,-0.00000008,0.00000005,0.00294211,0.13321740,-0.0000
 0001,-0.12863815,0.02270592,0.00000004,-0.00614914,-0.14214002,-0.0000
 0003,0.12548385,-0.28255595,-0.00000001,-0.13321613,0.00415249,0.,0.00
 486175,-0.01130371,0.00000003,-0.01378330,0.28970718,0.,-0.00899307,0.
 ,0.00000001,0.00301543,0.00000002,0.,0.00303553,0.,0.,0.00294211,-0.13
 321716,0.00000002,-0.12863475,-0.02270540,0.00000003,-0.00615057,0.013
 78488,-0.00000002,0.00930344,0.14213768,-0.00000002,0.12548189\\0.,0.,
 0.00000063,0.,0.,-0.00008162,-0.00007068,0.,0.00004049,0.00007068,0.,0
 .00004049\\\@


 IT IS WELL TO REMEMBER THAT MAN IS A PART OF NATURE AND THAT HIS WORKS,
 WHATEVER THEY MAY BE, ARE NO MORE "UNNATURAL" THAN 
 THE FLIGHT OF AN EAGLE OR THE PASSAGE OF A TORNADO.

                                    -- CHARLES MCCARRY IN "THE GREAT SOUTHWEST"
 Job cpu time:  0 days  0 hours  1 minutes  3.2 seconds.
 File lengths (MBytes):  RWF=      5 Int=      0 D2E=      0 Chk=      1 Scr=      1
 Normal termination of Gaussian 09 at Sat Aug 17 23:42:46 2024.
