 Entering Gaussian System, Link 0=/programs/64bit/g09/g09-gfortran/bin/g09
 Input=ch3_cc-pVQZ.com
 Output=ch3_cc-pVQZ.log
 Initial command:
 /programs/64bit/g09/g09-gfortran/bin/l1.exe /home/ospite/Desktop/MMfP/Project6/CH3/g09/DFT/B3PW91/Gau-7252.inp -scrdir=/home/ospite/Desktop/MMfP/Project6/CH3/g09/DFT/B3PW91/
 Entering Link 1 = /programs/64bit/g09/g09-gfortran/bin/l1.exe PID=      7253.
  
 Copyright (c) 1988,1990,1992,1993,1995,1998,2003,2009, Gaussian, Inc.
                  All Rights Reserved.
  
 This is part of the Gaussian(R) 09 program.  It is based on
 the Gaussian(R) 03 system (copyright 2003, Gaussian, Inc.),
 the Gaussian(R) 98 system (copyright 1998, Gaussian, Inc.),
 the Gaussian(R) 94 system (copyright 1995, Gaussian, Inc.),
 the Gaussian 92(TM) system (copyright 1992, Gaussian, Inc.),
 the Gaussian 90(TM) system (copyright 1990, Gaussian, Inc.),
 the Gaussian 88(TM) system (copyright 1988, Gaussian, Inc.),
 the Gaussian 86(TM) system (copyright 1986, Carnegie Mellon
 University), and the Gaussian 82(TM) system (copyright 1983,
 Carnegie Mellon University). Gaussian is a federally registered
 trademark of Gaussian, Inc.
  
 This software contains proprietary and confidential information,
 including trade secrets, belonging to Gaussian, Inc.
  
 This software is provided under written license and may be
 used, copied, transmitted, or stored only in accord with that
 written license.
  
 The following legend is applicable only to US Government
 contracts under FAR:
  
                    RESTRICTED RIGHTS LEGEND
  
 Use, reproduction and disclosure by the US Government is
 subject to restrictions as set forth in subparagraphs (a)
 and (c) of the Commercial Computer Software - Restricted
 Rights clause in FAR 52.227-19.
  
 Gaussian, Inc.
 340 Quinnipiac St., Bldg. 40, Wallingford CT 06492
  
  
 ---------------------------------------------------------------
 Warning -- This program may not be used in any manner that
 competes with the business of Gaussian, Inc. or will provide
 assistance to any competitor of Gaussian, Inc.  The licensee
 of this program is prohibited from giving any competitor of
 Gaussian, Inc. access to this program.  By using this program,
 the user acknowledges that Gaussian, Inc. is engaged in the
 business of creating and licensing software in the field of
 computational chemistry and represents and warrants to the
 licensee that it is not a competitor of Gaussian, Inc. and that
 it will not use this program in any manner prohibited above.
 ---------------------------------------------------------------
  

 Cite this work as:
 Gaussian 09, Revision A.02,
 M. J. Frisch, G. W. Trucks, H. B. Schlegel, G. E. Scuseria, 
 M. A. Robb, J. R. Cheeseman, G. Scalmani, V. Barone, B. Mennucci, 
 G. A. Petersson, H. Nakatsuji, M. Caricato, X. Li, H. P. Hratchian, 
 A. F. Izmaylov, J. Bloino, G. Zheng, J. L. Sonnenberg, M. Hada, 
 M. Ehara, K. Toyota, R. Fukuda, J. Hasegawa, M. Ishida, T. Nakajima, 
 Y. Honda, O. Kitao, H. Nakai, T. Vreven, J. A. Montgomery, Jr., 
 J. E. Peralta, F. Ogliaro, M. Bearpark, J. J. Heyd, E. Brothers, 
 K. N. Kudin, V. N. Staroverov, R. Kobayashi, J. Normand, 
 K. Raghavachari, A. Rendell, J. C. Burant, S. S. Iyengar, J. Tomasi, 
 M. Cossi, N. Rega, J. M. Millam, M. Klene, J. E. Knox, J. B. Cross, 
 V. Bakken, C. Adamo, J. Jaramillo, R. Gomperts, R. E. Stratmann, 
 O. Yazyev, A. J. Austin, R. Cammi, C. Pomelli, J. W. Ochterski, 
 R. L. Martin, K. Morokuma, V. G. Zakrzewski, G. A. Voth, 
 P. Salvador, J. J. Dannenberg, S. Dapprich, A. D. Daniels, 
 O. Farkas, J. B. Foresman, J. V. Ortiz, J. Cioslowski, 
 and D. J. Fox, Gaussian, Inc., Wallingford CT, 2009.
 
 ******************************************
 Gaussian 09:  EM64L-G09RevA.02 11-Jun-2009
                18-Aug-2024 
 ******************************************
 %mem=100MB
 --------------------------------------------------------------------
 #p b3pw91/cc-pVQZ opt freq symmetry=(follow,pg=C3v) pop=full gfinput
 --------------------------------------------------------------------
 1/14=-1,18=20,19=15,26=3,38=1/1,3;
 2/9=110,12=2,17=6,18=5,19=2314885530821997379,40=1/2;
 3/5=16,6=2,11=2,16=1,24=10,25=1,30=1,71=1,74=-6/1,2,3;
 4//1;
 5/5=2,38=5/2;
 6/7=3,28=1/1;
 7//1,2,3,16;
 1/14=-1,18=20,19=15/3(2);
 2/9=110,15=5,19=2314885530821997379/2;
 99//99;
 2/9=110,15=5,19=2314885530821997379/2;
 3/5=16,6=2,11=2,16=1,25=1,30=1,71=1,74=-6/1,2,3;
 4/5=5,16=3/1;
 5/5=2,38=5/2;
 7//1,2,3,16;
 1/14=-1,18=20,19=15/3(-5);
 2/9=110,15=5,19=2314885530821997379/2;
 6/7=3,19=2,28=1/1;
 99/9=1/99;
 Leave Link    1 at Sun Aug 18 14:32:06 2024, MaxMem=   13107200 cpu:       0.1
 (Enter /programs/64bit/g09/g09-gfortran/bin/l101.exe)
 --------------------------------------------------
 methyl with imposed symmetry and cc-pVQZ basis set
 --------------------------------------------------
 Symbolic Z-matrix:
 Charge =  0 Multiplicity = 2
 C1
 H2                   1    d
 H3                   1    d        2    a
 H4                   1    d        2    -a       3    t        0
       Variables:
  d                     1.09                     
  a                   120.                       
  t                     0.                       
 
 NAtoms=      4 NQM=      4 NQMF=      0 NMic=      0 NMicF=      0 NTot=      4.
                    Isotopes and Nuclear Properties:
 (Nuclear quadrupole moments (NQMom) in fm**2, nuclear magnetic moments (NMagM)
  in nuclear magnetons)

  Atom         1           2           3           4
 IAtWgt=          12           1           1           1
 AtmWgt=  12.0000000   1.0078250   1.0078250   1.0078250
 NucSpn=           0           1           1           1
 AtZEff=   0.0000000   0.0000000   0.0000000   0.0000000
 NQMom=    0.0000000   0.0000000   0.0000000   0.0000000
 NMagM=    0.0000000   2.7928460   2.7928460   2.7928460
 Leave Link  101 at Sun Aug 18 14:32:06 2024, MaxMem=   13107200 cpu:       0.1
 (Enter /programs/64bit/g09/g09-gfortran/bin/l103.exe)

 GradGradGradGradGradGradGradGradGradGradGradGradGradGradGradGradGradGrad
 Berny optimization.
 Initialization pass.
                           ----------------------------
                           !    Initial Parameters    !
                           ! (Angstroms and Degrees)  !
 --------------------------                            --------------------------
 ! Name  Definition              Value          Derivative Info.                !
 --------------------------------------------------------------------------------
 ! R1    R(1,2)                  1.09           estimate D2E/DX2                !
 ! R2    R(1,3)                  1.09           estimate D2E/DX2                !
 ! R3    R(1,4)                  1.09           estimate D2E/DX2                !
 ! A1    A(2,1,3)              120.0            estimate D2E/DX2                !
 ! A2    A(2,1,4)              120.0            estimate D2E/DX2                !
 ! A3    A(3,1,4)              120.0            estimate D2E/DX2                !
 ! D1    D(2,1,4,3)            180.0            estimate D2E/DX2                !
 --------------------------------------------------------------------------------
 Trust Radius=3.00D-01 FncErr=1.00D-07 GrdErr=1.00D-06
 Number of steps in this run=  20 maximum allowed number of steps= 100.
 GradGradGradGradGradGradGradGradGradGradGradGradGradGradGradGradGradGrad

 Leave Link  103 at Sun Aug 18 14:32:06 2024, MaxMem=   13107200 cpu:       0.0
 (Enter /programs/64bit/g09/g09-gfortran/bin/l202.exe)
                          Input orientation:                          
 ---------------------------------------------------------------------
 Center     Atomic      Atomic             Coordinates (Angstroms)
 Number     Number       Type             X           Y           Z
 ---------------------------------------------------------------------
      1          6           0        0.000000    0.000000    0.000000
      2          1           0        0.000000    0.000000    1.090000
      3          1           0        0.943968    0.000000   -0.545000
      4          1           0       -0.943968    0.000000   -0.545000
 ---------------------------------------------------------------------
                    Distance matrix (angstroms):
                    1          2          3          4
     1  C    0.000000
     2  H    1.090000   0.000000
     3  H    1.090000   1.887935   0.000000
     4  H    1.090000   1.887935   1.887935   0.000000
 Symm:  InNGrp=C3V  InAxis=0.
 This structure is nearly, but not quite of a higher symmetry.
 Consider Symm=Loose if the higher symmetry is desired.
 Stoichiometry    CH3(2)
 Framework group  C2[C2(CH),X(H2)]
 Deg. of freedom     3
 Full point group                 C2      NOp   2
 Largest Abelian subgroup         C2      NOp   2
 Largest concise Abelian subgroup C2      NOp   2
                         Standard orientation:                         
 ---------------------------------------------------------------------
 Center     Atomic      Atomic             Coordinates (Angstroms)
 Number     Number       Type             X           Y           Z
 ---------------------------------------------------------------------
      1          6           0        0.000000    0.000000    0.000000
      2          1           0        0.000000    0.000000    1.090000
      3          1           0        0.000000    0.943968   -0.545000
      4          1           0       -0.000000   -0.943968   -0.545000
 ---------------------------------------------------------------------
 Rotational constants (GHZ):    281.3764836    281.3764836    140.6882418
 Leave Link  202 at Sun Aug 18 14:32:06 2024, MaxMem=   13107200 cpu:       0.0
 (Enter /programs/64bit/g09/g09-gfortran/bin/l301.exe)
 Standard basis: CC-pVQZ (5D, 7F)
 Ernie: Thresh=  0.10000D-02 Tol=  0.10000D-05 Strict=F.
 Ernie:  3 primitive shells out of 69 were deleted.
 AO basis set in the form of general basis input (Overlap normalization):
      1 0
 S   8 1.00       0.000000000000
      0.3398000000D+05  0.1468124114D-03
      0.5089000000D+04  0.1116460016D-02
      0.1157000000D+04  0.5890887108D-02
      0.3266000000D+03  0.2421725547D-01
      0.1061000000D+03  0.8317163879D-01
      0.3811000000D+02  0.2205684777D+00
      0.1475000000D+02  0.4287314969D+00
      0.6035000000D+01  0.3643614225D+00
 S   7 1.00       0.000000000000
      0.5089000000D+04 -0.1002265364D-04
      0.3266000000D+03 -0.4365894368D-03
      0.1061000000D+03 -0.1932312730D-02
      0.3811000000D+02 -0.2148394772D-01
      0.1475000000D+02 -0.9030916566D-01
      0.6035000000D+01 -0.4187915117D+00
      0.2530000000D+01 -0.5318019058D+00
 S   1 1.00       0.000000000000
      0.7355000000D+00  0.1000000000D+01
 S   1 1.00       0.000000000000
      0.2905000000D+00  0.1000000000D+01
 S   1 1.00       0.000000000000
      0.1111000000D+00  0.1000000000D+01
 P   3 1.00       0.000000000000
      0.3451000000D+02  0.3168785521D-01
      0.7915000000D+01  0.2128943073D+00
      0.2368000000D+01  0.8395867520D+00
 P   1 1.00       0.000000000000
      0.8132000000D+00  0.1000000000D+01
 P   1 1.00       0.000000000000
      0.2890000000D+00  0.1000000000D+01
 P   1 1.00       0.000000000000
      0.1007000000D+00  0.1000000000D+01
 D   1 1.00       0.000000000000
      0.1848000000D+01  0.1000000000D+01
 D   1 1.00       0.000000000000
      0.6490000000D+00  0.1000000000D+01
 D   1 1.00       0.000000000000
      0.2280000000D+00  0.1000000000D+01
 F   1 1.00       0.000000000000
      0.1419000000D+01  0.1000000000D+01
 F   1 1.00       0.000000000000
      0.4850000000D+00  0.1000000000D+01
 G   1 1.00       0.000000000000
      0.1011000000D+01  0.1000000000D+01
 ****
      2 0
 S   3 1.00       0.000000000000
      0.8264000000D+02  0.2295075779D-01
      0.1241000000D+02  0.1755401181D+00
      0.2824000000D+01  0.8647035510D+00
 S   1 1.00       0.000000000000
      0.7977000000D+00  0.1000000000D+01
 S   1 1.00       0.000000000000
      0.2581000000D+00  0.1000000000D+01
 S   1 1.00       0.000000000000
      0.8989000000D-01  0.1000000000D+01
 P   1 1.00       0.000000000000
      0.2292000000D+01  0.1000000000D+01
 P   1 1.00       0.000000000000
      0.8380000000D+00  0.1000000000D+01
 P   1 1.00       0.000000000000
      0.2920000000D+00  0.1000000000D+01
 D   1 1.00       0.000000000000
      0.2062000000D+01  0.1000000000D+01
 D   1 1.00       0.000000000000
      0.6620000000D+00  0.1000000000D+01
 F   1 1.00       0.000000000000
      0.1397000000D+01  0.1000000000D+01
 ****
      3 0
 S   3 1.00       0.000000000000
      0.8264000000D+02  0.2295075779D-01
      0.1241000000D+02  0.1755401181D+00
      0.2824000000D+01  0.8647035510D+00
 S   1 1.00       0.000000000000
      0.7977000000D+00  0.1000000000D+01
 S   1 1.00       0.000000000000
      0.2581000000D+00  0.1000000000D+01
 S   1 1.00       0.000000000000
      0.8989000000D-01  0.1000000000D+01
 P   1 1.00       0.000000000000
      0.2292000000D+01  0.1000000000D+01
 P   1 1.00       0.000000000000
      0.8380000000D+00  0.1000000000D+01
 P   1 1.00       0.000000000000
      0.2920000000D+00  0.1000000000D+01
 D   1 1.00       0.000000000000
      0.2062000000D+01  0.1000000000D+01
 D   1 1.00       0.000000000000
      0.6620000000D+00  0.1000000000D+01
 F   1 1.00       0.000000000000
      0.1397000000D+01  0.1000000000D+01
 ****
      4 0
 S   3 1.00       0.000000000000
      0.8264000000D+02  0.2295075779D-01
      0.1241000000D+02  0.1755401181D+00
      0.2824000000D+01  0.8647035510D+00
 S   1 1.00       0.000000000000
      0.7977000000D+00  0.1000000000D+01
 S   1 1.00       0.000000000000
      0.2581000000D+00  0.1000000000D+01
 S   1 1.00       0.000000000000
      0.8989000000D-01  0.1000000000D+01
 P   1 1.00       0.000000000000
      0.2292000000D+01  0.1000000000D+01
 P   1 1.00       0.000000000000
      0.8380000000D+00  0.1000000000D+01
 P   1 1.00       0.000000000000
      0.2920000000D+00  0.1000000000D+01
 D   1 1.00       0.000000000000
      0.2062000000D+01  0.1000000000D+01
 D   1 1.00       0.000000000000
      0.6620000000D+00  0.1000000000D+01
 F   1 1.00       0.000000000000
      0.1397000000D+01  0.1000000000D+01
 ****

 There are    75 symmetry adapted basis functions of A   symmetry.
 There are    70 symmetry adapted basis functions of B   symmetry.
 Integral buffers will be    131072 words long.
 Raffenetti 2 integral format.
 Two-electron integral symmetry is turned on.
   145 basis functions,   200 primitive gaussians,   175 cartesian basis functions
     5 alpha electrons        4 beta electrons
       nuclear repulsion energy         9.5795885928 Hartrees.
 IExCor=  408 DFT=T Ex+Corr=B3PW91 ExCW=0 ScaHFX=  0.200000
 ScaDFX=  0.800000  0.720000  1.000000  0.810000 ScalE2=  1.000000  1.000000
 IRadAn=      0 IRanWt=     -1 IRanGd=            0 ICorTp=0
 NAtoms=    4 NActive=    4 NUniq=    3 SFac= 1.33D+00 NAtFMM=   80 NAOKFM=F Big=F
 Leave Link  301 at Sun Aug 18 14:32:06 2024, MaxMem=   13107200 cpu:       0.1
 (Enter /programs/64bit/g09/g09-gfortran/bin/l302.exe)
 NPDir=0 NMtPBC=     1 NCelOv=     1 NCel=       1 NClECP=     1 NCelD=      1
         NCelK=      1 NCelE2=     1 NClLst=     1 CellRange=     0.0.
 One-electron integrals computed using PRISM.
 One-electron integral symmetry used in STVInt
 NBasis=   145 RedAO= T  NBF=    75    70
 NBsUse=   145 1.00D-06 NBFU=    75    70
 Precomputing XC quadrature grid using
 IXCGrd= 2 IRadAn=           0 IRanWt=          -1 IRanGd=           0 AccXCQ= 1.00D-10.
 NRdTot=     250 NPtTot=       31382 NUsed=       33197 NTot=       33229
 NSgBfM=   175   175   175   175   175 NAtAll=     4     4.
 Leave Link  302 at Sun Aug 18 14:32:07 2024, MaxMem=   13107200 cpu:       0.3
 (Enter /programs/64bit/g09/g09-gfortran/bin/l303.exe)
 DipDrv:  MaxL=1.
 Leave Link  303 at Sun Aug 18 14:32:07 2024, MaxMem=   13107200 cpu:       0.0
 (Enter /programs/64bit/g09/g09-gfortran/bin/l401.exe)
 Harris functional with IExCor=  408 diagonalized for initial guess.
 ExpMin= 8.99D-02 ExpMax= 3.40D+04 ExpMxC= 3.27D+02 IAcc=2 IRadAn=         0 AccDes= 0.00D+00
 HarFok:  IExCor=  408 AccDes= 0.00D+00 IRadAn=         0 IDoV= 1
 ScaDFX=  1.000000  1.000000  1.000000  1.000000
 FoFCou: FMM=F IPFlag=           0 FMFlag=      100000 FMFlg1=           0
         NFxFlg=           0 DoJE=T BraDBF=F KetDBF=T FulRan=T
         Omega=  0.000000  0.000000  1.000000  0.000000  0.000000 ICntrl=     500 IOpCl=  0
         NMat0=    1 NMatS0=    1 NMatT0=    0 NMatD0=    1 NMtDS0=    0 NMtDT0=    0
         I1Cent=           4 NGrid=           0.
 Petite list used in FoFCou.
 Harris En= -39.8721643726285    
 Initial guess orbital symmetries:
 Alpha Orbitals:
       Occupied  (A) (A) (A) (B) (B)
       Virtual   (A) (B) (A) (B) (A) (B) (A) (A) (B) (A) (A) (B)
                 (B) (A) (B) (A) (B) (B) (A) (B) (A) (A) (B) (A)
                 (A) (B) (A) (B) (B) (A) (A) (B) (B) (A) (A) (B)
                 (A) (B) (B) (A) (A) (B) (A) (B) (A) (B) (A) (B)
                 (A) (B) (A) (B) (A) (B) (A) (B) (A) (B) (A) (B)
                 (A) (B) (A) (A) (B) (A) (B) (B) (A) (B) (A) (A)
                 (B) (A) (B) (A) (B) (B) (A) (B) (B) (A) (B) (B)
                 (B) (A) (A) (B) (A) (A) (A) (B) (B) (A) (B) (B)
                 (A) (B) (A) (A) (B) (B) (A) (A) (B) (B) (A) (A)
                 (A) (B) (A) (B) (A) (B) (A) (A) (B) (B) (A) (B)
                 (A) (A) (B) (A) (B) (A) (B) (A) (B) (A) (A) (B)
                 (B) (B) (A) (A) (B) (B) (A) (A)
 Beta  Orbitals:
       Occupied  (A) (A) (A) (B)
       Virtual   (B) (A) (B) (A) (B) (A) (B) (A) (A) (B) (A) (A)
                 (B) (B) (A) (B) (A) (B) (B) (A) (B) (A) (A) (B)
                 (A) (A) (B) (A) (B) (B) (A) (A) (B) (B) (A) (A)
                 (B) (A) (B) (B) (A) (A) (B) (A) (B) (A) (B) (A)
                 (B) (A) (B) (A) (B) (A) (B) (A) (B) (A) (B) (A)
                 (B) (A) (B) (A) (A) (B) (A) (B) (B) (A) (B) (A)
                 (A) (B) (A) (B) (A) (B) (B) (A) (B) (B) (A) (B)
                 (B) (B) (A) (A) (B) (A) (A) (A) (B) (B) (A) (B)
                 (B) (A) (B) (A) (A) (B) (B) (A) (A) (B) (B) (A)
                 (A) (A) (B) (A) (B) (A) (B) (A) (A) (B) (B) (A)
                 (B) (A) (A) (B) (A) (B) (A) (B) (A) (B) (A) (A)
                 (B) (B) (B) (A) (A) (B) (B) (A) (A)
 The electronic state of the initial guess is 2-B.
 Initial guess <Sx>= 0.0000 <Sy>= 0.0000 <Sz>= 0.5000 <S**2>= 0.7500 S= 0.5000
 Leave Link  401 at Sun Aug 18 14:32:11 2024, MaxMem=   13107200 cpu:       3.9
 (Enter /programs/64bit/g09/g09-gfortran/bin/l502.exe)
 UHF open shell SCF:
 Requested convergence on RMS density matrix=1.00D-08 within 128 cycles.
 Requested convergence on MAX density matrix=1.00D-06.
 Requested convergence on             energy=1.00D-06.
 No special actions if energy rises.
 Using DIIS extrapolation, IDIIS=  1040.
 Integral symmetry usage will be decided dynamically.
        33148 words used for storage of precomputed grid.
 IEnd=      145657 IEndB=      145657 NGot=    13107200 MDV=    13008984
 LenX=    13008984 LenY=    12977918
 Fock matrices will be formed incrementally for  20 cycles.
 Integral accuracy reduced to 1.0D-05 until final iterations.

 Cycle   1  Pass 0  IDiag  1:
 FoFCou: FMM=F IPFlag=           0 FMFlag=      100000 FMFlg1=           0
         NFxFlg=           0 DoJE=F BraDBF=F KetDBF=F FulRan=T
         Omega=  0.000000  0.000000  1.000000  0.000000  0.000000 ICntrl=       0 IOpCl=  1
         NMat0=    1 NMatS0=    1 NMatT0=    0 NMatD0=    1 NMtDS0=    0 NMtDT0=    0
         I1Cent=           0 NGrid=           0.
 Petite list used in FoFCou.
 E= -39.8012115213529    
 DIIS: error= 3.08D-02 at cycle   1 NSaved=   1.
 NSaved= 1 IEnMin= 1 EnMin= -39.8012115213529     IErMin= 1 ErrMin= 3.08D-02
 ErrMax= 3.08D-02 EMaxC= 1.00D-01 BMatC= 1.66D-01 BMatP= 1.66D-01
 IDIUse=3 WtCom= 6.92D-01 WtEn= 3.08D-01
 Coeff-Com:  0.100D+01
 Coeff-En:   0.100D+01
 Coeff:      0.100D+01
 Gap=     0.216 Goal=   None    Shift=    0.000
 Gap=     0.371 Goal=   None    Shift=    0.000
 GapD=    0.216 DampG=1.000 DampE=0.500 DampFc=0.5000 IDamp=-1.
 Damping current iteration by 5.00D-01
 RMSDP=1.45D-03 MaxDP=1.09D-01              OVMax= 1.56D-01

 Cycle   2  Pass 0  IDiag  1:
 RMSU=  5.35D-04    CP:  9.63D-01
 E= -39.8223136773591     Delta-E=       -0.021102156006 Rises=F Damp=T
 DIIS: error= 7.25D-03 at cycle   2 NSaved=   2.
 NSaved= 2 IEnMin= 2 EnMin= -39.8223136773591     IErMin= 2 ErrMin= 7.25D-03
 ErrMax= 7.25D-03 EMaxC= 1.00D-01 BMatC= 7.26D-03 BMatP= 1.66D-01
 IDIUse=3 WtCom= 9.28D-01 WtEn= 7.25D-02
 Coeff-Com: -0.101D-01 0.101D+01
 Coeff-En:   0.000D+00 0.100D+01
 Coeff:     -0.936D-02 0.101D+01
 Gap=     0.281 Goal=   None    Shift=    0.000
 Gap=     0.346 Goal=   None    Shift=    0.000
 RMSDP=2.10D-04 MaxDP=1.20D-02 DE=-2.11D-02 OVMax= 8.90D-02

 Cycle   3  Pass 0  IDiag  1:
 RMSU=  1.75D-04    CP:  9.67D-01  9.92D-01
 E= -39.8444555450050     Delta-E=       -0.022141867646 Rises=F Damp=F
 DIIS: error= 1.67D-03 at cycle   3 NSaved=   3.
 NSaved= 3 IEnMin= 3 EnMin= -39.8444555450050     IErMin= 3 ErrMin= 1.67D-03
 ErrMax= 1.67D-03 EMaxC= 1.00D-01 BMatC= 3.00D-04 BMatP= 7.26D-03
 IDIUse=3 WtCom= 9.83D-01 WtEn= 1.67D-02
 Coeff-Com: -0.340D-01 0.450D-01 0.989D+00
 Coeff-En:   0.000D+00 0.000D+00 0.100D+01
 Coeff:     -0.334D-01 0.442D-01 0.989D+00
 Gap=     0.284 Goal=   None    Shift=    0.000
 Gap=     0.347 Goal=   None    Shift=    0.000
 RMSDP=4.99D-05 MaxDP=4.21D-03 DE=-2.21D-02 OVMax= 5.19D-03

 Cycle   4  Pass 0  IDiag  1:
 RMSU=  2.25D-05    CP:  9.66D-01  1.02D+00  1.09D+00
 E= -39.8445574826503     Delta-E=       -0.000101937645 Rises=F Damp=F
 DIIS: error= 2.83D-04 at cycle   4 NSaved=   4.
 NSaved= 4 IEnMin= 4 EnMin= -39.8445574826503     IErMin= 4 ErrMin= 2.83D-04
 ErrMax= 2.83D-04 EMaxC= 1.00D-01 BMatC= 9.99D-06 BMatP= 3.00D-04
 IDIUse=3 WtCom= 9.97D-01 WtEn= 2.83D-03
 Coeff-Com:  0.386D-02-0.212D-01-0.178D+00 0.120D+01
 Coeff-En:   0.000D+00 0.000D+00 0.000D+00 0.100D+01
 Coeff:      0.385D-02-0.211D-01-0.178D+00 0.120D+01
 Gap=     0.285 Goal=   None    Shift=    0.000
 Gap=     0.347 Goal=   None    Shift=    0.000
 RMSDP=1.63D-05 MaxDP=9.54D-04 DE=-1.02D-04 OVMax= 1.36D-03

 Cycle   5  Pass 0  IDiag  1:
 RMSU=  6.03D-06    CP:  9.66D-01  1.02D+00  1.13D+00  1.25D+00
 E= -39.8445649138408     Delta-E=       -0.000007431190 Rises=F Damp=F
 DIIS: error= 5.70D-05 at cycle   5 NSaved=   5.
 NSaved= 5 IEnMin= 5 EnMin= -39.8445649138408     IErMin= 5 ErrMin= 5.70D-05
 ErrMax= 5.70D-05 EMaxC= 1.00D-01 BMatC= 6.02D-07 BMatP= 9.99D-06
 IDIUse=1 WtCom= 1.00D+00 WtEn= 0.00D+00
 Coeff-Com:  0.579D-03 0.476D-02 0.338D-02-0.327D+00 0.132D+01
 Coeff:      0.579D-03 0.476D-02 0.338D-02-0.327D+00 0.132D+01
 Gap=     0.285 Goal=   None    Shift=    0.000
 Gap=     0.347 Goal=   None    Shift=    0.000
 RMSDP=4.55D-06 MaxDP=2.45D-04 DE=-7.43D-06 OVMax= 4.27D-04

 Initial convergence to 1.0D-05 achieved.  Increase integral accuracy.
 Cycle   6  Pass 1  IDiag  1:
 E= -39.8445709074741     Delta-E=       -0.000005993633 Rises=F Damp=F
 DIIS: error= 1.49D-05 at cycle   1 NSaved=   1.
 NSaved= 1 IEnMin= 1 EnMin= -39.8445709074741     IErMin= 1 ErrMin= 1.49D-05
 ErrMax= 1.49D-05 EMaxC= 1.00D-01 BMatC= 1.31D-07 BMatP= 1.31D-07
 IDIUse=1 WtCom= 1.00D+00 WtEn= 0.00D+00
 Coeff-Com:  0.100D+01
 Coeff:      0.100D+01
 Gap=     0.285 Goal=   None    Shift=    0.000
 Gap=     0.347 Goal=   None    Shift=    0.000
 RMSDP=4.55D-06 MaxDP=2.45D-04 DE=-5.99D-06 OVMax= 5.89D-05

 Cycle   7  Pass 1  IDiag  1:
 RMSU=  1.51D-06    CP:  1.00D+00
 E= -39.8445709216077     Delta-E=       -0.000000014134 Rises=F Damp=F
 DIIS: error= 4.69D-06 at cycle   2 NSaved=   2.
 NSaved= 2 IEnMin= 2 EnMin= -39.8445709216077     IErMin= 2 ErrMin= 4.69D-06
 ErrMax= 4.69D-06 EMaxC= 1.00D-01 BMatC= 2.18D-09 BMatP= 1.31D-07
 IDIUse=1 WtCom= 1.00D+00 WtEn= 0.00D+00
 Coeff-Com: -0.298D-01 0.103D+01
 Coeff:     -0.298D-01 0.103D+01
 Gap=     0.285 Goal=   None    Shift=    0.000
 Gap=     0.347 Goal=   None    Shift=    0.000
 RMSDP=2.06D-07 MaxDP=1.32D-05 DE=-1.41D-08 OVMax= 2.40D-05

 Cycle   8  Pass 1  IDiag  1:
 RMSU=  1.53D-07    CP:  1.00D+00  1.07D+00
 E= -39.8445709225267     Delta-E=       -0.000000000919 Rises=F Damp=F
 DIIS: error= 2.99D-06 at cycle   3 NSaved=   3.
 NSaved= 3 IEnMin= 3 EnMin= -39.8445709225267     IErMin= 3 ErrMin= 2.99D-06
 ErrMax= 2.99D-06 EMaxC= 1.00D-01 BMatC= 1.02D-09 BMatP= 2.18D-09
 IDIUse=1 WtCom= 1.00D+00 WtEn= 0.00D+00
 Coeff-Com: -0.216D-01 0.378D+00 0.644D+00
 Coeff:     -0.216D-01 0.378D+00 0.644D+00
 Gap=     0.285 Goal=   None    Shift=    0.000
 Gap=     0.347 Goal=   None    Shift=    0.000
 RMSDP=7.61D-08 MaxDP=5.06D-06 DE=-9.19D-10 OVMax= 9.21D-06

 Cycle   9  Pass 1  IDiag  1:
 RMSU=  4.09D-08    CP:  1.00D+00  1.07D+00  9.43D-01
 E= -39.8445709228215     Delta-E=       -0.000000000295 Rises=F Damp=F
 DIIS: error= 1.16D-06 at cycle   4 NSaved=   4.
 NSaved= 4 IEnMin= 4 EnMin= -39.8445709228215     IErMin= 4 ErrMin= 1.16D-06
 ErrMax= 1.16D-06 EMaxC= 1.00D-01 BMatC= 1.36D-10 BMatP= 1.02D-09
 IDIUse=1 WtCom= 1.00D+00 WtEn= 0.00D+00
 Coeff-Com:  0.536D-02-0.274D+00 0.891D-01 0.118D+01
 Coeff:      0.536D-02-0.274D+00 0.891D-01 0.118D+01
 Gap=     0.285 Goal=   None    Shift=    0.000
 Gap=     0.347 Goal=   None    Shift=    0.000
 RMSDP=5.10D-08 MaxDP=3.02D-06 DE=-2.95D-10 OVMax= 5.94D-06

 Cycle  10  Pass 1  IDiag  1:
 RMSU=  1.37D-08    CP:  1.00D+00  1.08D+00  1.20D+00  1.18D+00
 E= -39.8445709228938     Delta-E=       -0.000000000072 Rises=F Damp=F
 DIIS: error= 6.93D-08 at cycle   5 NSaved=   5.
 NSaved= 5 IEnMin= 5 EnMin= -39.8445709228938     IErMin= 5 ErrMin= 6.93D-08
 ErrMax= 6.93D-08 EMaxC= 1.00D-01 BMatC= 7.05D-13 BMatP= 1.36D-10
 IDIUse=1 WtCom= 1.00D+00 WtEn= 0.00D+00
 Coeff-Com: -0.104D-03 0.234D-01-0.248D-01-0.143D+00 0.114D+01
 Coeff:     -0.104D-03 0.234D-01-0.248D-01-0.143D+00 0.114D+01
 Gap=     0.285 Goal=   None    Shift=    0.000
 Gap=     0.347 Goal=   None    Shift=    0.000
 RMSDP=5.45D-09 MaxDP=3.88D-07 DE=-7.23D-11 OVMax= 5.07D-07

 SCF Done:  E(UB3PW91) =  -39.8445709229     A.U. after   10 cycles
             Convg  =    0.5451D-08             -V/T =  2.0074
 <Sx>= 0.0000 <Sy>= 0.0000 <Sz>= 0.5000 <S**2>= 0.7546 S= 0.5023
 <L.S>=  0.00000000000    
 KE= 3.955190044438D+01 PE=-1.110620335568D+02 EE= 2.208597359672D+01
 Annihilation of the first spin contaminant:
 S**2 before annihilation     0.7546,   after     0.7500
 Leave Link  502 at Sun Aug 18 14:34:06 2024, MaxMem=   13107200 cpu:     114.0
 (Enter /programs/64bit/g09/g09-gfortran/bin/l601.exe)
 Copying SCF densities to generalized density rwf, IOpCl= 1 IROHF=0.

 **********************************************************************

            Population analysis using the SCF density.

 **********************************************************************

 Orbital symmetries:
 Alpha Orbitals:
       Occupied  (A) (A) (A) (B) (B)
       Virtual   (A) (B) (A) (B) (A) (B) (A) (A) (B) (A) (A) (B)
                 (B) (A) (B) (A) (B) (B) (A) (B) (A) (A) (B) (A)
                 (A) (B) (A) (B) (B) (A) (A) (B) (B) (A) (B) (A)
                 (A) (B) (B) (A) (A) (B) (A) (B) (A) (B) (A) (A)
                 (B) (B) (A) (B) (A) (B) (A) (B) (A) (B) (A) (B)
                 (A) (B) (A) (A) (B) (A) (B) (B) (A) (B) (A) (A)
                 (A) (B) (B) (A) (B) (A) (B) (B) (B) (A) (B) (B)
                 (A) (B) (A) (B) (A) (A) (A) (B) (B) (A) (B) (B)
                 (A) (B) (A) (A) (B) (B) (A) (A) (B) (A) (B) (A)
                 (A) (B) (A) (B) (A) (B) (A) (A) (B) (B) (A) (B)
                 (A) (B) (A) (A) (B) (A) (B) (A) (B) (B) (A) (A)
                 (B) (B) (A) (A) (B) (B) (A) (A)
 Beta  Orbitals:
       Occupied  (A) (A) (A) (B)
       Virtual   (B) (A) (B) (A) (B) (A) (B) (A) (A) (B) (A) (A)
                 (B) (B) (A) (B) (A) (B) (A) (B) (B) (A) (B) (A)
                 (A) (A) (A) (B) (B) (B) (A) (A) (B) (B) (A) (B)
                 (A) (A) (B) (B) (A) (A) (B) (A) (B) (A) (B) (A)
                 (B) (A) (B) (A) (B) (A) (B) (A) (B) (A) (B) (A)
                 (B) (A) (B) (A) (A) (B) (A) (B) (B) (A) (B) (A)
                 (A) (A) (B) (B) (A) (B) (B) (A) (B) (B) (A) (B)
                 (B) (A) (B) (A) (B) (A) (A) (A) (B) (B) (A) (B)
                 (B) (A) (B) (A) (A) (B) (A) (B) (A) (B) (A) (B)
                 (A) (B) (A) (A) (B) (A) (B) (A) (A) (B) (B) (A)
                 (A) (B) (B) (A) (A) (B) (A) (B) (B) (A) (A) (B)
                 (A) (B) (B) (A) (A) (B) (B) (A) (A)
 The electronic state is 2-B.
 Alpha  occ. eigenvalues --  -10.17627  -0.69004  -0.42281  -0.42281  -0.24101
 Alpha virt. eigenvalues --    0.04388   0.11106   0.11106   0.19552   0.19552
 Alpha virt. eigenvalues --    0.22384   0.26521   0.35266   0.38841   0.38841
 Alpha virt. eigenvalues --    0.40858   0.40858   0.63157   0.63463   0.66097
 Alpha virt. eigenvalues --    0.66098   0.72752   0.77667   0.77667   0.94729
 Alpha virt. eigenvalues --    0.94730   1.00070   1.01280   1.01280   1.19672
 Alpha virt. eigenvalues --    1.25738   1.32284   1.32284   1.56525   1.56525
 Alpha virt. eigenvalues --    1.64981   1.64981   1.74769   1.75535   1.81500
 Alpha virt. eigenvalues --    1.81500   1.85850   1.85850   1.86721   2.00889
 Alpha virt. eigenvalues --    2.02714   2.27199   2.27200   2.28771   2.28771
 Alpha virt. eigenvalues --    2.40907   2.42710   2.47318   2.47318   2.53371
 Alpha virt. eigenvalues --    2.53371   2.66917   2.78682   2.78682   2.81582
 Alpha virt. eigenvalues --    2.98589   3.02174   3.02175   3.36422   3.36422
 Alpha virt. eigenvalues --    3.37203   3.37203   3.57041   3.58981   3.73213
 Alpha virt. eigenvalues --    3.73213   4.05586   4.93473   4.93722   4.93723
 Alpha virt. eigenvalues --    5.11562   5.11871   5.21629   5.21629   5.49650
 Alpha virt. eigenvalues --    5.50662   5.50662   5.60943   5.60943   5.69723
 Alpha virt. eigenvalues --    5.83556   5.83556   5.87486   5.93020   5.94247
 Alpha virt. eigenvalues --    5.94247   5.99819   5.99819   6.17280   6.33257
 Alpha virt. eigenvalues --    6.37362   6.37362   6.42941   6.57059   6.57060
 Alpha virt. eigenvalues --    6.64487   6.64487   7.08958   7.08958   7.11919
 Alpha virt. eigenvalues --    7.11920   7.48132   7.48132   7.48544   7.50041
 Alpha virt. eigenvalues --    7.50716   7.51189   7.51190   7.67758   7.67759
 Alpha virt. eigenvalues --    7.92710   8.10391   8.15602   8.15602   8.17284
 Alpha virt. eigenvalues --    8.20030   8.20031   8.39373   8.39373   8.41285
 Alpha virt. eigenvalues --    8.41285   8.69662   8.72493   8.72919   8.95075
 Alpha virt. eigenvalues --    9.11794   9.11795   9.78190   9.78191   9.79195
 Alpha virt. eigenvalues --    9.79195   9.80293   9.83478  10.25405  10.47502
 Alpha virt. eigenvalues --   10.93974  10.93975  12.23944  12.23944  24.48671
  Beta  occ. eigenvalues --  -10.16087  -0.64678  -0.41228  -0.41228
  Beta virt. eigenvalues --   -0.06486   0.05235   0.11400   0.11400   0.20173
  Beta virt. eigenvalues --    0.20173   0.28294   0.30546   0.37096   0.39443
  Beta virt. eigenvalues --    0.39443   0.43888   0.43888   0.62967   0.66253
  Beta virt. eigenvalues --    0.66845   0.66845   0.74847   0.79631   0.79631
  Beta virt. eigenvalues --    0.95141   0.95142   1.01703   1.01703   1.01819
  Beta virt. eigenvalues --    1.20890   1.34003   1.34003   1.34695   1.58349
  Beta virt. eigenvalues --    1.58349   1.69367   1.69367   1.74845   1.81016
  Beta virt. eigenvalues --    1.84025   1.84026   1.88652   1.88652   1.91919
  Beta virt. eigenvalues --    2.01360   2.05602   2.27111   2.27112   2.29635
  Beta virt. eigenvalues --    2.29635   2.42065   2.44600   2.48628   2.48628
  Beta virt. eigenvalues --    2.53809   2.53809   2.66665   2.80271   2.80272
  Beta virt. eigenvalues --    2.82074   3.00667   3.02809   3.02810   3.37649
  Beta virt. eigenvalues --    3.37649   3.40171   3.40171   3.57853   3.64155
  Beta virt. eigenvalues --    3.73823   3.73823   4.06499   4.96780   4.96781
  Beta virt. eigenvalues --    4.98436   5.13350   5.18214   5.26543   5.26543
  Beta virt. eigenvalues --    5.49553   5.54212   5.54213   5.62423   5.62423
  Beta virt. eigenvalues --    5.78506   5.89015   5.89015   5.90239   5.92848
  Beta virt. eigenvalues --    5.95112   5.95112   6.00443   6.00443   6.22659
  Beta virt. eigenvalues --    6.34036   6.38234   6.38234   6.44764   6.57883
  Beta virt. eigenvalues --    6.57883   6.70762   6.70762   7.09917   7.09918
  Beta virt. eigenvalues --    7.12808   7.12809   7.49391   7.49391   7.49675
  Beta virt. eigenvalues --    7.50314   7.50688   7.50842   7.50842   7.68400
  Beta virt. eigenvalues --    7.68400   7.93240   8.10085   8.15365   8.15365
  Beta virt. eigenvalues --    8.17291   8.19824   8.19825   8.39296   8.39297
  Beta virt. eigenvalues --    8.41610   8.41610   8.70367   8.74246   8.74335
  Beta virt. eigenvalues --    8.94583   9.11617   9.11617   9.79416   9.79417
  Beta virt. eigenvalues --    9.80298   9.80300   9.80398   9.86503  10.25607
  Beta virt. eigenvalues --   10.48539  10.93951  10.93951  12.23927  12.23928
  Beta virt. eigenvalues --   24.50890
     Alpha Molecular Orbital Coefficients:
                           1         2         3         4         5
                           O         O         O         O         O
     Eigenvalues --   -10.17627  -0.69004  -0.42281  -0.42281  -0.24101
   1 1   C  1S          0.62597  -0.12305   0.00000   0.00000   0.00000
   2        2S         -0.40014   0.18804   0.00000   0.00000   0.00000
   3        3S          0.04495   0.22174  -0.00000   0.00000   0.00000
   4        4S         -0.01469   0.43926   0.00003   0.00000   0.00000
   5        5S          0.00010   0.14111   0.00003   0.00000   0.00000
   6        6PX         0.00000   0.00000   0.00000  -0.00000   0.16074
   7        6PY         0.00000   0.00000   0.00000   0.12514  -0.00000
   8        6PZ        -0.00000   0.00000   0.12514   0.00000   0.00000
   9        7PX         0.00000   0.00000   0.00000  -0.00000   0.30612
  10        7PY         0.00000   0.00000   0.00000   0.22521   0.00000
  11        7PZ         0.00000   0.00000   0.22521   0.00000   0.00000
  12        8PX         0.00000   0.00000   0.00000  -0.00000   0.40387
  13        8PY         0.00000   0.00000   0.00000   0.26432   0.00000
  14        8PZ         0.00000   0.00002   0.26433   0.00000   0.00000
  15        9PX         0.00000   0.00000   0.00000  -0.00000   0.31069
  16        9PY         0.00000   0.00000   0.00000   0.09385   0.00000
  17        9PZ         0.00000   0.00001   0.09384   0.00000   0.00000
  18       10D 0        0.00003   0.00011   0.00462   0.00000   0.00000
  19       10D+1        0.00000   0.00000   0.00000  -0.00000  -0.00000
  20       10D-1        0.00000   0.00000   0.00000  -0.00533   0.00000
  21       10D+2       -0.00005  -0.00018   0.00267   0.00000   0.00000
  22       10D-2       -0.00000   0.00000  -0.00000   0.00000   0.00000
  23       11D 0        0.00142   0.00099   0.00818   0.00000   0.00000
  24       11D+1        0.00000   0.00000   0.00000   0.00000   0.00000
  25       11D-1        0.00000   0.00000   0.00000  -0.00944  -0.00000
  26       11D+2       -0.00246  -0.00172   0.00472   0.00000   0.00000
  27       11D-2        0.00000  -0.00000   0.00000   0.00000   0.00000
  28       12D 0       -0.00133  -0.00102   0.01730   0.00000   0.00000
  29       12D+1        0.00000   0.00000   0.00000   0.00000   0.00001
  30       12D-1        0.00000   0.00000   0.00000  -0.01997  -0.00000
  31       12D+2        0.00231   0.00177   0.00998   0.00000   0.00000
  32       12D-2        0.00000  -0.00000   0.00000   0.00000   0.00000
  33       13F 0        0.00173   0.00152  -0.00039   0.00000   0.00000
  34       13F+1        0.00000   0.00000   0.00000   0.00000  -0.00105
  35       13F-1        0.00000   0.00000   0.00000  -0.00016   0.00000
  36       13F+2        0.00134   0.00118   0.00050   0.00000   0.00000
  37       13F-2       -0.00000   0.00000  -0.00000   0.00000   0.00000
  38       13F+3        0.00000   0.00000   0.00000   0.00000   0.00135
  39       13F-3        0.00000   0.00000   0.00000   0.00062  -0.00000
  40       14F 0       -0.00113   0.00371  -0.00062   0.00000   0.00000
  41       14F+1        0.00000   0.00000   0.00000   0.00000  -0.00276
  42       14F-1        0.00000   0.00000   0.00000  -0.00025   0.00000
  43       14F+2       -0.00088   0.00287   0.00081   0.00000   0.00000
  44       14F-2       -0.00000   0.00000  -0.00000   0.00000   0.00000
  45       14F+3        0.00000   0.00000   0.00000   0.00000   0.00356
  46       14F-3        0.00000   0.00000   0.00000   0.00099  -0.00000
  47       15G 0        0.00015   0.00003   0.00081   0.00000   0.00000
  48       15G+1        0.00000   0.00000   0.00000  -0.00000   0.00004
  49       15G-1        0.00000   0.00000   0.00000   0.00120   0.00000
  50       15G+2       -0.00023  -0.00004   0.00089   0.00000   0.00000
  51       15G-2        0.00000  -0.00000   0.00000   0.00000   0.00000
  52       15G+3        0.00000   0.00000   0.00000  -0.00000   0.00004
  53       15G-3        0.00000   0.00000   0.00000   0.00028   0.00000
  54       15G+4        0.00030   0.00006   0.00026   0.00000   0.00000
  55       15G-4        0.00000   0.00000  -0.00000   0.00000   0.00000
  56 2   H  1S          0.00072   0.03463   0.06444   0.00000   0.00000
  57        2S         -0.00119   0.08350   0.16973   0.00000   0.00000
  58        3S          0.00121   0.08302   0.20391   0.00000   0.00000
  59        4S          0.00000   0.00973   0.06998   0.00000   0.00000
  60        5PX         0.00000   0.00000   0.00000   0.00000   0.00270
  61        5PY         0.00000   0.00000   0.00000   0.00182   0.00000
  62        5PZ        -0.00073  -0.00341  -0.00320   0.00000   0.00000
  63        6PX         0.00000   0.00000   0.00000  -0.00000   0.01354
  64        6PY         0.00000   0.00000   0.00000   0.00577  -0.00000
  65        6PZ         0.00363  -0.00877  -0.01593   0.00000   0.00000
  66        7PX         0.00000   0.00000   0.00000   0.00000   0.02001
  67        7PY         0.00000   0.00000   0.00000   0.01256   0.00000
  68        7PZ        -0.00001  -0.00639  -0.00576   0.00000   0.00000
  69        8D 0       -0.00039   0.00088   0.00156   0.00000   0.00000
  70        8D+1        0.00000   0.00000   0.00000   0.00000  -0.00109
  71        8D-1        0.00000   0.00000   0.00000  -0.00061  -0.00000
  72        8D+2        0.00004  -0.00004  -0.00004   0.00000   0.00000
  73        8D-2       -0.00000   0.00000  -0.00000   0.00000   0.00000
  74        9D 0       -0.00246   0.00183   0.00506   0.00000   0.00000
  75        9D+1        0.00000   0.00000   0.00000   0.00000  -0.00502
  76        9D-1        0.00000   0.00000   0.00000  -0.00176   0.00000
  77        9D+2        0.00015   0.00001   0.00035   0.00000   0.00000
  78        9D-2       -0.00000  -0.00000   0.00000   0.00000   0.00000
  79       10F 0        0.00088  -0.00026  -0.00123   0.00000   0.00000
  80       10F+1        0.00000   0.00000   0.00000  -0.00000   0.00089
  81       10F-1        0.00000   0.00000   0.00000   0.00020  -0.00000
  82       10F+2       -0.00015   0.00005   0.00002   0.00000   0.00000
  83       10F-2        0.00000   0.00000  -0.00000   0.00000   0.00000
  84       10F+3        0.00000   0.00000   0.00000  -0.00000   0.00003
  85       10F-3        0.00000   0.00000   0.00000   0.00001   0.00000
  86 3   H  1S          0.00072   0.03463  -0.03222   0.05580   0.00000
  87        2S         -0.00119   0.08350  -0.08486   0.14699  -0.00000
  88        3S          0.00121   0.08305  -0.10198   0.17661  -0.00000
  89        4S          0.00000   0.00974  -0.03500   0.06061  -0.00000
  90        5PX        -0.00000  -0.00000   0.00000  -0.00000   0.00270
  91        5PY        -0.00063  -0.00295   0.00217  -0.00194  -0.00000
  92        5PZ         0.00036   0.00170   0.00057   0.00217   0.00000
  93        6PX         0.00000   0.00000  -0.00000   0.00000   0.01354
  94        6PY         0.00314  -0.00760   0.00940  -0.01051   0.00000
  95        6PZ        -0.00182   0.00439   0.00034   0.00940  -0.00000
  96        7PX        -0.00000   0.00000  -0.00000   0.00000   0.02002
  97        7PY        -0.00001  -0.00554   0.00795  -0.00119   0.00000
  98        7PZ         0.00000   0.00320   0.00798   0.00794  -0.00000
  99        8D 0        0.00002  -0.00009   0.00048   0.00009  -0.00000
 100        8D+1        0.00000  -0.00000   0.00000  -0.00000   0.00054
 101        8D-1        0.00027  -0.00064   0.00031  -0.00115  -0.00000
 102        8D+2        0.00027  -0.00059   0.00075  -0.00077   0.00000
 103        8D-2        0.00000   0.00000   0.00000   0.00000  -0.00094
 104        9D 0        0.00021  -0.00024   0.00158  -0.00008   0.00000
 105        9D+1       -0.00000   0.00000  -0.00000   0.00000   0.00251
 106        9D-1        0.00179  -0.00138   0.00121  -0.00386   0.00000
 107        9D+2        0.00169  -0.00118   0.00220  -0.00228   0.00000
 108        9D-2        0.00000  -0.00000   0.00000  -0.00000  -0.00435
 109       10F 0        0.00027  -0.00008   0.00028  -0.00044   0.00000
 110       10F+1        0.00000  -0.00000  -0.00000   0.00000   0.00004
 111       10F-1        0.00014  -0.00004  -0.00007  -0.00023   0.00000
 112       10F+2        0.00063  -0.00019   0.00042  -0.00079   0.00000
 113       10F-2       -0.00000  -0.00000   0.00000  -0.00000  -0.00063
 114       10F+3        0.00000  -0.00000   0.00000  -0.00000  -0.00064
 115       10F-3       -0.00056   0.00017  -0.00038   0.00052  -0.00000
 116 4   H  1S          0.00072   0.03463  -0.03222  -0.05580  -0.00000
 117        2S         -0.00119   0.08350  -0.08486  -0.14699   0.00000
 118        3S          0.00121   0.08305  -0.10198  -0.17661   0.00000
 119        4S          0.00000   0.00974  -0.03500  -0.06061   0.00000
 120        5PX         0.00000   0.00000  -0.00000  -0.00000   0.00270
 121        5PY         0.00063   0.00295  -0.00217  -0.00194  -0.00000
 122        5PZ         0.00036   0.00170   0.00057  -0.00217  -0.00000
 123        6PX        -0.00000  -0.00000   0.00000   0.00000   0.01354
 124        6PY        -0.00314   0.00760  -0.00940  -0.01051   0.00000
 125        6PZ        -0.00182   0.00439   0.00034  -0.00940   0.00000
 126        7PX         0.00000  -0.00000   0.00000   0.00000   0.02002
 127        7PY         0.00001   0.00554  -0.00795  -0.00119   0.00000
 128        7PZ         0.00000   0.00320   0.00798  -0.00794   0.00000
 129        8D 0        0.00002  -0.00009   0.00048  -0.00009   0.00000
 130        8D+1       -0.00000   0.00000  -0.00000  -0.00000   0.00054
 131        8D-1       -0.00027   0.00064  -0.00031  -0.00115  -0.00000
 132        8D+2        0.00027  -0.00059   0.00075   0.00077  -0.00000
 133        8D-2        0.00000   0.00000   0.00000  -0.00000   0.00094
 134        9D 0        0.00021  -0.00024   0.00158   0.00008  -0.00000
 135        9D+1        0.00000  -0.00000   0.00000   0.00000   0.00251
 136        9D-1       -0.00179   0.00138  -0.00121  -0.00386   0.00000
 137        9D+2        0.00169  -0.00118   0.00220   0.00228  -0.00000
 138        9D-2        0.00000  -0.00000   0.00000   0.00000   0.00435
 139       10F 0        0.00027  -0.00008   0.00028   0.00044  -0.00000
 140       10F+1       -0.00000   0.00000   0.00000   0.00000   0.00004
 141       10F-1       -0.00014   0.00004   0.00007  -0.00023   0.00000
 142       10F+2        0.00063  -0.00019   0.00042   0.00079  -0.00000
 143       10F-2       -0.00000  -0.00000   0.00000   0.00000   0.00063
 144       10F+3       -0.00000   0.00000  -0.00000  -0.00000  -0.00064
 145       10F-3        0.00056  -0.00017   0.00038   0.00052  -0.00000
                           6         7         8         9        10
                           V         V         V         V         V
     Eigenvalues --     0.04388   0.11106   0.11106   0.19552   0.19552
   1 1   C  1S         -0.06176   0.00000  -0.00000   0.00000  -0.00000
   2        2S          0.10105   0.00000   0.00000   0.00000  -0.00000
   3        3S          0.04917   0.00000  -0.00001   0.00000   0.00012
   4        4S          1.20056   0.00000   0.00006   0.00000  -0.00109
   5        5S          3.63843   0.00000   0.00005   0.00000  -0.00173
   6        6PX         0.00000   0.00000   0.00000  -0.00000   0.00000
   7        6PY         0.00000  -0.08564   0.00000   0.03322   0.00000
   8        6PZ         0.00000   0.00000  -0.08564   0.00000   0.03322
   9        7PX         0.00000   0.00000   0.00000   0.00000   0.00000
  10        7PY         0.00000  -0.15201   0.00000  -0.00982   0.00000
  11        7PZ         0.00000   0.00000  -0.15201   0.00000  -0.00982
  12        8PX         0.00000   0.00000   0.00000  -0.00000   0.00000
  13        8PY         0.00000  -0.43677   0.00000  -1.82670   0.00000
  14        8PZ        -0.00003   0.00000  -0.43680   0.00000  -1.82662
  15        9PX         0.00000  -0.00000   0.00000   0.00000   0.00000
  16        9PY         0.00000  -1.69435   0.00000  -2.95924   0.00000
  17        9PZ        -0.00004   0.00000  -1.69440   0.00000  -2.95915
  18       10D 0       -0.00153   0.00000  -0.00027   0.00000   0.01637
  19       10D+1        0.00000   0.00000   0.00000  -0.00000   0.00000
  20       10D-1        0.00000   0.00031   0.00000  -0.01890   0.00000
  21       10D+2        0.00265   0.00000  -0.00015   0.00000   0.00945
  22       10D-2        0.00000   0.00000  -0.00000   0.00000  -0.00000
  23       11D 0        0.01080   0.00000   0.03327   0.00000  -0.14522
  24       11D+1        0.00000   0.00000   0.00000   0.00000   0.00000
  25       11D-1        0.00000  -0.03842   0.00000   0.16765   0.00000
  26       11D+2       -0.01872   0.00000   0.01920   0.00000  -0.08376
  27       11D-2       -0.00000   0.00000  -0.00000   0.00000   0.00000
  28       12D 0        0.12224   0.00000  -0.07132   0.00000  -0.88004
  29       12D+1        0.00000   0.00000   0.00000   0.00000   0.00000
  30       12D-1        0.00000   0.08232   0.00000   1.01609   0.00000
  31       12D+2       -0.21176   0.00000  -0.04119   0.00000  -0.50786
  32       12D-2        0.00000   0.00000   0.00000   0.00000   0.00000
  33       13F 0        0.00143   0.00000   0.00230   0.00000  -0.00151
  34       13F+1        0.00000   0.00000   0.00000  -0.00000   0.00000
  35       13F-1        0.00000   0.00094   0.00000  -0.00061   0.00000
  36       13F+2        0.00110   0.00000  -0.00296   0.00000   0.00194
  37       13F-2        0.00000   0.00000   0.00000   0.00000  -0.00000
  38       13F+3        0.00000  -0.00000   0.00000   0.00000   0.00000
  39       13F-3        0.00000  -0.00363   0.00000   0.00238   0.00000
  40       14F 0        0.02008   0.00000  -0.00120   0.00000  -0.06769
  41       14F+1        0.00000  -0.00000   0.00000  -0.00000   0.00000
  42       14F-1        0.00000  -0.00049   0.00000  -0.02764   0.00000
  43       14F+2        0.01556   0.00000   0.00156   0.00000   0.08731
  44       14F-2        0.00000   0.00000   0.00000   0.00000  -0.00000
  45       14F+3        0.00000   0.00000   0.00000   0.00000   0.00000
  46       14F-3        0.00000   0.00191   0.00000   0.10697   0.00000
  47       15G 0        0.00060   0.00000   0.00093   0.00000  -0.01514
  48       15G+1        0.00000   0.00000   0.00000  -0.00000   0.00000
  49       15G-1        0.00000  -0.00119   0.00000  -0.00657   0.00000
  50       15G+2       -0.00090   0.00000  -0.00140   0.00000  -0.00168
  51       15G-2       -0.00000   0.00000  -0.00000   0.00000   0.00000
  52       15G+3        0.00000  -0.00000   0.00000  -0.00000   0.00000
  53       15G-3        0.00000   0.00194   0.00000  -0.01516   0.00000
  54       15G+4        0.00119   0.00000  -0.00153   0.00000   0.00640
  55       15G-4        0.00000   0.00000   0.00000   0.00000  -0.00000
  56 2   H  1S         -0.00645   0.00000   0.00355   0.00000   0.03124
  57        2S         -0.01844   0.00000   0.02399   0.00000   0.09396
  58        3S         -0.68495   0.00000   0.23475   0.00000   3.48940
  59        4S         -1.35738   0.00000   2.94885   0.00000   1.36151
  60        5PX         0.00000   0.00000   0.00000  -0.00000   0.00000
  61        5PY         0.00000  -0.00039   0.00000  -0.00552   0.00000
  62        5PZ        -0.00225   0.00000  -0.00304   0.00000   0.02048
  63        6PX         0.00000  -0.00000   0.00000   0.00000   0.00000
  64        6PY         0.00000  -0.01675   0.00000   0.00017   0.00000
  65        6PZ        -0.00774   0.00000   0.06033   0.00000  -0.18607
  66        7PX         0.00000   0.00000   0.00000  -0.00000   0.00000
  67        7PY         0.00000   0.03364   0.00000  -0.21219   0.00000
  68        7PZ         0.31717   0.00000  -0.20662   0.00000  -0.90054
  69        8D 0        0.00297   0.00000  -0.00426   0.00000   0.00217
  70        8D+1        0.00000   0.00000   0.00000  -0.00000   0.00000
  71        8D-1        0.00000   0.00069   0.00000  -0.00112   0.00000
  72        8D+2       -0.00137   0.00000  -0.00011   0.00000  -0.00376
  73        8D-2       -0.00000   0.00000   0.00000   0.00000   0.00000
  74        9D 0       -0.03320   0.00000   0.01142   0.00000   0.11647
  75        9D+1        0.00000  -0.00000   0.00000  -0.00000   0.00000
  76        9D-1        0.00000  -0.00696   0.00000   0.01220   0.00000
  77        9D+2        0.00820   0.00000   0.00156   0.00000   0.01595
  78        9D-2       -0.00000   0.00000   0.00000   0.00000   0.00000
  79       10F 0        0.00196   0.00000   0.00095   0.00000  -0.01165
  80       10F+1        0.00000  -0.00000   0.00000   0.00000   0.00000
  81       10F-1        0.00000   0.00196   0.00000  -0.00355   0.00000
  82       10F+2       -0.00036   0.00000   0.00012   0.00000   0.00144
  83       10F-2        0.00000   0.00000   0.00000   0.00000  -0.00000
  84       10F+3        0.00000  -0.00000   0.00000  -0.00000   0.00000
  85       10F-3        0.00000   0.00003   0.00000  -0.00097   0.00000
  86 3   H  1S         -0.00645   0.00307  -0.00177   0.02705  -0.01561
  87        2S         -0.01844   0.02077  -0.01199   0.08138  -0.04698
  88        3S         -0.68504   0.20326  -0.11743   3.02127  -1.74347
  89        4S         -1.35739   2.55375  -1.47443   1.17895  -0.68036
  90        5PX        -0.00000   0.00000   0.00000  -0.00000   0.00000
  91        5PY        -0.00195  -0.00238   0.00115   0.01398  -0.01125
  92        5PZ         0.00112   0.00115  -0.00106  -0.01126   0.00097
  93        6PX         0.00000  -0.00000   0.00000   0.00000  -0.00000
  94        6PY        -0.00670   0.04106  -0.03337  -0.13948   0.08058
  95        6PZ         0.00387  -0.03337   0.00252   0.08062  -0.04635
  96        7PX        -0.00000   0.00000   0.00000   0.00000  -0.00000
  97        7PY         0.27469  -0.14654   0.10404  -0.72827   0.29767
  98        7PZ        -0.15860   0.10403  -0.02644   0.29793  -0.38408
  99        8D 0        0.00052   0.00026  -0.00075   0.00230  -0.00036
 100        8D+1       -0.00000  -0.00000   0.00000  -0.00000   0.00000
 101        8D-1       -0.00164   0.00298  -0.00132  -0.00028  -0.00049
 102        8D+2       -0.00278   0.00219  -0.00161  -0.00301   0.00230
 103        8D-2        0.00000   0.00000   0.00000   0.00000  -0.00000
 104        9D 0       -0.00117   0.00050   0.00574  -0.02616   0.00452
 105        9D+1        0.00000   0.00000   0.00000   0.00000  -0.00000
 106        9D-1        0.02136  -0.00974   0.00161  -0.07855   0.05237
 107        9D+2        0.02669  -0.00407   0.00583  -0.05950   0.02821
 108        9D-2       -0.00000  -0.00000  -0.00000  -0.00000   0.00000
 109       10F 0        0.00060   0.00056  -0.00004  -0.00349   0.00205
 110       10F+1        0.00000  -0.00000  -0.00000   0.00000  -0.00000
 111       10F-1        0.00032  -0.00080  -0.00160   0.00023   0.00399
 112       10F+2        0.00140   0.00045  -0.00062  -0.00727   0.00415
 113       10F-2       -0.00000  -0.00000  -0.00000  -0.00000   0.00000
 114       10F+3       -0.00000  -0.00000  -0.00000  -0.00000   0.00000
 115       10F-3       -0.00124  -0.00070  -0.00040   0.00646  -0.00269
 116 4   H  1S         -0.00645  -0.00307  -0.00177  -0.02705  -0.01561
 117        2S         -0.01844  -0.02077  -0.01199  -0.08138  -0.04698
 118        3S         -0.68504  -0.20326  -0.11743  -3.02127  -1.74347
 119        4S         -1.35739  -2.55375  -1.47443  -1.17895  -0.68036
 120        5PX         0.00000   0.00000  -0.00000  -0.00000  -0.00000
 121        5PY         0.00195  -0.00238  -0.00115   0.01398   0.01125
 122        5PZ         0.00112  -0.00115  -0.00106   0.01126   0.00097
 123        6PX        -0.00000  -0.00000  -0.00000   0.00000   0.00000
 124        6PY         0.00670   0.04106   0.03337  -0.13948  -0.08058
 125        6PZ         0.00387   0.03337   0.00252  -0.08062  -0.04635
 126        7PX         0.00000   0.00000  -0.00000   0.00000   0.00000
 127        7PY        -0.27469  -0.14654  -0.10404  -0.72827  -0.29767
 128        7PZ        -0.15860  -0.10403  -0.02644  -0.29793  -0.38408
 129        8D 0        0.00052  -0.00026  -0.00075  -0.00230  -0.00036
 130        8D+1        0.00000  -0.00000  -0.00000  -0.00000  -0.00000
 131        8D-1        0.00164   0.00298   0.00132  -0.00028   0.00049
 132        8D+2       -0.00278  -0.00219  -0.00161   0.00301   0.00230
 133        8D-2        0.00000  -0.00000   0.00000  -0.00000  -0.00000
 134        9D 0       -0.00117  -0.00050   0.00574   0.02616   0.00452
 135        9D+1       -0.00000   0.00000  -0.00000   0.00000   0.00000
 136        9D-1       -0.02136  -0.00974  -0.00161  -0.07855  -0.05237
 137        9D+2        0.02669   0.00407   0.00583   0.05950   0.02821
 138        9D-2       -0.00000   0.00000  -0.00000   0.00000   0.00000
 139       10F 0        0.00060  -0.00056  -0.00004   0.00349   0.00205
 140       10F+1       -0.00000  -0.00000   0.00000   0.00000   0.00000
 141       10F-1       -0.00032  -0.00080   0.00160   0.00023  -0.00399
 142       10F+2        0.00140  -0.00045  -0.00062   0.00727   0.00415
 143       10F-2       -0.00000   0.00000  -0.00000   0.00000   0.00000
 144       10F+3        0.00000  -0.00000   0.00000  -0.00000  -0.00000
 145       10F-3        0.00124  -0.00070   0.00040   0.00646   0.00269
                          11        12        13        14        15
                           V         V         V         V         V
     Eigenvalues --     0.22384   0.26521   0.35266   0.38841   0.38841
   1 1   C  1S          0.00000  -0.01729   0.08570   0.00000   0.00002
   2        2S          0.00000   0.04826  -0.12788   0.00000  -0.00003
   3        3S          0.00000  -0.08433  -0.64846   0.00000  -0.00011
   4        4S          0.00000   1.31713   4.01207   0.00000   0.00054
   5        5S          0.00000   3.08835  11.48946   0.00000   0.00233
   6        6PX        -0.13350   0.00000   0.00000   0.00000   0.00000
   7        6PY         0.00000   0.00000   0.00000  -0.12865   0.00000
   8        6PZ         0.00000   0.00000  -0.00002   0.00000   0.12865
   9        7PX        -0.15043   0.00000   0.00000  -0.00000   0.00000
  10        7PY        -0.00000   0.00000   0.00000  -0.25729   0.00000
  11        7PZ         0.00000  -0.00001  -0.00005   0.00000   0.25729
  12        8PX        -0.84811   0.00000   0.00000   0.00000   0.00000
  13        8PY        -0.00000   0.00000   0.00000   1.74028   0.00000
  14        8PZ         0.00000   0.00013   0.00081   0.00000  -1.74026
  15        9PX         1.38837   0.00000   0.00000   0.00000   0.00000
  16        9PY         0.00000   0.00000   0.00000   3.78836   0.00000
  17        9PZ         0.00000  -0.00015   0.00085   0.00000  -3.78834
  18       10D 0        0.00000  -0.01302  -0.00408   0.00000  -0.00951
  19       10D+1        0.00000   0.00000   0.00000  -0.00000   0.00000
  20       10D-1       -0.00000   0.00000   0.00000  -0.01098   0.00000
  21       10D+2        0.00000   0.02255   0.00707   0.00000  -0.00549
  22       10D-2        0.00000  -0.00000   0.00000   0.00000   0.00000
  23       11D 0        0.00000   0.05545   0.14499   0.00000  -0.09222
  24       11D+1        0.00001   0.00000   0.00000  -0.00000   0.00000
  25       11D-1        0.00000   0.00000   0.00000  -0.10651   0.00000
  26       11D+2        0.00000  -0.09603  -0.25103   0.00000  -0.05330
  27       11D-2        0.00000   0.00000  -0.00000   0.00000   0.00000
  28       12D 0        0.00000   0.01211   0.64431   0.00000  -1.11143
  29       12D+1        0.00007   0.00000   0.00000  -0.00000   0.00000
  30       12D-1        0.00000   0.00000   0.00000  -1.28346   0.00000
  31       12D+2        0.00000  -0.02091  -1.11516   0.00000  -0.64193
  32       12D-2        0.00000   0.00000   0.00000   0.00000   0.00000
  33       13F 0        0.00000   0.00909   0.01857   0.00000   0.00151
  34       13F+1       -0.00427   0.00000   0.00000  -0.00000   0.00000
  35       13F-1       -0.00000   0.00000   0.00000  -0.00062   0.00000
  36       13F+2        0.00000   0.00704   0.01438   0.00000  -0.00195
  37       13F-2        0.00000  -0.00000   0.00000   0.00000  -0.00000
  38       13F+3        0.00552   0.00000   0.00000  -0.00000   0.00000
  39       13F-3        0.00000   0.00000   0.00000   0.00239   0.00000
  40       14F 0        0.00000   0.07323   0.16027   0.00000  -0.06611
  41       14F+1       -0.01418   0.00000   0.00000   0.00000   0.00000
  42       14F-1       -0.00000   0.00000   0.00000   0.02700   0.00000
  43       14F+2        0.00000   0.05671   0.12408   0.00000   0.08541
  44       14F-2        0.00000  -0.00000  -0.00000   0.00000  -0.00000
  45       14F+3        0.01834   0.00000   0.00000  -0.00000   0.00000
  46       14F-3        0.00000   0.00000   0.00000  -0.10459   0.00000
  47       15G 0        0.00000   0.00161   0.00419   0.00000  -0.01207
  48       15G+1       -0.01233   0.00000   0.00000   0.00000   0.00000
  49       15G-1       -0.00000   0.00000   0.00000   0.01185   0.00000
  50       15G+2        0.00000  -0.00240  -0.00623   0.00000  -0.00757
  51       15G-2        0.00000   0.00000   0.00000   0.00000   0.00000
  52       15G+3       -0.01399   0.00000   0.00000   0.00000   0.00000
  53       15G-3       -0.00000   0.00000   0.00000   0.00792   0.00000
  54       15G+4        0.00000   0.00317   0.00825   0.00000   0.00040
  55       15G-4        0.00000  -0.00000  -0.00000   0.00000  -0.00000
  56 2   H  1S          0.00000  -0.04449   0.02132   0.00000  -0.04954
  57        2S          0.00000  -0.06622   0.09538   0.00000  -0.05460
  58        3S          0.00000  -1.68078  -3.48446   0.00000   2.38588
  59        4S          0.00000  -0.12161  -2.44427   0.00000   4.05118
  60        5PX        -0.01030   0.00000   0.00000  -0.00000   0.00000
  61        5PY        -0.00000   0.00000   0.00000  -0.00972   0.00000
  62        5PZ         0.00000  -0.01798  -0.00794   0.00000  -0.01184
  63        6PX         0.04895   0.00000   0.00000   0.00000   0.00000
  64        6PY         0.00000   0.00000   0.00000   0.00485   0.00000
  65        6PZ         0.00000   0.10915   0.13311   0.00000  -0.03313
  66        7PX        -0.07145   0.00000   0.00000  -0.00000   0.00000
  67        7PY         0.00000   0.00000   0.00000  -0.16344   0.00000
  68        7PZ         0.00000   0.25982   1.70377   0.00000  -1.48002
  69        8D 0        0.00000  -0.00140   0.00747   0.00000  -0.00686
  70        8D+1        0.00090   0.00000   0.00000  -0.00000   0.00000
  71        8D-1        0.00000   0.00000   0.00000   0.00162   0.00000
  72        8D+2        0.00000  -0.00086  -0.00592   0.00000  -0.00167
  73        8D-2        0.00000   0.00000   0.00000   0.00000   0.00000
  74        9D 0        0.00000  -0.06364  -0.19196   0.00000   0.10613
  75        9D+1       -0.02486   0.00000   0.00000   0.00000   0.00000
  76        9D-1       -0.00000   0.00000   0.00000   0.03428   0.00000
  77        9D+2        0.00000   0.00492   0.03096   0.00000   0.00342
  78        9D-2        0.00000   0.00000  -0.00000   0.00000  -0.00000
  79       10F 0        0.00000   0.00734   0.01427   0.00000  -0.00392
  80       10F+1        0.00516   0.00000   0.00000  -0.00000   0.00000
  81       10F-1        0.00000   0.00000   0.00000  -0.00710   0.00000
  82       10F+2        0.00000   0.00019  -0.00107   0.00000   0.00187
  83       10F-2        0.00000  -0.00000  -0.00000   0.00000   0.00000
  84       10F+3        0.00050   0.00000   0.00000   0.00000   0.00000
  85       10F-3        0.00000   0.00000   0.00000   0.00042   0.00000
  86 3   H  1S         -0.00000  -0.04450   0.02130   0.04291   0.02478
  87        2S          0.00000  -0.06623   0.09539   0.04730   0.02732
  88        3S          0.00000  -1.68079  -3.48306  -2.06675  -1.19385
  89        4S          0.00000  -0.12158  -2.44292  -3.50887  -2.02634
  90        5PX        -0.01030  -0.00000  -0.00000  -0.00000   0.00000
  91        5PY         0.00000  -0.01557  -0.00688   0.00645   0.00933
  92        5PZ        -0.00000   0.00899   0.00397  -0.00933   0.00433
  93        6PX         0.04895  -0.00000   0.00000  -0.00000  -0.00000
  94        6PY        -0.00000   0.09452   0.11523   0.02608   0.01228
  95        6PZ         0.00000  -0.05457  -0.06653  -0.01226  -0.01194
  96        7PX        -0.07138  -0.00000  -0.00000  -0.00000   0.00000
  97        7PY        -0.00000   0.22492   1.47485   1.06937   0.71200
  98        7PZ         0.00000  -0.12990  -0.85159  -0.71177  -0.24768
  99        8D 0       -0.00000   0.00074   0.00291  -0.00229   0.00008
 100        8D+1       -0.00045   0.00000   0.00000  -0.00000   0.00000
 101        8D-1       -0.00000   0.00143  -0.00304  -0.00468  -0.00363
 102        8D+2        0.00000   0.00037  -0.00855  -0.00331  -0.00110
 103        8D-2        0.00078  -0.00000  -0.00000  -0.00000   0.00000
 104        9D 0       -0.00000   0.00475   0.00387   0.00056   0.03001
 105        9D+1        0.01244  -0.00000  -0.00000  -0.00000  -0.00000
 106        9D-1       -0.00000   0.04560   0.13053   0.07881   0.02573
 107        9D+2       -0.00000   0.04441   0.14398   0.05044   0.04628
 108        9D-2       -0.02155   0.00000   0.00000   0.00000   0.00000
 109       10F 0       -0.00000   0.00335   0.00547  -0.00027   0.00119
 110       10F+1       -0.00004   0.00000   0.00000  -0.00000  -0.00000
 111       10F-1       -0.00000   0.00094   0.00208   0.00387  -0.00502
 112       10F+2       -0.00000   0.00534   0.01029   0.00311   0.00007
 113       10F-2       -0.00380   0.00000  -0.00000   0.00000   0.00000
 114       10F+3       -0.00353   0.00000   0.00000   0.00000   0.00000
 115       10F-3        0.00000  -0.00364  -0.00803  -0.00144  -0.00401
 116 4   H  1S          0.00000  -0.04450   0.02130  -0.04291   0.02478
 117        2S         -0.00000  -0.06623   0.09539  -0.04730   0.02732
 118        3S         -0.00000  -1.68079  -3.48306   2.06675  -1.19385
 119        4S         -0.00000  -0.12158  -2.44292   3.50887  -2.02634
 120        5PX        -0.01030   0.00000   0.00000  -0.00000  -0.00000
 121        5PY         0.00000   0.01557   0.00688   0.00645  -0.00933
 122        5PZ         0.00000   0.00899   0.00397   0.00933   0.00433
 123        6PX         0.04895   0.00000  -0.00000  -0.00000   0.00000
 124        6PY        -0.00000  -0.09452  -0.11523   0.02608  -0.01228
 125        6PZ        -0.00000  -0.05457  -0.06653   0.01226  -0.01194
 126        7PX        -0.07138   0.00000   0.00000  -0.00000  -0.00000
 127        7PY        -0.00000  -0.22492  -1.47485   1.06937  -0.71200
 128        7PZ        -0.00000  -0.12990  -0.85159   0.71177  -0.24768
 129        8D 0        0.00000   0.00074   0.00291   0.00229   0.00008
 130        8D+1       -0.00045  -0.00000  -0.00000  -0.00000  -0.00000
 131        8D-1       -0.00000  -0.00143   0.00304  -0.00468   0.00363
 132        8D+2       -0.00000   0.00037  -0.00855   0.00331  -0.00110
 133        8D-2       -0.00078  -0.00000  -0.00000   0.00000   0.00000
 134        9D 0        0.00000   0.00475   0.00387  -0.00056   0.03001
 135        9D+1        0.01244   0.00000   0.00000  -0.00000   0.00000
 136        9D-1       -0.00000  -0.04560  -0.13053   0.07881  -0.02573
 137        9D+2        0.00000   0.04441   0.14398  -0.05044   0.04628
 138        9D-2        0.02155   0.00000   0.00000  -0.00000   0.00000
 139       10F 0        0.00000   0.00335   0.00547   0.00027   0.00119
 140       10F+1       -0.00004  -0.00000  -0.00000  -0.00000   0.00000
 141       10F-1       -0.00000  -0.00094  -0.00208   0.00387   0.00502
 142       10F+2        0.00000   0.00534   0.01029  -0.00311   0.00007
 143       10F-2        0.00380   0.00000  -0.00000  -0.00000   0.00000
 144       10F+3       -0.00353  -0.00000  -0.00000   0.00000  -0.00000
 145       10F-3        0.00000   0.00364   0.00803  -0.00144   0.00401
                          16        17        18        19        20
                           V         V         V         V         V
     Eigenvalues --     0.40858   0.40858   0.63157   0.63463   0.66097
   1 1   C  1S         -0.00000   0.00000   0.00000  -0.02333   0.00000
   2        2S          0.00000   0.00000   0.00000  -0.00752   0.00000
   3        3S         -0.00000   0.00000   0.00000  -0.85822   0.00000
   4        4S          0.00000   0.00000   0.00000   3.16439   0.00000
   5        5S         -0.00000   0.00000   0.00000   5.59070   0.00000
   6        6PX         0.00000   0.00000   0.00000   0.00000  -0.00000
   7        6PY         0.00000  -0.00000  -0.00000   0.00000  -0.08962
   8        6PZ        -0.00000   0.00000   0.00000   0.00002   0.00000
   9        7PX         0.00000   0.00001   0.00000   0.00000   0.00000
  10        7PY         0.00000  -0.00000  -0.00000   0.00000  -0.03848
  11        7PZ        -0.00000   0.00000   0.00000   0.00001   0.00000
  12        8PX         0.00000   0.00002  -0.00000   0.00000  -0.00000
  13        8PY         0.00000  -0.00000  -0.00006   0.00000  -4.79143
  14        8PZ        -0.00000   0.00000   0.00000   0.00112   0.00000
  15        9PX         0.00000  -0.00002  -0.00000   0.00000  -0.00000
  16        9PY         0.00000  -0.00000  -0.00006   0.00000  -3.24513
  17        9PZ         0.00000   0.00000   0.00000   0.00067   0.00000
  18       10D 0        0.00000   0.00000   0.00000  -0.00046   0.00000
  19       10D+1        0.00000   0.03809   0.00000   0.00000  -0.00000
  20       10D-1        0.00000  -0.00000  -0.00000   0.00000  -0.00614
  21       10D+2        0.00000   0.00000   0.00000   0.00079   0.00000
  22       10D-2        0.03809   0.00000   0.00000  -0.00000   0.00000
  23       11D 0       -0.00000   0.00000   0.00000   0.10803   0.00000
  24       11D+1        0.00000  -0.05493  -0.00000   0.00000   0.00000
  25       11D-1        0.00000   0.00000   0.00001   0.00000   0.29547
  26       11D+2       -0.00000   0.00000   0.00000  -0.18696   0.00000
  27       11D-2       -0.05493   0.00000   0.00000  -0.00000   0.00000
  28       12D 0       -0.00000   0.00000   0.00000   1.09433   0.00000
  29       12D+1        0.00000   0.67184   0.00000   0.00000   0.00000
  30       12D-1        0.00000   0.00000   0.00008   0.00000   2.72577
  31       12D+2       -0.00000   0.00000   0.00000  -1.89419   0.00000
  32       12D-2        0.67185   0.00000   0.00000  -0.00000   0.00000
  33       13F 0        0.00000   0.00000   0.00000  -0.00212   0.00000
  34       13F+1        0.00000   0.00123  -0.00000   0.00000   0.00000
  35       13F-1        0.00000  -0.00000   0.01640   0.00000  -0.00043
  36       13F+2        0.00000   0.00000   0.00000  -0.00165   0.00000
  37       13F-2       -0.00156   0.00000   0.00000   0.00000   0.00000
  38       13F+3        0.00000   0.00095  -0.00000   0.00000  -0.00000
  39       13F-3        0.00000   0.00000   0.00424   0.00000   0.00166
  40       14F 0        0.00000   0.00000   0.00000   0.46151   0.00000
  41       14F+1        0.00000  -0.00138  -0.00000   0.00000  -0.00000
  42       14F-1        0.00000  -0.00000  -0.80629   0.00000  -0.07446
  43       14F+2        0.00000   0.00000   0.00000   0.35740   0.00000
  44       14F-2        0.00175   0.00000   0.00000   0.00000   0.00000
  45       14F+3        0.00000  -0.00107   0.00000   0.00000   0.00000
  46       14F-3        0.00000   0.00000  -0.20818   0.00000   0.28850
  47       15G 0       -0.00000   0.00000   0.00000   0.01544   0.00000
  48       15G+1        0.00000   0.00429  -0.00000   0.00000  -0.00000
  49       15G-1        0.00000  -0.00000   0.00000   0.00000  -0.04230
  50       15G+2       -0.00000   0.00000   0.00000  -0.02299   0.00000
  51       15G-2        0.00202   0.00000   0.00000  -0.00000   0.00000
  52       15G+3        0.00000  -0.00378  -0.00000   0.00000  -0.00000
  53       15G-3        0.00000  -0.00000  -0.00000   0.00000  -0.05455
  54       15G+4        0.00000   0.00000   0.00000   0.03042   0.00000
  55       15G-4       -0.00535   0.00000   0.00000   0.00000   0.00000
  56 2   H  1S          0.00000   0.00000   0.00000   0.01036   0.00000
  57        2S          0.00000   0.00000   0.00000  -0.36351   0.00000
  58        3S          0.00000   0.00000   0.00000  -2.98629   0.00000
  59        4S         -0.00000   0.00000   0.00000  -0.52997   0.00000
  60        5PX         0.00000   0.03185  -0.00000   0.00000   0.00000
  61        5PY         0.00000  -0.00000  -0.00407   0.00000   0.02275
  62        5PZ         0.00000   0.00000   0.00000  -0.02677   0.00000
  63        6PX         0.00000  -0.08369   0.00000   0.00000   0.00000
  64        6PY         0.00000   0.00000   0.15202   0.00000  -0.03848
  65        6PZ        -0.00000   0.00000   0.00000   0.30176   0.00000
  66        7PX         0.00000   0.40207  -0.00000   0.00000   0.00000
  67        7PY         0.00000  -0.00000   1.18808   0.00000   0.40502
  68        7PZ        -0.00000   0.00000   0.00000   0.30861   0.00000
  69        8D 0        0.00000   0.00000   0.00000  -0.01345   0.00000
  70        8D+1        0.00000  -0.00476  -0.00000   0.00000   0.00000
  71        8D-1        0.00000   0.00000   0.00960   0.00000  -0.00076
  72        8D+2       -0.00000   0.00000   0.00000   0.00065   0.00000
  73        8D-2        0.00174   0.00000   0.00000   0.00000   0.00000
  74        9D 0        0.00000   0.00000   0.00000  -0.03272   0.00000
  75        9D+1        0.00000   0.00866  -0.00000   0.00000  -0.00000
  76        9D-1        0.00000  -0.00000  -0.28385   0.00000  -0.05540
  77        9D+2       -0.00000   0.00000   0.00000  -0.03645   0.00000
  78        9D-2       -0.00305   0.00000   0.00000  -0.00000   0.00000
  79       10F 0       -0.00000   0.00000   0.00000  -0.00394   0.00000
  80       10F+1        0.00000   0.00948   0.00000   0.00000   0.00000
  81       10F-1        0.00000   0.00000   0.03190   0.00000   0.01356
  82       10F+2        0.00000   0.00000   0.00000   0.00854   0.00000
  83       10F-2        0.00006   0.00000   0.00000   0.00000   0.00000
  84       10F+3        0.00000   0.00066   0.00000   0.00000  -0.00000
  85       10F-3        0.00000  -0.00000   0.00604   0.00000  -0.00297
  86 3   H  1S          0.00000  -0.00000  -0.00000   0.01036  -0.01247
  87        2S         -0.00000   0.00000  -0.00000  -0.36344   0.17099
  88        3S         -0.00000   0.00000   0.00011  -2.98398   5.80096
  89        4S          0.00000  -0.00000   0.00001  -0.52965   1.00893
  90        5PX         0.02758  -0.01592   0.00000  -0.00000   0.00000
  91        5PY        -0.00000   0.00000   0.00204  -0.02317   0.04022
  92        5PZ         0.00000  -0.00000   0.00352   0.01337  -0.01008
  93        6PX        -0.07248   0.04185  -0.00000   0.00000   0.00000
  94        6PY         0.00000  -0.00000  -0.07602   0.26121  -0.30964
  95        6PZ        -0.00000   0.00000  -0.13165  -0.15080   0.15656
  96        7PX         0.34820  -0.20104   0.00000   0.00000   0.00000
  97        7PY         0.00000  -0.00000  -0.59404   0.26684  -0.87378
  98        7PZ        -0.00000   0.00000  -1.02892  -0.15414   0.73838
  99        8D 0        0.00000   0.00000   0.00720   0.00126  -0.00121
 100        8D+1        0.00282   0.00011  -0.00000  -0.00000  -0.00000
 101        8D-1        0.00000  -0.00000  -0.00480   0.00981  -0.00971
 102        8D+2        0.00000  -0.00000   0.00416   0.00914  -0.00824
 103        8D-2       -0.00314   0.00282   0.00000   0.00000   0.00000
 104        9D 0        0.00000  -0.00000  -0.21290   0.02776   0.01934
 105        9D+1       -0.00507  -0.00012  -0.00000   0.00000   0.00000
 106        9D-1        0.00000  -0.00000   0.14193   0.04030  -0.07640
 107        9D+2        0.00000  -0.00000  -0.12292  -0.00156  -0.05772
 108        9D-2        0.00574  -0.00507  -0.00000  -0.00000  -0.00000
 109       10F 0        0.00000  -0.00000  -0.00113   0.00448   0.00467
 110       10F+1        0.00008  -0.00009  -0.00000   0.00000   0.00000
 111       10F-1        0.00000   0.00000   0.03110  -0.00198  -0.00592
 112       10F+2        0.00000  -0.00000   0.00146  -0.00233  -0.00072
 113       10F-2       -0.00591   0.00345   0.00000  -0.00000  -0.00000
 114       10F+3       -0.00573   0.00327   0.00000  -0.00000  -0.00000
 115       10F-3       -0.00000   0.00000   0.00913   0.00769  -0.00186
 116 4   H  1S          0.00000   0.00000   0.00000   0.01036   0.01247
 117        2S         -0.00000  -0.00000   0.00000  -0.36344  -0.17099
 118        3S         -0.00000  -0.00000  -0.00011  -2.98398  -5.80096
 119        4S          0.00000   0.00000  -0.00001  -0.52965  -1.00893
 120        5PX        -0.02758  -0.01592   0.00000   0.00000   0.00000
 121        5PY         0.00000   0.00000   0.00204   0.02317   0.04022
 122        5PZ         0.00000   0.00000  -0.00352   0.01337   0.01008
 123        6PX         0.07248   0.04185  -0.00000  -0.00000   0.00000
 124        6PY        -0.00000  -0.00000  -0.07602  -0.26121  -0.30964
 125        6PZ        -0.00000  -0.00000   0.13165  -0.15080  -0.15656
 126        7PX        -0.34820  -0.20104   0.00000  -0.00000   0.00000
 127        7PY        -0.00000  -0.00000  -0.59404  -0.26684  -0.87378
 128        7PZ        -0.00000  -0.00000   1.02892  -0.15414  -0.73838
 129        8D 0        0.00000  -0.00000  -0.00720   0.00126   0.00121
 130        8D+1       -0.00282   0.00011  -0.00000   0.00000  -0.00000
 131        8D-1       -0.00000  -0.00000  -0.00480  -0.00981  -0.00971
 132        8D+2        0.00000   0.00000  -0.00416   0.00914   0.00824
 133        8D-2       -0.00314  -0.00282  -0.00000   0.00000  -0.00000
 134        9D 0        0.00000   0.00000   0.21290   0.02776  -0.01934
 135        9D+1        0.00507  -0.00012  -0.00000  -0.00000   0.00000
 136        9D-1       -0.00000  -0.00000   0.14193  -0.04030  -0.07640
 137        9D+2        0.00000   0.00000   0.12292  -0.00156   0.05772
 138        9D-2        0.00574   0.00507   0.00000  -0.00000   0.00000
 139       10F 0        0.00000   0.00000   0.00113   0.00448  -0.00467
 140       10F+1       -0.00008  -0.00009  -0.00000  -0.00000   0.00000
 141       10F-1       -0.00000   0.00000   0.03110   0.00198  -0.00592
 142       10F+2        0.00000   0.00000  -0.00146  -0.00233   0.00072
 143       10F-2       -0.00591  -0.00345  -0.00000  -0.00000   0.00000
 144       10F+3        0.00573   0.00327   0.00000   0.00000  -0.00000
 145       10F-3        0.00000   0.00000   0.00913  -0.00769  -0.00186
                          21        22        23        24        25
                           V         V         V         V         V
     Eigenvalues --     0.66098   0.72752   0.77667   0.77667   0.94729
   1 1   C  1S          0.00000   0.00000   0.00000  -0.00000   0.00000
   2        2S         -0.00002   0.00000   0.00000   0.00000   0.00000
   3        3S         -0.00012   0.00000   0.00000  -0.00000   0.00000
   4        4S         -0.00027   0.00000   0.00000   0.00000   0.00000
   5        5S          0.00101   0.00000   0.00000   0.00000   0.00000
   6        6PX         0.00000   0.06600   0.00001   0.00000   0.00000
   7        6PY         0.00000  -0.00000  -0.00000   0.00000  -0.07202
   8        6PZ        -0.08962   0.00000   0.00000  -0.00000   0.00000
   9        7PX         0.00000   0.11029   0.00000   0.00000   0.00000
  10        7PY         0.00000   0.00000   0.00000   0.00000  -0.32728
  11        7PZ        -0.03847   0.00000   0.00000   0.00000   0.00000
  12        8PX         0.00000   1.34186   0.00021   0.00000  -0.00000
  13        8PY         0.00000   0.00000   0.00000   0.00000  -8.68327
  14        8PZ        -4.79131   0.00000   0.00000   0.00000   0.00000
  15        9PX         0.00000   0.96364   0.00017   0.00000   0.00000
  16        9PY         0.00000  -0.00000   0.00000   0.00000  -2.36520
  17        9PZ        -3.24515   0.00000   0.00000   0.00000   0.00000
  18       10D 0        0.00531   0.00000   0.00000  -0.00000   0.00000
  19       10D+1        0.00000  -0.00000  -0.00201   0.00000   0.00000
  20       10D-1        0.00000   0.00000   0.00000   0.00000  -0.03430
  21       10D+2        0.00307   0.00000   0.00000   0.00000   0.00000
  22       10D-2       -0.00000   0.00000   0.00000   0.00201   0.00000
  23       11D 0       -0.25587   0.00000   0.00000   0.00000   0.00000
  24       11D+1        0.00000   0.00003  -0.14511   0.00000  -0.00000
  25       11D-1        0.00000  -0.00000  -0.00000   0.00000   0.71904
  26       11D+2       -0.14773   0.00000   0.00000  -0.00000   0.00000
  27       11D-2        0.00000   0.00000   0.00000   0.14511   0.00000
  28       12D 0       -2.36032   0.00000   0.00000   0.00000   0.00000
  29       12D+1        0.00000   0.00034  -2.15067   0.00000  -0.00000
  30       12D-1        0.00000  -0.00000  -0.00000   0.00000   5.19753
  31       12D+2       -1.36317   0.00000   0.00000  -0.00000   0.00000
  32       12D-2       -0.00000   0.00000   0.00000   2.15066   0.00000
  33       13F 0       -0.00106   0.00000   0.00000   0.00000   0.00000
  34       13F+1        0.00000  -0.00374   0.00710   0.00000  -0.00000
  35       13F-1        0.00000   0.00000   0.00000   0.00000  -0.00466
  36       13F+2        0.00135   0.00000   0.00000   0.00000   0.00000
  37       13F-2       -0.00000   0.00000   0.00000   0.00898   0.00000
  38       13F+3        0.00000   0.00482   0.00550   0.00000   0.00000
  39       13F-3        0.00000  -0.00000  -0.00000   0.00000   0.01804
  40       14F 0       -0.18237   0.00000   0.00000   0.00000   0.00000
  41       14F+1        0.00000   0.14131  -0.26246   0.00000  -0.00000
  42       14F-1        0.00000  -0.00000   0.00000   0.00000  -0.07398
  43       14F+2        0.23563   0.00000   0.00000   0.00000   0.00000
  44       14F-2       -0.00000   0.00000   0.00000  -0.33200   0.00000
  45       14F+3        0.00000  -0.18234  -0.20334   0.00000   0.00000
  46       14F-3        0.00000  -0.00000  -0.00000   0.00000   0.28653
  47       15G 0       -0.06369   0.00000   0.00000   0.00000   0.00000
  48       15G+1        0.00000   0.02893  -0.04059   0.00000  -0.00000
  49       15G-1        0.00000   0.00000   0.00000   0.00000  -0.02245
  50       15G+2       -0.02090   0.00000   0.00000  -0.00000   0.00000
  51       15G-2        0.00000   0.00000   0.00000   0.01914   0.00000
  52       15G+3        0.00000   0.03278   0.03581   0.00000  -0.00000
  53       15G-3        0.00000   0.00000   0.00000   0.00000  -0.03835
  54       15G+4        0.01651   0.00000   0.00000   0.00000   0.00000
[...]
  10         V                 0.195743          0.455818
  11         V                 0.223867          0.794238
  12         V                 0.268162          0.765039
  13         V                 0.354696          1.107400
  14         V                 0.392408          1.169597
  15         V                 0.392409          1.169594
  16         V                 0.409883          0.755793
  17         V                 0.409885          0.755793
  18         V                 0.634152          0.875566
  19         V                 0.636089          0.908578
  20         V                 0.662269          1.138704
  21         V                 0.662272          1.138693
  22         V                 0.730165          1.070878
  23         V                 0.777628          0.995936
  24         V                 0.777631          0.995940
  25         V                 0.951276          1.319865
  26         V                 0.951281          1.319888
  27         V                 1.005777          1.974688
  28         V                 1.018254          1.564667
  29         V                 1.018255          1.564653
  30         V                 1.193787          1.943960
  31         V                 1.255484          2.690310
  32         V                 1.319448          1.924735
  33         V                 1.319452          1.924737
  34         V                 1.568574          2.629301
  35         V                 1.568582          2.629299
  36         V                 1.650998          2.446858
  37         V                 1.651000          2.446860
  38         V                 1.741193          2.239961
  39         V                 1.752711          2.428135
  40         V                 1.813687          2.404890
  41         V                 1.813689          2.404889
  42         V                 1.860378          2.313641
  43         V                 1.860382          2.313646
  44         V                 1.867493          2.346416
  45         V                 2.015937          2.385580
  46         V                 2.035743          3.124487
  47         V                 2.285765          2.985671
  48         V                 2.285774          2.985681
  49         V                 2.292854          2.742022
  50         V                 2.292858          2.742027
  51         V                 2.411794          2.883115
  52         V                 2.435482          3.900671
  53         V                 2.483833          3.026242
  54         V                 2.483838          3.026250
  55         V                 2.538482          3.000578
  56         V                 2.538483          3.000582
  57         V                 2.692010          3.130702
  58         V                 2.801534          3.197453
  59         V                 2.801537          3.197459
  60         V                 2.835382          3.390799
  61         V                 2.992460          3.778866
  62         V                 3.021944          3.661583
  63         V                 3.021955          3.661594
  64         V                 3.381936          4.059883
  65         V                 3.381937          4.059883
  66         V                 3.384439          4.524920
  67         V                 3.384441          4.524944
  68         V                 3.577302          4.731940
  69         V                 3.595620          4.966884
  70         V                 3.755902          4.680869
  71         V                 3.755910          4.680850
  72         V                 4.042474          4.606709
  73         V                 4.927509          7.834732
  74         V                 4.930528          6.172515
  75         V                 4.930529          6.172495
  76         V                 5.122256          6.122912
  77         V                 5.146273          5.941360
  78         V                 5.220842          6.425948
  79         V                 5.220847          6.425956
  80         V                 5.494423          6.570483
  81         V                 5.494425          6.570489
  82         V                 5.540443          6.643035
  83         V                 5.590276          7.802299
  84         V                 5.590288          7.802308
  85         V                 5.707352          7.448127
  86         V                 5.826260          7.110039
  87         V                 5.826262          7.110044
  88         V                 5.899838          7.372317
  89         V                 5.939440          6.524561
  90         V                 5.949742          6.644139
  91         V                 5.949745          6.644135
  92         V                 6.025914          6.999851
  93         V                 6.025919          6.999856
  94         V                 6.211766          7.845960
  95         V                 6.337139          7.942764
  96         V                 6.422146          8.157116
  97         V                 6.422156          8.157187
  98         V                 6.458672          7.549293
  99         V                 6.605240          8.144307
 100         V                 6.605249          8.144263
 101         V                 6.671373          8.517984
 102         V                 6.671382          8.517989
 103         V                 7.118164          8.101919
 104         V                 7.118176          8.101936
 105         V                 7.162598          7.880481
 106         V                 7.162621          7.880510
 107         V                 7.489149          8.192395
 108         V                 7.502202          8.684093
 109         V                 7.502491          8.682117
 110         V                 7.502492          8.682118
 111         V                 7.508751          8.668544
 112         V                 7.516230          8.647047
 113         V                 7.516231          8.647061
 114         V                 7.683970          8.729170
 115         V                 7.683973          8.729185
 116         V                 7.980026          8.877177
 117         V                 8.111898          8.906319
 118         V                 8.170692          9.161322
 119         V                 8.170698          9.161318
 120         V                 8.180107          9.041178
 121         V                 8.210800          9.063343
 122         V                 8.210809          9.063345
 123         V                 8.417155          9.327125
 124         V                 8.417156          9.327123
 125         V                 8.426190         10.511693
 126         V                 8.426211         10.511707
 127         V                 8.719024          9.898934
 128         V                 8.756079         10.730773
 129         V                 8.818576          9.695840
 130         V                 8.993893         10.197433
 131         V                 9.173947         10.378214
 132         V                 9.173968         10.378241
 133         V                 9.818758         11.277661
 134         V                 9.818760         11.277715
 135         V                 9.860045         11.015447
 136         V                 9.860058         11.015464
 137         V                 9.884619         12.640047
 138         V                 9.925638         11.781590
 139         V                10.349359         11.675585
 140         V                10.435719         13.728548
 141         V                11.054287         12.632605
 142         V                11.054348         12.632644
 143         V                12.356693         15.901016
 144         V                12.356695         15.900997
 145         V                24.686409         55.910841
 Orbital energies and kinetic energies (beta):
                                 1                 2
   1         O               -10.157287         15.958768
   2         O                -0.650032          1.274765
   3         O                -0.414645          0.987131
   4         O                -0.414643          0.987134
   5         V                -0.064953          0.873272
   6         V                 0.053754          0.467832
   7         V                 0.115432          0.465319
   8         V                 0.115432          0.465321
   9         V                 0.202025          0.455798
  10         V                 0.202028          0.455801
  11         V                 0.282858          0.940482
  12         V                 0.309585          0.807375
  13         V                 0.372521          1.092925
  14         V                 0.398364          1.176577
  15         V                 0.398364          1.176574
  16         V                 0.440551          0.750983
  17         V                 0.440553          0.750984
  18         V                 0.632338          0.875954
  19         V                 0.663574          0.895534
  20         V                 0.669750          1.141608
  21         V                 0.669754          1.141595
  22         V                 0.751424          1.082272
  23         V                 0.797171          0.995231
  24         V                 0.797175          0.995235
  25         V                 0.955594          1.311864
  26         V                 0.955598          1.311885
  27         V                 1.022663          1.586990
  28         V                 1.022664          1.586992
  29         V                 1.023748          2.016423
  30         V                 1.206548          1.934757
  31         V                 1.336905          1.926988
  32         V                 1.336909          1.926991
  33         V                 1.344604          2.763620
  34         V                 1.586213          2.629344
  35         V                 1.586221          2.629342
  36         V                 1.695258          2.440275
  37         V                 1.695261          2.440277
  38         V                 1.742021          2.240223
  39         V                 1.806640          2.402069
  40         V                 1.839679          2.396425
  41         V                 1.839682          2.396425
  42         V                 1.888165          2.313788
  43         V                 1.888170          2.313793
  44         V                 1.919646          2.350487
  45         V                 2.020915          2.385354
  46         V                 2.064593          3.086738
  47         V                 2.284856          2.989951
  48         V                 2.284866          2.989961
  49         V                 2.301657          2.741211
  50         V                 2.301661          2.741216
  51         V                 2.423721          2.878434
  52         V                 2.454607          3.915891
  53         V                 2.495495          3.031768
  54         V                 2.495500          3.031775
  55         V                 2.544465          2.993548
  56         V                 2.544466          2.993551
  57         V                 2.689683          3.131477
  58         V                 2.817807          3.198854
  59         V                 2.817811          3.198861
  60         V                 2.840323          3.401904
  61         V                 3.014131          3.783161
  62         V                 3.028375          3.661521
  63         V                 3.028386          3.661532
  64         V                 3.389000          4.530229
  65         V                 3.389002          4.530253
  66         V                 3.419476          4.068248
  67         V                 3.419476          4.068247
  68         V                 3.588031          4.890986
  69         V                 3.646148          4.864573
  70         V                 3.762179          4.691000
  71         V                 3.762186          4.690980
  72         V                 4.051519          4.605906
  73         V                 4.960861          6.159253
  74         V                 4.960865          6.159273
  75         V                 4.976213          7.770652
  76         V                 5.164328          5.940328
  77         V                 5.185065          6.114491
  78         V                 5.270243          6.403764
  79         V                 5.270248          6.403772
  80         V                 5.529531          6.556548
  81         V                 5.529535          6.556540
  82         V                 5.539511          6.641991
  83         V                 5.603717          7.731588
  84         V                 5.603730          7.731594
  85         V                 5.801625          7.321691
  86         V                 5.881613          7.157198
  87         V                 5.881618          7.157206
  88         V                 5.921241          7.502213
  89         V                 5.937941          6.525033
  90         V                 5.958850          6.653839
  91         V                 5.958853          6.653837
  92         V                 6.032614          7.015229
  93         V                 6.032619          7.015238
  94         V                 6.263258          7.891873
  95         V                 6.348047          7.897359
  96         V                 6.430894          8.174619
  97         V                 6.430901          8.174675
  98         V                 6.477237          7.604383
  99         V                 6.613544          8.116150
 100         V                 6.613550          8.116126
 101         V                 6.733722          8.526475
 102         V                 6.733728          8.526480
 103         V                 7.127783          8.119486
 104         V                 7.127791          8.119500
 105         V                 7.170442          7.882162
 106         V                 7.170464          7.882191
 107         V                 7.488781          8.193957
 108         V                 7.504993          8.683338
 109         V                 7.511569          8.635448
 110         V                 7.511570          8.635459
 111         V                 7.516234          8.696433
 112         V                 7.516237          8.696432
 113         V                 7.519698          8.667727
 114         V                 7.692249          8.726371
 115         V                 7.692253          8.726383
 116         V                 7.985458          8.879289
 117         V                 8.108924          8.905202
 118         V                 8.168700          9.156814
 119         V                 8.168706          9.156810
 120         V                 8.180452          9.028657
 121         V                 8.209132          9.065835
 122         V                 8.209140          9.065838
 123         V                 8.420918          9.326780
 124         V                 8.420919          9.326781
 125         V                 8.425621         10.522724
 126         V                 8.425643         10.522739
 127         V                 8.726701          9.901919
 128         V                 8.775543         10.753544
 129         V                 8.832269          9.695534
 130         V                 8.989123         10.197689
 131         V                 9.172585         10.377604
 132         V                 9.172606         10.377632
 133         V                 9.820891         11.282165
 134         V                 9.820899         11.282223
 135         V                 9.881278         11.018229
 136         V                 9.881303         11.018248
 137         V                 9.885899         12.646264
 138         V                 9.956217         11.796767
 139         V                10.351464         11.676395
 140         V                10.445688         13.711380
 141         V                11.054069         12.633619
 142         V                11.054132         12.633657
 143         V                12.356654         15.905735
 144         V                12.356657         15.905717
 145         V                24.708399         55.903857
 Total kinetic energy from orbitals= 3.960026760980D+01
  Exact polarizability:  14.752   0.000  14.752   0.000  -0.000  12.608
 Approx polarizability:  17.561  -0.000  17.561  -0.000  -0.000  14.563
                          Isotropic Fermi Contact Couplings
        Atom                 a.u.       MegaHertz       Gauss      10(-4) cm-1
     1  C(13)              0.03299      37.08357      13.23234      12.36975
     2  H(1)              -0.01509     -67.44383     -24.06564     -22.49684
     3  H(1)              -0.01509     -67.44573     -24.06631     -22.49747
     4  H(1)              -0.01509     -67.44573     -24.06631     -22.49747
 --------------------------------------------------------
       Center         ----  Spin Dipole Couplings  ----
                      3XX-RR        3YY-RR        3ZZ-RR
 --------------------------------------------------------
     1   Atom       -0.595824     -0.595826      1.191650
     2   Atom       -0.077161      0.072461      0.004700
     3   Atom        0.035056     -0.039756      0.004700
     4   Atom        0.035056     -0.039756      0.004700
 --------------------------------------------------------
                        XY            XZ            YZ
 --------------------------------------------------------
     1   Atom       -0.000000      0.000000      0.000000
     2   Atom        0.000000      0.000000      0.000000
     3   Atom        0.064787      0.000000      0.000000
     4   Atom       -0.064788     -0.000000      0.000000
 --------------------------------------------------------


 ---------------------------------------------------------------------------------
              Anisotropic Spin Dipole Couplings in Principal Axis System
 ---------------------------------------------------------------------------------

       Atom             a.u.   MegaHertz   Gauss  10(-4) cm-1        Axes

              Baa    -0.5958   -79.954   -28.530   -26.670  0.0000  1.0000 -0.0000
     1 C(13)  Bbb    -0.5958   -79.954   -28.530   -26.670  1.0000 -0.0000  0.0000
              Bcc     1.1916   159.908    57.059    53.340  0.0000  0.0000  1.0000
 
              Baa    -0.0772   -41.169   -14.690   -13.733  1.0000 -0.0000  0.0000
     2 H(1)   Bbb     0.0047     2.508     0.895     0.837  0.0000  0.0000  1.0000
              Bcc     0.0725    38.661    13.795    12.896  0.0000  1.0000  0.0000
 
              Baa    -0.0772   -41.169   -14.690   -13.733 -0.5000  0.8660 -0.0000
     3 H(1)   Bbb     0.0047     2.508     0.895     0.836  0.0000  0.0000  1.0000
              Bcc     0.0725    38.662    13.795    12.896  0.8660  0.5000  0.0000
 
              Baa    -0.0772   -41.169   -14.690   -13.733  0.5000  0.8660 -0.0000
     4 H(1)   Bbb     0.0047     2.508     0.895     0.836  0.0000  0.0000  1.0000
              Bcc     0.0725    38.662    13.795    12.896  0.8660 -0.5000  0.0000
 

 ---------------------------------------------------------------------------------

 No NMR shielding tensors so no spin-rotation constants.
 Leave Link  601 at Sun Aug 18 14:49:06 2024, MaxMem=   13107200 cpu:       1.1
 (Enter /programs/64bit/g09/g09-gfortran/bin/l701.exe)
 Compute integral second derivatives.
 ... and contract with generalized density number  0.
 Insufficient memory in PRISM at phase 22 IEnd=     9338601 limit=     7380345.
 Error termination via Lnk1e in /programs/64bit/g09/g09-gfortran/bin/l701.exe at Sun Aug 18 14:49:06 2024.
 Job cpu time:  0 days  0 hours 11 minutes 36.3 seconds.
 File lengths (MBytes):  RWF=     26 Int=      0 D2E=      0 Chk=      3 Scr=      1
