 Entering Gaussian System, Link 0=/programs/64bit/g09/g09-gfortran/bin/g09
 Input=ch3_+.com
 Output=ch3_+.log
 Initial command:
 /programs/64bit/g09/g09-gfortran/bin/l1.exe /home/ospite/Desktop/MMfP/Project6/CH3/g09/DFT/B3PW91/Gau-17834.inp -scrdir=/home/ospite/Desktop/MMfP/Project6/CH3/g09/DFT/B3PW91/
 Entering Link 1 = /programs/64bit/g09/g09-gfortran/bin/l1.exe PID=     17835.
  
 Copyright (c) 1988,1990,1992,1993,1995,1998,2003,2009, Gaussian, Inc.
                  All Rights Reserved.
  
 This is part of the Gaussian(R) 09 program.  It is based on
 the Gaussian(R) 03 system (copyright 2003, Gaussian, Inc.),
 the Gaussian(R) 98 system (copyright 1998, Gaussian, Inc.),
 the Gaussian(R) 94 system (copyright 1995, Gaussian, Inc.),
 the Gaussian 92(TM) system (copyright 1992, Gaussian, Inc.),
 the Gaussian 90(TM) system (copyright 1990, Gaussian, Inc.),
 the Gaussian 88(TM) system (copyright 1988, Gaussian, Inc.),
 the Gaussian 86(TM) system (copyright 1986, Carnegie Mellon
 University), and the Gaussian 82(TM) system (copyright 1983,
 Carnegie Mellon University). Gaussian is a federally registered
 trademark of Gaussian, Inc.
  
 This software contains proprietary and confidential information,
 including trade secrets, belonging to Gaussian, Inc.
  
 This software is provided under written license and may be
 used, copied, transmitted, or stored only in accord with that
 written license.
  
 The following legend is applicable only to US Government
 contracts under FAR:
  
                    RESTRICTED RIGHTS LEGEND
  
 Use, reproduction and disclosure by the US Government is
 subject to restrictions as set forth in subparagraphs (a)
 and (c) of the Commercial Computer Software - Restricted
 Rights clause in FAR 52.227-19.
  
 Gaussian, Inc.
 340 Quinnipiac St., Bldg. 40, Wallingford CT 06492
  
  
 ---------------------------------------------------------------
 Warning -- This program may not be used in any manner that
 competes with the business of Gaussian, Inc. or will provide
 assistance to any competitor of Gaussian, Inc.  The licensee
 of this program is prohibited from giving any competitor of
 Gaussian, Inc. access to this program.  By using this program,
 the user acknowledges that Gaussian, Inc. is engaged in the
 business of creating and licensing software in the field of
 computational chemistry and represents and warrants to the
 licensee that it is not a competitor of Gaussian, Inc. and that
 it will not use this program in any manner prohibited above.
 ---------------------------------------------------------------
  

 Cite this work as:
 Gaussian 09, Revision A.02,
 M. J. Frisch, G. W. Trucks, H. B. Schlegel, G. E. Scuseria, 
 M. A. Robb, J. R. Cheeseman, G. Scalmani, V. Barone, B. Mennucci, 
 G. A. Petersson, H. Nakatsuji, M. Caricato, X. Li, H. P. Hratchian, 
 A. F. Izmaylov, J. Bloino, G. Zheng, J. L. Sonnenberg, M. Hada, 
 M. Ehara, K. Toyota, R. Fukuda, J. Hasegawa, M. Ishida, T. Nakajima, 
 Y. Honda, O. Kitao, H. Nakai, T. Vreven, J. A. Montgomery, Jr., 
 J. E. Peralta, F. Ogliaro, M. Bearpark, J. J. Heyd, E. Brothers, 
 K. N. Kudin, V. N. Staroverov, R. Kobayashi, J. Normand, 
 K. Raghavachari, A. Rendell, J. C. Burant, S. S. Iyengar, J. Tomasi, 
 M. Cossi, N. Rega, J. M. Millam, M. Klene, J. E. Knox, J. B. Cross, 
 V. Bakken, C. Adamo, J. Jaramillo, R. Gomperts, R. E. Stratmann, 
 O. Yazyev, A. J. Austin, R. Cammi, C. Pomelli, J. W. Ochterski, 
 R. L. Martin, K. Morokuma, V. G. Zakrzewski, G. A. Voth, 
 P. Salvador, J. J. Dannenberg, S. Dapprich, A. D. Daniels, 
 O. Farkas, J. B. Foresman, J. V. Ortiz, J. Cioslowski, 
 and D. J. Fox, Gaussian, Inc., Wallingford CT, 2009.
 
 ******************************************
 Gaussian 09:  EM64L-G09RevA.02 11-Jun-2009
                17-Aug-2024 
 ******************************************
 %mem=100MB
 -------------------------------------------------------------------
 #p b3pw91/6-31+G opt freq symmetry=(follow,pg=C3v) pop=full gfinput
 -------------------------------------------------------------------
 1/14=-1,18=20,19=15,26=3,38=1/1,3;
 2/9=110,12=2,17=6,18=5,19=2314885530821997379,40=1/2;
 3/5=1,6=6,7=10,11=2,16=1,24=10,25=1,30=1,71=1,74=-6/1,2,3;
 4//1;
 5/5=2,38=5/2;
 6/7=3,28=1/1;
 7//1,2,3,16;
 1/14=-1,18=20,19=15/3(2);
 2/9=110,15=5,19=2314885530821997379/2;
 99//99;
 2/9=110,15=5,19=2314885530821997379/2;
 3/5=1,6=6,7=10,11=2,16=1,25=1,30=1,71=1,74=-6/1,2,3;
 4/5=5,16=3/1;
 5/5=2,38=5/2;
 7//1,2,3,16;
 1/14=-1,18=20,19=15/3(-5);
 2/9=110,15=5,19=2314885530821997379/2;
 6/7=3,19=2,28=1/1;
 99/9=1/99;
 Leave Link    1 at Sat Aug 17 23:37:08 2024, MaxMem=   13107200 cpu:       0.1
 (Enter /programs/64bit/g09/g09-gfortran/bin/l101.exe)
 -------------------------------------------------
 methyl with imposed symmetry and 6-31+G basis set
 -------------------------------------------------
 Symbolic Z-matrix:
 Charge =  0 Multiplicity = 2
 C1
 H2                   1    d
 H3                   1    d        2    a
 H4                   1    d        2    -a       3    t        0
       Variables:
  d                     1.09                     
  a                   120.                       
  t                     0.                       
 
 NAtoms=      4 NQM=      4 NQMF=      0 NMic=      0 NMicF=      0 NTot=      4.
                    Isotopes and Nuclear Properties:
 (Nuclear quadrupole moments (NQMom) in fm**2, nuclear magnetic moments (NMagM)
  in nuclear magnetons)

  Atom         1           2           3           4
 IAtWgt=          12           1           1           1
 AtmWgt=  12.0000000   1.0078250   1.0078250   1.0078250
 NucSpn=           0           1           1           1
 AtZEff=   0.0000000   0.0000000   0.0000000   0.0000000
 NQMom=    0.0000000   0.0000000   0.0000000   0.0000000
 NMagM=    0.0000000   2.7928460   2.7928460   2.7928460
 Leave Link  101 at Sat Aug 17 23:37:08 2024, MaxMem=   13107200 cpu:       0.1
 (Enter /programs/64bit/g09/g09-gfortran/bin/l103.exe)

 GradGradGradGradGradGradGradGradGradGradGradGradGradGradGradGradGradGrad
 Berny optimization.
 Initialization pass.
                           ----------------------------
                           !    Initial Parameters    !
                           ! (Angstroms and Degrees)  !
 --------------------------                            --------------------------
 ! Name  Definition              Value          Derivative Info.                !
 --------------------------------------------------------------------------------
 ! R1    R(1,2)                  1.09           estimate D2E/DX2                !
 ! R2    R(1,3)                  1.09           estimate D2E/DX2                !
 ! R3    R(1,4)                  1.09           estimate D2E/DX2                !
 ! A1    A(2,1,3)              120.0            estimate D2E/DX2                !
 ! A2    A(2,1,4)              120.0            estimate D2E/DX2                !
 ! A3    A(3,1,4)              120.0            estimate D2E/DX2                !
 ! D1    D(2,1,4,3)            180.0            estimate D2E/DX2                !
 --------------------------------------------------------------------------------
 Trust Radius=3.00D-01 FncErr=1.00D-07 GrdErr=1.00D-06
 Number of steps in this run=  20 maximum allowed number of steps= 100.
 GradGradGradGradGradGradGradGradGradGradGradGradGradGradGradGradGradGrad

 Leave Link  103 at Sat Aug 17 23:37:08 2024, MaxMem=   13107200 cpu:       0.0
 (Enter /programs/64bit/g09/g09-gfortran/bin/l202.exe)
                          Input orientation:                          
 ---------------------------------------------------------------------
 Center     Atomic      Atomic             Coordinates (Angstroms)
 Number     Number       Type             X           Y           Z
 ---------------------------------------------------------------------
      1          6           0        0.000000    0.000000    0.000000
      2          1           0        0.000000    0.000000    1.090000
      3          1           0        0.943968    0.000000   -0.545000
      4          1           0       -0.943968    0.000000   -0.545000
 ---------------------------------------------------------------------
                    Distance matrix (angstroms):
                    1          2          3          4
     1  C    0.000000
     2  H    1.090000   0.000000
     3  H    1.090000   1.887935   0.000000
     4  H    1.090000   1.887935   1.887935   0.000000
 Symm:  InNGrp=C3V  InAxis=0.
 This structure is nearly, but not quite of a higher symmetry.
 Consider Symm=Loose if the higher symmetry is desired.
 Stoichiometry    CH3(2)
 Framework group  C2[C2(CH),X(H2)]
 Deg. of freedom     3
 Full point group                 C2      NOp   2
 Largest Abelian subgroup         C2      NOp   2
 Largest concise Abelian subgroup C2      NOp   2
                         Standard orientation:                         
 ---------------------------------------------------------------------
 Center     Atomic      Atomic             Coordinates (Angstroms)
 Number     Number       Type             X           Y           Z
 ---------------------------------------------------------------------
      1          6           0        0.000000    0.000000    0.000000
      2          1           0        0.000000    0.000000    1.090000
      3          1           0        0.000000    0.943968   -0.545000
      4          1           0       -0.000000   -0.943968   -0.545000
 ---------------------------------------------------------------------
 Rotational constants (GHZ):    281.3764836    281.3764836    140.6882418
 Leave Link  202 at Sat Aug 17 23:37:08 2024, MaxMem=   13107200 cpu:       0.0
 (Enter /programs/64bit/g09/g09-gfortran/bin/l301.exe)
 Standard basis: 6-31+G (6D, 7F)
 Ernie: Thresh=  0.10000D-02 Tol=  0.10000D-05 Strict=F.
 AO basis set in the form of general basis input (Overlap normalization):
      1 0
 S   6 1.00       0.000000000000
      0.3047524880D+04  0.1834737132D-02
      0.4573695180D+03  0.1403732281D-01
      0.1039486850D+03  0.6884262226D-01
      0.2921015530D+02  0.2321844432D+00
      0.9286662960D+01  0.4679413484D+00
      0.3163926960D+01  0.3623119853D+00
 SP   3 1.00       0.000000000000
      0.7868272350D+01 -0.1193324198D+00  0.6899906659D-01
      0.1881288540D+01 -0.1608541517D+00  0.3164239610D+00
      0.5442492580D+00  0.1143456438D+01  0.7443082909D+00
 SP   1 1.00       0.000000000000
      0.1687144782D+00  0.1000000000D+01  0.1000000000D+01
 SP   1 1.00       0.000000000000
      0.4380000000D-01  0.1000000000D+01  0.1000000000D+01
 ****
      2 0
 S   3 1.00       0.000000000000
      0.1873113696D+02  0.3349460434D-01
      0.2825394365D+01  0.2347269535D+00
      0.6401216923D+00  0.8137573261D+00
 S   1 1.00       0.000000000000
      0.1612777588D+00  0.1000000000D+01
 ****
      3 0
 S   3 1.00       0.000000000000
      0.1873113696D+02  0.3349460434D-01
      0.2825394365D+01  0.2347269535D+00
      0.6401216923D+00  0.8137573261D+00
 S   1 1.00       0.000000000000
      0.1612777588D+00  0.1000000000D+01
 ****
      4 0
 S   3 1.00       0.000000000000
      0.1873113696D+02  0.3349460434D-01
      0.2825394365D+01  0.2347269535D+00
      0.6401216923D+00  0.8137573261D+00
 S   1 1.00       0.000000000000
      0.1612777588D+00  0.1000000000D+01
 ****

 There are    11 symmetry adapted basis functions of A   symmetry.
 There are     8 symmetry adapted basis functions of B   symmetry.
 Integral buffers will be    131072 words long.
 Raffenetti 2 integral format.
 Two-electron integral symmetry is turned on.
    19 basis functions,    38 primitive gaussians,    19 cartesian basis functions
     5 alpha electrons        4 beta electrons
       nuclear repulsion energy         9.5795885928 Hartrees.
 IExCor=  408 DFT=T Ex+Corr=B3PW91 ExCW=0 ScaHFX=  0.200000
 ScaDFX=  0.800000  0.720000  1.000000  0.810000 ScalE2=  1.000000  1.000000
 IRadAn=      0 IRanWt=     -1 IRanGd=            0 ICorTp=0
 NAtoms=    4 NActive=    4 NUniq=    3 SFac= 1.33D+00 NAtFMM=   80 NAOKFM=F Big=F
 Leave Link  301 at Sat Aug 17 23:37:09 2024, MaxMem=   13107200 cpu:       0.1
 (Enter /programs/64bit/g09/g09-gfortran/bin/l302.exe)
 NPDir=0 NMtPBC=     1 NCelOv=     1 NCel=       1 NClECP=     1 NCelD=      1
         NCelK=      1 NCelE2=     1 NClLst=     1 CellRange=     0.0.
 One-electron integrals computed using PRISM.
 One-electron integral symmetry used in STVInt
 NBasis=    19 RedAO= T  NBF=    11     8
 NBsUse=    19 1.00D-06 NBFU=    11     8
 Precomputing XC quadrature grid using
 IXCGrd= 2 IRadAn=           0 IRanWt=          -1 IRanGd=           0 AccXCQ= 1.00D-10.
 NRdTot=     255 NPtTot=       32404 NUsed=       34254 NTot=       34286
 NSgBfM=    19    19    19    19    19 NAtAll=     4     4.
 Leave Link  302 at Sat Aug 17 23:37:09 2024, MaxMem=   13107200 cpu:       0.1
 (Enter /programs/64bit/g09/g09-gfortran/bin/l303.exe)
 DipDrv:  MaxL=1.
 Leave Link  303 at Sat Aug 17 23:37:09 2024, MaxMem=   13107200 cpu:       0.0
 (Enter /programs/64bit/g09/g09-gfortran/bin/l401.exe)
 Harris functional with IExCor=  408 diagonalized for initial guess.
 ExpMin= 4.38D-02 ExpMax= 3.05D+03 ExpMxC= 4.57D+02 IAcc=2 IRadAn=         0 AccDes= 0.00D+00
 HarFok:  IExCor=  408 AccDes= 0.00D+00 IRadAn=         0 IDoV= 1
 ScaDFX=  1.000000  1.000000  1.000000  1.000000
 FoFCou: FMM=F IPFlag=           0 FMFlag=      100000 FMFlg1=           0
         NFxFlg=           0 DoJE=T BraDBF=F KetDBF=T FulRan=T
         Omega=  0.000000  0.000000  1.000000  0.000000  0.000000 ICntrl=     500 IOpCl=  0
         NMat0=    1 NMatS0=    1 NMatT0=    0 NMatD0=    1 NMtDS0=    0 NMtDT0=    0
         I1Cent=           4 NGrid=           0.
 Petite list used in FoFCou.
 Harris En= -39.8405895165685    
 Initial guess orbital symmetries:
 Alpha Orbitals:
       Occupied  (A) (A) (A) (B) (B)
       Virtual   (A) (B) (A) (B) (B) (A) (A) (A) (B) (B) (A) (A)
                 (B) (A)
 Beta  Orbitals:
       Occupied  (A) (A) (A) (B)
       Virtual   (B) (A) (B) (A) (B) (B) (A) (A) (A) (B) (B) (A)
                 (A) (B) (A)
 The electronic state of the initial guess is 2-B.
 Initial guess <Sx>= 0.0000 <Sy>= 0.0000 <Sz>= 0.5000 <S**2>= 0.7500 S= 0.5000
 Leave Link  401 at Sat Aug 17 23:37:09 2024, MaxMem=   13107200 cpu:       0.4
 (Enter /programs/64bit/g09/g09-gfortran/bin/l502.exe)
 UHF open shell SCF:
 Requested convergence on RMS density matrix=1.00D-08 within 128 cycles.
 Requested convergence on MAX density matrix=1.00D-06.
 Requested convergence on             energy=1.00D-06.
 No special actions if energy rises.
 Using DIIS extrapolation, IDIIS=  1040.
 Integral symmetry usage will be decided dynamically.
        34205 words used for storage of precomputed grid.
 Keep R1 and R2 ints in memory in canonical form, NReq=948271.
 IEnd=       53992 IEndB=       53992 NGot=    13107200 MDV=    13033993
 LenX=    13033993 LenY=    13033111
 Symmetry not used in FoFDir.
 MinBra= 0 MaxBra= 1 Meth= 1.
 IRaf=       0 NMat=   1 IRICut=       1 DoRegI=T DoRafI=F ISym2E= 0 JSym2E=0.

 Cycle   1  Pass 1  IDiag  1:
 E= -39.7832464870927    
 DIIS: error= 3.41D-02 at cycle   1 NSaved=   1.
 NSaved= 1 IEnMin= 1 EnMin= -39.7832464870927     IErMin= 1 ErrMin= 3.41D-02
 ErrMax= 3.41D-02 EMaxC= 1.00D-01 BMatC= 1.16D-01 BMatP= 1.16D-01
 IDIUse=3 WtCom= 6.59D-01 WtEn= 3.41D-01
 Coeff-Com:  0.100D+01
 Coeff-En:   0.100D+01
 Coeff:      0.100D+01
 Gap=     0.205 Goal=   None    Shift=    0.000
 Gap=     0.379 Goal=   None    Shift=    0.000
 GapD=    0.205 DampG=1.000 DampE=0.500 DampFc=0.5000 IDamp=-1.
 Damping current iteration by 5.00D-01
 RMSDP=1.53D-02 MaxDP=1.46D-01              OVMax= 1.48D-01

 Cycle   2  Pass 1  IDiag  1:
 E= -39.8007882884918     Delta-E=       -0.017541801399 Rises=F Damp=T
 DIIS: error= 5.54D-03 at cycle   2 NSaved=   2.
 NSaved= 2 IEnMin= 2 EnMin= -39.8007882884918     IErMin= 2 ErrMin= 5.54D-03
 ErrMax= 5.54D-03 EMaxC= 1.00D-01 BMatC= 2.24D-03 BMatP= 1.16D-01
 IDIUse=3 WtCom= 9.45D-01 WtEn= 5.54D-02
 Coeff-Com:  0.155D-01 0.985D+00
 Coeff-En:   0.000D+00 0.100D+01
 Coeff:      0.146D-01 0.985D+00
 Gap=     0.263 Goal=   None    Shift=    0.000
 Gap=     0.353 Goal=   None    Shift=    0.000
 RMSDP=1.98D-03 MaxDP=1.69D-02 DE=-1.75D-02 OVMax= 8.30D-02

 Cycle   3  Pass 1  IDiag  1:
 E= -39.8193654951709     Delta-E=       -0.018577206679 Rises=F Damp=F
 DIIS: error= 1.31D-03 at cycle   3 NSaved=   3.
 NSaved= 3 IEnMin= 3 EnMin= -39.8193654951709     IErMin= 3 ErrMin= 1.31D-03
 ErrMax= 1.31D-03 EMaxC= 1.00D-01 BMatC= 8.45D-05 BMatP= 2.24D-03
 IDIUse=3 WtCom= 9.87D-01 WtEn= 1.31D-02
 Coeff-Com: -0.113D-01-0.294D-01 0.104D+01
 Coeff-En:   0.000D+00 0.000D+00 0.100D+01
 Coeff:     -0.112D-01-0.290D-01 0.104D+01
 Gap=     0.268 Goal=   None    Shift=    0.000
 Gap=     0.348 Goal=   None    Shift=    0.000
 RMSDP=4.59D-04 MaxDP=3.22D-03 DE=-1.86D-02 OVMax= 3.54D-03

 Cycle   4  Pass 1  IDiag  1:
 E= -39.8194253355278     Delta-E=       -0.000059840357 Rises=F Damp=F
 DIIS: error= 3.98D-04 at cycle   4 NSaved=   4.
 NSaved= 4 IEnMin= 4 EnMin= -39.8194253355278     IErMin= 4 ErrMin= 3.98D-04
 ErrMax= 3.98D-04 EMaxC= 1.00D-01 BMatC= 9.84D-06 BMatP= 8.45D-05
 IDIUse=3 WtCom= 9.96D-01 WtEn= 3.98D-03
 Coeff-Com:  0.129D-02-0.143D-01-0.454D+00 0.147D+01
 Coeff-En:   0.000D+00 0.000D+00 0.000D+00 0.100D+01
 Coeff:      0.128D-02-0.142D-01-0.452D+00 0.147D+01
 Gap=     0.268 Goal=   None    Shift=    0.000
 Gap=     0.348 Goal=   None    Shift=    0.000
 RMSDP=2.32D-04 MaxDP=1.44D-03 DE=-5.98D-05 OVMax= 1.86D-03

 Cycle   5  Pass 1  IDiag  1:
 E= -39.8194340579835     Delta-E=       -0.000008722456 Rises=F Damp=F
 DIIS: error= 3.59D-05 at cycle   5 NSaved=   5.
 NSaved= 5 IEnMin= 5 EnMin= -39.8194340579835     IErMin= 5 ErrMin= 3.59D-05
 ErrMax= 3.59D-05 EMaxC= 1.00D-01 BMatC= 6.84D-08 BMatP= 9.84D-06
 IDIUse=1 WtCom= 1.00D+00 WtEn= 0.00D+00
 Coeff-Com:  0.423D-03 0.215D-02 0.114D-01-0.118D+00 0.110D+01
 Coeff:      0.423D-03 0.215D-02 0.114D-01-0.118D+00 0.110D+01
 Gap=     0.268 Goal=   None    Shift=    0.000
 Gap=     0.348 Goal=   None    Shift=    0.000
 RMSDP=1.75D-05 MaxDP=1.34D-04 DE=-8.72D-06 OVMax= 1.67D-04

 Cycle   6  Pass 1  IDiag  1:
 E= -39.8194341152980     Delta-E=       -0.000000057314 Rises=F Damp=F
 DIIS: error= 3.71D-06 at cycle   6 NSaved=   6.
 NSaved= 6 IEnMin= 6 EnMin= -39.8194341152980     IErMin= 6 ErrMin= 3.71D-06
 ErrMax= 3.71D-06 EMaxC= 1.00D-01 BMatC= 6.62D-10 BMatP= 6.84D-08
 IDIUse=1 WtCom= 1.00D+00 WtEn= 0.00D+00
 Coeff-Com: -0.510D-04-0.259D-03 0.340D-02 0.103D-02-0.168D+00 0.116D+01
 Coeff:     -0.510D-04-0.259D-03 0.340D-02 0.103D-02-0.168D+00 0.116D+01
 Gap=     0.268 Goal=   None    Shift=    0.000
 Gap=     0.348 Goal=   None    Shift=    0.000
 RMSDP=1.77D-06 MaxDP=1.30D-05 DE=-5.73D-08 OVMax= 2.33D-05

 Cycle   7  Pass 1  IDiag  1:
 E= -39.8194341158780     Delta-E=       -0.000000000580 Rises=F Damp=F
 DIIS: error= 2.38D-07 at cycle   7 NSaved=   7.
 NSaved= 7 IEnMin= 7 EnMin= -39.8194341158780     IErMin= 7 ErrMin= 2.38D-07
 ErrMax= 2.38D-07 EMaxC= 1.00D-01 BMatC= 2.97D-12 BMatP= 6.62D-10
 IDIUse=1 WtCom= 1.00D+00 WtEn= 0.00D+00
 Coeff-Com:  0.835D-05 0.160D-04-0.484D-03 0.558D-03 0.126D-01-0.122D+00
 Coeff-Com:  0.111D+01
 Coeff:      0.835D-05 0.160D-04-0.484D-03 0.558D-03 0.126D-01-0.122D+00
 Coeff:      0.111D+01
 Gap=     0.268 Goal=   None    Shift=    0.000
 Gap=     0.348 Goal=   None    Shift=    0.000
 RMSDP=8.59D-08 MaxDP=6.29D-07 DE=-5.80D-10 OVMax= 7.77D-07

 Cycle   8  Pass 1  IDiag  1:
 E= -39.8194341158795     Delta-E=       -0.000000000001 Rises=F Damp=F
 DIIS: error= 1.32D-08 at cycle   8 NSaved=   8.
 NSaved= 8 IEnMin= 8 EnMin= -39.8194341158795     IErMin= 8 ErrMin= 1.32D-08
 ErrMax= 1.32D-08 EMaxC= 1.00D-01 BMatC= 6.21D-15 BMatP= 2.97D-12
 IDIUse=1 WtCom= 1.00D+00 WtEn= 0.00D+00
 Coeff-Com: -0.858D-06-0.126D-05 0.425D-04-0.678D-04-0.812D-03 0.939D-02
 Coeff-Com: -0.108D+00 0.110D+01
 Coeff:     -0.858D-06-0.126D-05 0.425D-04-0.678D-04-0.812D-03 0.939D-02
 Coeff:     -0.108D+00 0.110D+01
 Gap=     0.268 Goal=   None    Shift=    0.000
 Gap=     0.348 Goal=   None    Shift=    0.000
 RMSDP=4.93D-09 MaxDP=5.70D-08 DE=-1.44D-12 OVMax= 3.71D-08

 SCF Done:  E(UB3PW91) =  -39.8194341159     A.U. after    8 cycles
             Convg  =    0.4931D-08             -V/T =  2.0070
 <Sx>= 0.0000 <Sy>= 0.0000 <Sz>= 0.5000 <S**2>= 0.7537 S= 0.5019
 <L.S>=  0.00000000000    
 KE= 3.954399811975D+01 PE=-1.109711363748D+02 EE= 2.202811554644D+01
 Annihilation of the first spin contaminant:
 S**2 before annihilation     0.7537,   after     0.7500
 Leave Link  502 at Sat Aug 17 23:37:11 2024, MaxMem=   13107200 cpu:       2.1
 (Enter /programs/64bit/g09/g09-gfortran/bin/l601.exe)
 Copying SCF densities to generalized density rwf, IOpCl= 1 IROHF=0.

 **********************************************************************

            Population analysis using the SCF density.

 **********************************************************************

 Orbital symmetries:
 Alpha Orbitals:
       Occupied  (A) (A) (A) (B) (B)
       Virtual   (A) (B) (A) (B) (A) (B) (A) (B) (A) (B) (A) (A)
                 (B) (A)
 Beta  Orbitals:
       Occupied  (A) (A) (A) (B)
       Virtual   (B) (A) (B) (A) (B) (B) (A) (A) (A) (B) (B) (A)
                 (A) (B) (A)
 The electronic state is 2-B.
 Alpha  occ. eigenvalues --  -10.18637  -0.69472  -0.42656  -0.42656  -0.23895
 Alpha virt. eigenvalues --    0.02913   0.06843   0.06843   0.07987   0.19105
 Alpha virt. eigenvalues --    0.19644   0.19645   0.65169   0.65170   0.65184
 Alpha virt. eigenvalues --    0.86182   1.00371   1.02862   1.02862
  Beta  occ. eigenvalues --  -10.17116  -0.64966  -0.41521  -0.41521
  Beta virt. eigenvalues --   -0.06710   0.04124   0.07150   0.07150   0.11235
  Beta virt. eigenvalues --    0.20257   0.20257   0.21343   0.66746   0.66746
  Beta virt. eigenvalues --    0.73497   0.89466   1.01910   1.03008   1.03008
     Alpha Molecular Orbital Coefficients:
                           1         2         3         4         5
                           O         O         O         O         O
     Eigenvalues --   -10.18637  -0.69472  -0.42656  -0.42656  -0.23895
   1 1   C  1S          0.99501  -0.20544   0.00000   0.00000   0.00000
   2        2S          0.03449   0.40476  -0.00000   0.00000   0.00000
   3        2PX         0.00000   0.00000   0.00000   0.00000   0.59647
   4        2PY         0.00000   0.00000   0.00000   0.46220  -0.00000
   5        2PZ         0.00000   0.00000   0.46220   0.00000   0.00000
   6        3S         -0.02153   0.41459   0.00000   0.00000   0.00000
   7        3PX         0.00000   0.00000   0.00000  -0.00000   0.47138
   8        3PY         0.00000   0.00000   0.00000   0.20310   0.00000
   9        3PZ        -0.00000   0.00000   0.20310   0.00000   0.00000
  10        4S          0.00118   0.01569   0.00000   0.00000   0.00000
  11        4PX         0.00000   0.00000   0.00000   0.00000   0.11704
  12        4PY         0.00000   0.00000   0.00000   0.02245   0.00000
  13        4PZ        -0.00000   0.00000   0.02245   0.00000   0.00000
  14 2   H  1S         -0.00108   0.14547   0.28562   0.00000   0.00000
  15        2S          0.00420   0.02826   0.19202   0.00000   0.00000
  16 3   H  1S         -0.00108   0.14547  -0.14281   0.24735  -0.00000
  17        2S          0.00420   0.02826  -0.09602   0.16630  -0.00000
  18 4   H  1S         -0.00108   0.14547  -0.14281  -0.24735   0.00000
  19        2S          0.00420   0.02826  -0.09602  -0.16630   0.00000
                           6         7         8         9        10
                           V         V         V         V         V
     Eigenvalues --     0.02913   0.06843   0.06843   0.07987   0.19105
   1 1   C  1S          0.09389   0.00000  -0.00002   0.00000  -0.12349
   2        2S         -0.17011   0.00000   0.00003   0.00000   0.12234
   3        2PX         0.00000  -0.00000   0.00000  -0.25194   0.00000
   4        2PY         0.00000  -0.19727   0.00000   0.00000   0.00000
   5        2PZ        -0.00003   0.00000  -0.19727   0.00000   0.00017
   6        3S         -0.82242   0.00000   0.00024   0.00000   2.22768
   7        3PX         0.00000  -0.00000   0.00000  -0.38142   0.00000
   8        3PY         0.00000  -0.19524   0.00000   0.00000   0.00000
   9        3PZ         0.00001   0.00000  -0.19526   0.00000   0.00077
  10        4S          1.37692   0.00000  -0.00014   0.00000   1.27598
  11        4PX         0.00000   0.00000   0.00000   1.13339   0.00000
  12        4PY         0.00000   1.17159   0.00000  -0.00000   0.00000
  13        4PZ         0.00019   0.00000   1.17158   0.00000   0.00016
  14 2   H  1S          0.02499   0.00000  -0.03676   0.00000  -0.15660
  15        2S          0.00894   0.00000  -0.17780   0.00000  -1.42631
  16 3   H  1S          0.02500  -0.03183   0.01837   0.00000  -0.15648
  17        2S          0.00905  -0.15394   0.08879   0.00000  -1.42479
  18 4   H  1S          0.02500   0.03183   0.01837  -0.00000  -0.15648
  19        2S          0.00905   0.15394   0.08879  -0.00000  -1.42479
                          11        12        13        14        15
                           V         V         V         V         V
     Eigenvalues --     0.19644   0.19645   0.65169   0.65170   0.65184
   1 1   C  1S          0.00000  -0.00006   0.00000   0.00000   0.00000
   2        2S          0.00000   0.00006   0.00000   0.00000   0.00000
   3        2PX         0.00000   0.00000  -0.00000   0.00000  -1.07987
   4        2PY        -0.33204   0.00000  -1.00363   0.00000   0.00000
   5        2PZ         0.00000  -0.33204   0.00000  -1.00364   0.00000
   6        3S          0.00000   0.00109   0.00000  -0.00001   0.00000
   7        3PX         0.00000   0.00000   0.00000   0.00000   1.41162
   8        3PY        -1.53071   0.00000   1.92020   0.00000  -0.00000
   9        3PZ         0.00000  -1.53071   0.00000   1.92020   0.00000
  10        4S          0.00000   0.00066   0.00000   0.00000   0.00000
  11        4PX         0.00000   0.00000  -0.00000   0.00000  -0.58336
  12        4PY        -0.44146   0.00000  -0.52070   0.00000   0.00000
  13        4PZ         0.00000  -0.44148   0.00000  -0.52070   0.00000
  14 2   H  1S          0.00000   0.16800   0.00000  -0.25964   0.00000
  15        2S          0.00000   2.05407   0.00000  -0.45943   0.00000
  16 3   H  1S          0.14556  -0.08412  -0.22485   0.12982   0.00000
  17        2S          1.77948  -1.02809  -0.39788   0.22972   0.00000
  18 4   H  1S         -0.14556  -0.08412   0.22485   0.12982  -0.00000
  19        2S         -1.77948  -1.02809   0.39788   0.22972  -0.00000
                          16        17        18        19
                           V         V         V         V
     Eigenvalues --     0.86182   1.00371   1.02862   1.02862
   1 1   C  1S         -0.02651   0.06025   0.00000   0.00000
   2        2S         -1.70057  -1.24565   0.00000  -0.00003
   3        2PX         0.00000   0.00000   0.00000   0.00000
   4        2PY         0.00000   0.00000   0.59158   0.00000
   5        2PZ        -0.00000  -0.00001   0.00000   0.59158
   6        3S          2.84538   2.73869   0.00000   0.00006
   7        3PX         0.00000   0.00000  -0.00000   0.00000
   8        3PY         0.00000   0.00000  -0.62671   0.00000
   9        3PZ         0.00001   0.00001   0.00000  -0.62671
  10        4S         -0.78379   0.67167   0.00000   0.00002
  11        4PX         0.00000   0.00000   0.00000   0.00000
  12        4PY         0.00000   0.00000  -0.45197   0.00000
  13        4PZ         0.00000   0.00001   0.00000  -0.45197
  14 2   H  1S         -0.44292   0.68125   0.00000  -1.13414
  15        2S         -0.06712  -1.43455   0.00000   1.75677
  16 3   H  1S         -0.44292   0.68121  -0.98221   0.56709
  17        2S         -0.06712  -1.43450   1.52144  -0.87844
  18 4   H  1S         -0.44292   0.68121   0.98221   0.56709
  19        2S         -0.06712  -1.43450  -1.52144  -0.87844
     Beta Molecular Orbital Coefficients:
                           1         2         3         4         5
                           O         O         O         O         V
     Eigenvalues --   -10.17116  -0.64966  -0.41521  -0.41521  -0.06710
   1 1   C  1S          0.99533  -0.19649   0.00000   0.00000   0.00000
   2        2S          0.03263   0.38916  -0.00000   0.00000   0.00000
   3        2PX         0.00000   0.00000   0.00000  -0.00000   0.48044
   4        2PY         0.00000   0.00000   0.00000   0.44327   0.00000
   5        2PZ         0.00000   0.00000   0.44327   0.00000   0.00000
   6        3S         -0.02071   0.32867   0.00000   0.00000   0.00000
   7        3PX         0.00000   0.00000   0.00000   0.00000   0.45079
   8        3PY         0.00000   0.00000   0.00000   0.17865   0.00000
   9        3PZ        -0.00000   0.00000   0.17865   0.00000   0.00000
  10        4S          0.00110   0.00201   0.00000   0.00000   0.00000
  11        4PX         0.00000   0.00000   0.00000  -0.00000   0.31720
  12        4PY         0.00000   0.00000   0.00000   0.02386  -0.00000
  13        4PZ         0.00000   0.00000   0.02386   0.00000   0.00000
  14 2   H  1S         -0.00087   0.16465   0.30024   0.00000   0.00000
  15        2S          0.00403   0.06724   0.21876   0.00000   0.00000
  16 3   H  1S         -0.00087   0.16465  -0.15012   0.26002  -0.00000
  17        2S          0.00403   0.06724  -0.10938   0.18946   0.00000
  18 4   H  1S         -0.00087   0.16465  -0.15012  -0.26002   0.00000
  19        2S          0.00403   0.06724  -0.10938  -0.18946  -0.00000
                           6         7         8         9        10
                           V         V         V         V         V
     Eigenvalues --     0.04124   0.07150   0.07150   0.11235   0.20257
   1 1   C  1S          0.09627   0.00000  -0.00002   0.00000   0.00000
   2        2S         -0.14458   0.00000   0.00003   0.00000   0.00000
   3        2PX         0.00000   0.00000   0.00000  -0.30785   0.00000
   4        2PY         0.00000  -0.18840   0.00000  -0.00000  -0.33791
   5        2PZ        -0.00003   0.00000  -0.18840   0.00000   0.00000
   6        3S         -0.88592   0.00000   0.00024   0.00000   0.00000
   7        3PX         0.00000   0.00000   0.00000  -0.54410   0.00000
   8        3PY         0.00000  -0.19916   0.00000  -0.00000  -1.54586
   9        3PZ         0.00000   0.00000  -0.19919   0.00000   0.00000
  10        4S          1.37854   0.00000  -0.00018   0.00000   0.00000
  11        4PX         0.00000  -0.00000   0.00000   1.11663  -0.00000
  12        4PY         0.00000   1.17701   0.00000   0.00000  -0.43336
  13        4PZ         0.00021   0.00000   1.17701   0.00000   0.00000
  14 2   H  1S          0.01746   0.00000  -0.04287   0.00000   0.00000
  15        2S          0.02369   0.00000  -0.18697   0.00000   0.00000
  16 3   H  1S          0.01747  -0.03712   0.02143  -0.00000   0.13381
  17        2S          0.02381  -0.16189   0.09339   0.00000   1.78447
  18 4   H  1S          0.01747   0.03712   0.02143   0.00000  -0.13381
  19        2S          0.02381   0.16189   0.09339  -0.00000  -1.78447
                          11        12        13        14        15
                           V         V         V         V         V
     Eigenvalues --     0.20257   0.21343   0.66746   0.66746   0.73497
   1 1   C  1S          0.00003  -0.13063   0.00000   0.00000   0.00000
   2        2S         -0.00004   0.14873   0.00000   0.00000   0.00000
   3        2PX         0.00000   0.00000   0.00000   0.00000  -1.12239
   4        2PY         0.00000   0.00000   0.00000  -1.00099  -0.00000
   5        2PZ        -0.33790  -0.00007  -1.00099   0.00000   0.00000
   6        3S         -0.00052   2.23380  -0.00000   0.00000   0.00000
   7        3PX         0.00000   0.00000   0.00000  -0.00000   1.36422
   8        3PY         0.00000   0.00000   0.00000   1.90748   0.00000
   9        3PZ        -1.54585  -0.00034   1.90748   0.00000   0.00000
  10        4S         -0.00026   1.28747   0.00000   0.00000   0.00000
  11        4PX         0.00000   0.00000   0.00000   0.00000  -0.53954
  12        4PY         0.00000   0.00000   0.00000  -0.51855  -0.00000
  13        4PZ        -0.43338  -0.00014  -0.51855   0.00000   0.00000
  14 2   H  1S          0.15455  -0.13952  -0.27242   0.00000   0.00000
  15        2S          2.06086  -1.43353  -0.43740   0.00000   0.00000
  16 3   H  1S         -0.07723  -0.13958   0.13621  -0.23593  -0.00000
  17        2S         -1.02994  -1.43424   0.21870  -0.37879  -0.00000
  18 4   H  1S         -0.07723  -0.13958   0.13621   0.23593   0.00000
  19        2S         -1.02994  -1.43424   0.21870   0.37879   0.00000
                          16        17        18        19
                           V         V         V         V
     Eigenvalues --     0.89466   1.01910   1.03008   1.03008
   1 1   C  1S         -0.03702   0.06043   0.00000   0.00000
   2        2S         -1.51712  -1.46810   0.00000  -0.00008
   3        2PX         0.00000   0.00000  -0.00000   0.00000
   4        2PY         0.00000   0.00000   0.60984   0.00000
   5        2PZ        -0.00000  -0.00003   0.00000   0.60983
   6        3S          2.48251   3.05972   0.00000   0.00016
   7        3PX         0.00000   0.00000   0.00000   0.00000
   8        3PY         0.00000   0.00000  -0.63456   0.00000
   9        3PZ         0.00000   0.00003   0.00000  -0.63455
  10        4S         -0.83880   0.57290   0.00000   0.00004
  11        4PX         0.00000   0.00000  -0.00000   0.00000
  12        4PY         0.00000   0.00000  -0.44809   0.00000
  13        4PZ         0.00000   0.00002   0.00000  -0.44810
  14 2   H  1S         -0.52955   0.61586   0.00000  -1.12905
  15        2S          0.10579  -1.42209   0.00000   1.75152
  16 3   H  1S         -0.52955   0.61577  -0.97781   0.56457
  17        2S          0.10580  -1.42195   1.51693  -0.87588
  18 4   H  1S         -0.52955   0.61577   0.97781   0.56457
  19        2S          0.10580  -1.42195  -1.51693  -0.87588
     Alpha Density Matrix:
                           1         2         3         4         5
   1 1   C  1S          1.03224
   2        2S         -0.04884   0.16502
   3        2PX         0.00000   0.00000   0.35577
   4        2PY         0.00000   0.00000   0.00000   0.21363
   5        2PZ         0.00000  -0.00000   0.00000   0.00000   0.21363
   6        3S         -0.10659   0.16707   0.00000   0.00000   0.00000
   7        3PX         0.00000   0.00000   0.28116  -0.00000   0.00000
   8        3PY         0.00000   0.00000   0.00000   0.09387   0.00000
   9        3PZ        -0.00000   0.00000   0.00000   0.00000   0.09388
  10        4S         -0.00205   0.00639   0.00000   0.00000   0.00000
  11        4PX         0.00000   0.00000   0.06981   0.00000   0.00000
  12        4PY         0.00000   0.00000   0.00000   0.01038   0.00000
  13        4PZ        -0.00000   0.00000   0.00000   0.00000   0.01038
  14 2   H  1S         -0.03096   0.05884   0.00000   0.00000   0.13201
  15        2S         -0.00162   0.01158   0.00000   0.00000   0.08875
  16 3   H  1S         -0.03096   0.05884   0.00000   0.11433  -0.06601
  17        2S         -0.00162   0.01158  -0.00000   0.07686  -0.04438
  18 4   H  1S         -0.03096   0.05884  -0.00000  -0.11433  -0.06601
  19        2S         -0.00162   0.01158   0.00000  -0.07686  -0.04438
                           6         7         8         9        10
   6        3S          0.17235
   7        3PX         0.00000   0.22220
   8        3PY         0.00000   0.00000   0.04125
   9        3PZ         0.00000   0.00000   0.00000   0.04125
  10        4S          0.00648   0.00000   0.00000   0.00000   0.00025
  11        4PX         0.00000   0.05517   0.00000   0.00000   0.00000
  12        4PY         0.00000   0.00000   0.00456   0.00000   0.00000
  13        4PZ         0.00000   0.00000   0.00000   0.00456   0.00000
  14 2   H  1S          0.06033   0.00000   0.00000   0.05801   0.00228
  15        2S          0.01162   0.00000   0.00000   0.03900   0.00045
  16 3   H  1S          0.06033  -0.00000   0.05024  -0.02901   0.00228
  17        2S          0.01162  -0.00000   0.03378  -0.01950   0.00045
  18 4   H  1S          0.06033   0.00000  -0.05024  -0.02901   0.00228
  19        2S          0.01162   0.00000  -0.03378  -0.01950   0.00045
                          11        12        13        14        15
  11        4PX         0.01370
  12        4PY         0.00000   0.00050
  13        4PZ         0.00000   0.00000   0.00050
  14 2   H  1S          0.00000   0.00000   0.00641   0.10274
  15        2S          0.00000   0.00000   0.00431   0.05895   0.03769
  16 3   H  1S          0.00000   0.00555  -0.00321  -0.01963  -0.02332
  17        2S         -0.00000   0.00373  -0.00216  -0.02332  -0.01762
  18 4   H  1S         -0.00000  -0.00555  -0.00321  -0.01963  -0.02332
  19        2S          0.00000  -0.00373  -0.00216  -0.02332  -0.01762
                          16        17        18        19
  16 3   H  1S          0.10274
  17        2S          0.05895   0.03769
  18 4   H  1S         -0.01963  -0.02332   0.10274
  19        2S         -0.02332  -0.01762   0.05895   0.03769
     Beta Density Matrix:
                           1         2         3         4         5
   1 1   C  1S          1.02928
   2        2S         -0.04399   0.15251
   3        2PX         0.00000   0.00000   0.00000
   4        2PY         0.00000   0.00000  -0.00000   0.19649
   5        2PZ        -0.00000   0.00000   0.00000   0.00000   0.19649
   6        3S         -0.08519   0.12723   0.00000   0.00000   0.00000
   7        3PX         0.00000   0.00000  -0.00000   0.00000   0.00000
   8        3PY         0.00000   0.00000  -0.00000   0.07919   0.00000
   9        3PZ        -0.00000   0.00000   0.00000   0.00000   0.07919
  10        4S          0.00070   0.00082   0.00000   0.00000   0.00000
  11        4PX         0.00000   0.00000   0.00000  -0.00000   0.00000
  12        4PY         0.00000   0.00000  -0.00000   0.01058   0.00000
  13        4PZ        -0.00000   0.00000   0.00000   0.00000   0.01058
  14 2   H  1S         -0.03322   0.06405   0.00000   0.00000   0.13309
  15        2S         -0.00920   0.02630   0.00000   0.00000   0.09697
  16 3   H  1S         -0.03322   0.06405  -0.00000   0.11526  -0.06654
  17        2S         -0.00920   0.02630  -0.00000   0.08398  -0.04849
  18 4   H  1S         -0.03322   0.06405   0.00000  -0.11526  -0.06654
  19        2S         -0.00920   0.02630   0.00000  -0.08398  -0.04849
                           6         7         8         9        10
   6        3S          0.10845
   7        3PX         0.00000   0.00000
   8        3PY         0.00000   0.00000   0.03192
   9        3PZ         0.00000   0.00000   0.00000   0.03192
  10        4S          0.00064   0.00000   0.00000   0.00000   0.00001
  11        4PX         0.00000  -0.00000  -0.00000   0.00000   0.00000
  12        4PY         0.00000   0.00000   0.00426   0.00000   0.00000
  13        4PZ         0.00000   0.00000   0.00000   0.00426   0.00000
  14 2   H  1S          0.05414   0.00000   0.00000   0.05364   0.00033
  15        2S          0.02202   0.00000   0.00000   0.03908   0.00014
  16 3   H  1S          0.05413   0.00000   0.04645  -0.02682   0.00033
  17        2S          0.02202   0.00000   0.03385  -0.01954   0.00014
  18 4   H  1S          0.05413  -0.00000  -0.04645  -0.02682   0.00033
  19        2S          0.02202  -0.00000  -0.03385  -0.01954   0.00014
                          11        12        13        14        15
  11        4PX         0.00000
  12        4PY        -0.00000   0.00057
  13        4PZ         0.00000   0.00000   0.00057
  14 2   H  1S          0.00000   0.00000   0.00716   0.11726
  15        2S          0.00000   0.00000   0.00522   0.07675   0.05239
  16 3   H  1S         -0.00000   0.00620  -0.00358  -0.01796  -0.02177
  17        2S         -0.00000   0.00452  -0.00261  -0.02177  -0.01939
  18 4   H  1S          0.00000  -0.00620  -0.00358  -0.01796  -0.02177
  19        2S          0.00000  -0.00452  -0.00261  -0.02177  -0.01939
                          16        17        18        19
  16 3   H  1S          0.11726
  17        2S          0.07675   0.05240
  18 4   H  1S         -0.01796  -0.02177   0.11726
  19        2S         -0.02177  -0.01939   0.07675   0.05240
    Full Mulliken population analysis:
                           1         2         3         4         5
   1 1   C  1S          2.06152
   2        2S         -0.02033   0.31753
   3        2PX         0.00000   0.00000   0.35577
   4        2PY         0.00000   0.00000   0.00000   0.41012
   5        2PZ         0.00000   0.00000   0.00000   0.00000   0.41012
   6        3S         -0.03534   0.23905   0.00000   0.00000   0.00000
   7        3PX         0.00000   0.00000   0.16019   0.00000   0.00000
   8        3PY         0.00000   0.00000   0.00000   0.09861   0.00000
   9        3PZ         0.00000   0.00000   0.00000   0.00000   0.09861
  10        4S         -0.00009   0.00290   0.00000   0.00000   0.00000
  11        4PX         0.00000   0.00000   0.01150   0.00000   0.00000
  12        4PY         0.00000   0.00000   0.00000   0.00345   0.00000
  13        4PZ         0.00000   0.00000   0.00000   0.00000   0.00345
  14 2   H  1S         -0.00210   0.03363   0.00000   0.00000   0.09791
  15        2S         -0.00100   0.01804   0.00000   0.00000   0.04936
  16 3   H  1S         -0.00210   0.03363   0.00000   0.07344   0.02448
  17        2S         -0.00100   0.01804  -0.00000   0.03702   0.01234
  18 4   H  1S         -0.00210   0.03363  -0.00000   0.07344   0.02448
  19        2S         -0.00100   0.01804  -0.00000   0.03702   0.01234
                           6         7         8         9        10
   6        3S          0.28081
   7        3PX         0.00000   0.22220
   8        3PY         0.00000   0.00000   0.07317
   9        3PZ         0.00000   0.00000   0.00000   0.07317
  10        4S          0.00518   0.00000   0.00000   0.00000   0.00025
  11        4PX         0.00000   0.03248   0.00000   0.00000   0.00000
  12        4PY         0.00000   0.00000   0.00519   0.00000   0.00000
  13        4PZ         0.00000   0.00000   0.00000   0.00519   0.00000
  14 2   H  1S          0.04316   0.00000   0.00000   0.05750   0.00068
  15        2S          0.02370   0.00000   0.00000   0.04549   0.00038
  16 3   H  1S          0.04316  -0.00000   0.04313   0.01438   0.00068
  17        2S          0.02370   0.00000   0.03412   0.01137   0.00038
  18 4   H  1S          0.04316   0.00000   0.04313   0.01438   0.00068
  19        2S          0.02370   0.00000   0.03412   0.01137   0.00038
                          11        12        13        14        15
  11        4PX         0.01370
  12        4PY         0.00000   0.00107
  13        4PZ         0.00000   0.00000   0.00107
  14 2   H  1S          0.00000   0.00000   0.00285   0.22000
  15        2S          0.00000   0.00000   0.00414   0.08933   0.09008
  16 3   H  1S          0.00000   0.00214   0.00071  -0.00044  -0.00559
  17        2S          0.00000   0.00311   0.00104  -0.00559  -0.01326
  18 4   H  1S         -0.00000   0.00214   0.00071  -0.00044  -0.00559
  19        2S         -0.00000   0.00311   0.00104  -0.00559  -0.01326
                          16        17        18        19
  16 3   H  1S          0.21999
  17        2S          0.08933   0.09009
  18 4   H  1S         -0.00044  -0.00559   0.21999
  19        2S         -0.00559  -0.01326   0.08933   0.09009
     Gross orbital populations:
                         Total     Alpha     Beta      Spin
   1 1   C  1S          1.99646   0.99827   0.99819   0.00008
   2        2S          0.69416   0.35746   0.33670   0.02076
   3        2PX         0.52746   0.52746   0.00000   0.52746
   4        2PY         0.73308   0.37734   0.35574   0.02161
   5        2PZ         0.73308   0.37734   0.35574   0.02161
   6        3S          0.69028   0.38595   0.30433   0.08161
   7        3PX         0.41487   0.41487  -0.00000   0.41487
   8        3PY         0.33146   0.17632   0.15514   0.02118
   9        3PZ         0.33146   0.17632   0.15514   0.02118
  10        4S          0.01140   0.01002   0.00137   0.00865
  11        4PX         0.05767   0.05767   0.00000   0.05767
  12        4PY         0.02021   0.00973   0.01048  -0.00075
  13        4PZ         0.02021   0.00973   0.01048  -0.00075
  14 2   H  1S          0.53091   0.25372   0.27719  -0.02346
  15        2S          0.28182   0.12012   0.16171  -0.04159
  16 3   H  1S          0.53091   0.25372   0.27719  -0.02346
  17        2S          0.28183   0.12012   0.16171  -0.04159
  18 4   H  1S          0.53091   0.25372   0.27719  -0.02346
  19        2S          0.28183   0.12012   0.16171  -0.04159
          Condensed to atoms (all electrons):
              1          2          3          4
     1  C    5.440557   0.373747   0.373745   0.373745
     2  H    0.373747   0.488738  -0.024876  -0.024876
     3  H    0.373745  -0.024876   0.488744  -0.024876
     4  H    0.373745  -0.024876  -0.024876   0.488744
 Mulliken atomic charges:
              1
     1  C   -0.561794
     2  H    0.187268
     3  H    0.187263
     4  H    0.187263
 Sum of Mulliken atomic charges =   0.00000
 Mulliken charges with hydrogens summed into heavy atoms:
              1
     1  C    0.000000
 Sum of Mulliken charges with hydrogens summed into heavy atoms =   0.00000
          Atomic-Atomic Spin Densities.
              1          2          3          4
     1  C    1.233782  -0.012869  -0.012869  -0.012869
     2  H   -0.012869  -0.052653   0.000232   0.000232
     3  H   -0.012869   0.000232  -0.052654   0.000232
     4  H   -0.012869   0.000232   0.000232  -0.052654
 Mulliken atomic spin densities:
              1
     1  C    1.195174
     2  H   -0.065058
     3  H   -0.065058
     4  H   -0.065058
 Sum of Mulliken atomic spin densities =   1.00000
 Electronic spatial extent (au):  <R**2>=             30.3912
 Charge=              0.0000 electrons
 Dipole moment (field-independent basis, Debye):
    X=             -0.0000    Y=              0.0000    Z=              0.0000  Tot=              0.0000
 Quadrupole moment (field-independent basis, Debye-Ang):
   XX=             -9.3260   YY=             -7.2156   ZZ=             -7.2156
   XY=              0.0000   XZ=              0.0000   YZ=             -0.0000
 Traceless Quadrupole moment (field-independent basis, Debye-Ang):
   XX=             -1.4069   YY=              0.7035   ZZ=              0.7035
   XY=              0.0000   XZ=              0.0000   YZ=             -0.0000
 Octapole moment (field-independent basis, Debye-Ang**2):
  XXX=              0.0000  YYY=             -0.0000  ZZZ=              0.8982  XYY=             -0.0000
  XXY=             -0.0000  XXZ=             -0.0000  XZZ=              0.0000  YZZ=              0.0000
  YYZ=             -0.8982  XYZ=             -0.0000
 Hexadecapole moment (field-independent basis, Debye-Ang**3):
 XXXX=            -13.1451 YYYY=            -15.3234 ZZZZ=            -15.3233 XXXY=              0.0000
 XXXZ=             -0.0000 YYYX=              0.0000 YYYZ=              0.0000 ZZZX=             -0.0000
 ZZZY=              0.0000 XXYY=             -5.0924 XXZZ=             -5.0924 YYZZ=             -5.1078
 XXYZ=             -0.0000 YYXZ=              0.0000 ZZXY=              0.0000
 N-N= 9.579588592757D+00 E-N=-1.635310745416D+02  KE= 5.871737345892D+01
 Symmetry A    KE= 5.470337745754D+01
 Symmetry B    KE= 4.013996001376D+00
 Orbital energies and kinetic energies (alpha):
                                 1                 2
   1         O               -10.186372         15.958300
   2         O                -0.694723          1.342050
   3         O                -0.426558          0.986136
   4         O                -0.426558          0.986135
   5         O                -0.238951          1.098002
   6         V                 0.029134          0.378129
   7         V                 0.068430          0.233242
   8         V                 0.068434          0.233245
   9         V                 0.079869          0.305021
  10         V                 0.191053          0.930518
  11         V                 0.196444          0.805019
  12         V                 0.196445          0.805015
  13         V                 0.651695          1.948962
  14         V                 0.651695          1.948964
  15         V                 0.651839          2.143268
  16         V                 0.861823          1.816105
  17         V                 1.003707          2.646452
  18         V                 1.028621          2.573163
  19         V                 1.028622          2.573159
 Orbital energies and kinetic energies (beta):
                                 1                 2
   1         O               -10.171157         15.973152
   2         O                -0.649664          1.270363
   3         O                -0.415207          0.964931
   4         O                -0.415206          0.964929
   5         V                -0.067103          0.802201
   6         V                 0.041237          0.378277
   7         V                 0.071497          0.229785
   8         V                 0.071501          0.229789
   9         V                 0.112346          0.446588
  10         V                 0.202567          0.809710
  11         V                 0.202568          0.809707
  12         V                 0.213425          0.962284
  13         V                 0.667459          1.950097
  14         V                 0.667460          1.950094
  15         V                 0.734974          2.297502
  16         V                 0.894662          1.777970
  17         V                 1.019098          2.709508
  18         V                 1.030077          2.592001
  19         V                 1.030079          2.591997
 Total kinetic energy from orbitals= 3.954399811975D+01
                          Isotropic Fermi Contact Couplings
        Atom                 a.u.       MegaHertz       Gauss      10(-4) cm-1
     1  C(13)              0.14656     164.76659      58.79281      54.96022
     2  H(1)              -0.01866     -83.39306     -29.75672     -27.81693
     3  H(1)              -0.01866     -83.39380     -29.75698     -27.81718
     4  H(1)              -0.01866     -83.39380     -29.75698     -27.81718
 --------------------------------------------------------
       Center         ----  Spin Dipole Couplings  ----
                      3XX-RR        3YY-RR        3ZZ-RR
 --------------------------------------------------------
     1   Atom        1.045099     -0.522549     -0.522550
     2   Atom       -0.009089     -0.069869      0.078958
     3   Atom       -0.009089      0.041751     -0.032662
     4   Atom       -0.009089      0.041751     -0.032662
 --------------------------------------------------------
                        XY            XZ            YZ
 --------------------------------------------------------
     1   Atom        0.000000      0.000000      0.000000
     2   Atom        0.000000     -0.000000      0.000000
     3   Atom        0.000000     -0.000000     -0.064444
     4   Atom        0.000000      0.000000      0.064444
 --------------------------------------------------------


 ---------------------------------------------------------------------------------
              Anisotropic Spin Dipole Couplings in Principal Axis System
 ---------------------------------------------------------------------------------

       Atom             a.u.   MegaHertz   Gauss  10(-4) cm-1        Axes

              Baa    -0.5226   -70.121   -25.021   -23.390  0.0000  0.0000  1.0000
     1 C(13)  Bbb    -0.5225   -70.121   -25.021   -23.390 -0.0000  1.0000  0.0000
              Bcc     1.0451   140.242    50.042    46.780  1.0000  0.0000 -0.0000
 
              Baa    -0.0699   -37.279   -13.302   -12.435 -0.0000  1.0000 -0.0000
     2 H(1)   Bbb    -0.0091    -4.849    -1.730    -1.618  1.0000  0.0000  0.0000
              Bcc     0.0790    42.128    15.032    14.052  0.0000  0.0000  1.0000
 
              Baa    -0.0699   -37.279   -13.302   -12.435 -0.0000  0.5000  0.8660
     3 H(1)   Bbb    -0.0091    -4.849    -1.730    -1.618  1.0000 -0.0000  0.0000
              Bcc     0.0790    42.128    15.032    14.052  0.0000  0.8660 -0.5000
 
              Baa    -0.0699   -37.279   -13.302   -12.435  0.0000 -0.5000  0.8660
     4 H(1)   Bbb    -0.0091    -4.849    -1.730    -1.618  1.0000 -0.0000 -0.0000
              Bcc     0.0790    42.128    15.032    14.052  0.0000  0.8660  0.5000
 

 ---------------------------------------------------------------------------------

 No NMR shielding tensors so no spin-rotation constants.
 Leave Link  601 at Sat Aug 17 23:37:11 2024, MaxMem=   13107200 cpu:       0.2
 (Enter /programs/64bit/g09/g09-gfortran/bin/l701.exe)
 Compute integral first derivatives.
 ... and contract with generalized density number  0.
 Leave Link  701 at Sat Aug 17 23:37:12 2024, MaxMem=   13107200 cpu:       0.1
 (Enter /programs/64bit/g09/g09-gfortran/bin/l702.exe)
 L702 exits ... SP integral derivatives will be done elsewhere.
 Leave Link  702 at Sat Aug 17 23:37:12 2024, MaxMem=   13107200 cpu:       0.0
 (Enter /programs/64bit/g09/g09-gfortran/bin/l703.exe)
 Compute integral first derivatives, UseDBF=F ICtDFT=           0.
 Integral derivatives from FoFDir, PRISM(SPDF).
 Calling FoFJK, ICntrl=      2127 FMM=F ISym2X=1 I1Cent= 0 IOpClX= 1 NMat=1 NMatS=1 NMatT=0.
 FoFCou: FMM=F IPFlag=           0 FMFlag=      100000 FMFlg1=         800
         NFxFlg=           0 DoJE=F BraDBF=F KetDBF=F FulRan=T
         Omega=  0.000000  0.000000  1.000000  0.000000  0.000000 ICntrl=    2127 IOpCl=  1
         NMat0=    1 NMatS0=    1 NMatT0=    0 NMatD0=    1 NMtDS0=    0 NMtDT0=    0
         I1Cent=           0 NGrid=           0.
 Petite list used in FoFCou.
 Leave Link  703 at Sat Aug 17 23:37:12 2024, MaxMem=   13107200 cpu:       0.5
 (Enter /programs/64bit/g09/g09-gfortran/bin/l716.exe)
 Dipole        =-3.10175100D-17 0.00000000D+00 9.08486580D-07
 ***** Axes restored to original set *****
 -------------------------------------------------------------------
 Center     Atomic                   Forces (Hartrees/Bohr)
 Number     Number              X              Y              Z
 -------------------------------------------------------------------
      1        6           0.000000000    0.000000000   -0.000002263
      2        1          -0.000000000    0.000000000   -0.004795041
      3        1          -0.004151048   -0.000000000    0.002398652
      4        1           0.004151048    0.000000000    0.002398652
 -------------------------------------------------------------------
 Cartesian Forces:  Max     0.004795041 RMS     0.002397253
 Leave Link  716 at Sat Aug 17 23:37:12 2024, MaxMem=   13107200 cpu:       0.0
 (Enter /programs/64bit/g09/g09-gfortran/bin/l103.exe)

 GradGradGradGradGradGradGradGradGradGradGradGradGradGradGradGradGradGrad
 Berny optimization.
 Internal  Forces:  Max     0.004795041 RMS     0.003138741
 Search for a local minimum.
 Step number   1 out of a maximum of   20
 All quantities printed in internal units (Hartrees-Bohrs-Radians)
 RMS Force = .31387D-02 SwitMx=.10000D-02 MixMth= 1
 Mixed Optimization -- RFO/linear search
 Second derivative matrix not updated -- first step.
 The second derivative matrix:
                          R1        R2        R3        A1        A2
           R1           0.34813
           R2           0.00000   0.34813
           R3           0.00000   0.00000   0.34813
           A1           0.00000   0.00000   0.00000   0.16000
           A2           0.00000   0.00000   0.00000   0.00000   0.16000
           A3           0.00000   0.00000   0.00000   0.00000   0.00000
           D1           0.00000   0.00000   0.00000   0.00000   0.00000
                          A3        D1
           A3           0.16000
           D1           0.00000   0.00235
     Eigenvalues ---    0.00235   0.16000   0.16000   0.34813   0.34813
     Eigenvalues ---    0.348131000.00000
 RFO step:  Lambda=-1.97981754D-04 EMin= 2.34830060D-03
 Linear search not attempted -- first point.
 Iteration  1 RMS(Cart)=  0.00901097 RMS(Int)=  0.00000005
 Iteration  2 RMS(Cart)=  0.00000004 RMS(Int)=  0.00000000
 ClnCor:  largest displacement from symmetrization is 2.46D-11 for atom     1.
 Variable       Old X    -DE/DX   Delta X   Delta X   Delta X     New X
                                 (Linear)    (Quad)   (Total)
    R1        2.05980  -0.00480   0.00000  -0.01377  -0.01377   2.04604
    R2        2.05980  -0.00479   0.00000  -0.01376  -0.01376   2.04604
    R3        2.05980  -0.00479   0.00000  -0.01376  -0.01376   2.04604
    A1        2.09440  -0.00000   0.00000  -0.00001  -0.00001   2.09439
    A2        2.09440  -0.00000   0.00000  -0.00001  -0.00001   2.09439
    A3        2.09440   0.00000   0.00000   0.00002   0.00002   2.09441
    D1        3.14159   0.00000   0.00000   0.00000   0.00000   3.14159
         Item               Value     Threshold  Converged?
 Maximum Force            0.004795     0.000450     NO 
 RMS     Force            0.003139     0.000300     NO 
 Maximum Displacement     0.013772     0.001800     NO 
 RMS     Displacement     0.009011     0.001200     NO 
 Predicted change in Energy=-9.904717D-05
 GradGradGradGradGradGradGradGradGradGradGradGradGradGradGradGradGradGrad

 Leave Link  103 at Sat Aug 17 23:37:12 2024, MaxMem=   13107200 cpu:       0.0
 (Enter /programs/64bit/g09/g09-gfortran/bin/l202.exe)
                          Input orientation:                          
 ---------------------------------------------------------------------
 Center     Atomic      Atomic             Coordinates (Angstroms)
 Number     Number       Type             X           Y           Z
 ---------------------------------------------------------------------
      1          6           0        0.000000   -0.000000   -0.000003
      2          1           0        0.000000    0.000000    1.082712
      3          1           0        0.937664   -0.000000   -0.541354
      4          1           0       -0.937664    0.000000   -0.541354
 ---------------------------------------------------------------------
                    Distance matrix (angstroms):
                    1          2          3          4
     1  C    0.000000
     2  H    1.082715   0.000000
     3  H    1.082717   1.875315   0.000000
     4  H    1.082717   1.875315   1.875328   0.000000
 Stoichiometry    CH3(2)
 Framework group  C2[C2(CH),X(H2)]
 Deg. of freedom     3
 Prev. full point group           C2      NOp   2
 Prev. largest Abelian subgroup   C2      NOp   2
       concise Abelian subgroup   C2      NOp   2
                   Standard orientation:
 ---------------------------------------------------------------------
 Center     Atomic                     Coordinates (Angstroms)
 Number     Number                        X           Y           Z
 ---------------------------------------------------------------------
      1          6                    0.000000    0.000000   -0.000001
      2          1                    0.000000    0.000000    1.082714
      3          1                    0.000000    0.937664   -0.541353
      4          1                    0.000000   -0.937664   -0.541353
 ---------------------------------------------------------------------
 Rotational constants (GHZ):    285.1777870    285.1723658    142.5875382
 Leave Link  202 at Sat Aug 17 23:37:12 2024, MaxMem=   13107200 cpu:       0.0
 (Enter /programs/64bit/g09/g09-gfortran/bin/l301.exe)
 Standard basis: 6-31+G (6D, 7F)
 Ernie: Thresh=  0.10000D-02 Tol=  0.10000D-05 Strict=F.
 There are    11 symmetry adapted basis functions of A   symmetry.
 There are     8 symmetry adapted basis functions of B   symmetry.
 Integral buffers will be    131072 words long.
 Raffenetti 2 integral format.
 Two-electron integral symmetry is turned on.
    19 basis functions,    38 primitive gaussians,    19 cartesian basis functions
     5 alpha electrons        4 beta electrons
       nuclear repulsion energy         9.6440342142 Hartrees.
 IExCor=  408 DFT=T Ex+Corr=B3PW91 ExCW=0 ScaHFX=  0.200000
 ScaDFX=  0.800000  0.720000  1.000000  0.810000 ScalE2=  1.000000  1.000000
 IRadAn=      0 IRanWt=     -1 IRanGd=            0 ICorTp=0
 NAtoms=    4 NActive=    4 NUniq=    3 SFac= 1.33D+00 NAtFMM=   80 NAOKFM=F Big=F
 Leave Link  301 at Sat Aug 17 23:37:12 2024, MaxMem=   13107200 cpu:       0.1
 (Enter /programs/64bit/g09/g09-gfortran/bin/l302.exe)
 NPDir=0 NMtPBC=     1 NCelOv=     1 NCel=       1 NClECP=     1 NCelD=      1
         NCelK=      1 NCelE2=     1 NClLst=     1 CellRange=     0.0.
 One-electron integrals computed using PRISM.
 One-electron integral symmetry used in STVInt
 NBasis=    19 RedAO= T  NBF=    11     8
 NBsUse=    19 1.00D-06 NBFU=    11     8
 Precomputing XC quadrature grid using
 IXCGrd= 2 IRadAn=           0 IRanWt=          -1 IRanGd=           0 AccXCQ= 1.00D-10.
 NRdTot=     255 NPtTot=       32404 NUsed=       34254 NTot=       34286
 NSgBfM=    19    19    19    19    19 NAtAll=     4     4.
 Leave Link  302 at Sat Aug 17 23:37:13 2024, MaxMem=   13107200 cpu:       0.1
 (Enter /programs/64bit/g09/g09-gfortran/bin/l303.exe)
 DipDrv:  MaxL=1.
 Leave Link  303 at Sat Aug 17 23:37:13 2024, MaxMem=   13107200 cpu:       0.0
 (Enter /programs/64bit/g09/g09-gfortran/bin/l401.exe)
 Initial guess read from the read-write file.
 B after Tr=     0.000000    0.000000    0.000000
         Rot=    1.000000    0.000000    0.000000    0.000000 Ang=   0.00 deg.
 Guess basis will be translated and rotated to current coordinates.
 Initial guess orbital symmetries:
 Alpha Orbitals:
       Occupied  (A) (A) (A) (B) (B)
       Virtual   (A) (B) (A) (B) (A) (B) (A) (B) (A) (B) (A) (A)
                 (B) (A)
 Beta  Orbitals:
       Occupied  (A) (A) (A) (B)
       Virtual   (B) (A) (B) (A) (B) (B) (A) (A) (A) (B) (B) (A)
                 (A) (B) (A)
 The electronic state of the initial guess is 2-B.
 Initial guess <Sx>= 0.0000 <Sy>= 0.0000 <Sz>= 0.5000 <S**2>= 0.7536 S= 0.5018
 Leave Link  401 at Sat Aug 17 23:37:13 2024, MaxMem=   13107200 cpu:       0.1
 (Enter /programs/64bit/g09/g09-gfortran/bin/l502.exe)
 UHF open shell SCF:
 Requested convergence on RMS density matrix=1.00D-08 within 128 cycles.
 Requested convergence on MAX density matrix=1.00D-06.
 Requested convergence on             energy=1.00D-06.
 No special actions if energy rises.
 Using DIIS extrapolation, IDIIS=  1040.
 Integral symmetry usage will be decided dynamically.
        34205 words used for storage of precomputed grid.
 Keep R1 and R2 ints in memory in canonical form, NReq=948271.
 IEnd=       53992 IEndB=       53992 NGot=    13107200 MDV=    13033993
 LenX=    13033993 LenY=    13033111
 Symmetry not used in FoFDir.
 MinBra= 0 MaxBra= 1 Meth= 1.
 IRaf=       0 NMat=   1 IRICut=       1 DoRegI=T DoRafI=F ISym2E= 0 JSym2E=0.

 Cycle   1  Pass 1  IDiag  1:
 E= -39.8195038071898    
 DIIS: error= 7.99D-04 at cycle   1 NSaved=   1.
 NSaved= 1 IEnMin= 1 EnMin= -39.8195038071898     IErMin= 1 ErrMin= 7.99D-04
 ErrMax= 7.99D-04 EMaxC= 1.00D-01 BMatC= 6.94D-05 BMatP= 6.94D-05
 IDIUse=3 WtCom= 9.92D-01 WtEn= 7.99D-03
 Coeff-Com:  0.100D+01
 Coeff-En:   0.100D+01
 Coeff:      0.100D+01
 Gap=     0.270 Goal=   None    Shift=    0.000
 Gap=     0.350 Goal=   None    Shift=    0.000
 RMSDP=3.17D-04 MaxDP=2.21D-03              OVMax= 2.83D-03

 Cycle   2  Pass 1  IDiag  1:
 E= -39.8195178433634     Delta-E=       -0.000014036174 Rises=F Damp=F
 DIIS: error= 6.65D-04 at cycle   2 NSaved=   2.
 NSaved= 2 IEnMin= 2 EnMin= -39.8195178433634     IErMin= 2 ErrMin= 6.65D-04
 ErrMax= 6.65D-04 EMaxC= 1.00D-01 BMatC= 3.43D-05 BMatP= 6.94D-05
 IDIUse=3 WtCom= 9.93D-01 WtEn= 6.65D-03
 Coeff-Com:  0.396D+00 0.604D+00
 Coeff-En:   0.154D+00 0.846D+00
 Coeff:      0.394D+00 0.606D+00
 Gap=     0.268 Goal=   None    Shift=    0.000
 Gap=     0.350 Goal=   None    Shift=    0.000
 RMSDP=1.54D-04 MaxDP=1.77D-03 DE=-1.40D-05 OVMax= 1.62D-03

 Cycle   3  Pass 1  IDiag  1:
 E= -39.8195274907015     Delta-E=       -0.000009647338 Rises=F Damp=F
 DIIS: error= 1.48D-04 at cycle   3 NSaved=   3.
 NSaved= 3 IEnMin= 3 EnMin= -39.8195274907015     IErMin= 3 ErrMin= 1.48D-04
 ErrMax= 1.48D-04 EMaxC= 1.00D-01 BMatC= 1.91D-06 BMatP= 3.43D-05
 IDIUse=3 WtCom= 9.99D-01 WtEn= 1.48D-03
 Coeff-Com:  0.141D-01 0.196D+00 0.790D+00
 Coeff-En:   0.000D+00 0.000D+00 0.100D+01
 Coeff:      0.141D-01 0.196D+00 0.790D+00
 Gap=     0.268 Goal=   None    Shift=    0.000
 Gap=     0.350 Goal=   None    Shift=    0.000
 RMSDP=2.69D-05 MaxDP=2.33D-04 DE=-9.65D-06 OVMax= 2.48D-04

 Cycle   4  Pass 1  IDiag  1:
 E= -39.8195280236253     Delta-E=       -0.000000532924 Rises=F Damp=F
 DIIS: error= 8.21D-06 at cycle   4 NSaved=   4.
 NSaved= 4 IEnMin= 4 EnMin= -39.8195280236253     IErMin= 4 ErrMin= 8.21D-06
 ErrMax= 8.21D-06 EMaxC= 1.00D-01 BMatC= 4.34D-09 BMatP= 1.91D-06
 IDIUse=1 WtCom= 1.00D+00 WtEn= 0.00D+00
 Coeff-Com: -0.611D-02-0.256D-01-0.117D+00 0.115D+01
 Coeff:     -0.611D-02-0.256D-01-0.117D+00 0.115D+01
 Gap=     0.268 Goal=   None    Shift=    0.000
 Gap=     0.350 Goal=   None    Shift=    0.000
 RMSDP=3.27D-06 MaxDP=4.59D-05 DE=-5.33D-07 OVMax= 4.59D-05

 Cycle   5  Pass 1  IDiag  1:
 E= -39.8195280266397     Delta-E=       -0.000000003014 Rises=F Damp=F
 DIIS: error= 1.24D-06 at cycle   5 NSaved=   5.
 NSaved= 5 IEnMin= 5 EnMin= -39.8195280266397     IErMin= 5 ErrMin= 1.24D-06
 ErrMax= 1.24D-06 EMaxC= 1.00D-01 BMatC= 1.19D-10 BMatP= 4.34D-09
 IDIUse=1 WtCom= 1.00D+00 WtEn= 0.00D+00
 Coeff-Com:  0.129D-02 0.269D-02 0.138D-01-0.292D+00 0.127D+01
 Coeff:      0.129D-02 0.269D-02 0.138D-01-0.292D+00 0.127D+01
 Gap=     0.268 Goal=   None    Shift=    0.000
 Gap=     0.350 Goal=   None    Shift=    0.000
 RMSDP=7.03D-07 MaxDP=7.41D-06 DE=-3.01D-09 OVMax= 8.10D-06

 Cycle   6  Pass 1  IDiag  1:
 E= -39.8195280267502     Delta-E=       -0.000000000110 Rises=F Damp=F
 DIIS: error= 2.61D-07 at cycle   6 NSaved=   6.
 NSaved= 6 IEnMin= 6 EnMin= -39.8195280267502     IErMin= 6 ErrMin= 2.61D-07
 ErrMax= 2.61D-07 EMaxC= 1.00D-01 BMatC= 4.32D-12 BMatP= 1.19D-10
 IDIUse=1 WtCom= 1.00D+00 WtEn= 0.00D+00
 Coeff-Com: -0.328D-03-0.323D-03-0.202D-02 0.823D-01-0.502D+00 0.142D+01
 Coeff:     -0.328D-03-0.323D-03-0.202D-02 0.823D-01-0.502D+00 0.142D+01
 Gap=     0.268 Goal=   None    Shift=    0.000
 Gap=     0.350 Goal=   None    Shift=    0.000
 RMSDP=1.68D-07 MaxDP=1.03D-06 DE=-1.10D-10 OVMax= 1.31D-06

 Cycle   7  Pass 1  IDiag  1:
 E= -39.8195280267541     Delta-E=       -0.000000000004 Rises=F Damp=F
 DIIS: error= 1.17D-08 at cycle   7 NSaved=   7.
 NSaved= 7 IEnMin= 7 EnMin= -39.8195280267541     IErMin= 7 ErrMin= 1.17D-08
 ErrMax= 1.17D-08 EMaxC= 1.00D-01 BMatC= 1.17D-14 BMatP= 4.32D-12
 IDIUse=1 WtCom= 1.00D+00 WtEn= 0.00D+00
 Coeff-Com:  0.341D-04 0.146D-04 0.146D-03-0.869D-02 0.595D-01-0.202D+00
 Coeff-Com:  0.115D+01
 Coeff:      0.341D-04 0.146D-04 0.146D-03-0.869D-02 0.595D-01-0.202D+00
 Coeff:      0.115D+01
 Gap=     0.268 Goal=   None    Shift=    0.000
 Gap=     0.350 Goal=   None    Shift=    0.000
 RMSDP=8.01D-09 MaxDP=3.41D-08 DE=-3.97D-12 OVMax= 5.47D-08

 SCF Done:  E(UB3PW91) =  -39.8195280268     A.U. after    7 cycles
             Convg  =    0.8010D-08             -V/T =  2.0062
 <Sx>= 0.0000 <Sy>= 0.0000 <Sz>= 0.5000 <S**2>= 0.7536 S= 0.5018
 <L.S>=  0.00000000000    
 KE= 3.957369090480D+01 PE=-1.111201739110D+02 EE= 2.208292076527D+01
 Annihilation of the first spin contaminant:
 S**2 before annihilation     0.7536,   after     0.7500
 Leave Link  502 at Sat Aug 17 23:37:15 2024, MaxMem=   13107200 cpu:       1.8
 (Enter /programs/64bit/g09/g09-gfortran/bin/l701.exe)
 Compute integral first derivatives.
 ... and contract with generalized density number  0.
 Leave Link  701 at Sat Aug 17 23:37:15 2024, MaxMem=   13107200 cpu:       0.1
 (Enter /programs/64bit/g09/g09-gfortran/bin/l702.exe)
 L702 exits ... SP integral derivatives will be done elsewhere.
 Leave Link  702 at Sat Aug 17 23:37:15 2024, MaxMem=   13107200 cpu:       0.0
 (Enter /programs/64bit/g09/g09-gfortran/bin/l703.exe)
 Compute integral first derivatives, UseDBF=F ICtDFT=           0.
 Integral derivatives from FoFDir, PRISM(SPDF).
 Calling FoFJK, ICntrl=      2127 FMM=F ISym2X=1 I1Cent= 0 IOpClX= 1 NMat=1 NMatS=1 NMatT=0.
 FoFCou: FMM=F IPFlag=           0 FMFlag=      100000 FMFlg1=         800
         NFxFlg=           0 DoJE=F BraDBF=F KetDBF=F FulRan=T
         Omega=  0.000000  0.000000  1.000000  0.000000  0.000000 ICntrl=    2127 IOpCl=  1
         NMat0=    1 NMatS0=    1 NMatT0=    0 NMatD0=    1 NMtDS0=    0 NMtDT0=    0
         I1Cent=           0 NGrid=           0.
 Petite list used in FoFCou.
 Leave Link  703 at Sat Aug 17 23:37:15 2024, MaxMem=   13107200 cpu:       0.5
 (Enter /programs/64bit/g09/g09-gfortran/bin/l716.exe)
 Dipole        =-3.94430453D-31 1.66200387D-12 2.96413036D-06
 ***** Axes restored to original set *****
 -------------------------------------------------------------------
 Center     Atomic                   Forces (Hartrees/Bohr)
 Number     Number              X              Y              Z
 -------------------------------------------------------------------
      1        6           0.000000000    0.000000000   -0.000002027
      2        1           0.000000000    0.000000000    0.000281779
      3        1           0.000244061   -0.000000000   -0.000139876
      4        1          -0.000244061    0.000000000   -0.000139876
 -------------------------------------------------------------------
 Cartesian Forces:  Max     0.000281779 RMS     0.000140732
 Leave Link  716 at Sat Aug 17 23:37:15 2024, MaxMem=   13107200 cpu:       0.0
 (Enter /programs/64bit/g09/g09-gfortran/bin/l103.exe)

 GradGradGradGradGradGradGradGradGradGradGradGradGradGradGradGradGradGrad
 Berny optimization.
 Using GEDIIS/GDIIS optimizer.
 Internal  Forces:  Max     0.000281779 RMS     0.000184260
 Search for a local minimum.
 Step number   2 out of a maximum of   20
 All quantities printed in internal units (Hartrees-Bohrs-Radians)
 RMS Force = .18426D-03 SwitMx=.10000D-02 MixMth= 2
 Mixed Optimization -- En-DIIS/RFO-DIIS
 Update second derivatives using D2CorX and points    1    2
 DE= -9.39D-05 DEPred=-9.90D-05 R= 9.48D-01
 SS=  1.41D+00  RLast= 2.38D-02 DXNew= 5.0454D-01 7.1522D-02
 Trust test= 9.48D-01 RLast= 2.38D-02 DXMaxT set to 3.00D-01
 The second derivative matrix:
                          R1        R2        R3        A1        A2
           R1           0.35502
           R2           0.00689   0.35500
           R3           0.00689   0.00687   0.35500
           A1          -0.00001  -0.00001  -0.00001   0.16000
           A2          -0.00001  -0.00001  -0.00001  -0.00000   0.16000
           A3           0.00003   0.00003   0.00003   0.00000   0.00000
           D1          -0.00000  -0.00000  -0.00000  -0.00000  -0.00000
                          A3        D1
           A3           0.16000
           D1           0.00000   0.00235
 Use linear search instead of GDIIS.
     Eigenvalues ---    0.00235   0.16000   0.16000   0.34813   0.34813
     Eigenvalues ---    0.368771000.00000
 RFO step:  Lambda= 0.00000000D+00 EMin= 2.34830060D-03
 Quartic linear search produced a step of -0.05437.
 Iteration  1 RMS(Cart)=  0.00048994 RMS(Int)=  0.00000000
 Iteration  2 RMS(Cart)=  0.00000000 RMS(Int)=  0.00000000
 ClnCor:  largest displacement from symmetrization is 5.01D-11 for atom     4.
 Variable       Old X    -DE/DX   Delta X   Delta X   Delta X     New X
                                 (Linear)    (Quad)   (Total)
    R1        2.04604   0.00028   0.00075   0.00000   0.00075   2.04678
    R2        2.04604   0.00028   0.00075  -0.00000   0.00075   2.04679
    R3        2.04604   0.00028   0.00075  -0.00000   0.00075   2.04679
    A1        2.09439  -0.00000   0.00000  -0.00000  -0.00000   2.09438
    A2        2.09439  -0.00000   0.00000  -0.00000  -0.00000   2.09438
    A3        2.09441   0.00000  -0.00000   0.00001   0.00001   2.09442
    D1        3.14159   0.00000   0.00000   0.00000   0.00000   3.14159
         Item               Value     Threshold  Converged?
 Maximum Force            0.000282     0.000450     YES
 RMS     Force            0.000184     0.000300     YES
 Maximum Displacement     0.000746     0.001800     YES
 RMS     Displacement     0.000490     0.001200     YES
 Predicted change in Energy=-3.221146D-07
 Optimization completed.
    -- Stationary point found.
                           ----------------------------
                           !   Optimized Parameters   !
                           ! (Angstroms and Degrees)  !
 --------------------------                            --------------------------
 ! Name  Definition              Value          Derivative Info.                !
 --------------------------------------------------------------------------------
 ! R1    R(1,2)                  1.0827         -DE/DX =    0.0003              !
 ! R2    R(1,3)                  1.0827         -DE/DX =    0.0003              !
 ! R3    R(1,4)                  1.0827         -DE/DX =    0.0003              !
 ! A1    A(2,1,3)              119.9996         -DE/DX =    0.0                 !
 ! A2    A(2,1,4)              119.9996         -DE/DX =    0.0                 !
 ! A3    A(3,1,4)              120.0009         -DE/DX =    0.0                 !
 ! D1    D(2,1,4,3)            180.0            -DE/DX =    0.0                 !
 --------------------------------------------------------------------------------
 GradGradGradGradGradGradGradGradGradGradGradGradGradGradGradGradGradGrad

 Largest change from initial coordinates is atom    2       0.007 Angstoms.
 Leave Link  103 at Sat Aug 17 23:37:15 2024, MaxMem=   13107200 cpu:       0.0
 (Enter /programs/64bit/g09/g09-gfortran/bin/l202.exe)
                          Input orientation:                          
 ---------------------------------------------------------------------
 Center     Atomic      Atomic             Coordinates (Angstroms)
 Number     Number       Type             X           Y           Z
 ---------------------------------------------------------------------
      1          6           0        0.000000    0.000000   -0.000003
      2          1           0        0.000000    0.000000    1.082712
      3          1           0        0.937664    0.000000   -0.541354
      4          1           0       -0.937664    0.000000   -0.541354
 ---------------------------------------------------------------------
                    Distance matrix (angstroms):
                    1          2          3          4
     1  C    0.000000
     2  H    1.082715   0.000000
     3  H    1.082717   1.875315   0.000000
     4  H    1.082717   1.875315   1.875328   0.000000
 Stoichiometry    CH3(2)
 Framework group  C2[C2(CH),X(H2)]
 Deg. of freedom     3
 Prev. full point group           C2      NOp   2
 Prev. largest Abelian subgroup   C2      NOp   2
       concise Abelian subgroup   C2      NOp   2
                   Standard orientation:
 ---------------------------------------------------------------------
 Center     Atomic                     Coordinates (Angstroms)
 Number     Number                        X           Y           Z
 ---------------------------------------------------------------------
      1          6                    0.000000    0.000000   -0.000001
      2          1                    0.000000   -0.000000    1.082714
      3          1                    0.000000    0.937664   -0.541352
      4          1                    0.000000   -0.937664   -0.541353
 ---------------------------------------------------------------------
 TstSym:  Max error for IOp=  2 IAt=    2 Err= 6.64D-07
 TstSym:  IOp=  3 I=    5 IP=    3 Err= 6.64D-07
  CI=  0.000000000000D+00  0.000000000000D+00  0.000000000000D+00
   T=  4.064793500561D-23  3.319155778949D-07  2.046032733681D+00
 CIP=  0.000000000000D+00  1.771928604016D+00 -1.023007889212D+00
 Unable to use previous symmetry information.  Redetermining point group.
 No symmetry information on checkpoint file.  Reassigning symmetry.
 Symm:  InNGrp=C3V  InAxis=0.
 Stoichiometry    CH3(2)
 Framework group  C1[X(CH3)]
 Deg. of freedom     6
 Full point group                 C1      NOp   1
 Omega: Change in point group or standard orientation.

 Old FWG=C02  [C2(C1H1),X(H2)]
 New FWG=C01  [X(C1H3)]
 Largest Abelian subgroup         C1      NOp   1
 Largest concise Abelian subgroup C1      NOp   1
                         Standard orientation:                         
 ---------------------------------------------------------------------
 Center     Atomic      Atomic             Coordinates (Angstroms)
 Number     Number       Type             X           Y           Z
 ---------------------------------------------------------------------
      1          6           0        0.000000    0.000001   -0.000000
      2          1           0       -0.000000   -1.082714   -0.000000
      3          1           0       -0.937664    0.541353   -0.000000
      4          1           0        0.937664    0.541352    0.000000
 ---------------------------------------------------------------------
 Rotational constants (GHZ):    285.1777870    285.1723658    142.5875382
 Leave Link  202 at Sat Aug 17 23:37:15 2024, MaxMem=   13107200 cpu:       0.0
 (Enter /programs/64bit/g09/g09-gfortran/bin/l601.exe)
 Copying SCF densities to generalized density rwf, IOpCl= 1 IROHF=0.

 **********************************************************************

            Population analysis using the SCF density.

 **********************************************************************

 Orbital symmetries:
 Alpha Orbitals:
       Occupied  (A) (A) (A) (A) (A)
       Virtual   (A) (A) (A) (A) (A) (A) (A) (A) (A) (A) (A) (A)
                 (A) (A)
 Beta  Orbitals:
       Occupied  (A) (A) (A) (A)
       Virtual   (A) (A) (A) (A) (A) (A) (A) (A) (A) (A) (A) (A)
                 (A) (A) (A)
 The electronic state is 2-A.
 Alpha  occ. eigenvalues --  -10.18416  -0.69660  -0.42804  -0.42804  -0.23890
 Alpha virt. eigenvalues --    0.02956   0.06845   0.06846   0.07991   0.19433
 Alpha virt. eigenvalues --    0.19886   0.19886   0.65017   0.65017   0.65226
 Alpha virt. eigenvalues --    0.85953   1.01075   1.03354   1.03355
  Beta  occ. eigenvalues --  -10.16897  -0.65165  -0.41663  -0.41662
  Beta virt. eigenvalues --   -0.06708   0.04164   0.07152   0.07152   0.11238
  Beta virt. eigenvalues --    0.20494   0.20494   0.21678   0.66580   0.66580
  Beta virt. eigenvalues --    0.73541   0.89242   1.02655   1.03524   1.03524
     Alpha Molecular Orbital Coefficients:
                           1         2         3         4         5
                           O         O         O         O         O
     Eigenvalues --   -10.18416  -0.69660  -0.42804  -0.42804  -0.23890
   1 1   C  1S          0.99500  -0.20564   0.00000   0.00000   0.00000
   2        2S          0.03458   0.40494   0.00000  -0.00000   0.00000
   3        2PX         0.00000   0.00000  -0.00000   0.00000   0.59629
   4        2PY         0.00000   0.00000   0.46346   0.00000   0.00000
   5        2PZ         0.00000   0.00000   0.00000   0.46346   0.00000
   6        3S         -0.02173   0.41265   0.00000   0.00000   0.00000
[...]
 --------------------------------------------------------


 ---------------------------------------------------------------------------------
              Anisotropic Spin Dipole Couplings in Principal Axis System
 ---------------------------------------------------------------------------------

       Atom             a.u.   MegaHertz   Gauss  10(-4) cm-1        Axes

              Baa    -0.5226   -70.134   -25.025   -23.394  0.0000  1.0000 -0.0000
     1 C(13)  Bbb    -0.5226   -70.134   -25.025   -23.394  1.0000 -0.0000  0.0000
              Bcc     1.0453   140.267    50.051    46.788  0.0000  0.0000  1.0000
 
              Baa    -0.0707   -37.714   -13.457   -12.580  1.0000 -0.0000  0.0000
     2 H(1)   Bbb    -0.0086    -4.572    -1.631    -1.525  0.0000  0.0000  1.0000
              Bcc     0.0793    42.286    15.089    14.105  0.0000  1.0000 -0.0000
 
              Baa    -0.0707   -37.714   -13.457   -12.580 -0.5000  0.8660 -0.0000
     3 H(1)   Bbb    -0.0086    -4.572    -1.631    -1.525  0.0000  0.0000  1.0000
              Bcc     0.0793    42.286    15.089    14.105  0.8660  0.5000 -0.0000
 
              Baa    -0.0707   -37.714   -13.457   -12.580  0.5000  0.8660 -0.0000
     4 H(1)   Bbb    -0.0086    -4.572    -1.631    -1.525  0.0000  0.0000  1.0000
              Bcc     0.0793    42.286    15.089    14.105  0.8660 -0.5000  0.0000
 

 ---------------------------------------------------------------------------------

 No NMR shielding tensors so no spin-rotation constants.
 Leave Link  601 at Sat Aug 17 23:37:24 2024, MaxMem=   13107200 cpu:       0.2
 (Enter /programs/64bit/g09/g09-gfortran/bin/l701.exe)
 Compute integral second derivatives.
 ... and contract with generalized density number  0.
 Leave Link  701 at Sat Aug 17 23:37:24 2024, MaxMem=   13107200 cpu:       0.1
 (Enter /programs/64bit/g09/g09-gfortran/bin/l702.exe)
 L702 exits ... SP integral derivatives will be done elsewhere.
 Leave Link  702 at Sat Aug 17 23:37:24 2024, MaxMem=   13107200 cpu:       0.0
 (Enter /programs/64bit/g09/g09-gfortran/bin/l703.exe)
 Compute integral second derivatives, UseDBF=F ICtDFT=           0.
 Integral derivatives from FoFDir, PRISM(SPDF).
 Calling FoFJK, ICntrl=    100127 FMM=F ISym2X=1 I1Cent= 0 IOpClX= 1 NMat=1 NMatS=1 NMatT=0.
 FoFCou: FMM=F IPFlag=           0 FMFlag=      100000 FMFlg1=         800
         NFxFlg=           0 DoJE=F BraDBF=F KetDBF=F FulRan=T
         Omega=  0.000000  0.000000  1.000000  0.000000  0.000000 ICntrl=  100127 IOpCl=  1
         NMat0=    1 NMatS0=    1 NMatT0=    0 NMatD0=    1 NMtDS0=    0 NMtDT0=    0
         I1Cent=           0 NGrid=           0.
 Petite list used in FoFCou.
 Leave Link  703 at Sat Aug 17 23:37:27 2024, MaxMem=   13107200 cpu:       2.2
 (Enter /programs/64bit/g09/g09-gfortran/bin/l716.exe)
 Dipole        =-6.85670964D-12-2.95732037D-06-3.76646187D-32
 Polarizability= 1.21962771D+01 4.15769556D-10 1.21965400D+01
                 1.75446199D-11 9.85293751D-11 1.02524065D+01
 Full mass-weighted force constant matrix:
 Low frequencies ---  -71.2668  -61.0479  -58.9422   -0.0013    0.0003    0.0007
 Low frequencies ---  581.7549 1428.4520 1428.5897
 Diagonal vibrational polarizability:
        0.1238588       0.1238748      10.6336671
 Harmonic frequencies (cm**-1), IR intensities (KM/Mole), Raman scattering
 activities (A**4/AMU), depolarization ratios for plane and unpolarized
 incident light, reduced masses (AMU), force constants (mDyne/A),
 and normal coordinates:
                     1                      2                      3
                    A"                     A'                     A'
 Frequencies --   581.7545              1428.4520              1428.5897
 Red. masses --     1.2356                 1.1032                 1.1032
 Frc consts  --     0.2464                 1.3263                 1.3266
 IR Inten    --   133.7302                 8.1006                 8.1020
  Atom  AN      X      Y      Z        X      Y      Z        X      Y      Z
     1   6     0.00   0.00   0.14    -0.09  -0.00   0.00    -0.00   0.09  -0.00
     2   1    -0.00   0.00  -0.57     0.81  -0.00  -0.00     0.00   0.07   0.00
     3   1     0.00   0.00  -0.57     0.15  -0.38  -0.00     0.38  -0.59   0.00
     4   1    -0.00  -0.00  -0.57     0.15   0.38  -0.00    -0.38  -0.59   0.00
                     4                      5                      6
                    A'                     A'                     A'
 Frequencies --  3142.0696              3336.9352              3336.9392
 Red. masses --     1.0078                 1.1172                 1.1172
 Frc consts  --     5.8623                 7.3294                 7.3293
 IR Inten    --     0.0000                 7.0436                 7.0509
  Atom  AN      X      Y      Z        X      Y      Z        X      Y      Z
     1   6     0.00  -0.00  -0.00     0.10  -0.00   0.00     0.00   0.10   0.00
     2   1    -0.00  -0.58   0.00     0.02   0.00  -0.00     0.00  -0.81  -0.00
     3   1     0.50   0.29   0.00    -0.60  -0.36  -0.00    -0.36  -0.19  -0.00
     4   1    -0.50   0.29   0.00    -0.60   0.36  -0.00     0.36  -0.19  -0.00

 -------------------
 - Thermochemistry -
 -------------------
 Temperature   298.150 Kelvin.  Pressure   1.00000 Atm.
 Atom     1 has atomic number  6 and mass  12.00000
 Atom     2 has atomic number  1 and mass   1.00783
 Atom     3 has atomic number  1 and mass   1.00783
 Atom     4 has atomic number  1 and mass   1.00783
 Molecular mass:    15.02348 amu.
 Principal axes and moments of inertia in atomic units:
                           1         2         3
     Eigenvalues --     6.32848   6.32860  12.65708
           X            1.00000   0.00000   0.00000
           Y           -0.00000   1.00000   0.00000
           Z            0.00000  -0.00000   1.00000
 This molecule is an asymmetric top.
 Rotational symmetry number  1.
 Rotational temperatures (Kelvin)     13.68636    13.68610     6.84311
 Rotational constants (GHZ):         285.17779   285.17237   142.58754
 Zero-point vibrational energy      79281.0 (Joules/Mol)
                                   18.94860 (Kcal/Mol)
 Warning -- explicit consideration of   1 degrees of freedom as
           vibrations may cause significant error
 Vibrational temperatures:    837.01  2055.22  2055.42  4520.73  4801.10
          (Kelvin)           4801.11
 
 Zero-point correction=                           0.030197 (Hartree/Particle)
 Thermal correction to Energy=                    0.033213
 Thermal correction to Enthalpy=                  0.034157
 Thermal correction to Gibbs Free Energy=         0.010424
 Sum of electronic and zero-point Energies=            -39.789332
 Sum of electronic and thermal Energies=               -39.786315
 Sum of electronic and thermal Enthalpies=             -39.785371
 Sum of electronic and thermal Free Energies=          -39.809104
 
                     E (Thermal)             CV                S
                      KCal/Mol        Cal/Mol-Kelvin    Cal/Mol-Kelvin
 Total                   20.841              7.225             49.951
 Electronic               0.000              0.000              1.377
 Translational            0.889              2.981             34.068
 Rotational               0.889              2.981             13.991
 Vibrational             19.064              1.263              0.514
 Vibration     1          0.939              1.071              0.482
                       Q            Log10(Q)             Ln(Q)
 Total Bot       0.160500D-04         -4.794526        -11.039804
 Total V=0       0.124417D+10          9.094879         20.941734
 Vib (Bot)       0.137568D-13        -13.861483        -31.917245
 Vib (Bot)    1  0.261475D+00         -0.582570         -1.341416
 Vib (V=0)       0.106640D+01          0.027922          0.064293
 Vib (V=0)    1  0.106424D+01          0.027040          0.062263
 Electronic      0.200000D+01          0.301030          0.693147
 Translational   0.228882D+07          6.359611         14.643545
 Rotational      0.254869D+03          2.406316          5.540748
 
                                          methyl with imposed symmetry and 6-31+G
  basis set
                                                             IR Spectrum
 
      3      3                                                                1                                                      
      3      1                                                                4                               5                      
      3      4                                                                2                               8                      
      7      2                                                                8                               2                      
 
      X                                                                       X                               X                      
      X                                                                       X                               X                      
                                                                                                              X                      
                                                                                                              X                      
                                                                                                              X                      
                                                                                                              X                      
                                                                                                              X                      
                                                                                                              X                      
                                                                                                              X                      
                                                                                                              X                      
                                                                                                              X                      
                                                                                                              X                      
                                                                                                              X                      
                                                                                                              X                      
                                                                                                              X                      
                                                                                                              X                      
                                                                                                              X                      
                                                                                                              X                      
                                                                                                              X                      
                                                                                                              X                      
 
 ***** Axes restored to original set *****
 -------------------------------------------------------------------
 Center     Atomic                   Forces (Hartrees/Bohr)
 Number     Number              X              Y              Z
 -------------------------------------------------------------------
      1        6           0.000000000    0.000000000   -0.000002029
      2        1          -0.000000000   -0.000000000    0.000281779
      3        1           0.000244061    0.000000000   -0.000139875
      4        1          -0.000244061   -0.000000000   -0.000139875
 -------------------------------------------------------------------
 Cartesian Forces:  Max     0.000281779 RMS     0.000140732
 Force constants in Cartesian coordinates: 
                1             2             3             4             5 
      1  0.627817D+00
      2  0.000000D+00  0.309306D-01
      3  0.000000D+00  0.000000D+00  0.627782D+00
      4 -0.545530D-01  0.000000D+00  0.000000D+00  0.467373D-01
      5  0.000000D+00 -0.103292D-01  0.000000D+00  0.000000D+00  0.336109D-02
      6  0.000000D+00  0.000000D+00 -0.363973D+00  0.000000D+00  0.000000D+00
      7 -0.286632D+00  0.000000D+00  0.133963D+00  0.390785D-02  0.000000D+00
      8  0.000000D+00 -0.103007D-01  0.000000D+00  0.000000D+00  0.348406D-02
      9  0.133966D+00  0.000000D+00 -0.131905D+00  0.248160D-01  0.000000D+00
     10 -0.286632D+00  0.000000D+00 -0.133963D+00  0.390785D-02  0.000000D+00
     11  0.000000D+00 -0.103007D-01  0.000000D+00  0.000000D+00  0.348406D-02
     12 -0.133966D+00  0.000000D+00 -0.131905D+00 -0.248160D-01  0.000000D+00
                6             7             8             9            10 
      6  0.378584D+00
      7 -0.539653D-02  0.295636D+00
      8  0.000000D+00  0.000000D+00  0.331146D-02
      9 -0.730590D-02 -0.143674D+00  0.000000D+00  0.129696D+00
     10  0.539653D-02 -0.129116D-01  0.000000D+00 -0.151075D-01  0.295636D+00
     11  0.000000D+00  0.000000D+00  0.350517D-02  0.000000D+00  0.000000D+00
     12 -0.730590D-02  0.151075D-01  0.000000D+00  0.951415D-02  0.143674D+00
               11            12 
     11  0.331146D-02
     12  0.000000D+00  0.129696D+00
 Force constants in internal coordinates: 
                1             2             3             4             5 
      1  0.378584D+00
      2 -0.102065D-02  0.378576D+00
      3 -0.102065D-02 -0.102107D-02  0.378576D+00
      4  0.615541D-02  0.614489D-02 -0.123094D-01  0.654261D-01
      5  0.615541D-02 -0.123094D-01  0.614489D-02 -0.327081D-01  0.654261D-01
      6 -0.123108D-01  0.616448D-02  0.616448D-02 -0.327180D-01 -0.327180D-01
      7  0.000000D+00  0.000000D+00  0.000000D+00  0.000000D+00  0.000000D+00
                6             7 
      6  0.654359D-01
      7  0.000000D+00  0.109342D-01
 Leave Link  716 at Sat Aug 17 23:37:27 2024, MaxMem=   13107200 cpu:       0.0
 (Enter /programs/64bit/g09/g09-gfortran/bin/l103.exe)

 GradGradGradGradGradGradGradGradGradGradGradGradGradGradGradGradGradGrad
 Berny optimization.
 Internal  Forces:  Max     0.000281779 RMS     0.000184260
 Search for a local minimum.
 Step number   1 out of a maximum of    2
 All quantities printed in internal units (Hartrees-Bohrs-Radians)
 Second derivative matrix not updated -- analytic derivatives used.
 The second derivative matrix:
                          R1        R2        R3        A1        A2
           R1           0.37858
           R2          -0.00102   0.37858
           R3          -0.00102  -0.00102   0.37858
           A1           0.00616   0.00614  -0.01231   0.06543
           A2           0.00616  -0.01231   0.00614  -0.03271   0.06543
           A3          -0.01231   0.00616   0.00616  -0.03272  -0.03272
           D1           0.00000  -0.00000  -0.00000  -0.00000   0.00000
                          A3        D1
           A3           0.06544
           D1          -0.00000   0.01093
     Eigenvalues ---    0.01093   0.09693   0.09695   0.37654   0.38080
     Eigenvalues ---    0.380811000.00000
 Angle between quadratic step and forces=   0.51 degrees.
 Linear search not attempted -- first point.
 Iteration  1 RMS(Cart)=  0.00048938 RMS(Int)=  0.00000000
 Iteration  2 RMS(Cart)=  0.00000000 RMS(Int)=  0.00000000
 ClnCor:  largest displacement from symmetrization is 4.30D-13 for atom     1.
 Variable       Old X    -DE/DX   Delta X   Delta X   Delta X     New X
                                 (Linear)    (Quad)   (Total)
    R1        2.04604   0.00028   0.00000   0.00075   0.00075   2.04678
    R2        2.04604   0.00028   0.00000   0.00075   0.00075   2.04678
    R3        2.04604   0.00028   0.00000   0.00075   0.00075   2.04678
    A1        2.09439  -0.00000   0.00000  -0.00001  -0.00001   2.09438
    A2        2.09439  -0.00000   0.00000  -0.00001  -0.00001   2.09438
    A3        2.09441   0.00000   0.00000   0.00001   0.00001   2.09442
    D1        3.14159   0.00000   0.00000   0.00000   0.00000   3.14159
         Item               Value     Threshold  Converged?
 Maximum Force            0.000282     0.000450     YES
 RMS     Force            0.000184     0.000300     YES
 Maximum Displacement     0.000743     0.001800     YES
 RMS     Displacement     0.000489     0.001200     YES
 Predicted change in Energy=-3.155962D-07
 Optimization completed.
    -- Stationary point found.
                           ----------------------------
                           !   Optimized Parameters   !
                           ! (Angstroms and Degrees)  !
 --------------------------                            --------------------------
 ! Name  Definition              Value          Derivative Info.                !
 --------------------------------------------------------------------------------
 ! R1    R(1,2)                  1.0827         -DE/DX =    0.0003              !
 ! R2    R(1,3)                  1.0827         -DE/DX =    0.0003              !
 ! R3    R(1,4)                  1.0827         -DE/DX =    0.0003              !
 ! A1    A(2,1,3)              119.9996         -DE/DX =    0.0                 !
 ! A2    A(2,1,4)              119.9996         -DE/DX =    0.0                 !
 ! A3    A(3,1,4)              120.0009         -DE/DX =    0.0                 !
 ! D1    D(2,1,4,3)            180.0            -DE/DX =    0.0                 !
 --------------------------------------------------------------------------------
 GradGradGradGradGradGradGradGradGradGradGradGradGradGradGradGradGradGrad

 Leave Link  103 at Sat Aug 17 23:37:27 2024, MaxMem=   13107200 cpu:       0.0
 (Enter /programs/64bit/g09/g09-gfortran/bin/l9999.exe)
 1\1\GINC-MOLMOD\Freq\UB3PW91\6-31+G\C1H3(2)\OSPITE\17-Aug-2024\0\\#P G
 eom=AllCheck Guess=TCheck SCRF=Check GenChk UB3PW91/6-31+G Freq\\methy
 l with imposed symmetry and 6-31+G basis set\\0,2\C,0.,0.,-0.000003250
 5\H,0.,0.,1.0827120848\H,0.9376641447,0.,-0.5413544171\H,-0.9376641447
 ,0.,-0.5413544171\\Version=EM64L-G09RevA.02\State=2-A"\HF=-39.819528\S
 2=0.75362\S2-1=0.\S2A=0.750008\RMSD=3.892e-10\RMSF=1.407e-04\ZeroPoint
 =0.0301965\Thermal=0.0332126\Dipole=0.,0.,0.000003\DipoleDeriv=-0.0007
 616,0.,0.,0.,-0.5755694,0.,0.,0.,-0.0007329,0.0725037,0.,0.,0.,0.19196
 54,0.,0.,0.,-0.0720255,-0.0358711,0.,0.0625715,0.,0.191802,0.,0.062552
 7,0.,0.0363792,-0.0358711,0.,-0.0625715,0.,0.191802,0.,-0.0625527,0.,0
 .0363792\Polar=12.1962771,0.,10.2524065,0.,0.,12.19654\PG=CS [SG(C1H3)
 ]\NImag=0\\0.62781651,0.,0.03093059,0.,0.,0.62778189,-0.05455303,0.,0.
 ,0.04673733,0.,-0.01032921,0.,0.,0.00336109,0.,0.,-0.36397251,0.,0.,0.
 37858432,-0.28663174,0.,0.13396343,0.00390785,0.,-0.00539653,0.2956355
 1,0.,-0.01030069,0.,0.,0.00348406,0.,0.,0.00331146,0.13396586,0.,-0.13
 190469,0.02481601,0.,-0.00730590,-0.14367438,0.,0.12969644,-0.28663174
 ,0.,-0.13396343,0.00390785,0.,0.00539653,-0.01291162,0.,-0.01510748,0.
 29563551,0.,-0.01030069,0.,0.,0.00348406,0.,0.,0.00350517,0.,0.,0.0033
 1146,-0.13396585,0.,-0.13190469,-0.02481601,0.,-0.00730590,0.01510748,
 0.,0.00951415,0.14367438,0.,0.12969644\\0.,0.,0.00000203,0.,0.,-0.0002
 8178,-0.00024406,0.,0.00013988,0.00024406,0.,0.00013988\\\@


 PATIENCE IS THE ABILITY TO IDLE YOUR MOTOR WHEN
 YOU FEEL LIKE STRIPPING YOUR GEARS.
 Job cpu time:  0 days  0 hours  0 minutes 10.5 seconds.
 File lengths (MBytes):  RWF=      5 Int=      0 D2E=      0 Chk=      1 Scr=      1
 Normal termination of Gaussian 09 at Sat Aug 17 23:37:27 2024.
