 Entering Gaussian System, Link 0=/programs/64bit/g09/g09-gfortran/bin/g09
 Input=ch3_Pople631.com
 Output=ch3_Pople631.log
 Initial command:
 /programs/64bit/g09/g09-gfortran/bin/l1.exe /home/ospite/Desktop/MMfP/Project6/CH3/g09/DFT/B3PW91/Gau-18540.inp -scrdir=/home/ospite/Desktop/MMfP/Project6/CH3/g09/DFT/B3PW91/
 Entering Link 1 = /programs/64bit/g09/g09-gfortran/bin/l1.exe PID=     18541.
  
 Copyright (c) 1988,1990,1992,1993,1995,1998,2003,2009, Gaussian, Inc.
                  All Rights Reserved.
  
 This is part of the Gaussian(R) 09 program.  It is based on
 the Gaussian(R) 03 system (copyright 2003, Gaussian, Inc.),
 the Gaussian(R) 98 system (copyright 1998, Gaussian, Inc.),
 the Gaussian(R) 94 system (copyright 1995, Gaussian, Inc.),
 the Gaussian 92(TM) system (copyright 1992, Gaussian, Inc.),
 the Gaussian 90(TM) system (copyright 1990, Gaussian, Inc.),
 the Gaussian 88(TM) system (copyright 1988, Gaussian, Inc.),
 the Gaussian 86(TM) system (copyright 1986, Carnegie Mellon
 University), and the Gaussian 82(TM) system (copyright 1983,
 Carnegie Mellon University). Gaussian is a federally registered
 trademark of Gaussian, Inc.
  
 This software contains proprietary and confidential information,
 including trade secrets, belonging to Gaussian, Inc.
  
 This software is provided under written license and may be
 used, copied, transmitted, or stored only in accord with that
 written license.
  
 The following legend is applicable only to US Government
 contracts under FAR:
  
                    RESTRICTED RIGHTS LEGEND
  
 Use, reproduction and disclosure by the US Government is
 subject to restrictions as set forth in subparagraphs (a)
 and (c) of the Commercial Computer Software - Restricted
 Rights clause in FAR 52.227-19.
  
 Gaussian, Inc.
 340 Quinnipiac St., Bldg. 40, Wallingford CT 06492
  
  
 ---------------------------------------------------------------
 Warning -- This program may not be used in any manner that
 competes with the business of Gaussian, Inc. or will provide
 assistance to any competitor of Gaussian, Inc.  The licensee
 of this program is prohibited from giving any competitor of
 Gaussian, Inc. access to this program.  By using this program,
 the user acknowledges that Gaussian, Inc. is engaged in the
 business of creating and licensing software in the field of
 computational chemistry and represents and warrants to the
 licensee that it is not a competitor of Gaussian, Inc. and that
 it will not use this program in any manner prohibited above.
 ---------------------------------------------------------------
  

 Cite this work as:
 Gaussian 09, Revision A.02,
 M. J. Frisch, G. W. Trucks, H. B. Schlegel, G. E. Scuseria, 
 M. A. Robb, J. R. Cheeseman, G. Scalmani, V. Barone, B. Mennucci, 
 G. A. Petersson, H. Nakatsuji, M. Caricato, X. Li, H. P. Hratchian, 
 A. F. Izmaylov, J. Bloino, G. Zheng, J. L. Sonnenberg, M. Hada, 
 M. Ehara, K. Toyota, R. Fukuda, J. Hasegawa, M. Ishida, T. Nakajima, 
 Y. Honda, O. Kitao, H. Nakai, T. Vreven, J. A. Montgomery, Jr., 
 J. E. Peralta, F. Ogliaro, M. Bearpark, J. J. Heyd, E. Brothers, 
 K. N. Kudin, V. N. Staroverov, R. Kobayashi, J. Normand, 
 K. Raghavachari, A. Rendell, J. C. Burant, S. S. Iyengar, J. Tomasi, 
 M. Cossi, N. Rega, J. M. Millam, M. Klene, J. E. Knox, J. B. Cross, 
 V. Bakken, C. Adamo, J. Jaramillo, R. Gomperts, R. E. Stratmann, 
 O. Yazyev, A. J. Austin, R. Cammi, C. Pomelli, J. W. Ochterski, 
 R. L. Martin, K. Morokuma, V. G. Zakrzewski, G. A. Voth, 
 P. Salvador, J. J. Dannenberg, S. Dapprich, A. D. Daniels, 
 O. Farkas, J. B. Foresman, J. V. Ortiz, J. Cioslowski, 
 and D. J. Fox, Gaussian, Inc., Wallingford CT, 2009.
 
 ******************************************
 Gaussian 09:  EM64L-G09RevA.02 11-Jun-2009
                18-Aug-2024 
 ******************************************
 %mem=100MB
 ------------------------------------------------------------------
 #p b3pw91/6-31G opt freq symmetry=(follow,pg=C3v) pop=full gfinput
 ------------------------------------------------------------------
 1/14=-1,18=20,19=15,26=3,38=1/1,3;
 2/9=110,12=2,17=6,18=5,19=2314885530821997379,40=1/2;
 3/5=1,6=6,11=2,16=1,24=10,25=1,30=1,71=1,74=-6/1,2,3;
 4//1;
 5/5=2,38=5/2;
 6/7=3,28=1/1;
 7//1,2,3,16;
 1/14=-1,18=20,19=15/3(2);
 2/9=110,15=5,19=2314885530821997379/2;
 99//99;
 2/9=110,15=5,19=2314885530821997379/2;
 3/5=1,6=6,11=2,16=1,25=1,30=1,71=1,74=-6/1,2,3;
 4/5=5,16=3/1;
 5/5=2,38=5/2;
 7//1,2,3,16;
 1/14=-1,18=20,19=15/3(-5);
 2/9=110,15=5,19=2314885530821997379/2;
 6/7=3,19=2,28=1/1;
 99/9=1/99;
 Leave Link    1 at Sun Aug 18 00:14:37 2024, MaxMem=   13107200 cpu:       0.1
 (Enter /programs/64bit/g09/g09-gfortran/bin/l101.exe)
 ------------------------------------------------
 methyl with imposed symmetry and 6-31G basis set
 ------------------------------------------------
 Symbolic Z-matrix:
 Charge =  0 Multiplicity = 2
 C1
 H2                   1    d
 H3                   1    d        2    a
 H4                   1    d        2    -a       3    t        0
       Variables:
  d                     1.09                     
  a                   120.                       
  t                     0.                       
 
 NAtoms=      4 NQM=      4 NQMF=      0 NMic=      0 NMicF=      0 NTot=      4.
                    Isotopes and Nuclear Properties:
 (Nuclear quadrupole moments (NQMom) in fm**2, nuclear magnetic moments (NMagM)
  in nuclear magnetons)

  Atom         1           2           3           4
 IAtWgt=          12           1           1           1
 AtmWgt=  12.0000000   1.0078250   1.0078250   1.0078250
 NucSpn=           0           1           1           1
 AtZEff=   0.0000000   0.0000000   0.0000000   0.0000000
 NQMom=    0.0000000   0.0000000   0.0000000   0.0000000
 NMagM=    0.0000000   2.7928460   2.7928460   2.7928460
 Leave Link  101 at Sun Aug 18 00:14:37 2024, MaxMem=   13107200 cpu:       0.1
 (Enter /programs/64bit/g09/g09-gfortran/bin/l103.exe)

 GradGradGradGradGradGradGradGradGradGradGradGradGradGradGradGradGradGrad
 Berny optimization.
 Initialization pass.
                           ----------------------------
                           !    Initial Parameters    !
                           ! (Angstroms and Degrees)  !
 --------------------------                            --------------------------
 ! Name  Definition              Value          Derivative Info.                !
 --------------------------------------------------------------------------------
 ! R1    R(1,2)                  1.09           estimate D2E/DX2                !
 ! R2    R(1,3)                  1.09           estimate D2E/DX2                !
 ! R3    R(1,4)                  1.09           estimate D2E/DX2                !
 ! A1    A(2,1,3)              120.0            estimate D2E/DX2                !
 ! A2    A(2,1,4)              120.0            estimate D2E/DX2                !
 ! A3    A(3,1,4)              120.0            estimate D2E/DX2                !
 ! D1    D(2,1,4,3)            180.0            estimate D2E/DX2                !
 --------------------------------------------------------------------------------
 Trust Radius=3.00D-01 FncErr=1.00D-07 GrdErr=1.00D-06
 Number of steps in this run=  20 maximum allowed number of steps= 100.
 GradGradGradGradGradGradGradGradGradGradGradGradGradGradGradGradGradGrad

 Leave Link  103 at Sun Aug 18 00:14:37 2024, MaxMem=   13107200 cpu:       0.0
 (Enter /programs/64bit/g09/g09-gfortran/bin/l202.exe)
                          Input orientation:                          
 ---------------------------------------------------------------------
 Center     Atomic      Atomic             Coordinates (Angstroms)
 Number     Number       Type             X           Y           Z
 ---------------------------------------------------------------------
      1          6           0        0.000000    0.000000    0.000000
      2          1           0        0.000000    0.000000    1.090000
      3          1           0        0.943968    0.000000   -0.545000
      4          1           0       -0.943968    0.000000   -0.545000
 ---------------------------------------------------------------------
                    Distance matrix (angstroms):
                    1          2          3          4
     1  C    0.000000
     2  H    1.090000   0.000000
     3  H    1.090000   1.887935   0.000000
     4  H    1.090000   1.887935   1.887935   0.000000
 Symm:  InNGrp=C3V  InAxis=0.
 This structure is nearly, but not quite of a higher symmetry.
 Consider Symm=Loose if the higher symmetry is desired.
 Stoichiometry    CH3(2)
 Framework group  C2[C2(CH),X(H2)]
 Deg. of freedom     3
 Full point group                 C2      NOp   2
 Largest Abelian subgroup         C2      NOp   2
 Largest concise Abelian subgroup C2      NOp   2
                         Standard orientation:                         
 ---------------------------------------------------------------------
 Center     Atomic      Atomic             Coordinates (Angstroms)
 Number     Number       Type             X           Y           Z
 ---------------------------------------------------------------------
      1          6           0        0.000000    0.000000    0.000000
      2          1           0        0.000000    0.000000    1.090000
      3          1           0        0.000000    0.943968   -0.545000
      4          1           0       -0.000000   -0.943968   -0.545000
 ---------------------------------------------------------------------
 Rotational constants (GHZ):    281.3764836    281.3764836    140.6882418
 Leave Link  202 at Sun Aug 18 00:14:37 2024, MaxMem=   13107200 cpu:       0.0
 (Enter /programs/64bit/g09/g09-gfortran/bin/l301.exe)
 Standard basis: 6-31G (6D, 7F)
 Ernie: Thresh=  0.10000D-02 Tol=  0.10000D-05 Strict=F.
 AO basis set in the form of general basis input (Overlap normalization):
      1 0
 S   6 1.00       0.000000000000
      0.3047524880D+04  0.1834737132D-02
      0.4573695180D+03  0.1403732281D-01
      0.1039486850D+03  0.6884262226D-01
      0.2921015530D+02  0.2321844432D+00
      0.9286662960D+01  0.4679413484D+00
      0.3163926960D+01  0.3623119853D+00
 SP   3 1.00       0.000000000000
      0.7868272350D+01 -0.1193324198D+00  0.6899906659D-01
      0.1881288540D+01 -0.1608541517D+00  0.3164239610D+00
      0.5442492580D+00  0.1143456438D+01  0.7443082909D+00
 SP   1 1.00       0.000000000000
      0.1687144782D+00  0.1000000000D+01  0.1000000000D+01
 ****
      2 0
 S   3 1.00       0.000000000000
      0.1873113696D+02  0.3349460434D-01
      0.2825394365D+01  0.2347269535D+00
      0.6401216923D+00  0.8137573261D+00
 S   1 1.00       0.000000000000
      0.1612777588D+00  0.1000000000D+01
 ****
      3 0
 S   3 1.00       0.000000000000
      0.1873113696D+02  0.3349460434D-01
      0.2825394365D+01  0.2347269535D+00
      0.6401216923D+00  0.8137573261D+00
 S   1 1.00       0.000000000000
      0.1612777588D+00  0.1000000000D+01
 ****
      4 0
 S   3 1.00       0.000000000000
      0.1873113696D+02  0.3349460434D-01
      0.2825394365D+01  0.2347269535D+00
      0.6401216923D+00  0.8137573261D+00
 S   1 1.00       0.000000000000
      0.1612777588D+00  0.1000000000D+01
 ****

 There are     9 symmetry adapted basis functions of A   symmetry.
 There are     6 symmetry adapted basis functions of B   symmetry.
 Integral buffers will be    131072 words long.
 Raffenetti 2 integral format.
 Two-electron integral symmetry is turned on.
    15 basis functions,    34 primitive gaussians,    15 cartesian basis functions
     5 alpha electrons        4 beta electrons
       nuclear repulsion energy         9.5795885928 Hartrees.
 IExCor=  408 DFT=T Ex+Corr=B3PW91 ExCW=0 ScaHFX=  0.200000
 ScaDFX=  0.800000  0.720000  1.000000  0.810000 ScalE2=  1.000000  1.000000
 IRadAn=      0 IRanWt=     -1 IRanGd=            0 ICorTp=0
 NAtoms=    4 NActive=    4 NUniq=    3 SFac= 1.33D+00 NAtFMM=   80 NAOKFM=F Big=F
 Leave Link  301 at Sun Aug 18 00:14:38 2024, MaxMem=   13107200 cpu:       0.1
 (Enter /programs/64bit/g09/g09-gfortran/bin/l302.exe)
 NPDir=0 NMtPBC=     1 NCelOv=     1 NCel=       1 NClECP=     1 NCelD=      1
         NCelK=      1 NCelE2=     1 NClLst=     1 CellRange=     0.0.
 One-electron integrals computed using PRISM.
 One-electron integral symmetry used in STVInt
 NBasis=    15 RedAO= T  NBF=     9     6
 NBsUse=    15 1.00D-06 NBFU=     9     6
 Precomputing XC quadrature grid using
 IXCGrd= 2 IRadAn=           0 IRanWt=          -1 IRanGd=           0 AccXCQ= 1.00D-10.
 NRdTot=     243 NPtTot=       30652 NUsed=       32418 NTot=       32450
 NSgBfM=    15    15    15    15    15 NAtAll=     4     4.
 Leave Link  302 at Sun Aug 18 00:14:38 2024, MaxMem=   13107200 cpu:       0.1
 (Enter /programs/64bit/g09/g09-gfortran/bin/l303.exe)
 DipDrv:  MaxL=1.
 Leave Link  303 at Sun Aug 18 00:14:38 2024, MaxMem=   13107200 cpu:       0.0
 (Enter /programs/64bit/g09/g09-gfortran/bin/l401.exe)
 Harris functional with IExCor=  408 diagonalized for initial guess.
 ExpMin= 1.61D-01 ExpMax= 3.05D+03 ExpMxC= 4.57D+02 IAcc=1 IRadAn=         1 AccDes= 0.00D+00
 HarFok:  IExCor=  408 AccDes= 0.00D+00 IRadAn=         1 IDoV= 1
 ScaDFX=  1.000000  1.000000  1.000000  1.000000
 FoFCou: FMM=F IPFlag=           0 FMFlag=      100000 FMFlg1=           0
         NFxFlg=           0 DoJE=T BraDBF=F KetDBF=T FulRan=T
         Omega=  0.000000  0.000000  1.000000  0.000000  0.000000 ICntrl=     500 IOpCl=  0
         NMat0=    1 NMatS0=    1 NMatT0=    0 NMatD0=    1 NMtDS0=    0 NMtDT0=    0
         I1Cent=           4 NGrid=           0.
 Petite list used in FoFCou.
 Harris En= -39.8391346790572    
 Initial guess orbital symmetries:
 Alpha Orbitals:
       Occupied  (A) (A) (A) (B) (B)
       Virtual   (A) (A) (B) (B) (B) (A) (A) (A) (B) (A)
 Beta  Orbitals:
       Occupied  (A) (A) (A) (B)
       Virtual   (B) (A) (A) (B) (B) (B) (A) (A) (A) (B) (A)
 The electronic state of the initial guess is 2-B.
 Initial guess <Sx>= 0.0000 <Sy>= 0.0000 <Sz>= 0.5000 <S**2>= 0.7500 S= 0.5000
 Leave Link  401 at Sun Aug 18 00:14:38 2024, MaxMem=   13107200 cpu:       0.2
 (Enter /programs/64bit/g09/g09-gfortran/bin/l502.exe)
 UHF open shell SCF:
 Requested convergence on RMS density matrix=1.00D-08 within 128 cycles.
 Requested convergence on MAX density matrix=1.00D-06.
 Requested convergence on             energy=1.00D-06.
 No special actions if energy rises.
 Using DIIS extrapolation, IDIIS=  1040.
 Integral symmetry usage will be decided dynamically.
        32369 words used for storage of precomputed grid.
 Keep R1 and R2 ints in memory in canonical form, NReq=924409.
 IEnd=       52146 IEndB=       52146 NGot=    13107200 MDV=    13057609
 LenX=    13057609 LenY=    13056727
 Symmetry not used in FoFDir.
 MinBra= 0 MaxBra= 1 Meth= 1.
 IRaf=       0 NMat=   1 IRICut=       1 DoRegI=T DoRafI=F ISym2E= 0 JSym2E=0.
 Integral accuracy reduced to 1.0D-05 until final iterations.

 Cycle   1  Pass 0  IDiag  1:
 E= -39.7789202835741    
 DIIS: error= 4.99D-02 at cycle   1 NSaved=   1.
 NSaved= 1 IEnMin= 1 EnMin= -39.7789202835741     IErMin= 1 ErrMin= 4.99D-02
 ErrMax= 4.99D-02 EMaxC= 1.00D-01 BMatC= 1.20D-01 BMatP= 1.20D-01
 IDIUse=3 WtCom= 5.01D-01 WtEn= 4.99D-01
 Coeff-Com:  0.100D+01
 Coeff-En:   0.100D+01
 Coeff:      0.100D+01
 Gap=     0.291 Goal=   None    Shift=    0.000
 Gap=     0.386 Goal=   None    Shift=    0.000
 GapD=    0.291 DampG=1.000 DampE=0.500 DampFc=0.5000 IDamp=-1.
 Damping current iteration by 5.00D-01
 RMSDP=2.05D-02 MaxDP=1.37D-01              OVMax= 1.29D-01

 Cycle   2  Pass 0  IDiag  1:
 E= -39.7977718577637     Delta-E=       -0.018851574190 Rises=F Damp=T
 DIIS: error= 6.01D-03 at cycle   2 NSaved=   2.
 NSaved= 2 IEnMin= 2 EnMin= -39.7977718577637     IErMin= 2 ErrMin= 6.01D-03
 ErrMax= 6.01D-03 EMaxC= 1.00D-01 BMatC= 2.34D-03 BMatP= 1.20D-01
 IDIUse=3 WtCom= 9.40D-01 WtEn= 6.01D-02
 Coeff-Com: -0.189D-01 0.102D+01
 Coeff-En:   0.000D+00 0.100D+01
 Coeff:     -0.178D-01 0.102D+01
 Gap=     0.344 Goal=   None    Shift=    0.000
 Gap=     0.360 Goal=   None    Shift=    0.000
 RMSDP=2.63D-03 MaxDP=1.64D-02 DE=-1.89D-02 OVMax= 5.41D-02

 Cycle   3  Pass 0  IDiag  1:
 E= -39.8160164445197     Delta-E=       -0.018244586756 Rises=F Damp=F
 DIIS: error= 1.06D-03 at cycle   3 NSaved=   3.
 NSaved= 3 IEnMin= 3 EnMin= -39.8160164445197     IErMin= 3 ErrMin= 1.06D-03
 ErrMax= 1.06D-03 EMaxC= 1.00D-01 BMatC= 7.80D-05 BMatP= 2.34D-03
 IDIUse=3 WtCom= 9.89D-01 WtEn= 1.06D-02
 Coeff-Com:  0.354D-02-0.438D-01 0.104D+01
 Coeff-En:   0.000D+00 0.000D+00 0.100D+01
 Coeff:      0.350D-02-0.434D-01 0.104D+01
 Gap=     0.348 Goal=   None    Shift=    0.000
 Gap=     0.362 Goal=   None    Shift=    0.000
 RMSDP=5.51D-04 MaxDP=2.95D-03 DE=-1.82D-02 OVMax= 2.56D-03

 Cycle   4  Pass 0  IDiag  1:
 E= -39.8160726886987     Delta-E=       -0.000056244179 Rises=F Damp=F
 DIIS: error= 4.40D-04 at cycle   4 NSaved=   4.
 NSaved= 4 IEnMin= 4 EnMin= -39.8160726886987     IErMin= 4 ErrMin= 4.40D-04
 ErrMax= 4.40D-04 EMaxC= 1.00D-01 BMatC= 9.85D-06 BMatP= 7.80D-05
 IDIUse=3 WtCom= 9.96D-01 WtEn= 4.40D-03
 Coeff-Com: -0.276D-02-0.106D-01-0.442D+00 0.146D+01
 Coeff-En:   0.000D+00 0.000D+00 0.000D+00 0.100D+01
 Coeff:     -0.274D-02-0.105D-01-0.440D+00 0.145D+01
 Gap=     0.349 Goal=   None    Shift=    0.000
 Gap=     0.362 Goal=   None    Shift=    0.000
 RMSDP=2.90D-04 MaxDP=1.36D-03 DE=-5.62D-05 OVMax= 1.70D-03

 Cycle   5  Pass 0  IDiag  1:
 E= -39.8160813927158     Delta-E=       -0.000008704017 Rises=F Damp=F
 DIIS: error= 4.05D-05 at cycle   5 NSaved=   5.
 NSaved= 5 IEnMin= 5 EnMin= -39.8160813927158     IErMin= 5 ErrMin= 4.05D-05
 ErrMax= 4.05D-05 EMaxC= 1.00D-01 BMatC= 6.69D-08 BMatP= 9.85D-06
 IDIUse=1 WtCom= 1.00D+00 WtEn= 0.00D+00
 Coeff-Com: -0.272D-04 0.234D-02 0.111D-01-0.120D+00 0.111D+01
 Coeff:     -0.272D-04 0.234D-02 0.111D-01-0.120D+00 0.111D+01
 Gap=     0.349 Goal=   None    Shift=    0.000
 Gap=     0.362 Goal=   None    Shift=    0.000
 RMSDP=2.39D-05 MaxDP=1.24D-04 DE=-8.70D-06 OVMax= 1.53D-04

 Cycle   6  Pass 0  IDiag  1:
 E= -39.8160814528448     Delta-E=       -0.000000060129 Rises=F Damp=F
 DIIS: error= 3.94D-06 at cycle   6 NSaved=   6.
 NSaved= 6 IEnMin= 6 EnMin= -39.8160814528448     IErMin= 6 ErrMin= 3.94D-06
 ErrMax= 3.94D-06 EMaxC= 1.00D-01 BMatC= 4.51D-10 BMatP= 6.69D-08
 IDIUse=1 WtCom= 1.00D+00 WtEn= 0.00D+00
 Coeff-Com:  0.416D-04-0.291D-03 0.254D-02 0.222D-02-0.153D+00 0.115D+01
 Coeff:      0.416D-04-0.291D-03 0.254D-02 0.222D-02-0.153D+00 0.115D+01
 Gap=     0.349 Goal=   None    Shift=    0.000
 Gap=     0.362 Goal=   None    Shift=    0.000
 RMSDP=1.92D-06 MaxDP=1.12D-05 DE=-6.01D-08 OVMax= 1.40D-05

 Initial convergence to 1.0D-05 achieved.  Increase integral accuracy.
 Cycle   7  Pass 1  IDiag  1:
 E= -39.8160854944210     Delta-E=       -0.000004041576 Rises=F Damp=F
 DIIS: error= 1.26D-06 at cycle   1 NSaved=   1.
 NSaved= 1 IEnMin= 1 EnMin= -39.8160854944210     IErMin= 1 ErrMin= 1.26D-06
 ErrMax= 1.26D-06 EMaxC= 1.00D-01 BMatC= 1.19D-10 BMatP= 1.19D-10
 IDIUse=1 WtCom= 1.00D+00 WtEn= 0.00D+00
 Coeff-Com:  0.100D+01
 Coeff:      0.100D+01
 Gap=     0.349 Goal=   None    Shift=    0.000
 Gap=     0.362 Goal=   None    Shift=    0.000
 RMSDP=1.92D-06 MaxDP=1.12D-05 DE=-4.04D-06 OVMax= 3.46D-06

 Cycle   8  Pass 1  IDiag  1:
 E= -39.8160854944669     Delta-E=       -0.000000000046 Rises=F Damp=F
 DIIS: error= 2.39D-07 at cycle   2 NSaved=   2.
 NSaved= 2 IEnMin= 2 EnMin= -39.8160854944669     IErMin= 2 ErrMin= 2.39D-07
 ErrMax= 2.39D-07 EMaxC= 1.00D-01 BMatC= 3.28D-12 BMatP= 1.19D-10
 IDIUse=1 WtCom= 1.00D+00 WtEn= 0.00D+00
 Coeff-Com:  0.176D-01 0.982D+00
 Coeff:      0.176D-01 0.982D+00
 Gap=     0.349 Goal=   None    Shift=    0.000
 Gap=     0.362 Goal=   None    Shift=    0.000
 RMSDP=1.01D-07 MaxDP=4.73D-07 DE=-4.59D-11 OVMax= 7.03D-07

 Cycle   9  Pass 1  IDiag  1:
 E= -39.8160854944679     Delta-E=       -0.000000000001 Rises=F Damp=F
 DIIS: error= 1.26D-07 at cycle   3 NSaved=   3.
 NSaved= 3 IEnMin= 3 EnMin= -39.8160854944679     IErMin= 3 ErrMin= 1.26D-07
 ErrMax= 1.26D-07 EMaxC= 1.00D-01 BMatC= 7.39D-13 BMatP= 3.28D-12
 IDIUse=1 WtCom= 1.00D+00 WtEn= 0.00D+00
 Coeff-Com: -0.202D-01 0.281D+00 0.739D+00
 Coeff:     -0.202D-01 0.281D+00 0.739D+00
 Gap=     0.349 Goal=   None    Shift=    0.000
 Gap=     0.362 Goal=   None    Shift=    0.000
 RMSDP=3.76D-08 MaxDP=3.06D-07 DE=-1.06D-12 OVMax= 2.41D-07

 Cycle  10  Pass 1  IDiag  1:
 E= -39.8160854944682     Delta-E=       -0.000000000000 Rises=F Damp=F
 DIIS: error= 5.24D-08 at cycle   4 NSaved=   4.
 NSaved= 4 IEnMin= 4 EnMin= -39.8160854944682     IErMin= 4 ErrMin= 5.24D-08
 ErrMax= 5.24D-08 EMaxC= 1.00D-01 BMatC= 1.06D-13 BMatP= 7.39D-13
 IDIUse=1 WtCom= 1.00D+00 WtEn= 0.00D+00
 Coeff-Com: -0.714D-02 0.461D-01 0.300D+00 0.661D+00
 Coeff:     -0.714D-02 0.461D-01 0.300D+00 0.661D+00
 Gap=     0.349 Goal=   None    Shift=    0.000
 Gap=     0.362 Goal=   None    Shift=    0.000
 RMSDP=1.05D-08 MaxDP=6.71D-08 DE=-2.20D-13 OVMax= 7.93D-08

 Cycle  11  Pass 1  IDiag  1:
 E= -39.8160854944682     Delta-E=       -0.000000000000 Rises=F Damp=F
 DIIS: error= 7.56D-09 at cycle   5 NSaved=   5.
 NSaved= 5 IEnMin= 5 EnMin= -39.8160854944682     IErMin= 5 ErrMin= 7.56D-09
 ErrMax= 7.56D-09 EMaxC= 1.00D-01 BMatC= 1.86D-15 BMatP= 1.06D-13
 IDIUse=1 WtCom= 1.00D+00 WtEn= 0.00D+00
 Coeff-Com:  0.157D-02-0.267D-01-0.742D-01-0.480D-01 0.115D+01
 Coeff:      0.157D-02-0.267D-01-0.742D-01-0.480D-01 0.115D+01
 Gap=     0.349 Goal=   None    Shift=    0.000
 Gap=     0.362 Goal=   None    Shift=    0.000
 RMSDP=3.30D-09 MaxDP=2.13D-08 DE=-5.68D-14 OVMax= 1.98D-08

 SCF Done:  E(UB3PW91) =  -39.8160854945     A.U. after   11 cycles
             Convg  =    0.3300D-08             -V/T =  2.0064
 <Sx>= 0.0000 <Sy>= 0.0000 <Sz>= 0.5000 <S**2>= 0.7540 S= 0.5020
 <L.S>=  0.00000000000    
 KE= 3.956406018697D+01 PE=-1.110557512220D+02 EE= 2.209601694776D+01
 Annihilation of the first spin contaminant:
 S**2 before annihilation     0.7540,   after     0.7500
 Leave Link  502 at Sun Aug 18 00:14:39 2024, MaxMem=   13107200 cpu:       1.4
 (Enter /programs/64bit/g09/g09-gfortran/bin/l601.exe)
 Copying SCF densities to generalized density rwf, IOpCl= 1 IROHF=0.

 **********************************************************************

            Population analysis using the SCF density.

 **********************************************************************

 Orbital symmetries:
 Alpha Orbitals:
       Occupied  (A) (A) (A) (B) (B)
       Virtual   (A) (B) (A) (B) (B) (A) (A) (B) (A) (A)
 Beta  Orbitals:
       Occupied  (A) (A) (A) (B)
       Virtual   (B) (A) (B) (A) (B) (A) (B) (A) (B) (A) (A)
 The electronic state is 2-B.
 Alpha  occ. eigenvalues --  -10.17612  -0.68671  -0.41860  -0.41860  -0.23009
 Alpha virt. eigenvalues --    0.11875   0.18482   0.18482   0.54024   0.56510
 Alpha virt. eigenvalues --    0.56510   0.72481   0.96068   0.96068   0.96718
  Beta  occ. eigenvalues --  -10.16057  -0.64032  -0.40692  -0.40692
  Beta virt. eigenvalues --   -0.04453   0.13591   0.19133   0.19133   0.57917
  Beta virt. eigenvalues --    0.57917   0.63150   0.75025   0.96441   0.96442
  Beta virt. eigenvalues --    0.99807
     Alpha Molecular Orbital Coefficients:
                           1         2         3         4         5
                           O         O         O         O         O
     Eigenvalues --   -10.17612  -0.68671  -0.41860  -0.41860  -0.23009
   1 1   C  1S          0.99500  -0.20537  -0.00000   0.00000   0.00000
   2        2S          0.03438   0.40206  -0.00000   0.00000   0.00000
   3        2PX         0.00000   0.00000   0.00000  -0.00000   0.59943
   4        2PY         0.00000   0.00000   0.00000   0.45936   0.00000
   5        2PZ         0.00000  -0.00000   0.45936   0.00000   0.00000
   6        3S         -0.02185   0.41113   0.00000   0.00000   0.00000
   7        3PX         0.00000   0.00000   0.00000  -0.00000   0.52872
   8        3PY         0.00000   0.00000   0.00000   0.20300   0.00000
   9        3PZ        -0.00000   0.00000   0.20300   0.00000   0.00000
  10 2   H  1S         -0.00123   0.14437   0.28357   0.00000   0.00000
  11        2S          0.00489   0.03687   0.20980   0.00000   0.00000
  12 3   H  1S         -0.00123   0.14437  -0.14179   0.24558   0.00000
  13        2S          0.00489   0.03687  -0.10490   0.18170  -0.00000
  14 4   H  1S         -0.00123   0.14437  -0.14179  -0.24558  -0.00000
  15        2S          0.00489   0.03687  -0.10490  -0.18170   0.00000
                           6         7         8         9        10
                           V         V         V         V         V
     Eigenvalues --     0.11875   0.18482   0.18482   0.54024   0.56510
   1 1   C  1S         -0.15045   0.00000   0.00000   0.00000   0.00000
   2        2S          0.23820   0.00000  -0.00000   0.00000   0.00000
   3        2PX         0.00000   0.00000   0.00000  -1.05893  -0.00000
   4        2PY         0.00000  -0.40665   0.00000   0.00000  -0.81233
   5        2PZ        -0.00000   0.00000  -0.40665   0.00000   0.00000
   6        3S          2.13012   0.00000  -0.00002   0.00000   0.00000
   7        3PX         0.00000   0.00000   0.00000   1.09595   0.00000
   8        3PY         0.00000  -1.43354   0.00000  -0.00000   1.83449
   9        3PZ        -0.00002   0.00000  -1.43354   0.00000   0.00000
  10 2   H  1S         -0.08555   0.00000   0.10804   0.00000   0.00000
  11        2S         -1.06652   0.00000   1.85726   0.00000   0.00000
  12 3   H  1S         -0.08555   0.09357  -0.05402   0.00000  -0.39166
  13        2S         -1.06655   1.60843  -0.92862   0.00000  -0.52186
  14 4   H  1S         -0.08555  -0.09357  -0.05402  -0.00000   0.39166
  15        2S         -1.06655  -1.60843  -0.92862  -0.00000   0.52186
                          11        12        13        14        15
                           V         V         V         V         V
     Eigenvalues --     0.56510   0.72481   0.96068   0.96068   0.96718
   1 1   C  1S         -0.00000  -0.05934   0.00000   0.00000   0.04555
   2        2S         -0.00000  -0.95226   0.00000  -0.00006  -1.86732
   3        2PX         0.00000   0.00000   0.00000   0.00000   0.00000
   4        2PY         0.00000   0.00000   0.81716   0.00000   0.00000
   5        2PZ        -0.81233   0.00000   0.00000   0.81716  -0.00002
   6        3S          0.00001   1.91441   0.00000   0.00011   3.55711
   7        3PX         0.00000   0.00000   0.00000   0.00000   0.00000
   8        3PY         0.00000   0.00000  -1.00320   0.00000   0.00000
   9        3PZ         1.83449  -0.00000   0.00000  -1.00320   0.00003
  10 2   H  1S         -0.45225  -0.64623   0.00000  -1.01349   0.41360
  11        2S         -0.60259  -0.06584   0.00000   1.54057  -1.15911
  12 3   H  1S          0.22612  -0.64623  -0.87772   0.50676   0.41355
  13        2S          0.30129  -0.06584   1.33420  -0.77034  -1.15904
  14 4   H  1S          0.22612  -0.64623   0.87772   0.50676   0.41355
  15        2S          0.30129  -0.06584  -1.33420  -0.77034  -1.15904
     Beta Molecular Orbital Coefficients:
                           1         2         3         4         5
                           O         O         O         O         V
     Eigenvalues --   -10.16057  -0.64032  -0.40692  -0.40692  -0.04453
   1 1   C  1S          0.99533  -0.19596  -0.00000   0.00000   0.00000
   2        2S          0.03249   0.38621  -0.00000   0.00000   0.00000
   3        2PX         0.00000   0.00000   0.00000  -0.00000   0.50862
   4        2PY         0.00000   0.00000   0.00000   0.43952   0.00000
   5        2PZ         0.00000   0.00000   0.43952   0.00000   0.00000
   6        3S         -0.02100   0.32509   0.00000   0.00000   0.00000
   7        3PX         0.00000   0.00000   0.00000   0.00000   0.61866
   8        3PY         0.00000   0.00000   0.00000   0.17746   0.00000
   9        3PZ        -0.00000   0.00000   0.17746   0.00000   0.00000
  10 2   H  1S         -0.00101   0.16487   0.29844   0.00000   0.00000
  11        2S          0.00467   0.07068   0.23902   0.00000   0.00000
  12 3   H  1S         -0.00101   0.16487  -0.14922   0.25845   0.00000
  13        2S          0.00467   0.07068  -0.11951   0.20700  -0.00000
  14 4   H  1S         -0.00101   0.16487  -0.14922  -0.25845  -0.00000
  15        2S          0.00467   0.07068  -0.11951  -0.20700   0.00000
                           6         7         8         9        10
                           V         V         V         V         V
     Eigenvalues --     0.13591   0.19133   0.19133   0.57917   0.57917
   1 1   C  1S         -0.15701   0.00000   0.00000   0.00000  -0.00000
   2        2S          0.23638   0.00000  -0.00000   0.00000  -0.00000
   3        2PX         0.00000   0.00000   0.00000  -0.00000   0.00000
   4        2PY         0.00000  -0.40725   0.00000  -0.79894   0.00000
   5        2PZ        -0.00000   0.00000  -0.40725   0.00000  -0.79895
   6        3S          2.18032   0.00000  -0.00002   0.00000   0.00001
   7        3PX         0.00000   0.00000   0.00000   0.00000   0.00000
   8        3PY         0.00000  -1.45468   0.00000   1.81136   0.00000
   9        3PZ        -0.00002   0.00000  -1.45468   0.00000   1.81136
  10 2   H  1S         -0.06411   0.00000   0.09282   0.00000  -0.46956
  11        2S         -1.08214   0.00000   1.86827   0.00000  -0.56838
  12 3   H  1S         -0.06411   0.08038  -0.04641  -0.40665   0.23478
  13        2S         -1.08217   1.61796  -0.93412  -0.49223   0.28419
  14 4   H  1S         -0.06411  -0.08038  -0.04641   0.40665   0.23478
  15        2S         -1.08217  -1.61796  -0.93412   0.49223   0.28419
                          11        12        13        14        15
                           V         V         V         V         V
     Eigenvalues --     0.63150   0.75025   0.96441   0.96442   0.99807
   1 1   C  1S          0.00000  -0.06874   0.00000   0.00000   0.04450
   2        2S          0.00000  -0.78958   0.00000  -0.00001  -1.94518
   3        2PX         1.10542   0.00000   0.00000   0.00000   0.00000
   4        2PY        -0.00000   0.00000   0.84064   0.00000   0.00000
   5        2PZ         0.00000  -0.00000   0.00000   0.84063  -0.00000
   6        3S          0.00000   1.66157   0.00000   0.00001   3.66116
   7        3PX        -1.04781   0.00000   0.00000   0.00000   0.00000
   8        3PY         0.00000   0.00000  -1.01951   0.00000   0.00000
   9        3PZ         0.00000  -0.00000   0.00000  -1.01950   0.00000
  10 2   H  1S          0.00000  -0.67508   0.00000  -1.00281   0.36026
  11        2S          0.00000   0.01315   0.00000   1.53603  -1.14474
  12 3   H  1S         -0.00000  -0.67508  -0.86846   0.50141   0.36026
  13        2S          0.00000   0.01315   1.33024  -0.76802  -1.14473
  14 4   H  1S          0.00000  -0.67508   0.86846   0.50141   0.36026
  15        2S         -0.00000   0.01315  -1.33024  -0.76802  -1.14473
     Alpha Density Matrix:
                           1         2         3         4         5
   1 1   C  1S          1.03220
   2        2S         -0.04836   0.16283
   3        2PX         0.00000   0.00000   0.35931
   4        2PY         0.00000   0.00000   0.00000   0.21101
   5        2PZ         0.00000  -0.00000   0.00000   0.00000   0.21101
   6        3S         -0.10617   0.16454   0.00000   0.00000   0.00000
   7        3PX         0.00000   0.00000   0.31693   0.00000   0.00000
   8        3PY         0.00000   0.00000   0.00000   0.09325   0.00000
   9        3PZ        -0.00000   0.00000   0.00000   0.00000   0.09325
  10 2   H  1S         -0.03087   0.05800   0.00000   0.00000   0.13026
  11        2S         -0.00271   0.01499   0.00000   0.00000   0.09637
  12 3   H  1S         -0.03087   0.05800   0.00000   0.11281  -0.06513
  13        2S         -0.00271   0.01499  -0.00000   0.08346  -0.04819
  14 4   H  1S         -0.03087   0.05800  -0.00000  -0.11281  -0.06513
  15        2S         -0.00271   0.01499   0.00000  -0.08346  -0.04819
                           6         7         8         9        10
   6        3S          0.16950
   7        3PX         0.00000   0.27954
   8        3PY         0.00000   0.00000   0.04121
   9        3PZ         0.00000   0.00000   0.00000   0.04121
  10 2   H  1S          0.05938   0.00000   0.00000   0.05757   0.10126
  11        2S          0.01505   0.00000   0.00000   0.04259   0.06481
  12 3   H  1S          0.05938   0.00000   0.04985  -0.02878  -0.01936
  13        2S          0.01505  -0.00000   0.03688  -0.02130  -0.02443
  14 4   H  1S          0.05938  -0.00000  -0.04985  -0.02878  -0.01936
  15        2S          0.01505   0.00000  -0.03688  -0.02130  -0.02443
                          11        12        13        14        15
  11        2S          0.04540
  12 3   H  1S         -0.02443   0.10126
  13        2S         -0.02063   0.06481   0.04540
  14 4   H  1S         -0.02443  -0.01936  -0.02443   0.10126
  15        2S         -0.02063  -0.02443  -0.02063   0.06481   0.04540
     Beta Density Matrix:
                           1         2         3         4         5
   1 1   C  1S          1.02907
   2        2S         -0.04334   0.15021
   3        2PX         0.00000   0.00000   0.00000
   4        2PY         0.00000   0.00000  -0.00000   0.19317
   5        2PZ        -0.00000  -0.00000   0.00000   0.00000   0.19318
   6        3S         -0.08460   0.12487   0.00000   0.00000   0.00000
   7        3PX         0.00000   0.00000  -0.00000   0.00000   0.00000
   8        3PY         0.00000   0.00000  -0.00000   0.07800   0.00000
   9        3PZ        -0.00000   0.00000   0.00000   0.00000   0.07800
  10 2   H  1S         -0.03332   0.06364   0.00000   0.00000   0.13117
  11        2S         -0.00921   0.02745   0.00000   0.00000   0.10505
  12 3   H  1S         -0.03332   0.06364  -0.00000   0.11359  -0.06558
  13        2S         -0.00921   0.02745  -0.00000   0.09098  -0.05253
  14 4   H  1S         -0.03332   0.06364   0.00000  -0.11359  -0.06558
  15        2S         -0.00921   0.02745   0.00000  -0.09098  -0.05253
                           6         7         8         9        10
   6        3S          0.10612
   7        3PX         0.00000   0.00000
   8        3PY         0.00000   0.00000   0.03149
   9        3PZ         0.00000   0.00000   0.00000   0.03149
  10 2   H  1S          0.05362   0.00000   0.00000   0.05296   0.11625
  11        2S          0.02288   0.00000   0.00000   0.04242   0.08298
  12 3   H  1S          0.05362   0.00000   0.04587  -0.02648  -0.01735
  13        2S          0.02288   0.00000   0.03674  -0.02121  -0.02402
  14 4   H  1S          0.05362  -0.00000  -0.04587  -0.02648  -0.01735
  15        2S          0.02288  -0.00000  -0.03674  -0.02121  -0.02402
                          11        12        13        14        15
  11        2S          0.06215
  12 3   H  1S         -0.02402   0.11625
  13        2S         -0.02355   0.08298   0.06215
  14 4   H  1S         -0.02402  -0.01735  -0.02402   0.11625
  15        2S         -0.02355  -0.02402  -0.02355   0.08298   0.06215
    Full Mulliken population analysis:
                           1         2         3         4         5
   1 1   C  1S          2.06127
   2        2S         -0.02009   0.31305
   3        2PX         0.00000   0.00000   0.35931
   4        2PY         0.00000   0.00000   0.00000   0.40418
   5        2PZ         0.00000   0.00000   0.00000   0.00000   0.40418
   6        3S         -0.03515   0.23508   0.00000   0.00000   0.00000
   7        3PX         0.00000   0.00000   0.18057   0.00000   0.00000
   8        3PY         0.00000   0.00000   0.00000   0.09757   0.00000
   9        3PZ         0.00000   0.00000   0.00000   0.00000   0.09757
  10 2   H  1S         -0.00210   0.03329   0.00000   0.00000   0.09656
  11        2S         -0.00110   0.02021   0.00000   0.00000   0.05353
  12 3   H  1S         -0.00210   0.03329   0.00000   0.07242   0.02414
  13        2S         -0.00110   0.02021  -0.00000   0.04015   0.01338
  14 4   H  1S         -0.00210   0.03329  -0.00000   0.07242   0.02414
  15        2S         -0.00110   0.02021  -0.00000   0.04015   0.01338
                           6         7         8         9        10
   6        3S          0.27563
   7        3PX         0.00000   0.27954
   8        3PY         0.00000   0.00000   0.07270
   9        3PZ         0.00000   0.00000   0.00000   0.07270
  10 2   H  1S          0.04261   0.00000   0.00000   0.05692   0.21751
  11        2S          0.02672   0.00000   0.00000   0.04953   0.09729
  12 3   H  1S          0.04261  -0.00000   0.04269   0.01423  -0.00043
  13        2S          0.02672   0.00000   0.03715   0.01238  -0.00601
  14 4   H  1S          0.04261   0.00000   0.04269   0.01423  -0.00043
  15        2S          0.02672  -0.00000   0.03715   0.01238  -0.00601
                          11        12        13        14        15
  11        2S          0.10755
  12 3   H  1S         -0.00601   0.21751
  13        2S         -0.01583   0.09729   0.10755
  14 4   H  1S         -0.00601  -0.00043  -0.00601   0.21751
  15        2S         -0.01583  -0.00601  -0.01583   0.09729   0.10755
     Gross orbital populations:
                         Total     Alpha     Beta      Spin
   1 1   C  1S          1.99643   0.99826   0.99817   0.00009
   2        2S          0.68854   0.35493   0.33361   0.02132
   3        2PX         0.53988   0.53988   0.00000   0.53988
   4        2PY         0.72689   0.37472   0.35216   0.02256
   5        2PZ         0.72689   0.37473   0.35216   0.02256
   6        3S          0.68354   0.38257   0.30097   0.08160
   7        3PX         0.46012   0.46012  -0.00000   0.46012
   8        3PY         0.32995   0.17603   0.15392   0.02212
   9        3PZ         0.32995   0.17603   0.15392   0.02212
  10 2   H  1S          0.52921   0.25243   0.27678  -0.02435
  11        2S          0.31006   0.13515   0.17492  -0.03977
  12 3   H  1S          0.52921   0.25243   0.27678  -0.02435
  13        2S          0.31006   0.13515   0.17492  -0.03977
  14 4   H  1S          0.52921   0.25243   0.27678  -0.02435
  15        2S          0.31006   0.13515   0.17492  -0.03977
          Condensed to atoms (all electrons):
              1          2          3          4
     1  C    5.353680   0.376168   0.376167   0.376167
     2  H    0.376168   0.519635  -0.028266  -0.028266
     3  H    0.376167  -0.028266   0.519638  -0.028266
     4  H    0.376167  -0.028266  -0.028266   0.519638
 Mulliken atomic charges:
              1
     1  C   -0.482182
     2  H    0.160729
     3  H    0.160726
     4  H    0.160726
 Sum of Mulliken atomic charges =  -0.00000
 Mulliken charges with hydrogens summed into heavy atoms:
              1
     1  C   -0.000000
 Sum of Mulliken charges with hydrogens summed into heavy atoms =  -0.00000
          Atomic-Atomic Spin Densities.
              1          2          3          4
     1  C    1.223292  -0.010308  -0.010307  -0.010307
     2  H   -0.010308  -0.055659   0.000922   0.000922
     3  H   -0.010307   0.000922  -0.055660   0.000922
     4  H   -0.010307   0.000922   0.000922  -0.055660
 Mulliken atomic spin densities:
              1
     1  C    1.192370
     2  H   -0.064123
     3  H   -0.064124
     4  H   -0.064124
 Sum of Mulliken atomic spin densities =   1.00000
 Electronic spatial extent (au):  <R**2>=             29.5952
 Charge=             -0.0000 electrons
 Dipole moment (field-independent basis, Debye):
    X=             -0.0000    Y=              0.0000    Z=              0.0000  Tot=              0.0000
 Quadrupole moment (field-independent basis, Debye-Ang):
   XX=             -8.7124   YY=             -6.9871   ZZ=             -6.9871
   XY=              0.0000   XZ=              0.0000   YZ=             -0.0000
 Traceless Quadrupole moment (field-independent basis, Debye-Ang):
   XX=             -1.1502   YY=              0.5751   ZZ=              0.5751
   XY=              0.0000   XZ=              0.0000   YZ=             -0.0000
 Octapole moment (field-independent basis, Debye-Ang**2):
  XXX=              0.0000  YYY=             -0.0000  ZZZ=              0.8459  XYY=             -0.0000
  XXY=              0.0000  XXZ=              0.0000  XZZ=              0.0000  YZZ=              0.0000
  YYZ=             -0.8459  XYZ=             -0.0000
 Hexadecapole moment (field-independent basis, Debye-Ang**3):
 XXXX=             -9.0463 YYYY=            -13.9662 ZZZZ=            -13.9662 XXXY=              0.0000
 XXXZ=             -0.0000 YYYX=              0.0000 YYYZ=             -0.0000 ZZZX=             -0.0000
 ZZZY=              0.0000 XXYY=             -4.1730 XXZZ=             -4.1730 YYZZ=             -4.6554
 XXYZ=             -0.0000 YYXZ=              0.0000 ZZXY=              0.0000
 N-N= 9.579588592757D+00 E-N=-1.635886229818D+02  KE= 5.872402811400D+01
 Symmetry A    KE= 5.467777391511D+01
 Symmetry B    KE= 4.046254198898D+00
 Orbital energies and kinetic energies (alpha):
                                 1                 2
   1         O               -10.176116         15.958331
   2         O                -0.686710          1.338915
   3         O                -0.418598          0.983739
   4         O                -0.418598          0.983739
   5         O                -0.230091          1.139369
   6         V                 0.118753          1.005355
   7         V                 0.184823          0.853737
   8         V                 0.184823          0.853737
   9         V                 0.540240          2.074963
  10         V                 0.565102          1.601661
  11         V                 0.565103          1.601663
  12         V                 0.724814          1.703453
  13         V                 0.960675          2.740289
  14         V                 0.960676          2.740286
  15         V                 0.967183          2.636363
 Orbital energies and kinetic energies (beta):
                                 1                 2
   1         O               -10.160567         15.973548
   2         O                -0.640323          1.263272
   3         O                -0.406925          0.961575
   4         O                -0.406925          0.961573
   5         V                -0.044527          0.962007
   6         V                 0.135910          1.036263
   7         V                 0.191332          0.856681
   8         V                 0.191332          0.856682
   9         V                 0.579171          1.589636
  10         V                 0.579171          1.589638
  11         V                 0.631503          2.252326
  12         V                 0.750245          1.734135
  13         V                 0.964415          2.771535
  14         V                 0.964415          2.771532
  15         V                 0.998066          2.635199
 Total kinetic energy from orbitals= 3.956406018697D+01
                          Isotropic Fermi Contact Couplings
        Atom                 a.u.       MegaHertz       Gauss      10(-4) cm-1
     1  C(13)              0.15440     173.58018      61.93772      57.90012
     2  H(1)              -0.01927     -86.14063     -30.73712     -28.73342
     3  H(1)              -0.01927     -86.14139     -30.73739     -28.73367
     4  H(1)              -0.01927     -86.14139     -30.73739     -28.73367
 --------------------------------------------------------
       Center         ----  Spin Dipole Couplings  ----
                      3XX-RR        3YY-RR        3ZZ-RR
 --------------------------------------------------------
     1   Atom        1.069063     -0.534531     -0.534532
     2   Atom       -0.009770     -0.072325      0.082095
     3   Atom       -0.009770      0.043490     -0.033720
     4   Atom       -0.009770      0.043490     -0.033720
 --------------------------------------------------------
                        XY            XZ            YZ
 --------------------------------------------------------
     1   Atom        0.000000      0.000000     -0.000000
     2   Atom        0.000000     -0.000000      0.000000
     3   Atom       -0.000000      0.000000     -0.066866
     4   Atom       -0.000000     -0.000000      0.066866
 --------------------------------------------------------


 ---------------------------------------------------------------------------------
              Anisotropic Spin Dipole Couplings in Principal Axis System
 ---------------------------------------------------------------------------------

       Atom             a.u.   MegaHertz   Gauss  10(-4) cm-1        Axes

              Baa    -0.5345   -71.729   -25.595   -23.926  0.0000  0.0000  1.0000
     1 C(13)  Bbb    -0.5345   -71.729   -25.595   -23.926 -0.0000  1.0000 -0.0000
              Bcc     1.0691   143.458    51.189    47.852  1.0000  0.0000  0.0000
 
              Baa    -0.0723   -38.589   -13.770   -12.872 -0.0000  1.0000 -0.0000
     2 H(1)   Bbb    -0.0098    -5.213    -1.860    -1.739  1.0000  0.0000  0.0000
              Bcc     0.0821    43.802    15.630    14.611  0.0000  0.0000  1.0000
 
              Baa    -0.0723   -38.589   -13.770   -12.872 -0.0000  0.5000  0.8660
     3 H(1)   Bbb    -0.0098    -5.213    -1.860    -1.739  1.0000  0.0000  0.0000
              Bcc     0.0821    43.802    15.630    14.611 -0.0000  0.8660 -0.5000
 
              Baa    -0.0723   -38.589   -13.770   -12.872  0.0000 -0.5000  0.8660
     4 H(1)   Bbb    -0.0098    -5.213    -1.860    -1.739  1.0000  0.0000 -0.0000
              Bcc     0.0821    43.802    15.630    14.611 -0.0000  0.8660  0.5000
 

 ---------------------------------------------------------------------------------

 No NMR shielding tensors so no spin-rotation constants.
 Leave Link  601 at Sun Aug 18 00:14:40 2024, MaxMem=   13107200 cpu:       0.2
 (Enter /programs/64bit/g09/g09-gfortran/bin/l701.exe)
 Compute integral first derivatives.
 ... and contract with generalized density number  0.
 Leave Link  701 at Sun Aug 18 00:14:40 2024, MaxMem=   13107200 cpu:       0.1
 (Enter /programs/64bit/g09/g09-gfortran/bin/l702.exe)
 L702 exits ... SP integral derivatives will be done elsewhere.
 Leave Link  702 at Sun Aug 18 00:14:40 2024, MaxMem=   13107200 cpu:       0.0
 (Enter /programs/64bit/g09/g09-gfortran/bin/l703.exe)
 Compute integral first derivatives, UseDBF=F ICtDFT=           0.
 Integral derivatives from FoFDir, PRISM(SPDF).
 Calling FoFJK, ICntrl=      2127 FMM=F ISym2X=1 I1Cent= 0 IOpClX= 1 NMat=1 NMatS=1 NMatT=0.
 FoFCou: FMM=F IPFlag=           0 FMFlag=      100000 FMFlg1=         800
         NFxFlg=           0 DoJE=F BraDBF=F KetDBF=F FulRan=T
         Omega=  0.000000  0.000000  1.000000  0.000000  0.000000 ICntrl=    2127 IOpCl=  1
         NMat0=    1 NMatS0=    1 NMatT0=    0 NMatD0=    1 NMtDS0=    0 NMtDT0=    0
         I1Cent=           0 NGrid=           0.
 Petite list used in FoFCou.
 Leave Link  703 at Sun Aug 18 00:14:40 2024, MaxMem=   13107200 cpu:       0.4
 (Enter /programs/64bit/g09/g09-gfortran/bin/l716.exe)
 Dipole        =-2.74409577D-17 0.00000000D+00 2.74239101D-06
 ***** Axes restored to original set *****
 -------------------------------------------------------------------
 Center     Atomic                   Forces (Hartrees/Bohr)
 Number     Number              X              Y              Z
 -------------------------------------------------------------------
      1        6           0.000000000    0.000000000   -0.000002197
      2        1           0.000000000    0.000000000   -0.005076318
      3        1          -0.004394454   -0.000000000    0.002539257
      4        1           0.004394454    0.000000000    0.002539257
 -------------------------------------------------------------------
 Cartesian Forces:  Max     0.005076318 RMS     0.002537832
 Leave Link  716 at Sun Aug 18 00:14:40 2024, MaxMem=   13107200 cpu:       0.0
 (Enter /programs/64bit/g09/g09-gfortran/bin/l103.exe)

 GradGradGradGradGradGradGradGradGradGradGradGradGradGradGradGradGradGrad
 Berny optimization.
 Internal  Forces:  Max     0.005076318 RMS     0.003322803
 Search for a local minimum.
 Step number   1 out of a maximum of   20
 All quantities printed in internal units (Hartrees-Bohrs-Radians)
 RMS Force = .33228D-02 SwitMx=.10000D-02 MixMth= 1
 Mixed Optimization -- RFO/linear search
 Second derivative matrix not updated -- first step.
 The second derivative matrix:
                          R1        R2        R3        A1        A2
           R1           0.34813
           R2           0.00000   0.34813
           R3           0.00000   0.00000   0.34813
           A1           0.00000   0.00000   0.00000   0.16000
           A2           0.00000   0.00000   0.00000   0.00000   0.16000
           A3           0.00000   0.00000   0.00000   0.00000   0.00000
           D1           0.00000   0.00000   0.00000   0.00000   0.00000
                          A3        D1
           A3           0.16000
           D1           0.00000   0.00235
     Eigenvalues ---    0.00235   0.16000   0.16000   0.34813   0.34813
     Eigenvalues ---    0.348131000.00000
 RFO step:  Lambda=-2.21867336D-04 EMin= 2.34830060D-03
 Linear search not attempted -- first point.
 Iteration  1 RMS(Cart)=  0.00953874 RMS(Int)=  0.00000005
 Iteration  2 RMS(Cart)=  0.00000005 RMS(Int)=  0.00000000
 ClnCor:  largest displacement from symmetrization is 2.37D-11 for atom     1.
 Variable       Old X    -DE/DX   Delta X   Delta X   Delta X     New X
                                 (Linear)    (Quad)   (Total)
    R1        2.05980  -0.00508   0.00000  -0.01457  -0.01457   2.04523
    R2        2.05980  -0.00508   0.00000  -0.01457  -0.01457   2.04523
    R3        2.05980  -0.00508   0.00000  -0.01457  -0.01457   2.04523
    A1        2.09440  -0.00000   0.00000  -0.00001  -0.00001   2.09439
    A2        2.09440  -0.00000   0.00000  -0.00001  -0.00001   2.09439
    A3        2.09440   0.00000   0.00000   0.00002   0.00002   2.09441
    D1        3.14159   0.00000   0.00000   0.00000   0.00000   3.14159
         Item               Value     Threshold  Converged?
 Maximum Force            0.005076     0.000450     NO 
 RMS     Force            0.003323     0.000300     NO 
 Maximum Displacement     0.014579     0.001800     NO 
 RMS     Displacement     0.009539     0.001200     NO 
 Predicted change in Energy=-1.110044D-04
 GradGradGradGradGradGradGradGradGradGradGradGradGradGradGradGradGradGrad

 Leave Link  103 at Sun Aug 18 00:14:40 2024, MaxMem=   13107200 cpu:       0.0
 (Enter /programs/64bit/g09/g09-gfortran/bin/l202.exe)
                          Input orientation:                          
 ---------------------------------------------------------------------
 Center     Atomic      Atomic             Coordinates (Angstroms)
 Number     Number       Type             X           Y           Z
 ---------------------------------------------------------------------
      1          6           0        0.000000   -0.000000   -0.000003
      2          1           0        0.000000    0.000000    1.082285
      3          1           0        0.937295   -0.000000   -0.541141
      4          1           0       -0.937295    0.000000   -0.541141
 ---------------------------------------------------------------------
                    Distance matrix (angstroms):
                    1          2          3          4
     1  C    0.000000
     2  H    1.082289   0.000000
     3  H    1.082290   1.874576   0.000000
     4  H    1.082290   1.874576   1.874590   0.000000
 Stoichiometry    CH3(2)
 Framework group  C2[C2(CH),X(H2)]
 Deg. of freedom     3
 Prev. full point group           C2      NOp   2
 Prev. largest Abelian subgroup   C2      NOp   2
       concise Abelian subgroup   C2      NOp   2
                   Standard orientation:
 ---------------------------------------------------------------------
 Center     Atomic                     Coordinates (Angstroms)
 Number     Number                        X           Y           Z
 ---------------------------------------------------------------------
      1          6                    0.000000    0.000000   -0.000001
      2          1                    0.000000    0.000000    1.082287
      3          1                    0.000000    0.937295   -0.541139
      4          1                    0.000000   -0.937295   -0.541139
 ---------------------------------------------------------------------
 Rotational constants (GHZ):    285.4027898    285.3970846    142.6999686
 Leave Link  202 at Sun Aug 18 00:14:40 2024, MaxMem=   13107200 cpu:       0.0
 (Enter /programs/64bit/g09/g09-gfortran/bin/l301.exe)
 Standard basis: 6-31G (6D, 7F)
 Ernie: Thresh=  0.10000D-02 Tol=  0.10000D-05 Strict=F.
 There are     9 symmetry adapted basis functions of A   symmetry.
 There are     6 symmetry adapted basis functions of B   symmetry.
 Integral buffers will be    131072 words long.
 Raffenetti 2 integral format.
 Two-electron integral symmetry is turned on.
    15 basis functions,    34 primitive gaussians,    15 cartesian basis functions
     5 alpha electrons        4 beta electrons
       nuclear repulsion energy         9.6478356297 Hartrees.
 IExCor=  408 DFT=T Ex+Corr=B3PW91 ExCW=0 ScaHFX=  0.200000
 ScaDFX=  0.800000  0.720000  1.000000  0.810000 ScalE2=  1.000000  1.000000
 IRadAn=      0 IRanWt=     -1 IRanGd=            0 ICorTp=0
 NAtoms=    4 NActive=    4 NUniq=    3 SFac= 1.33D+00 NAtFMM=   80 NAOKFM=F Big=F
 Leave Link  301 at Sun Aug 18 00:14:40 2024, MaxMem=   13107200 cpu:       0.1
 (Enter /programs/64bit/g09/g09-gfortran/bin/l302.exe)
 NPDir=0 NMtPBC=     1 NCelOv=     1 NCel=       1 NClECP=     1 NCelD=      1
         NCelK=      1 NCelE2=     1 NClLst=     1 CellRange=     0.0.
 One-electron integrals computed using PRISM.
 One-electron integral symmetry used in STVInt
 NBasis=    15 RedAO= T  NBF=     9     6
 NBsUse=    15 1.00D-06 NBFU=     9     6
 Precomputing XC quadrature grid using
 IXCGrd= 2 IRadAn=           0 IRanWt=          -1 IRanGd=           0 AccXCQ= 1.00D-10.
 NRdTot=     243 NPtTot=       30652 NUsed=       32418 NTot=       32450
 NSgBfM=    15    15    15    15    15 NAtAll=     4     4.
 Leave Link  302 at Sun Aug 18 00:14:41 2024, MaxMem=   13107200 cpu:       0.1
 (Enter /programs/64bit/g09/g09-gfortran/bin/l303.exe)
 DipDrv:  MaxL=1.
 Leave Link  303 at Sun Aug 18 00:14:41 2024, MaxMem=   13107200 cpu:       0.0
 (Enter /programs/64bit/g09/g09-gfortran/bin/l401.exe)
 Initial guess read from the read-write file.
 B after Tr=     0.000000    0.000000    0.000000
         Rot=    1.000000    0.000000    0.000000    0.000000 Ang=   0.00 deg.
 Guess basis will be translated and rotated to current coordinates.
 Initial guess orbital symmetries:
 Alpha Orbitals:
       Occupied  (A) (A) (A) (B) (B)
       Virtual   (A) (B) (A) (B) (B) (A) (A) (B) (A) (A)
 Beta  Orbitals:
       Occupied  (A) (A) (A) (B)
       Virtual   (B) (A) (B) (A) (B) (A) (B) (A) (B) (A) (A)
 The electronic state of the initial guess is 2-B.
 Initial guess <Sx>= 0.0000 <Sy>= 0.0000 <Sz>= 0.5000 <S**2>= 0.7539 S= 0.5019
 Leave Link  401 at Sun Aug 18 00:14:41 2024, MaxMem=   13107200 cpu:       0.1
 (Enter /programs/64bit/g09/g09-gfortran/bin/l502.exe)
 UHF open shell SCF:
 Requested convergence on RMS density matrix=1.00D-08 within 128 cycles.
 Requested convergence on MAX density matrix=1.00D-06.
 Requested convergence on             energy=1.00D-06.
 No special actions if energy rises.
 Using DIIS extrapolation, IDIIS=  1040.
 Integral symmetry usage will be decided dynamically.
        32369 words used for storage of precomputed grid.
 Keep R1 and R2 ints in memory in canonical form, NReq=924409.
 IEnd=       52146 IEndB=       52146 NGot=    13107200 MDV=    13057609
 LenX=    13057609 LenY=    13056727
 Symmetry not used in FoFDir.
 MinBra= 0 MaxBra= 1 Meth= 1.
 IRaf=       0 NMat=   1 IRICut=       1 DoRegI=T DoRafI=F ISym2E= 0 JSym2E=0.

 Cycle   1  Pass 1  IDiag  1:
 E= -39.8161639396546    
 DIIS: error= 1.07D-03 at cycle   1 NSaved=   1.
 NSaved= 1 IEnMin= 1 EnMin= -39.8161639396546     IErMin= 1 ErrMin= 1.07D-03
 ErrMax= 1.07D-03 EMaxC= 1.00D-01 BMatC= 7.34D-05 BMatP= 7.34D-05
 IDIUse=3 WtCom= 9.89D-01 WtEn= 1.07D-02
 Coeff-Com:  0.100D+01
 Coeff-En:   0.100D+01
 Coeff:      0.100D+01
 Gap=     0.353 Goal=   None    Shift=    0.000
 Gap=     0.364 Goal=   None    Shift=    0.000
 GapD=    0.353 DampG=1.000 DampE=1.000 DampFc=1.0000 IDamp=-1.
 RMSDP=4.28D-04 MaxDP=2.30D-03              OVMax= 2.89D-03

 Cycle   2  Pass 1  IDiag  1:
 E= -39.8161810076876     Delta-E=       -0.000017068033 Rises=F Damp=F
 DIIS: error= 8.36D-04 at cycle   2 NSaved=   2.
 NSaved= 2 IEnMin= 2 EnMin= -39.8161810076876     IErMin= 2 ErrMin= 8.36D-04
 ErrMax= 8.36D-04 EMaxC= 1.00D-01 BMatC= 3.34D-05 BMatP= 7.34D-05
 IDIUse=3 WtCom= 9.92D-01 WtEn= 8.36D-03
 Coeff-Com:  0.384D+00 0.616D+00
 Coeff-En:   0.699D-01 0.930D+00
 Coeff:      0.381D+00 0.619D+00
 Gap=     0.352 Goal=   None    Shift=    0.000
 Gap=     0.364 Goal=   None    Shift=    0.000
 RMSDP=2.03D-04 MaxDP=1.71D-03 DE=-1.71D-05 OVMax= 1.34D-03

 Cycle   3  Pass 1  IDiag  1:
 E= -39.8161901582602     Delta-E=       -0.000009150573 Rises=F Damp=F
 DIIS: error= 1.82D-04 at cycle   3 NSaved=   3.
 NSaved= 3 IEnMin= 3 EnMin= -39.8161901582602     IErMin= 3 ErrMin= 1.82D-04
 ErrMax= 1.82D-04 EMaxC= 1.00D-01 BMatC= 1.63D-06 BMatP= 3.34D-05
 IDIUse=3 WtCom= 9.98D-01 WtEn= 1.82D-03
 Coeff-Com:  0.149D-01 0.187D+00 0.798D+00
 Coeff-En:   0.000D+00 0.000D+00 0.100D+01
 Coeff:      0.149D-01 0.187D+00 0.798D+00
 Gap=     0.352 Goal=   None    Shift=    0.000
 Gap=     0.364 Goal=   None    Shift=    0.000
 RMSDP=3.24D-05 MaxDP=2.23D-04 DE=-9.15D-06 OVMax= 2.22D-04

 Cycle   4  Pass 1  IDiag  1:
 E= -39.8161906119544     Delta-E=       -0.000000453694 Rises=F Damp=F
 DIIS: error= 1.09D-05 at cycle   4 NSaved=   4.
 NSaved= 4 IEnMin= 4 EnMin= -39.8161906119544     IErMin= 4 ErrMin= 1.09D-05
 ErrMax= 1.09D-05 EMaxC= 1.00D-01 BMatC= 2.59D-09 BMatP= 1.63D-06
 IDIUse=1 WtCom= 1.00D+00 WtEn= 0.00D+00
 Coeff-Com: -0.521D-02-0.270D-01-0.110D+00 0.114D+01
 Coeff:     -0.521D-02-0.270D-01-0.110D+00 0.114D+01
 Gap=     0.352 Goal=   None    Shift=    0.000
 Gap=     0.364 Goal=   None    Shift=    0.000
 RMSDP=3.53D-06 MaxDP=4.45D-05 DE=-4.54D-07 OVMax= 3.50D-05

 Cycle   5  Pass 1  IDiag  1:
 E= -39.8161906138474     Delta-E=       -0.000000001893 Rises=F Damp=F
 DIIS: error= 1.32D-06 at cycle   5 NSaved=   5.
 NSaved= 5 IEnMin= 5 EnMin= -39.8161906138474     IErMin= 5 ErrMin= 1.32D-06
 ErrMax= 1.32D-06 EMaxC= 1.00D-01 BMatC= 9.71D-11 BMatP= 2.59D-09
 IDIUse=1 WtCom= 1.00D+00 WtEn= 0.00D+00
 Coeff-Com:  0.114D-02 0.400D-02 0.157D-01-0.298D+00 0.128D+01
 Coeff:      0.114D-02 0.400D-02 0.157D-01-0.298D+00 0.128D+01
 Gap=     0.352 Goal=   None    Shift=    0.000
 Gap=     0.364 Goal=   None    Shift=    0.000
 RMSDP=7.47D-07 MaxDP=5.15D-06 DE=-1.89D-09 OVMax= 4.56D-06

 Cycle   6  Pass 1  IDiag  1:
 E= -39.8161906139300     Delta-E=       -0.000000000083 Rises=F Damp=F
 DIIS: error= 2.76D-07 at cycle   6 NSaved=   6.
 NSaved= 6 IEnMin= 6 EnMin= -39.8161906139300     IErMin= 6 ErrMin= 2.76D-07
 ErrMax= 2.76D-07 EMaxC= 1.00D-01 BMatC= 3.51D-12 BMatP= 9.71D-11
 IDIUse=1 WtCom= 1.00D+00 WtEn= 0.00D+00
 Coeff-Com: -0.231D-03-0.563D-03-0.197D-02 0.676D-01-0.448D+00 0.138D+01
 Coeff:     -0.231D-03-0.563D-03-0.197D-02 0.676D-01-0.448D+00 0.138D+01
 Gap=     0.352 Goal=   None    Shift=    0.000
 Gap=     0.364 Goal=   None    Shift=    0.000
 RMSDP=1.93D-07 MaxDP=9.34D-07 DE=-8.26D-11 OVMax= 1.15D-06

 Cycle   7  Pass 1  IDiag  1:
 E= -39.8161906139332     Delta-E=       -0.000000000003 Rises=F Damp=F
 DIIS: error= 1.62D-08 at cycle   7 NSaved=   7.
 NSaved= 7 IEnMin= 7 EnMin= -39.8161906139332     IErMin= 7 ErrMin= 1.62D-08
 ErrMax= 1.62D-08 EMaxC= 1.00D-01 BMatC= 1.16D-14 BMatP= 3.51D-12
 IDIUse=1 WtCom= 1.00D+00 WtEn= 0.00D+00
 Coeff-Com:  0.224D-04 0.428D-04 0.108D-03-0.687D-02 0.532D-01-0.204D+00
 Coeff-Com:  0.116D+01
 Coeff:      0.224D-04 0.428D-04 0.108D-03-0.687D-02 0.532D-01-0.204D+00
 Coeff:      0.116D+01
 Gap=     0.352 Goal=   None    Shift=    0.000
 Gap=     0.364 Goal=   None    Shift=    0.000
 RMSDP=1.02D-08 MaxDP=3.74D-08 DE=-3.20D-12 OVMax= 5.03D-08

 Cycle   8  Pass 1  IDiag  1:
 E= -39.8161906139332     Delta-E=        0.000000000000 Rises=F Damp=F
 DIIS: error= 1.25D-09 at cycle   8 NSaved=   8.
 NSaved= 8 IEnMin= 7 EnMin= -39.8161906139332     IErMin= 8 ErrMin= 1.25D-09
 ErrMax= 1.25D-09 EMaxC= 1.00D-01 BMatC= 8.89D-17 BMatP= 1.16D-14
 IDIUse=1 WtCom= 1.00D+00 WtEn= 0.00D+00
 Coeff-Com: -0.637D-06-0.516D-06 0.741D-05 0.223D-03-0.256D-02 0.133D-01
 Coeff-Com: -0.137D+00 0.113D+01
 Coeff:     -0.637D-06-0.516D-06 0.741D-05 0.223D-03-0.256D-02 0.133D-01
 Coeff:     -0.137D+00 0.113D+01
 Gap=     0.352 Goal=   None    Shift=    0.000
 Gap=     0.364 Goal=   None    Shift=    0.000
 RMSDP=5.13D-10 MaxDP=3.42D-09 DE= 1.42D-14 OVMax= 2.98D-09

 SCF Done:  E(UB3PW91) =  -39.8161906139     A.U. after    8 cycles
             Convg  =    0.5131D-09             -V/T =  2.0056
 <Sx>= 0.0000 <Sy>= 0.0000 <Sz>= 0.5000 <S**2>= 0.7539 S= 0.5019
 <L.S>=  0.00000000000    
 KE= 3.959538070115D+01 PE=-1.112135331051D+02 EE= 2.215412616031D+01
 Annihilation of the first spin contaminant:
 S**2 before annihilation     0.7539,   after     0.7500
 Leave Link  502 at Sun Aug 18 00:14:42 2024, MaxMem=   13107200 cpu:       1.5
 (Enter /programs/64bit/g09/g09-gfortran/bin/l701.exe)
 Compute integral first derivatives.
 ... and contract with generalized density number  0.
 Leave Link  701 at Sun Aug 18 00:14:42 2024, MaxMem=   13107200 cpu:       0.1
 (Enter /programs/64bit/g09/g09-gfortran/bin/l702.exe)
 L702 exits ... SP integral derivatives will be done elsewhere.
 Leave Link  702 at Sun Aug 18 00:14:42 2024, MaxMem=   13107200 cpu:       0.0
 (Enter /programs/64bit/g09/g09-gfortran/bin/l703.exe)
 Compute integral first derivatives, UseDBF=F ICtDFT=           0.
 Integral derivatives from FoFDir, PRISM(SPDF).
 Calling FoFJK, ICntrl=      2127 FMM=F ISym2X=1 I1Cent= 0 IOpClX= 1 NMat=1 NMatS=1 NMatT=0.
 FoFCou: FMM=F IPFlag=           0 FMFlag=      100000 FMFlg1=         800
         NFxFlg=           0 DoJE=F BraDBF=F KetDBF=F FulRan=T
         Omega=  0.000000  0.000000  1.000000  0.000000  0.000000 ICntrl=    2127 IOpCl=  1
         NMat0=    1 NMatS0=    1 NMatT0=    0 NMatD0=    1 NMtDS0=    0 NMtDT0=    0
         I1Cent=           0 NGrid=           0.
 Petite list used in FoFCou.
 Leave Link  703 at Sun Aug 18 00:14:43 2024, MaxMem=   13107200 cpu:       0.4
 (Enter /programs/64bit/g09/g09-gfortran/bin/l716.exe)
 Dipole        =-1.10933565D-31 1.49036339D-12 4.59584609D-06
 ***** Axes restored to original set *****
 -------------------------------------------------------------------
 Center     Atomic                   Forces (Hartrees/Bohr)
 Number     Number              X              Y              Z
 -------------------------------------------------------------------
      1        6           0.000000000   -0.000000000   -0.000002055
      2        1           0.000000000   -0.000000000    0.000306068
      3        1           0.000265133   -0.000000000   -0.000152006
      4        1          -0.000265133    0.000000000   -0.000152006
 -------------------------------------------------------------------
 Cartesian Forces:  Max     0.000306068 RMS     0.000152885
 Leave Link  716 at Sun Aug 18 00:14:43 2024, MaxMem=   13107200 cpu:       0.0
 (Enter /programs/64bit/g09/g09-gfortran/bin/l103.exe)

 GradGradGradGradGradGradGradGradGradGradGradGradGradGradGradGradGradGrad
 Berny optimization.
 Using GEDIIS/GDIIS optimizer.
 Internal  Forces:  Max     0.000306068 RMS     0.000200172
 Search for a local minimum.
 Step number   2 out of a maximum of   20
 All quantities printed in internal units (Hartrees-Bohrs-Radians)
 RMS Force = .20017D-03 SwitMx=.10000D-02 MixMth= 2
 Mixed Optimization -- En-DIIS/RFO-DIIS
 Update second derivatives using D2CorX and points    1    2
 DE= -1.05D-04 DEPred=-1.11D-04 R= 9.47D-01
 SS=  1.41D+00  RLast= 2.52D-02 DXNew= 5.0454D-01 7.5711D-02
 Trust test= 9.47D-01 RLast= 2.52D-02 DXMaxT set to 3.00D-01
 The second derivative matrix:
                          R1        R2        R3        A1        A2
           R1           0.35521
           R2           0.00707   0.35519
           R3           0.00707   0.00706   0.35519
           A1          -0.00001  -0.00001  -0.00001   0.16000
           A2          -0.00001  -0.00001  -0.00001  -0.00000   0.16000
           A3           0.00003   0.00003   0.00003   0.00000   0.00000
           D1          -0.00000  -0.00000  -0.00000  -0.00000  -0.00000
                          A3        D1
           A3           0.16000
           D1           0.00000   0.00235
 Use linear search instead of GDIIS.
     Eigenvalues ---    0.00235   0.16000   0.16000   0.34813   0.34813
     Eigenvalues ---    0.369331000.00000
 RFO step:  Lambda= 0.00000000D+00 EMin= 2.34830060D-03
 Quartic linear search produced a step of -0.05565.
 Iteration  1 RMS(Cart)=  0.00053084 RMS(Int)=  0.00000000
 Iteration  2 RMS(Cart)=  0.00000000 RMS(Int)=  0.00000000
 ClnCor:  largest displacement from symmetrization is 4.83D-11 for atom     4.
 Variable       Old X    -DE/DX   Delta X   Delta X   Delta X     New X
                                 (Linear)    (Quad)   (Total)
    R1        2.04523   0.00031   0.00081   0.00000   0.00081   2.04604
    R2        2.04523   0.00031   0.00081  -0.00000   0.00081   2.04604
    R3        2.04523   0.00031   0.00081  -0.00000   0.00081   2.04604
    A1        2.09439  -0.00000   0.00000  -0.00000  -0.00000   2.09438
    A2        2.09439  -0.00000   0.00000  -0.00000  -0.00000   2.09438
    A3        2.09441   0.00000  -0.00000   0.00001   0.00001   2.09442
    D1        3.14159  -0.00000   0.00000  -0.00000   0.00000   3.14159
         Item               Value     Threshold  Converged?
 Maximum Force            0.000306     0.000450     YES
 RMS     Force            0.000200     0.000300     YES
 Maximum Displacement     0.000808     0.001800     YES
 RMS     Displacement     0.000531     0.001200     YES
 Predicted change in Energy=-3.795554D-07
 Optimization completed.
    -- Stationary point found.
                           ----------------------------
                           !   Optimized Parameters   !
                           ! (Angstroms and Degrees)  !
 --------------------------                            --------------------------
 ! Name  Definition              Value          Derivative Info.                !
 --------------------------------------------------------------------------------
 ! R1    R(1,2)                  1.0823         -DE/DX =    0.0003              !
 ! R2    R(1,3)                  1.0823         -DE/DX =    0.0003              !
 ! R3    R(1,4)                  1.0823         -DE/DX =    0.0003              !
 ! A1    A(2,1,3)              119.9995         -DE/DX =    0.0                 !
 ! A2    A(2,1,4)              119.9995         -DE/DX =    0.0                 !
 ! A3    A(3,1,4)              120.0009         -DE/DX =    0.0                 !
 ! D1    D(2,1,4,3)            180.0            -DE/DX =    0.0                 !
 --------------------------------------------------------------------------------
 GradGradGradGradGradGradGradGradGradGradGradGradGradGradGradGradGradGrad

 Largest change from initial coordinates is atom    2       0.008 Angstoms.
 Leave Link  103 at Sun Aug 18 00:14:43 2024, MaxMem=   13107200 cpu:       0.0
 (Enter /programs/64bit/g09/g09-gfortran/bin/l202.exe)
                          Input orientation:                          
 ---------------------------------------------------------------------
 Center     Atomic      Atomic             Coordinates (Angstroms)
 Number     Number       Type             X           Y           Z
 ---------------------------------------------------------------------
      1          6           0        0.000000    0.000000   -0.000003
      2          1           0        0.000000    0.000000    1.082285
      3          1           0        0.937295    0.000000   -0.541141
      4          1           0       -0.937295    0.000000   -0.541141
 ---------------------------------------------------------------------
                    Distance matrix (angstroms):
                    1          2          3          4
     1  C    0.000000
     2  H    1.082289   0.000000
     3  H    1.082290   1.874576   0.000000
     4  H    1.082290   1.874576   1.874590   0.000000
 Stoichiometry    CH3(2)
 Framework group  C2[C2(CH),X(H2)]
 Deg. of freedom     3
 Prev. full point group           C2      NOp   2
 Prev. largest Abelian subgroup   C2      NOp   2
       concise Abelian subgroup   C2      NOp   2
                   Standard orientation:
 ---------------------------------------------------------------------
 Center     Atomic                     Coordinates (Angstroms)
 Number     Number                        X           Y           Z
 ---------------------------------------------------------------------
      1          6                    0.000000    0.000000   -0.000001
      2          1                    0.000000   -0.000000    1.082287
      3          1                    0.000000    0.937295   -0.541139
      4          1                    0.000000   -0.937295   -0.541139
 ---------------------------------------------------------------------
 TstSym:  Max error for IOp=  2 IAt=    2 Err= 6.09D-07
 TstSym:  IOp=  3 I=    5 IP=    3 Err= 6.09D-07
  CI=  0.000000000000D+00  0.000000000000D+00  0.000000000000D+00
   T=  3.728749765883D-23  3.044755245741D-07  2.045226164949D+00
 CIP=  0.000000000000D+00  1.771230853534D+00 -1.022604474469D+00
 Unable to use previous symmetry information.  Redetermining point group.
 No symmetry information on checkpoint file.  Reassigning symmetry.
 Symm:  InNGrp=C3V  InAxis=0.
 Stoichiometry    CH3(2)
 Framework group  C1[X(CH3)]
 Deg. of freedom     6
 Full point group                 C1      NOp   1
 Omega: Change in point group or standard orientation.

 Old FWG=C02  [C2(C1H1),X(H2)]
 New FWG=C01  [X(C1H3)]
 Largest Abelian subgroup         C1      NOp   1
 Largest concise Abelian subgroup C1      NOp   1
                         Standard orientation:                         
 ---------------------------------------------------------------------
 Center     Atomic      Atomic             Coordinates (Angstroms)
 Number     Number       Type             X           Y           Z
 ---------------------------------------------------------------------
      1          6           0        0.000000    0.000001    0.000000
      2          1           0       -0.000000   -1.082287    0.000000
      3          1           0       -0.937295    0.541139    0.000000
      4          1           0        0.937295    0.541139   -0.000000
 ---------------------------------------------------------------------
 Rotational constants (GHZ):    285.4027898    285.3970846    142.6999686
 Leave Link  202 at Sun Aug 18 00:14:43 2024, MaxMem=   13107200 cpu:       0.0
 (Enter /programs/64bit/g09/g09-gfortran/bin/l601.exe)
 Copying SCF densities to generalized density rwf, IOpCl= 1 IROHF=0.

 **********************************************************************

            Population analysis using the SCF density.

 **********************************************************************

 Orbital symmetries:
 Alpha Orbitals:
       Occupied  (A) (A) (A) (A) (A)
       Virtual   (A) (A) (A) (A) (A) (A) (A) (A) (A) (A)
 Beta  Orbitals:
       Occupied  (A) (A) (A) (A)
       Virtual   (A) (A) (A) (A) (A) (A) (A) (A) (A) (A) (A)
 The electronic state is 2-A.
 Alpha  occ. eigenvalues --  -10.17377  -0.68870  -0.42016  -0.42016  -0.23005
 Alpha virt. eigenvalues --    0.12178   0.18725   0.18725   0.54070   0.56241
 Alpha virt. eigenvalues --    0.56241   0.72515   0.96776   0.96776   0.97362
  Beta  occ. eigenvalues --  -10.15825  -0.64243  -0.40842  -0.40841
  Beta virt. eigenvalues --   -0.04455   0.13881   0.19366   0.19366   0.57639
  Beta virt. eigenvalues --    0.57639   0.63196   0.75160   0.97172   0.97172
  Beta virt. eigenvalues --    1.00415
     Alpha Molecular Orbital Coefficients:
                           1         2         3         4         5
                           O         O         O         O         O
     Eigenvalues --   -10.17377  -0.68870  -0.42016  -0.42016  -0.23005
   1 1   C  1S          0.99499  -0.20558   0.00000   0.00000   0.00000
   2        2S          0.03449   0.40226   0.00000  -0.00000   0.00000
   3        2PX         0.00000   0.00000  -0.00000   0.00000   0.59922
   4        2PY         0.00000   0.00000   0.46070   0.00000   0.00000
   5        2PZ         0.00000   0.00000   0.00000   0.46070   0.00000
   6        3S         -0.02208   0.40880   0.00000  -0.00000   0.00000
   7        3PX         0.00000   0.00000  -0.00000   0.00000   0.52893
   8        3PY         0.00000   0.00000   0.20174   0.00000   0.00000
   9        3PZ        -0.00000   0.00000   0.00000   0.20174   0.00000
  10 2   H  1S         -0.00126   0.14523   0.00000   0.28421   0.00000
  11        2S          0.00496   0.03642   0.00000   0.20839   0.00000
  12 3   H  1S         -0.00126   0.14523   0.24613  -0.14211  -0.00000
  13        2S          0.00496   0.03642   0.18047  -0.10419  -0.00000
  14 4   H  1S         -0.00126   0.14523  -0.24613  -0.14211   0.00000
  15        2S          0.00496   0.03642  -0.18047  -0.10419   0.00000
                           6         7         8         9        10
                           V         V         V         V         V
     Eigenvalues --     0.12178   0.18725   0.18725   0.54070   0.56241
   1 1   C  1S         -0.15009   0.00000   0.00000   0.00000  -0.00000
   2        2S          0.23714  -0.00001   0.00000   0.00000   0.00001
   3        2PX         0.00000   0.00000   0.00000  -1.05905   0.00000
   4        2PY         0.00000   0.00000  -0.40429   0.00000   0.00000
   5        2PZ        -0.00001  -0.40429   0.00000   0.00000  -0.80400
   6        3S          2.16519  -0.00005   0.00000   0.00000   0.00000
   7        3PX         0.00000   0.00000   0.00000   1.09585   0.00000
   8        3PY         0.00000   0.00000  -1.44958  -0.00000   0.00000
   9        3PZ        -0.00002  -1.44957   0.00000   0.00000   1.83842
  10 2   H  1S         -0.08251   0.10618   0.00000   0.00000  -0.45541
  11        2S         -1.08022   1.88424   0.00000   0.00000  -0.60810
  12 3   H  1S         -0.08252  -0.05309   0.09195   0.00000   0.22771
  13        2S         -1.08027  -0.94208   1.63179   0.00000   0.30404
  14 4   H  1S         -0.08252  -0.05309  -0.09195  -0.00000   0.22771
  15        2S         -1.08027  -0.94208  -1.63179  -0.00000   0.30404
                          11        12        13        14        15
                           V         V         V         V         V
     Eigenvalues --     0.56241   0.72515   0.96776   0.96776   0.97362
   1 1   C  1S          0.00000  -0.06007   0.00001   0.00000   0.04634
   2        2S          0.00000  -0.96801  -0.00039   0.00000  -1.86392
   3        2PX        -0.00000   0.00000   0.00000  -0.00000   0.00000
   4        2PY        -0.80401   0.00000   0.00000   0.82990   0.00000
   5        2PZ         0.00000  -0.00001   0.82990   0.00000  -0.00018
   6        3S          0.00000   1.99009   0.00075   0.00000   3.56241
   7        3PX         0.00000   0.00000   0.00000   0.00000   0.00000
   8        3PY         1.83847   0.00000   0.00000  -1.01508   0.00000
   9        3PZ         0.00000   0.00004  -1.01509   0.00000   0.00022
  10 2   H  1S          0.00000  -0.64237  -1.01438   0.00000   0.42359
  11        2S          0.00000  -0.09355   1.54847   0.00000  -1.16620
  12 3   H  1S         -0.39440  -0.64237   0.50731  -0.87855   0.42328
  13        2S         -0.52667  -0.09350  -0.77460   1.34121  -1.16571
  14 4   H  1S          0.39440  -0.64237   0.50731   0.87855   0.42328
  15        2S          0.52667  -0.09350  -0.77460  -1.34121  -1.16571
     Beta Molecular Orbital Coefficients:
                           1         2         3         4         5
                           O         O         O         O         V
     Eigenvalues --   -10.15825  -0.64243  -0.40842  -0.40841  -0.04455
   1 1   C  1S          0.99532  -0.19626   0.00000   0.00000   0.00000
   2        2S          0.03259   0.38667   0.00000  -0.00000   0.00000
   3        2PX         0.00000   0.00000  -0.00000   0.00000   0.50864
   4        2PY         0.00000   0.00000   0.44113   0.00000   0.00000
   5        2PZ         0.00000   0.00000   0.00000   0.44113   0.00000
   6        3S         -0.02122   0.32202   0.00000  -0.00000   0.00000
   7        3PX         0.00000   0.00000   0.00000   0.00000   0.61865
   8        3PY         0.00000   0.00000   0.17638   0.00000   0.00000
   9        3PZ        -0.00000   0.00000   0.00000   0.17639   0.00000
  10 2   H  1S         -0.00103   0.16574   0.00000   0.29898   0.00000
  11        2S          0.00474   0.07025   0.00000   0.23741   0.00000
  12 3   H  1S         -0.00103   0.16573   0.25893  -0.14949  -0.00000
  13        2S          0.00474   0.07025   0.20560  -0.11871  -0.00000
  14 4   H  1S         -0.00103   0.16573  -0.25893  -0.14949   0.00000
  15        2S          0.00474   0.07025  -0.20560  -0.11871   0.00000
                           6         7         8         9        10
                           V         V         V         V         V
     Eigenvalues --     0.13881   0.19366   0.19366   0.57639   0.57639
   1 1   C  1S         -0.15648   0.00000   0.00000  -0.00000   0.00000
   2        2S          0.23515  -0.00001   0.00000   0.00001   0.00000
   3        2PX         0.00000   0.00000   0.00000   0.00000   0.00000
   4        2PY         0.00000   0.00000  -0.40488   0.00000  -0.79067
   5        2PZ        -0.00001  -0.40488   0.00000  -0.79066   0.00000
   6        3S          2.21440  -0.00006   0.00000   0.00000   0.00000
   7        3PX         0.00000   0.00000   0.00000   0.00000  -0.00000
   8        3PY         0.00000   0.00000  -1.47019   0.00000   1.81599
   9        3PZ        -0.00003  -1.47017   0.00000   1.81595   0.00000
  10 2   H  1S         -0.06088   0.09106   0.00000  -0.47220   0.00000
  11        2S         -1.09581   1.89523   0.00000  -0.57490   0.00000
  12 3   H  1S         -0.06089  -0.04553   0.07886   0.23611  -0.40894
  13        2S         -1.09587  -0.94757   1.64130   0.28744  -0.49791
  14 4   H  1S         -0.06089  -0.04553  -0.07886   0.23611   0.40894
  15        2S         -1.09587  -0.94757  -1.64130   0.28744   0.49791
                          11        12        13        14        15
                           V         V         V         V         V
     Eigenvalues --     0.63196   0.75160   0.97172   0.97172   1.00415
   1 1   C  1S          0.00000  -0.06946   0.00000   0.00000   0.04545
   2        2S          0.00000  -0.81023  -0.00007   0.00000  -1.94117
   3        2PX         1.10541   0.00000   0.00000  -0.00000   0.00000
   4        2PY         0.00000   0.00000   0.00000   0.85275   0.00000
   5        2PZ         0.00000  -0.00001   0.85275   0.00000  -0.00003
   6        3S          0.00000   1.74637   0.00013   0.00000   3.66734
   7        3PX        -1.04782   0.00000   0.00000   0.00000   0.00000
   8        3PY        -0.00000   0.00000   0.00000  -1.03051   0.00000
[...]
 --------------------------------------------------------


 ---------------------------------------------------------------------------------
              Anisotropic Spin Dipole Couplings in Principal Axis System
 ---------------------------------------------------------------------------------

       Atom             a.u.   MegaHertz   Gauss  10(-4) cm-1        Axes

              Baa    -0.5346   -71.738   -25.598   -23.929  0.0000  1.0000 -0.0000
     1 C(13)  Bbb    -0.5346   -71.738   -25.598   -23.929  1.0000 -0.0000  0.0000
              Bcc     1.0692   143.476    51.196    47.859  0.0000  0.0000  1.0000
 
              Baa    -0.0732   -39.063   -13.938   -13.030  1.0000 -0.0000  0.0000
     2 H(1)   Bbb    -0.0092    -4.900    -1.748    -1.634  0.0000  0.0000  1.0000
              Bcc     0.0824    43.962    15.687    14.664  0.0000  1.0000 -0.0000
 
              Baa    -0.0732   -39.063   -13.938   -13.030 -0.5000  0.8660  0.0000
     3 H(1)   Bbb    -0.0092    -4.900    -1.748    -1.634  0.0000  0.0000  1.0000
              Bcc     0.0824    43.962    15.687    14.664  0.8660  0.5000 -0.0000
 
              Baa    -0.0732   -39.063   -13.938   -13.030  0.5000  0.8660  0.0000
     4 H(1)   Bbb    -0.0092    -4.900    -1.748    -1.634  0.0000  0.0000  1.0000
              Bcc     0.0824    43.962    15.687    14.664  0.8660 -0.5000  0.0000
 

 ---------------------------------------------------------------------------------

 No NMR shielding tensors so no spin-rotation constants.
 Leave Link  601 at Sun Aug 18 00:14:49 2024, MaxMem=   13107200 cpu:       0.1
 (Enter /programs/64bit/g09/g09-gfortran/bin/l701.exe)
 Compute integral second derivatives.
 ... and contract with generalized density number  0.
 Leave Link  701 at Sun Aug 18 00:14:49 2024, MaxMem=   13107200 cpu:       0.1
 (Enter /programs/64bit/g09/g09-gfortran/bin/l702.exe)
 L702 exits ... SP integral derivatives will be done elsewhere.
 Leave Link  702 at Sun Aug 18 00:14:49 2024, MaxMem=   13107200 cpu:       0.0
 (Enter /programs/64bit/g09/g09-gfortran/bin/l703.exe)
 Compute integral second derivatives, UseDBF=F ICtDFT=           0.
 Integral derivatives from FoFDir, PRISM(SPDF).
 Calling FoFJK, ICntrl=    100127 FMM=F ISym2X=1 I1Cent= 0 IOpClX= 1 NMat=1 NMatS=1 NMatT=0.
 FoFCou: FMM=F IPFlag=           0 FMFlag=      100000 FMFlg1=         800
         NFxFlg=           0 DoJE=F BraDBF=F KetDBF=F FulRan=T
         Omega=  0.000000  0.000000  1.000000  0.000000  0.000000 ICntrl=  100127 IOpCl=  1
         NMat0=    1 NMatS0=    1 NMatT0=    0 NMatD0=    1 NMtDS0=    0 NMtDT0=    0
         I1Cent=           0 NGrid=           0.
 Petite list used in FoFCou.
 Leave Link  703 at Sun Aug 18 00:14:51 2024, MaxMem=   13107200 cpu:       1.7
 (Enter /programs/64bit/g09/g09-gfortran/bin/l716.exe)
 Dipole        =-9.06302811D-12-4.59795164D-06-1.22855752D-33
 Polarizability= 1.16655391D+01 3.72610897D-10 1.16658238D+01
                 1.06885315D-11 8.26740878D-12 4.52794640D+00
 Full mass-weighted force constant matrix:
 Low frequencies ---  -68.4883  -67.1490  -63.3836   -0.0010   -0.0010    0.0007
 Low frequencies ---  537.6427 1434.9970 1435.1512
 Diagonal vibrational polarizability:
        0.0978716       0.0978911      10.5128804
 Harmonic frequencies (cm**-1), IR intensities (KM/Mole), Raman scattering
 activities (A**4/AMU), depolarization ratios for plane and unpolarized
 incident light, reduced masses (AMU), force constants (mDyne/A),
 and normal coordinates:
                     1                      2                      3
                    A"                     A'                     A'
 Frequencies --   537.6427              1434.9970              1435.1512
 Red. masses --     1.2356                 1.1034                 1.1034
 Frc consts  --     0.2104                 1.3387                 1.3390
 IR Inten    --   112.9213                 5.6796                 5.6806
  Atom  AN      X      Y      Z        X      Y      Z        X      Y      Z
     1   6    -0.00  -0.00   0.14    -0.09  -0.00  -0.00    -0.00   0.09   0.00
     2   1     0.00   0.00  -0.57     0.81  -0.00   0.00     0.00   0.07  -0.00
     3   1    -0.00  -0.00  -0.57     0.15  -0.38   0.00     0.38  -0.59  -0.00
     4   1     0.00   0.00  -0.57     0.15   0.38   0.00    -0.38  -0.59  -0.00
                     4                      5                      6
                    A'                     A'                     A'
 Frequencies --  3146.3624              3341.4851              3341.4896
 Red. masses --     1.0078                 1.1170                 1.1170
 Frc consts  --     5.8783                 7.3483                 7.3484
 IR Inten    --     0.0000                 9.8203                 9.8112
  Atom  AN      X      Y      Z        X      Y      Z        X      Y      Z
     1   6     0.00  -0.00   0.00    -0.00   0.10   0.00     0.10   0.00   0.00
     2   1    -0.00  -0.58  -0.00    -0.00  -0.81  -0.00     0.02  -0.00  -0.00
     3   1     0.50   0.29  -0.00    -0.36  -0.19  -0.00    -0.60  -0.36  -0.00
     4   1    -0.50   0.29  -0.00     0.36  -0.19  -0.00    -0.60   0.36  -0.00

 -------------------
 - Thermochemistry -
 -------------------
 Temperature   298.150 Kelvin.  Pressure   1.00000 Atm.
 Atom     1 has atomic number  6 and mass  12.00000
 Atom     2 has atomic number  1 and mass   1.00783
 Atom     3 has atomic number  1 and mass   1.00783
 Atom     4 has atomic number  1 and mass   1.00783
 Molecular mass:    15.02348 amu.
 Principal axes and moments of inertia in atomic units:
                           1         2         3
     Eigenvalues --     6.32349   6.32361  12.64710
           X            1.00000   0.00000   0.00000
           Y           -0.00000   1.00000   0.00000
           Z            0.00000  -0.00000   1.00000
 This molecule is an asymmetric top.
 Rotational symmetry number  1.
 Rotational temperatures (Kelvin)     13.69716    13.69688     6.84851
 Rotational constants (GHZ):         285.40279   285.39708   142.69997
 Zero-point vibrational energy      79175.6 (Joules/Mol)
                                   18.92342 (Kcal/Mol)
 Warning -- explicit consideration of   1 degrees of freedom as
           vibrations may cause significant error
 Vibrational temperatures:    773.55  2064.64  2064.86  4526.91  4807.65
          (Kelvin)           4807.65
 
 Zero-point correction=                           0.030156 (Hartree/Particle)
 Thermal correction to Energy=                    0.033200
 Thermal correction to Enthalpy=                  0.034144
 Thermal correction to Gibbs Free Energy=         0.010370
 Sum of electronic and zero-point Energies=            -39.786034
 Sum of electronic and thermal Energies=               -39.782991
 Sum of electronic and thermal Enthalpies=             -39.782047
 Sum of electronic and thermal Free Energies=          -39.805820
 
                     E (Thermal)             CV                S
                      KCal/Mol        Cal/Mol-Kelvin    Cal/Mol-Kelvin
 Total                   20.833              7.316             50.036
 Electronic               0.000              0.000              1.377
 Translational            0.889              2.981             34.068
 Rotational               0.889              2.981             13.989
 Vibrational             19.056              1.355              0.601
 Vibration     1          0.893              1.167              0.570
                       Q            Log10(Q)             Ln(Q)
 Total Bot       0.169847D-04         -4.769942        -10.983197
 Total V=0       0.126185D+10          9.101008         20.955845
 Vib (Bot)       0.145752D-13        -13.836386        -31.859456
 Vib (Bot)    1  0.295341D+00         -0.529676         -1.219624
 Vib (V=0)       0.108284D+01          0.034564          0.079587
 Vib (V=0)    1  0.108071D+01          0.033710          0.077620
 Electronic      0.200000D+01          0.301030          0.693147
 Translational   0.228882D+07          6.359611         14.643545
 Rotational      0.254568D+03          2.405803          5.539566
 
                                           methyl with imposed symmetry and 6-31G
  basis set
                                                             IR Spectrum
 
      3      3                                                                1                                                      
      3      1                                                                4                                 5                    
      4      4                                                                3                                 3                    
      1      6                                                                5                                 8                    
 
      X                                                                       X                                 X                    
      X                                                                       X                                 X                    
      X                                                                                                         X                    
                                                                                                                X                    
                                                                                                                X                    
                                                                                                                X                    
                                                                                                                X                    
                                                                                                                X                    
                                                                                                                X                    
                                                                                                                X                    
                                                                                                                X                    
                                                                                                                X                    
                                                                                                                X                    
                                                                                                                X                    
                                                                                                                X                    
                                                                                                                X                    
                                                                                                                X                    
                                                                                                                X                    
                                                                                                                X                    
                                                                                                                X                    
 
 ***** Axes restored to original set *****
 -------------------------------------------------------------------
 Center     Atomic                   Forces (Hartrees/Bohr)
 Number     Number              X              Y              Z
 -------------------------------------------------------------------
      1        6           0.000000000    0.000000000   -0.000002055
      2        1          -0.000000000   -0.000000000    0.000306067
      3        1           0.000265133    0.000000000   -0.000152006
      4        1          -0.000265133   -0.000000000   -0.000152006
 -------------------------------------------------------------------
 Cartesian Forces:  Max     0.000306067 RMS     0.000152885
 Force constants in Cartesian coordinates: 
                1             2             3             4             5 
      1  0.629521D+00
      2  0.000000D+00  0.264178D-01
      3  0.000000D+00  0.000000D+00  0.629487D+00
      4 -0.549081D-01  0.000000D+00  0.000000D+00  0.471676D-01
      5  0.000000D+00 -0.880246D-02  0.000000D+00  0.000000D+00  0.281835D-02
      6  0.000000D+00  0.000000D+00 -0.364750D+00  0.000000D+00  0.000000D+00
      7 -0.287306D+00  0.000000D+00  0.134146D+00  0.387026D-02  0.000000D+00
      8  0.000000D+00 -0.880765D-02  0.000000D+00  0.000000D+00  0.299205D-02
      9  0.134148D+00  0.000000D+00 -0.132369D+00  0.250943D-01  0.000000D+00
     10 -0.287306D+00  0.000000D+00 -0.134146D+00  0.387026D-02  0.000000D+00
     11  0.000000D+00 -0.880765D-02  0.000000D+00  0.000000D+00  0.299205D-02
     12 -0.134148D+00  0.000000D+00 -0.132369D+00 -0.250943D-01  0.000000D+00
                6             7             8             9            10 
      6  0.379643D+00
      7 -0.549595D-02  0.296541D+00
      8  0.000000D+00  0.000000D+00  0.281835D-02
      9 -0.744660D-02 -0.143946D+00  0.000000D+00  0.130288D+00
     10  0.549595D-02 -0.131043D-01  0.000000D+00 -0.152961D-01  0.296541D+00
     11  0.000000D+00  0.000000D+00  0.299725D-02  0.000000D+00  0.000000D+00
     12 -0.744660D-02  0.152961D-01  0.000000D+00  0.952752D-02  0.143946D+00
               11            12 
     11  0.281835D-02
     12  0.000000D+00  0.130288D+00
 Force constants in internal coordinates: 
                1             2             3             4             5 
      1  0.379643D+00
      2 -0.103640D-02  0.379638D+00
      3 -0.103640D-02 -0.103657D-02  0.379638D+00
      4  0.626994D-02  0.625971D-02 -0.125388D-01  0.659940D-01
      5  0.626994D-02 -0.125388D-01  0.625971D-02 -0.329915D-01  0.659940D-01
      6 -0.125399D-01  0.627909D-02  0.627909D-02 -0.330025D-01 -0.330025D-01
      7  0.000000D+00  0.000000D+00  0.000000D+00  0.000000D+00  0.000000D+00
                6             7 
      6  0.660051D-01
      7  0.000000D+00  0.936498D-02
 Leave Link  716 at Sun Aug 18 00:14:51 2024, MaxMem=   13107200 cpu:       0.0
 (Enter /programs/64bit/g09/g09-gfortran/bin/l103.exe)

 GradGradGradGradGradGradGradGradGradGradGradGradGradGradGradGradGradGrad
 Berny optimization.
 Internal  Forces:  Max     0.000306067 RMS     0.000200172
 Search for a local minimum.
 Step number   1 out of a maximum of    2
 All quantities printed in internal units (Hartrees-Bohrs-Radians)
 Second derivative matrix not updated -- analytic derivatives used.
 The second derivative matrix:
                          R1        R2        R3        A1        A2
           R1           0.37964
           R2          -0.00104   0.37964
           R3          -0.00104  -0.00104   0.37964
           A1           0.00627   0.00626  -0.01254   0.06599
           A2           0.00627  -0.01254   0.00626  -0.03299   0.06599
           A3          -0.01254   0.00628   0.00628  -0.03300  -0.03300
           D1           0.00000   0.00000   0.00000   0.00000  -0.00000
                          A3        D1
           A3           0.06601
           D1           0.00000   0.00936
     Eigenvalues ---    0.00936   0.09774   0.09776   0.37757   0.38192
     Eigenvalues ---    0.381931000.00000
 Angle between quadratic step and forces=   0.48 degrees.
 Linear search not attempted -- first point.
 Iteration  1 RMS(Cart)=  0.00053019 RMS(Int)=  0.00000000
 Iteration  2 RMS(Cart)=  0.00000000 RMS(Int)=  0.00000000
 ClnCor:  largest displacement from symmetrization is 5.09D-11 for atom     1.
 Variable       Old X    -DE/DX   Delta X   Delta X   Delta X     New X
                                 (Linear)    (Quad)   (Total)
    R1        2.04523   0.00031   0.00000   0.00081   0.00081   2.04604
    R2        2.04523   0.00031   0.00000   0.00081   0.00081   2.04604
    R3        2.04523   0.00031   0.00000   0.00081   0.00081   2.04604
    A1        2.09439  -0.00000   0.00000  -0.00001  -0.00001   2.09438
    A2        2.09439  -0.00000   0.00000  -0.00001  -0.00001   2.09438
    A3        2.09441   0.00000   0.00000   0.00001   0.00001   2.09442
    D1        3.14159   0.00000   0.00000  -0.00000   0.00000   3.14159
         Item               Value     Threshold  Converged?
 Maximum Force            0.000306     0.000450     YES
 RMS     Force            0.000200     0.000300     YES
 Maximum Displacement     0.000805     0.001800     YES
 RMS     Displacement     0.000530     0.001200     YES
 Predicted change in Energy=-3.714411D-07
 Optimization completed.
    -- Stationary point found.
                           ----------------------------
                           !   Optimized Parameters   !
                           ! (Angstroms and Degrees)  !
 --------------------------                            --------------------------
 ! Name  Definition              Value          Derivative Info.                !
 --------------------------------------------------------------------------------
 ! R1    R(1,2)                  1.0823         -DE/DX =    0.0003              !
 ! R2    R(1,3)                  1.0823         -DE/DX =    0.0003              !
 ! R3    R(1,4)                  1.0823         -DE/DX =    0.0003              !
 ! A1    A(2,1,3)              119.9995         -DE/DX =    0.0                 !
 ! A2    A(2,1,4)              119.9995         -DE/DX =    0.0                 !
 ! A3    A(3,1,4)              120.0009         -DE/DX =    0.0                 !
 ! D1    D(2,1,4,3)            180.0            -DE/DX =    0.0                 !
 --------------------------------------------------------------------------------
 GradGradGradGradGradGradGradGradGradGradGradGradGradGradGradGradGradGrad

 Leave Link  103 at Sun Aug 18 00:14:51 2024, MaxMem=   13107200 cpu:       0.0
 (Enter /programs/64bit/g09/g09-gfortran/bin/l9999.exe)
 1\1\GINC-MOLMOD\Freq\UB3PW91\6-31G\C1H3(2)\OSPITE\18-Aug-2024\0\\#P Ge
 om=AllCheck Guess=TCheck SCRF=Check GenChk UB3PW91/6-31G Freq\\methyl 
 with imposed symmetry and 6-31G basis set\\0,2\C,0.,0.,-0.0000033117\H
 ,0.,0.,1.0822852331\H,0.9372949183,0.,-0.5411409607\H,-0.9372949183,0.
 ,-0.5411409607\\Version=EM64L-G09RevA.02\State=2-A"\HF=-39.8161906\S2=
 0.753871\S2-1=0.\S2A=0.750009\RMSD=6.356e-11\RMSF=1.529e-04\ZeroPoint=
 0.0301564\Thermal=0.0331995\Dipole=0.,0.,0.0000046\DipoleDeriv=0.03223
 17,0.,0.,0.,-0.5288969,0.,0.,0.,0.0322652,0.0613343,0.,0.,0.,0.1763224
 ,0.,0.,0.,-0.0828536,-0.046783,0.,0.0624219,0.,0.1762873,0.,0.0624011,
 0.,0.0252942,-0.046783,0.,-0.0624219,0.,0.1762873,0.,-0.0624011,0.,0.0
 252942\Polar=11.6655391,0.,4.5279464,0.,0.,11.6658238\PG=CS [SG(C1H3)]
 \NImag=0\\0.62952111,0.,0.02641777,0.,0.,0.62948710,-0.05490814,0.,0.,
 0.04716762,0.,-0.00880246,0.,0.,0.00281835,0.,0.,-0.36474969,0.,0.,0.3
 7964289,-0.28730648,0.,0.13414618,0.00387026,0.,-0.00549595,0.29654050
 ,0.,-0.00880765,0.,0.,0.00299205,0.,0.,0.00281835,0.13414807,0.,-0.132
 36871,0.02509434,0.,-0.00744660,-0.14394632,0.,0.13028779,-0.28730648,
 0.,-0.13414618,0.00387026,0.,0.00549595,-0.01310428,0.,-0.01529609,0.2
 9654050,0.,-0.00880765,0.,0.,0.00299205,0.,0.,0.00299725,0.,0.,0.00281
 835,-0.13414807,0.,-0.13236870,-0.02509434,0.,-0.00744660,0.01529609,0
 .,0.00952752,0.14394632,0.,0.13028779\\0.,0.,0.00000205,0.,0.,-0.00030
 607,-0.00026513,0.,0.00015201,0.00026513,0.,0.00015201\\\@


 YOU KNOW YOU'VE SPOKEN TOO LONG WHEN THE AUDIENCE STOPS LOOKING AT
 THEIR WATCHES AND STARTS SHAKING THEM.
 Job cpu time:  0 days  0 hours  0 minutes  7.3 seconds.
 File lengths (MBytes):  RWF=      5 Int=      0 D2E=      0 Chk=      1 Scr=      1
 Normal termination of Gaussian 09 at Sun Aug 18 00:14:51 2024.
