 Entering Gaussian System, Link 0=/programs/64bit/g09/g09-gfortran/bin/g09
 Input=ch3_cc-pVDZ.com
 Output=ch3_cc-pVDZ.log
 Initial command:
 /programs/64bit/g09/g09-gfortran/bin/l1.exe /home/ospite/Desktop/MMfP/Project6/CH3/g09/DFT/B3PW91/Gau-18130.inp -scrdir=/home/ospite/Desktop/MMfP/Project6/CH3/g09/DFT/B3PW91/
 Entering Link 1 = /programs/64bit/g09/g09-gfortran/bin/l1.exe PID=     18131.
  
 Copyright (c) 1988,1990,1992,1993,1995,1998,2003,2009, Gaussian, Inc.
                  All Rights Reserved.
  
 This is part of the Gaussian(R) 09 program.  It is based on
 the Gaussian(R) 03 system (copyright 2003, Gaussian, Inc.),
 the Gaussian(R) 98 system (copyright 1998, Gaussian, Inc.),
 the Gaussian(R) 94 system (copyright 1995, Gaussian, Inc.),
 the Gaussian 92(TM) system (copyright 1992, Gaussian, Inc.),
 the Gaussian 90(TM) system (copyright 1990, Gaussian, Inc.),
 the Gaussian 88(TM) system (copyright 1988, Gaussian, Inc.),
 the Gaussian 86(TM) system (copyright 1986, Carnegie Mellon
 University), and the Gaussian 82(TM) system (copyright 1983,
 Carnegie Mellon University). Gaussian is a federally registered
 trademark of Gaussian, Inc.
  
 This software contains proprietary and confidential information,
 including trade secrets, belonging to Gaussian, Inc.
  
 This software is provided under written license and may be
 used, copied, transmitted, or stored only in accord with that
 written license.
  
 The following legend is applicable only to US Government
 contracts under FAR:
  
                    RESTRICTED RIGHTS LEGEND
  
 Use, reproduction and disclosure by the US Government is
 subject to restrictions as set forth in subparagraphs (a)
 and (c) of the Commercial Computer Software - Restricted
 Rights clause in FAR 52.227-19.
  
 Gaussian, Inc.
 340 Quinnipiac St., Bldg. 40, Wallingford CT 06492
  
  
 ---------------------------------------------------------------
 Warning -- This program may not be used in any manner that
 competes with the business of Gaussian, Inc. or will provide
 assistance to any competitor of Gaussian, Inc.  The licensee
 of this program is prohibited from giving any competitor of
 Gaussian, Inc. access to this program.  By using this program,
 the user acknowledges that Gaussian, Inc. is engaged in the
 business of creating and licensing software in the field of
 computational chemistry and represents and warrants to the
 licensee that it is not a competitor of Gaussian, Inc. and that
 it will not use this program in any manner prohibited above.
 ---------------------------------------------------------------
  

 Cite this work as:
 Gaussian 09, Revision A.02,
 M. J. Frisch, G. W. Trucks, H. B. Schlegel, G. E. Scuseria, 
 M. A. Robb, J. R. Cheeseman, G. Scalmani, V. Barone, B. Mennucci, 
 G. A. Petersson, H. Nakatsuji, M. Caricato, X. Li, H. P. Hratchian, 
 A. F. Izmaylov, J. Bloino, G. Zheng, J. L. Sonnenberg, M. Hada, 
 M. Ehara, K. Toyota, R. Fukuda, J. Hasegawa, M. Ishida, T. Nakajima, 
 Y. Honda, O. Kitao, H. Nakai, T. Vreven, J. A. Montgomery, Jr., 
 J. E. Peralta, F. Ogliaro, M. Bearpark, J. J. Heyd, E. Brothers, 
 K. N. Kudin, V. N. Staroverov, R. Kobayashi, J. Normand, 
 K. Raghavachari, A. Rendell, J. C. Burant, S. S. Iyengar, J. Tomasi, 
 M. Cossi, N. Rega, J. M. Millam, M. Klene, J. E. Knox, J. B. Cross, 
 V. Bakken, C. Adamo, J. Jaramillo, R. Gomperts, R. E. Stratmann, 
 O. Yazyev, A. J. Austin, R. Cammi, C. Pomelli, J. W. Ochterski, 
 R. L. Martin, K. Morokuma, V. G. Zakrzewski, G. A. Voth, 
 P. Salvador, J. J. Dannenberg, S. Dapprich, A. D. Daniels, 
 O. Farkas, J. B. Foresman, J. V. Ortiz, J. Cioslowski, 
 and D. J. Fox, Gaussian, Inc., Wallingford CT, 2009.
 
 ******************************************
 Gaussian 09:  EM64L-G09RevA.02 11-Jun-2009
                17-Aug-2024 
 ******************************************
 %mem=100MB
 --------------------------------------------------------------------
 #p b3pw91/cc-pVDZ opt freq symmetry=(follow,pg=C3v) pop=full gfinput
 --------------------------------------------------------------------
 1/14=-1,18=20,19=15,26=3,38=1/1,3;
 2/9=110,12=2,17=6,18=5,19=2314885530821997379,40=1/2;
 3/5=16,11=2,16=1,24=10,25=1,30=1,71=1,74=-6/1,2,3;
 4//1;
 5/5=2,38=5/2;
 6/7=3,28=1/1;
 7//1,2,3,16;
 1/14=-1,18=20,19=15/3(2);
 2/9=110,15=5,19=2314885530821997379/2;
 99//99;
 2/9=110,15=5,19=2314885530821997379/2;
 3/5=16,11=2,16=1,25=1,30=1,71=1,74=-6/1,2,3;
 4/5=5,16=3/1;
 5/5=2,38=5/2;
 7//1,2,3,16;
 1/14=-1,18=20,19=15/3(-5);
 2/9=110,15=5,19=2314885530821997379/2;
 6/7=3,19=2,28=1/1;
 99/9=1/99;
 Leave Link    1 at Sat Aug 17 23:44:43 2024, MaxMem=   13107200 cpu:       0.1
 (Enter /programs/64bit/g09/g09-gfortran/bin/l101.exe)
 --------------------------------------------------
 methyl with imposed symmetry and cc-pVDZ basis set
 --------------------------------------------------
 Symbolic Z-matrix:
 Charge =  0 Multiplicity = 2
 C1
 H2                   1    d
 H3                   1    d        2    a
 H4                   1    d        2    -a       3    t        0
       Variables:
  d                     1.09                     
  a                   120.                       
  t                     0.                       
 
 NAtoms=      4 NQM=      4 NQMF=      0 NMic=      0 NMicF=      0 NTot=      4.
                    Isotopes and Nuclear Properties:
 (Nuclear quadrupole moments (NQMom) in fm**2, nuclear magnetic moments (NMagM)
  in nuclear magnetons)

  Atom         1           2           3           4
 IAtWgt=          12           1           1           1
 AtmWgt=  12.0000000   1.0078250   1.0078250   1.0078250
 NucSpn=           0           1           1           1
 AtZEff=   0.0000000   0.0000000   0.0000000   0.0000000
 NQMom=    0.0000000   0.0000000   0.0000000   0.0000000
 NMagM=    0.0000000   2.7928460   2.7928460   2.7928460
 Leave Link  101 at Sat Aug 17 23:44:43 2024, MaxMem=   13107200 cpu:       0.1
 (Enter /programs/64bit/g09/g09-gfortran/bin/l103.exe)

 GradGradGradGradGradGradGradGradGradGradGradGradGradGradGradGradGradGrad
 Berny optimization.
 Initialization pass.
                           ----------------------------
                           !    Initial Parameters    !
                           ! (Angstroms and Degrees)  !
 --------------------------                            --------------------------
 ! Name  Definition              Value          Derivative Info.                !
 --------------------------------------------------------------------------------
 ! R1    R(1,2)                  1.09           estimate D2E/DX2                !
 ! R2    R(1,3)                  1.09           estimate D2E/DX2                !
 ! R3    R(1,4)                  1.09           estimate D2E/DX2                !
 ! A1    A(2,1,3)              120.0            estimate D2E/DX2                !
 ! A2    A(2,1,4)              120.0            estimate D2E/DX2                !
 ! A3    A(3,1,4)              120.0            estimate D2E/DX2                !
 ! D1    D(2,1,4,3)            180.0            estimate D2E/DX2                !
 --------------------------------------------------------------------------------
 Trust Radius=3.00D-01 FncErr=1.00D-07 GrdErr=1.00D-06
 Number of steps in this run=  20 maximum allowed number of steps= 100.
 GradGradGradGradGradGradGradGradGradGradGradGradGradGradGradGradGradGrad

 Leave Link  103 at Sat Aug 17 23:44:43 2024, MaxMem=   13107200 cpu:       0.0
 (Enter /programs/64bit/g09/g09-gfortran/bin/l202.exe)
                          Input orientation:                          
 ---------------------------------------------------------------------
 Center     Atomic      Atomic             Coordinates (Angstroms)
 Number     Number       Type             X           Y           Z
 ---------------------------------------------------------------------
      1          6           0        0.000000    0.000000    0.000000
      2          1           0        0.000000    0.000000    1.090000
      3          1           0        0.943968    0.000000   -0.545000
      4          1           0       -0.943968    0.000000   -0.545000
 ---------------------------------------------------------------------
                    Distance matrix (angstroms):
                    1          2          3          4
     1  C    0.000000
     2  H    1.090000   0.000000
     3  H    1.090000   1.887935   0.000000
     4  H    1.090000   1.887935   1.887935   0.000000
 Symm:  InNGrp=C3V  InAxis=0.
 This structure is nearly, but not quite of a higher symmetry.
 Consider Symm=Loose if the higher symmetry is desired.
 Stoichiometry    CH3(2)
 Framework group  C2[C2(CH),X(H2)]
 Deg. of freedom     3
 Full point group                 C2      NOp   2
 Largest Abelian subgroup         C2      NOp   2
 Largest concise Abelian subgroup C2      NOp   2
                         Standard orientation:                         
 ---------------------------------------------------------------------
 Center     Atomic      Atomic             Coordinates (Angstroms)
 Number     Number       Type             X           Y           Z
 ---------------------------------------------------------------------
      1          6           0        0.000000    0.000000    0.000000
      2          1           0        0.000000    0.000000    1.090000
      3          1           0        0.000000    0.943968   -0.545000
      4          1           0       -0.000000   -0.943968   -0.545000
 ---------------------------------------------------------------------
 Rotational constants (GHZ):    281.3764836    281.3764836    140.6882418
 Leave Link  202 at Sat Aug 17 23:44:43 2024, MaxMem=   13107200 cpu:       0.0
 (Enter /programs/64bit/g09/g09-gfortran/bin/l301.exe)
 Standard basis: CC-pVDZ (5D, 7F)
 Ernie: Thresh=  0.10000D-02 Tol=  0.10000D-05 Strict=F.
 Ernie:  2 primitive shells out of 37 were deleted.
 AO basis set in the form of general basis input (Overlap normalization):
      1 0
 S   7 1.00       0.000000000000
      0.6665000000D+04  0.6935163173D-03
      0.1000000000D+04  0.5341502433D-02
      0.2280000000D+03  0.2713667141D-01
      0.6471000000D+02  0.1019923853D+00
      0.2106000000D+02  0.2755086365D+00
      0.7495000000D+01  0.4510864331D+00
      0.2797000000D+01  0.2875657448D+00
 S   7 1.00       0.000000000000
      0.6665000000D+04  0.7733547404D-05
      0.2280000000D+03  0.2780721367D-03
      0.6471000000D+02 -0.2578756542D-02
      0.2106000000D+02 -0.8950876838D-02
      0.7495000000D+01 -0.1060588547D+00
      0.2797000000D+01 -0.1315176856D+00
      0.5215000000D+00  0.1099486598D+01
 S   1 1.00       0.000000000000
      0.1596000000D+00  0.1000000000D+01
 P   3 1.00       0.000000000000
      0.9439000000D+01  0.5697925159D-01
      0.2002000000D+01  0.3132072115D+00
      0.5456000000D+00  0.7603767417D+00
 P   1 1.00       0.000000000000
      0.1517000000D+00  0.1000000000D+01
 D   1 1.00       0.000000000000
      0.5500000000D+00  0.1000000000D+01
 ****
      2 0
 S   3 1.00       0.000000000000
      0.1301000000D+02  0.3349872639D-01
      0.1962000000D+01  0.2348008012D+00
      0.4446000000D+00  0.8136829579D+00
 S   1 1.00       0.000000000000
      0.1220000000D+00  0.1000000000D+01
 P   1 1.00       0.000000000000
      0.7270000000D+00  0.1000000000D+01
 ****
      3 0
 S   3 1.00       0.000000000000
      0.1301000000D+02  0.3349872639D-01
      0.1962000000D+01  0.2348008012D+00
      0.4446000000D+00  0.8136829579D+00
 S   1 1.00       0.000000000000
      0.1220000000D+00  0.1000000000D+01
 P   1 1.00       0.000000000000
      0.7270000000D+00  0.1000000000D+01
 ****
      4 0
 S   3 1.00       0.000000000000
      0.1301000000D+02  0.3349872639D-01
      0.1962000000D+01  0.2348008012D+00
      0.4446000000D+00  0.8136829579D+00
 S   1 1.00       0.000000000000
      0.1220000000D+00  0.1000000000D+01
 P   1 1.00       0.000000000000
      0.7270000000D+00  0.1000000000D+01
 ****

 There are    16 symmetry adapted basis functions of A   symmetry.
 There are    13 symmetry adapted basis functions of B   symmetry.
 Integral buffers will be    131072 words long.
 Raffenetti 2 integral format.
 Two-electron integral symmetry is turned on.
    29 basis functions,    54 primitive gaussians,    30 cartesian basis functions
     5 alpha electrons        4 beta electrons
       nuclear repulsion energy         9.5795885928 Hartrees.
 IExCor=  408 DFT=T Ex+Corr=B3PW91 ExCW=0 ScaHFX=  0.200000
 ScaDFX=  0.800000  0.720000  1.000000  0.810000 ScalE2=  1.000000  1.000000
 IRadAn=      0 IRanWt=     -1 IRanGd=            0 ICorTp=0
 NAtoms=    4 NActive=    4 NUniq=    3 SFac= 1.33D+00 NAtFMM=   80 NAOKFM=F Big=F
 Leave Link  301 at Sat Aug 17 23:44:43 2024, MaxMem=   13107200 cpu:       0.1
 (Enter /programs/64bit/g09/g09-gfortran/bin/l302.exe)
 NPDir=0 NMtPBC=     1 NCelOv=     1 NCel=       1 NClECP=     1 NCelD=      1
         NCelK=      1 NCelE2=     1 NClLst=     1 CellRange=     0.0.
 One-electron integrals computed using PRISM.
 One-electron integral symmetry used in STVInt
 NBasis=    29 RedAO= T  NBF=    16    13
 NBsUse=    29 1.00D-06 NBFU=    16    13
 Precomputing XC quadrature grid using
 IXCGrd= 2 IRadAn=           0 IRanWt=          -1 IRanGd=           0 AccXCQ= 1.00D-10.
 NRdTot=     246 NPtTot=       30798 NUsed=       32585 NTot=       32617
 NSgBfM=    30    30    30    30    30 NAtAll=     4     4.
 Leave Link  302 at Sat Aug 17 23:44:43 2024, MaxMem=   13107200 cpu:       0.2
 (Enter /programs/64bit/g09/g09-gfortran/bin/l303.exe)
 DipDrv:  MaxL=1.
 Leave Link  303 at Sat Aug 17 23:44:43 2024, MaxMem=   13107200 cpu:       0.0
 (Enter /programs/64bit/g09/g09-gfortran/bin/l401.exe)
 Harris functional with IExCor=  408 diagonalized for initial guess.
 ExpMin= 1.22D-01 ExpMax= 6.66D+03 ExpMxC= 2.28D+02 IAcc=1 IRadAn=         1 AccDes= 0.00D+00
 HarFok:  IExCor=  408 AccDes= 0.00D+00 IRadAn=         1 IDoV= 1
 ScaDFX=  1.000000  1.000000  1.000000  1.000000
 FoFCou: FMM=F IPFlag=           0 FMFlag=      100000 FMFlg1=           0
         NFxFlg=           0 DoJE=T BraDBF=F KetDBF=T FulRan=T
         Omega=  0.000000  0.000000  1.000000  0.000000  0.000000 ICntrl=     500 IOpCl=  0
         NMat0=    1 NMatS0=    1 NMatT0=    0 NMatD0=    1 NMtDS0=    0 NMtDT0=    0
         I1Cent=           4 NGrid=           0.
 Petite list used in FoFCou.
 Harris En= -39.8474013486451    
 Initial guess orbital symmetries:
 Alpha Orbitals:
       Occupied  (A) (A) (A) (B) (B)
       Virtual   (A) (A) (B) (B) (A) (A) (B) (A) (B) (A) (A) (B)
                 (B) (B) (A) (A) (B) (A) (B) (B) (A) (A) (B) (A)
 Beta  Orbitals:
       Occupied  (A) (A) (A) (B)
       Virtual   (B) (A) (A) (B) (B) (A) (A) (B) (A) (B) (A) (A)
                 (B) (B) (B) (A) (A) (B) (A) (B) (B) (A) (A) (B)
                 (A)
 The electronic state of the initial guess is 2-B.
 Initial guess <Sx>= 0.0000 <Sy>= 0.0000 <Sz>= 0.5000 <S**2>= 0.7500 S= 0.5000
 Leave Link  401 at Sat Aug 17 23:44:44 2024, MaxMem=   13107200 cpu:       0.3
 (Enter /programs/64bit/g09/g09-gfortran/bin/l502.exe)
 UHF open shell SCF:
 Requested convergence on RMS density matrix=1.00D-08 within 128 cycles.
 Requested convergence on MAX density matrix=1.00D-06.
 Requested convergence on             energy=1.00D-06.
 No special actions if energy rises.
 Using DIIS extrapolation, IDIIS=  1040.
 Integral symmetry usage will be decided dynamically.
        32536 words used for storage of precomputed grid.
 Keep R1 and R2 ints in memory in canonical form, NReq=1129225.
 IEnd=       53838 IEndB=       53838 NGot=    13107200 MDV=    12854215
 LenX=    12854215 LenY=    12852874
 Symmetry not used in FoFDir.
 MinBra= 0 MaxBra= 2 Meth= 1.
 IRaf=       0 NMat=   1 IRICut=       1 DoRegI=T DoRafI=F ISym2E= 0 JSym2E=0.
 Integral accuracy reduced to 1.0D-05 until final iterations.

 Cycle   1  Pass 0  IDiag  1:
 E= -39.7880335835114    
 DIIS: error= 4.22D-02 at cycle   1 NSaved=   1.
 NSaved= 1 IEnMin= 1 EnMin= -39.7880335835114     IErMin= 1 ErrMin= 4.22D-02
 ErrMax= 4.22D-02 EMaxC= 1.00D-01 BMatC= 1.17D-01 BMatP= 1.17D-01
 IDIUse=3 WtCom= 5.78D-01 WtEn= 4.22D-01
 Coeff-Com:  0.100D+01
 Coeff-En:   0.100D+01
 Coeff:      0.100D+01
 Gap=     0.258 Goal=   None    Shift=    0.000
 Gap=     0.375 Goal=   None    Shift=    0.000
 GapD=    0.258 DampG=1.000 DampE=0.500 DampFc=0.5000 IDamp=-1.
 Damping current iteration by 5.00D-01
 RMSDP=1.01D-02 MaxDP=1.37D-01              OVMax= 1.32D-01

 Cycle   2  Pass 0  IDiag  1:
 E= -39.8067483896846     Delta-E=       -0.018714806173 Rises=F Damp=T
 DIIS: error= 8.83D-03 at cycle   2 NSaved=   2.
 NSaved= 2 IEnMin= 2 EnMin= -39.8067483896846     IErMin= 2 ErrMin= 8.83D-03
 ErrMax= 8.83D-03 EMaxC= 1.00D-01 BMatC= 3.35D-03 BMatP= 1.17D-01
 IDIUse=3 WtCom= 9.12D-01 WtEn= 8.83D-02
 Coeff-Com: -0.124D-01 0.101D+01
 Coeff-En:   0.000D+00 0.100D+01
 Coeff:     -0.113D-01 0.101D+01
 Gap=     0.313 Goal=   None    Shift=    0.000
 Gap=     0.351 Goal=   None    Shift=    0.000
 RMSDP=1.29D-03 MaxDP=1.38D-02 DE=-1.87D-02 OVMax= 6.12D-02

 Cycle   3  Pass 0  IDiag  1:
 E= -39.8252148579564     Delta-E=       -0.018466468272 Rises=F Damp=F
 DIIS: error= 1.41D-03 at cycle   3 NSaved=   3.
 NSaved= 3 IEnMin= 3 EnMin= -39.8252148579564     IErMin= 3 ErrMin= 1.41D-03
 ErrMax= 1.41D-03 EMaxC= 1.00D-01 BMatC= 8.30D-05 BMatP= 3.35D-03
 IDIUse=3 WtCom= 9.86D-01 WtEn= 1.41D-02
 Coeff-Com: -0.572D-03-0.402D-01 0.104D+01
 Coeff-En:   0.000D+00 0.000D+00 0.100D+01
 Coeff:     -0.564D-03-0.396D-01 0.104D+01
 Gap=     0.317 Goal=   None    Shift=    0.000
 Gap=     0.354 Goal=   None    Shift=    0.000
 RMSDP=2.49D-04 MaxDP=3.34D-03 DE=-1.85D-02 OVMax= 3.38D-03

 Cycle   4  Pass 0  IDiag  1:
 E= -39.8252676849499     Delta-E=       -0.000052826993 Rises=F Damp=F
 DIIS: error= 3.87D-04 at cycle   4 NSaved=   4.
 NSaved= 4 IEnMin= 4 EnMin= -39.8252676849499     IErMin= 4 ErrMin= 3.87D-04
 ErrMax= 3.87D-04 EMaxC= 1.00D-01 BMatC= 8.83D-06 BMatP= 8.30D-05
 IDIUse=3 WtCom= 9.96D-01 WtEn= 3.87D-03
 Coeff-Com: -0.283D-02-0.374D-02-0.306D+00 0.131D+01
 Coeff-En:   0.000D+00 0.000D+00 0.000D+00 0.100D+01
 Coeff:     -0.282D-02-0.373D-02-0.305D+00 0.131D+01
 Gap=     0.318 Goal=   None    Shift=    0.000
 Gap=     0.355 Goal=   None    Shift=    0.000
 RMSDP=1.10D-04 MaxDP=1.14D-03 DE=-5.28D-05 OVMax= 1.54D-03

 Cycle   5  Pass 0  IDiag  1:
 E= -39.8252748426688     Delta-E=       -0.000007157719 Rises=F Damp=F
 DIIS: error= 7.16D-05 at cycle   5 NSaved=   5.
 NSaved= 5 IEnMin= 5 EnMin= -39.8252748426688     IErMin= 5 ErrMin= 7.16D-05
 ErrMax= 7.16D-05 EMaxC= 1.00D-01 BMatC= 2.87D-07 BMatP= 8.83D-06
 IDIUse=1 WtCom= 1.00D+00 WtEn= 0.00D+00
 Coeff-Com:  0.864D-03 0.309D-02 0.228D-01-0.300D+00 0.127D+01
 Coeff:      0.864D-03 0.309D-02 0.228D-01-0.300D+00 0.127D+01
 Gap=     0.318 Goal=   None    Shift=    0.000
 Gap=     0.355 Goal=   None    Shift=    0.000
 RMSDP=2.31D-05 MaxDP=2.20D-04 DE=-7.16D-06 OVMax= 3.21D-04

 Cycle   6  Pass 0  IDiag  1:
 E= -39.8252750970972     Delta-E=       -0.000000254428 Rises=F Damp=F
 DIIS: error= 6.19D-06 at cycle   6 NSaved=   6.
 NSaved= 6 IEnMin= 6 EnMin= -39.8252750970972     IErMin= 6 ErrMin= 6.19D-06
 ErrMax= 6.19D-06 EMaxC= 1.00D-01 BMatC= 1.65D-09 BMatP= 2.87D-07
 IDIUse=1 WtCom= 1.00D+00 WtEn= 0.00D+00
 Coeff-Com: -0.123D-04-0.415D-03 0.308D-02 0.943D-02-0.136D+00 0.112D+01
 Coeff:     -0.123D-04-0.415D-03 0.308D-02 0.943D-02-0.136D+00 0.112D+01
 Gap=     0.318 Goal=   None    Shift=    0.000
 Gap=     0.355 Goal=   None    Shift=    0.000
 RMSDP=1.79D-06 MaxDP=1.64D-05 DE=-2.54D-07 OVMax= 2.54D-05

 Initial convergence to 1.0D-05 achieved.  Increase integral accuracy.
 Cycle   7  Pass 1  IDiag  1:
 E= -39.8252813460577     Delta-E=       -0.000006248960 Rises=F Damp=F
 DIIS: error= 2.36D-06 at cycle   1 NSaved=   1.
 NSaved= 1 IEnMin= 1 EnMin= -39.8252813460577     IErMin= 1 ErrMin= 2.36D-06
 ErrMax= 2.36D-06 EMaxC= 1.00D-01 BMatC= 5.64D-10 BMatP= 5.64D-10
 IDIUse=1 WtCom= 1.00D+00 WtEn= 0.00D+00
 Coeff-Com:  0.100D+01
 Coeff:      0.100D+01
 Gap=     0.318 Goal=   None    Shift=    0.000
 Gap=     0.355 Goal=   None    Shift=    0.000
 RMSDP=1.79D-06 MaxDP=1.64D-05 DE=-6.25D-06 OVMax= 4.89D-06

 Cycle   8  Pass 1  IDiag  1:
 E= -39.8252813461877     Delta-E=       -0.000000000130 Rises=F Damp=F
 DIIS: error= 3.34D-07 at cycle   2 NSaved=   2.
 NSaved= 2 IEnMin= 2 EnMin= -39.8252813461877     IErMin= 2 ErrMin= 3.34D-07
 ErrMax= 3.34D-07 EMaxC= 1.00D-01 BMatC= 1.39D-11 BMatP= 5.64D-10
 IDIUse=1 WtCom= 1.00D+00 WtEn= 0.00D+00
 Coeff-Com:  0.281D-01 0.972D+00
 Coeff:      0.281D-01 0.972D+00
 Gap=     0.318 Goal=   None    Shift=    0.000
 Gap=     0.355 Goal=   None    Shift=    0.000
 RMSDP=9.64D-08 MaxDP=1.43D-06 DE=-1.30D-10 OVMax= 1.34D-06

 Cycle   9  Pass 1  IDiag  1:
 E= -39.8252813461899     Delta-E=       -0.000000000002 Rises=F Damp=F
 DIIS: error= 3.45D-07 at cycle   3 NSaved=   3.
 NSaved= 3 IEnMin= 3 EnMin= -39.8252813461899     IErMin= 2 ErrMin= 3.34D-07
 ErrMax= 3.45D-07 EMaxC= 1.00D-01 BMatC= 8.46D-12 BMatP= 1.39D-11
 IDIUse=1 WtCom= 1.00D+00 WtEn= 0.00D+00
 Coeff-Com: -0.145D-01 0.432D+00 0.583D+00
 Coeff:     -0.145D-01 0.432D+00 0.583D+00
 Gap=     0.318 Goal=   None    Shift=    0.000
 Gap=     0.355 Goal=   None    Shift=    0.000
 RMSDP=4.56D-08 MaxDP=6.70D-07 DE=-2.21D-12 OVMax= 6.23D-07

 Cycle  10  Pass 1  IDiag  1:
 E= -39.8252813461923     Delta-E=       -0.000000000002 Rises=F Damp=F
 DIIS: error= 5.30D-08 at cycle   4 NSaved=   4.
 NSaved= 4 IEnMin= 4 EnMin= -39.8252813461923     IErMin= 4 ErrMin= 5.30D-08
 ErrMax= 5.30D-08 EMaxC= 1.00D-01 BMatC= 1.26D-13 BMatP= 8.46D-12
 IDIUse=1 WtCom= 1.00D+00 WtEn= 0.00D+00
 Coeff-Com: -0.422D-02 0.381D-01 0.121D+00 0.846D+00
 Coeff:     -0.422D-02 0.381D-01 0.121D+00 0.846D+00
 Gap=     0.318 Goal=   None    Shift=    0.000
 Gap=     0.355 Goal=   None    Shift=    0.000
 RMSDP=7.86D-09 MaxDP=8.81D-08 DE=-2.45D-12 OVMax= 1.32D-07

 SCF Done:  E(UB3PW91) =  -39.8252813462     A.U. after   10 cycles
             Convg  =    0.7858D-08             -V/T =  2.0091
 <Sx>= 0.0000 <Sy>= 0.0000 <Sz>= 0.5000 <S**2>= 0.7543 S= 0.5022
 <L.S>=  0.00000000000    
 KE= 3.946542383897D+01 PE=-1.109565304709D+02 EE= 2.208623669293D+01
 Annihilation of the first spin contaminant:
 S**2 before annihilation     0.7543,   after     0.7500
 Leave Link  502 at Sat Aug 17 23:44:47 2024, MaxMem=   13107200 cpu:       2.8
 (Enter /programs/64bit/g09/g09-gfortran/bin/l601.exe)
 Copying SCF densities to generalized density rwf, IOpCl= 1 IROHF=0.

 **********************************************************************

            Population analysis using the SCF density.

 **********************************************************************

 Orbital symmetries:
 Alpha Orbitals:
       Occupied  (A) (A) (A) (B) (B)
       Virtual   (A) (B) (A) (B) (A) (B) (A) (B) (A) (A) (B) (A)
                 (B) (B) (A) (A) (B) (A) (B) (B) (A) (A) (A) (B)
 Beta  Orbitals:
       Occupied  (A) (A) (A) (B)
       Virtual   (B) (A) (B) (A) (B) (A) (A) (B) (A) (B) (A) (A)
                 (B) (B) (B) (A) (A) (B) (A) (B) (B) (A) (A) (B)
                 (A)
 The electronic state is 2-B.
 Alpha  occ. eigenvalues --  -10.18553  -0.68609  -0.41721  -0.41721  -0.23466
 Alpha virt. eigenvalues --    0.08315   0.15126   0.15126   0.44072   0.44072
 Alpha virt. eigenvalues --    0.47816   0.49041   0.66262   0.66262   0.85718
 Alpha virt. eigenvalues --    0.95108   0.95108   1.34994   1.44882   1.44882
 Alpha virt. eigenvalues --    1.47978   1.59032   1.83057   1.83057   2.07926
 Alpha virt. eigenvalues --    2.07926   2.44883   2.49801   2.49801
  Beta  occ. eigenvalues --  -10.17005  -0.64187  -0.40591  -0.40591
  Beta virt. eigenvalues --   -0.05118   0.09637   0.15641   0.15641   0.44792
  Beta virt. eigenvalues --    0.44792   0.52542   0.56909   0.67207   0.67207
  Beta virt. eigenvalues --    0.89483   0.99247   0.99247   1.34610   1.45406
  Beta virt. eigenvalues --    1.45407   1.55327   1.60537   1.86487   1.86487
  Beta virt. eigenvalues --    2.08296   2.08296   2.45576   2.50723   2.50723
     Alpha Molecular Orbital Coefficients:
                           1         2         3         4         5
                           O         O         O         O         O
     Eigenvalues --   -10.18553  -0.68609  -0.41721  -0.41721  -0.23466
   1 1   C  1S          0.99627  -0.19731   0.00000   0.00000   0.00000
   2        2S          0.02997   0.39487   0.00000   0.00000   0.00000
   3        3S         -0.01222   0.32165   0.00000   0.00000   0.00000
   4        4PX         0.00000   0.00000   0.00000  -0.00000   0.61246
   5        4PY         0.00000   0.00000   0.00000   0.45052   0.00000
   6        4PZ         0.00000   0.00000   0.45052   0.00000   0.00000
   7        5PX         0.00000   0.00000   0.00000  -0.00000   0.50840
   8        5PY         0.00000   0.00000   0.00000   0.17894   0.00000
   9        5PZ        -0.00000   0.00000   0.17895   0.00000   0.00000
  10        6D 0        0.00084  -0.00770   0.01437   0.00000   0.00000
  11        6D+1        0.00000   0.00000   0.00000  -0.00000  -0.00000
  12        6D-1        0.00000   0.00000   0.00000  -0.01659  -0.00000
  13        6D+2       -0.00145   0.01333   0.00830   0.00000   0.00000
  14        6D-2       -0.00000   0.00000   0.00000   0.00000   0.00000
  15 2   H  1S         -0.00235   0.19217   0.36480   0.00000   0.00000
  16        2S          0.00229   0.02192   0.13337   0.00000   0.00000
  17        3PX         0.00000   0.00000   0.00000   0.00000   0.02031
  18        3PY         0.00000   0.00000   0.00000   0.01421  -0.00000
  19        3PZ         0.00227  -0.02655  -0.01413   0.00000   0.00000
  20 3   H  1S         -0.00235   0.19217  -0.18240   0.31593  -0.00000
  21        2S          0.00229   0.02192  -0.06669   0.11550  -0.00000
  22        3PX        -0.00000   0.00000  -0.00000  -0.00000   0.02031
  23        3PY         0.00196  -0.02299   0.01227  -0.00705   0.00000
  24        3PZ        -0.00113   0.01328   0.00712   0.01227  -0.00000
  25 4   H  1S         -0.00235   0.19217  -0.18240  -0.31593   0.00000
  26        2S          0.00229   0.02192  -0.06669  -0.11550   0.00000
  27        3PX         0.00000  -0.00000   0.00000  -0.00000   0.02031
  28        3PY        -0.00196   0.02299  -0.01227  -0.00705   0.00000
  29        3PZ        -0.00113   0.01328   0.00712  -0.01227   0.00000
                           6         7         8         9        10
                           V         V         V         V         V
     Eigenvalues --     0.08315   0.15126   0.15126   0.44072   0.44072
   1 1   C  1S         -0.13295   0.00000   0.00000   0.00000  -0.00000
   2        2S          0.21018   0.00000  -0.00000   0.00000  -0.00000
   3        3S          1.95626   0.00000  -0.00000   0.00000   0.00001
   4        4PX         0.00000   0.00000   0.00000   0.00000   0.00000
   5        4PY         0.00000  -0.38411   0.00000  -0.29225   0.00000
   6        4PZ         0.00000   0.00000  -0.38410   0.00000  -0.29225
   7        5PX         0.00000   0.00000   0.00000  -0.00000   0.00000
   8        5PY         0.00000  -1.29134   0.00000   1.30356   0.00000
   9        5PZ        -0.00001   0.00000  -1.29135   0.00000   1.30356
  10        6D 0       -0.00317   0.00000   0.00856   0.00000  -0.12888
  11        6D+1        0.00000   0.00000   0.00000   0.00000   0.00000
  12        6D-1        0.00000  -0.00988   0.00000   0.14882   0.00000
  13        6D+2        0.00549   0.00000   0.00494   0.00000  -0.07441
  14        6D-2        0.00000   0.00000   0.00000   0.00000  -0.00000
  15 2   H  1S         -0.09338   0.00000   0.10060   0.00000  -0.77618
  16        2S         -0.94557   0.00000   1.96131   0.00000  -0.05583
  17        3PX         0.00000   0.00000   0.00000  -0.00000   0.00000
  18        3PY         0.00000  -0.01521   0.00000   0.08228   0.00000
  19        3PZ        -0.00343   0.00000   0.00389   0.00000  -0.01092
  20 3   H  1S         -0.09338   0.08711  -0.05030  -0.67219   0.38808
  21        2S         -0.94558   1.69855  -0.98065  -0.04835   0.02792
  22        3PX         0.00000   0.00000   0.00000   0.00000  -0.00000
  23        3PY        -0.00297  -0.00088  -0.00827   0.01238   0.04035
  24        3PZ         0.00171  -0.00827  -0.01044   0.04035   0.05898
  25 4   H  1S         -0.09338  -0.08711  -0.05030   0.67219   0.38808
  26        2S         -0.94558  -1.69855  -0.98065   0.04835   0.02792
  27        3PX        -0.00000   0.00000  -0.00000   0.00000   0.00000
  28        3PY         0.00297  -0.00088   0.00827   0.01238  -0.04035
  29        3PZ         0.00171   0.00827  -0.01044  -0.04035   0.05898
                          11        12        13        14        15
                           V         V         V         V         V
     Eigenvalues --     0.47816   0.49041   0.66262   0.66262   0.85718
   1 1   C  1S          0.00000   0.06966   0.00000   0.00000  -0.01576
   2        2S          0.00000   0.01919   0.00000   0.00000  -1.83117
   3        3S          0.00000  -0.25817   0.00000  -0.00000   4.06514
   4        4PX        -0.99332   0.00000   0.00000   0.00000   0.00000
   5        4PY        -0.00000   0.00000  -0.86144   0.00000   0.00000
   6        4PZ         0.00000  -0.00000   0.00000   0.86144  -0.00000
   7        5PX         1.08109   0.00000  -0.00000   0.00000   0.00000
   8        5PY         0.00000   0.00000   1.85759   0.00000   0.00000
   9        5PZ         0.00000   0.00001   0.00000  -1.85759  -0.00000
  10        6D 0        0.00000   0.13743   0.00000  -0.24790   0.00123
  11        6D+1        0.00000   0.00000  -0.00000   0.00000   0.00000
  12        6D-1        0.00000   0.00000  -0.28625   0.00000   0.00000
  13        6D+2        0.00000  -0.23804   0.00000  -0.14312  -0.00212
  14        6D-2        0.00000  -0.00000   0.00000   0.00000   0.00000
  15 2   H  1S          0.00000   0.67425   0.00000  -0.39461  -0.06677
  16        2S          0.00000  -0.37284   0.00000   1.90351  -0.99571
  17        3PX        -0.03324   0.00000  -0.00000   0.00000   0.00000
  18        3PY         0.00000   0.00000  -0.04336   0.00000   0.00000
  19        3PZ         0.00000   0.10077   0.00000  -0.23790   0.16327
  20 3   H  1S         -0.00000   0.67426   0.34174   0.19730  -0.06677
  21        2S         -0.00000  -0.37284  -1.64849  -0.95175  -0.99571
  22        3PX        -0.03325   0.00000   0.00000   0.00000   0.00000
  23        3PY         0.00000   0.08727   0.16759   0.12179   0.14140
  24        3PZ         0.00000  -0.05039  -0.12179  -0.02695  -0.08164
  25 4   H  1S          0.00000   0.67426  -0.34174   0.19730  -0.06677
  26        2S          0.00000  -0.37284   1.64849  -0.95175  -0.99571
  27        3PX        -0.03325  -0.00000   0.00000  -0.00000  -0.00000
  28        3PY         0.00000  -0.08727   0.16759  -0.12179  -0.14140
  29        3PZ        -0.00000  -0.05039   0.12179  -0.02695  -0.08164
                          16        17        18        19        20
                           V         V         V         V         V
     Eigenvalues --     0.95108   0.95108   1.34994   1.44882   1.44882
   1 1   C  1S          0.00000  -0.00000   0.00000   0.00000  -0.00000
   2        2S          0.00000   0.00000   0.00000   0.00000  -0.00001
   3        3S          0.00000  -0.00000   0.00000   0.00000   0.00003
   4        4PX         0.00000   0.00000   0.00000   0.00000   0.00000
   5        4PY        -0.00000   0.00000  -0.00000  -0.02782   0.00000
   6        4PZ         0.00000  -0.00000   0.00000   0.00000  -0.02782
   7        5PX        -0.00000   0.00000   0.00000  -0.00000   0.00000
   8        5PY         0.00000   0.00000  -0.00000   1.23743   0.00000
   9        5PZ         0.00000   0.00000   0.00000   0.00000   1.23743
  10        6D 0        0.00000   0.00000   0.00000   0.00000   0.47617
  11        6D+1        0.64879   0.00000  -0.00000  -0.00000   0.00000
  12        6D-1        0.00000   0.00000   0.00000  -0.54983   0.00000
  13        6D+2        0.00000  -0.00000   0.00000   0.00000   0.27490
  14        6D-2        0.00000   0.64879   0.00000   0.00000   0.00000
  15 2   H  1S          0.00000  -0.00000   0.00000   0.00000  -0.76725
  16        2S          0.00000   0.00000   0.00000   0.00000  -0.36018
  17        3PX         0.39579   0.00000  -0.00000  -0.00000   0.00000
  18        3PY         0.00000   0.00000   0.59394  -0.54785   0.00000
  19        3PZ         0.00000  -0.00000   0.00000   0.00000  -0.25554
  20 3   H  1S          0.00000  -0.00000   0.00000  -0.66445   0.38361
  21        2S         -0.00000   0.00000   0.00000  -0.31192   0.18008
  22        3PX        -0.19789   0.34276   0.00000   0.00000  -0.00000
  23        3PY        -0.00000  -0.00000  -0.29697  -0.32862  -0.12658
  24        3PZ        -0.00000   0.00000  -0.51436  -0.12657  -0.47477
  25 4   H  1S         -0.00000  -0.00000  -0.00000   0.66445   0.38361
  26        2S          0.00000   0.00000  -0.00000   0.31192   0.18008
  27        3PX        -0.19789  -0.34276   0.00000   0.00000   0.00000
  28        3PY        -0.00000   0.00000  -0.29697  -0.32862   0.12658
  29        3PZ         0.00000   0.00000   0.51436   0.12657  -0.47477
                          21        22        23        24        25
                           V         V         V         V         V
     Eigenvalues --     1.47978   1.59032   1.83057   1.83057   2.07926
   1 1   C  1S         -0.05882   0.00000  -0.00000   0.00000   0.00000
   2        2S         -0.63966   0.00000  -0.00000   0.00000   0.00000
   3        3S          1.54808   0.00000  -0.00000   0.00000   0.00000
   4        4PX         0.00000  -0.25633   0.00000  -0.00000   0.00000
   5        4PY         0.00000  -0.00000   0.00000  -0.00000  -0.59298
   6        4PZ         0.00000   0.00000   0.00000   0.00000   0.00000
   7        5PX         0.00000  -0.44777   0.00000  -0.00000   0.00000
   8        5PY         0.00000   0.00000   0.00000  -0.00000  -0.69023
   9        5PZ        -0.00002   0.00000  -0.00000   0.00000   0.00000
  10        6D 0        0.52488   0.00000   0.00000   0.00000   0.00000
  11        6D+1        0.00000  -0.00000   0.00000   1.01026  -0.00000
  12        6D-1        0.00000  -0.00000   0.00000  -0.00000  -0.64079
  13        6D+2       -0.90914   0.00000  -0.00000   0.00000   0.00000
  14        6D-2       -0.00000   0.00000   1.01026   0.00000   0.00000
  15 2   H  1S         -0.54990   0.00000   0.00000   0.00000   0.00000
  16        2S         -0.14350   0.00000   0.00000   0.00000   0.00000
  17        3PX         0.00000   0.66754   0.00000  -0.90216   0.00000
  18        3PY         0.00000   0.00000   0.00000   0.00000   0.83673
  19        3PZ        -0.13062   0.00000  -0.00000   0.00000   0.00000
  20 3   H  1S         -0.54992   0.00000   0.00000   0.00000   0.04319
  21        2S         -0.14351  -0.00000  -0.00000   0.00000   0.62277
  22        3PX         0.00000   0.66754  -0.78129   0.45108  -0.00000
  23        3PY        -0.11312  -0.00000  -0.00000  -0.00000  -0.24272
  24        3PZ         0.06532   0.00000   0.00000   0.00000   0.62322
  25 4   H  1S         -0.54992  -0.00000   0.00000  -0.00000  -0.04319
  26        2S         -0.14351   0.00000  -0.00000  -0.00000  -0.62277
  27        3PX        -0.00000   0.66754   0.78129   0.45108  -0.00000
  28        3PY         0.11312  -0.00000   0.00000  -0.00000  -0.24272
  29        3PZ         0.06532  -0.00000   0.00000  -0.00000  -0.62322
                          26        27        28        29
                           V         V         V         V
     Eigenvalues --     2.07926   2.44883   2.49801   2.49801
   1 1   C  1S         -0.00000  -0.05825  -0.00000   0.00000
   2        2S          0.00000   1.28236   0.00001   0.00000
   3        3S          0.00000   1.90014   0.00001   0.00000
   4        4PX         0.00000   0.00000   0.00000   0.00000
   5        4PY         0.00000   0.00000   0.00000  -1.29466
   6        4PZ        -0.59298   0.00001  -1.29466   0.00000
   7        5PX         0.00000   0.00000   0.00000   0.00000
   8        5PY         0.00000   0.00000   0.00000  -0.75764
   9        5PZ        -0.69023   0.00001  -0.75764   0.00000
  10        6D 0        0.55494   0.45811  -1.40386   0.00000
  11        6D+1        0.00000   0.00000   0.00000  -0.00000
  12        6D-1        0.00000   0.00000   0.00000   1.62104
  13        6D+2        0.32040  -0.79345  -0.81053   0.00000
  14        6D-2       -0.00000   0.00000   0.00000   0.00000
  15 2   H  1S          0.04987  -0.89582   1.45528   0.00000
  16        2S          0.71911  -0.42330   0.50646   0.00000
  17        3PX         0.00000   0.00000   0.00000   0.00000
  18        3PY         0.00000   0.00000   0.00000  -0.48271
  19        3PZ        -0.60253   0.99281  -1.24389   0.00000
  20 3   H  1S         -0.02494  -0.89581  -0.72765   1.26031
  21        2S         -0.35956  -0.42329  -0.25324   0.43861
  22        3PX         0.00000  -0.00000  -0.00000  -0.00000
  23        3PY         0.62322   0.85979   0.32961  -1.05360
  24        3PZ         0.47691  -0.49640  -0.67301   0.32961
  25 4   H  1S         -0.02494  -0.89581  -0.72765  -1.26031
  26        2S         -0.35956  -0.42329  -0.25324  -0.43861
  27        3PX        -0.00000   0.00000   0.00000  -0.00000
  28        3PY        -0.62322  -0.85979  -0.32961  -1.05360
  29        3PZ         0.47691  -0.49640  -0.67301  -0.32961
     Beta Molecular Orbital Coefficients:
                           1         2         3         4         5
                           O         O         O         O         V
     Eigenvalues --   -10.17005  -0.64187  -0.40591  -0.40591  -0.05118
   1 1   C  1S          0.99653  -0.18994   0.00000   0.00000   0.00000
   2        2S          0.02765   0.37092   0.00000   0.00000   0.00000
   3        3S         -0.01101   0.27897   0.00000   0.00000   0.00000
   4        4PX         0.00000   0.00000   0.00000  -0.00000   0.51307
   5        4PY         0.00000   0.00000   0.00000   0.43059   0.00000
   6        4PZ         0.00000   0.00000   0.43059   0.00000   0.00000
   7        5PX         0.00000   0.00000   0.00000  -0.00000   0.59813
   8        5PY         0.00000   0.00000   0.00000   0.15292   0.00000
   9        5PZ        -0.00000   0.00000   0.15292   0.00000   0.00000
  10        6D 0        0.00115   0.00774   0.01278   0.00000   0.00000
  11        6D+1        0.00000   0.00000   0.00000   0.00000   0.00000
  12        6D-1        0.00000   0.00000   0.00000  -0.01475  -0.00000
  13        6D+2       -0.00199  -0.01340   0.00738   0.00000   0.00000
  14        6D-2       -0.00000   0.00000  -0.00000   0.00000   0.00000
  15 2   H  1S         -0.00229   0.21005   0.38500   0.00000   0.00000
  16        2S          0.00209   0.03694   0.15817   0.00000   0.00000
  17        3PX         0.00000   0.00000   0.00000  -0.00000   0.02926
  18        3PY         0.00000   0.00000   0.00000   0.01571  -0.00000
  19        3PZ         0.00204  -0.02552  -0.01497   0.00000   0.00000
  20 3   H  1S         -0.00229   0.21006  -0.19250   0.33342  -0.00000
  21        2S          0.00209   0.03694  -0.07909   0.13698  -0.00000
  22        3PX        -0.00000   0.00000   0.00000  -0.00000   0.02926
  23        3PY         0.00177  -0.02210   0.01329  -0.00730   0.00000
  24        3PZ        -0.00102   0.01276   0.00804   0.01329  -0.00000
  25 4   H  1S         -0.00229   0.21006  -0.19250  -0.33342   0.00000
  26        2S          0.00209   0.03694  -0.07909  -0.13698   0.00000
  27        3PX         0.00000  -0.00000  -0.00000  -0.00000   0.02926
  28        3PY        -0.00177   0.02210  -0.01329  -0.00730   0.00000
  29        3PZ        -0.00102   0.01276   0.00804  -0.01329   0.00000
                           6         7         8         9        10
                           V         V         V         V         V
     Eigenvalues --     0.09637   0.15641   0.15641   0.44792   0.44792
   1 1   C  1S         -0.13761   0.00000   0.00000   0.00000  -0.00000
   2        2S          0.18957   0.00000  -0.00000   0.00000  -0.00000
   3        3S          2.02909   0.00000  -0.00001   0.00000   0.00001
   4        4PX         0.00000   0.00000   0.00000   0.00000   0.00000
   5        4PY         0.00000  -0.37904   0.00000  -0.26466   0.00000
   6        4PZ        -0.00000   0.00000  -0.37904   0.00000  -0.26466
   7        5PX         0.00000   0.00000   0.00000  -0.00000   0.00000
   8        5PY         0.00000  -1.30896   0.00000   1.25975   0.00000
   9        5PZ        -0.00001   0.00000  -1.30896   0.00000   1.25975
  10        6D 0        0.01194   0.00000   0.00581   0.00000  -0.13094
  11        6D+1        0.00000   0.00000   0.00000   0.00000   0.00000
  12        6D-1        0.00000  -0.00671   0.00000   0.15119   0.00000
  13        6D+2       -0.02069   0.00000   0.00336   0.00000  -0.07559
  14        6D-2        0.00000   0.00000   0.00000   0.00000  -0.00000
  15 2   H  1S         -0.07340   0.00000   0.08217   0.00000  -0.78453
  16        2S         -0.97044   0.00000   1.97818   0.00000  -0.01282
  17        3PX         0.00000   0.00000   0.00000  -0.00000   0.00000
  18        3PY         0.00000  -0.01691   0.00000   0.08870   0.00000
  19        3PZ        -0.00242   0.00000   0.00524   0.00000  -0.01511
  20 3   H  1S         -0.07340   0.07116  -0.04108  -0.67942   0.39226
  21        2S         -0.97046   1.71315  -0.98908  -0.01110   0.00641
  22        3PX         0.00000   0.00000   0.00000   0.00000  -0.00000
  23        3PY        -0.00209  -0.00030  -0.00959   0.01084   0.04495
  24        3PZ         0.00121  -0.00959  -0.01138   0.04495   0.06275
  25 4   H  1S         -0.07340  -0.07116  -0.04108   0.67942   0.39226
  26        2S         -0.97046  -1.71315  -0.98908   0.01110   0.00641
  27        3PX        -0.00000   0.00000  -0.00000   0.00000   0.00000
  28        3PY         0.00209  -0.00030   0.00959   0.01084  -0.04495
  29        3PZ         0.00121   0.00959  -0.01138  -0.04495   0.06275
                          11        12        13        14        15
                           V         V         V         V         V
     Eigenvalues --     0.52542   0.56909   0.67207   0.67207   0.89483
   1 1   C  1S          0.08324   0.00000   0.00000   0.00000  -0.01793
   2        2S         -0.04931   0.00000   0.00000   0.00000  -1.81863
   3        3S         -0.25285   0.00000  -0.00001   0.00000   4.06134
   4        4PX         0.00000   1.04331   0.00000  -0.00000   0.00000
   5        4PY         0.00000   0.00000   0.00000  -0.87088   0.00000
   6        4PZ        -0.00000   0.00000   0.87088   0.00000  -0.00000
   7        5PX         0.00000  -1.03350   0.00000  -0.00000   0.00000
   8        5PY         0.00000  -0.00000   0.00000   1.87196   0.00000
   9        5PZ         0.00001   0.00000  -1.87196   0.00000  -0.00000
  10        6D 0        0.11173   0.00000  -0.24531   0.00000  -0.00317
  11        6D+1        0.00000   0.00000   0.00000   0.00000   0.00000
  12        6D-1        0.00000  -0.00000   0.00000  -0.28326   0.00000
  13        6D+2       -0.19353   0.00000  -0.14163   0.00000   0.00550
  14        6D-2        0.00000   0.00000  -0.00000   0.00000   0.00000
  15 2   H  1S          0.69338   0.00000  -0.37019   0.00000  -0.09776
  16        2S         -0.37155   0.00000   1.88476   0.00000  -0.97370
  17        3PX         0.00000   0.04108   0.00000  -0.00000   0.00000
  18        3PY         0.00000  -0.00000   0.00000  -0.04126   0.00000
  19        3PZ         0.11163   0.00000  -0.24544   0.00000   0.16794
  20 3   H  1S          0.69338   0.00000   0.18509   0.32059  -0.09776
  21        2S         -0.37154   0.00000  -0.94238  -1.63225  -0.97370
  22        3PX         0.00000   0.04108   0.00000  -0.00000   0.00000
  23        3PY         0.09668   0.00000   0.12415   0.17377   0.14544
  24        3PZ        -0.05582  -0.00000  -0.03041  -0.12415  -0.08397
  25 4   H  1S          0.69338  -0.00000   0.18509  -0.32059  -0.09776
  26        2S         -0.37154  -0.00000  -0.94238   1.63225  -0.97370
  27        3PX        -0.00000   0.04108  -0.00000  -0.00000  -0.00000
  28        3PY        -0.09668   0.00000  -0.12415   0.17377  -0.14544
  29        3PZ        -0.05582   0.00000  -0.03041   0.12415  -0.08397
                          16        17        18        19        20
                           V         V         V         V         V
     Eigenvalues --     0.99247   0.99247   1.34610   1.45406   1.45407
   1 1   C  1S         -0.00000   0.00000   0.00000   0.00000  -0.00000
   2        2S          0.00000   0.00000   0.00000   0.00000  -0.00001
   3        3S          0.00000   0.00000   0.00000   0.00000   0.00001
   4        4PX         0.00000  -0.00000  -0.00000   0.00000   0.00000
   5        4PY         0.00000  -0.00000  -0.00000  -0.03584   0.00000
   6        4PZ        -0.00000   0.00000   0.00000   0.00000  -0.03584
   7        5PX         0.00000   0.00000  -0.00000   0.00000   0.00000
   8        5PY         0.00000  -0.00000  -0.00000   1.24756   0.00000
   9        5PZ         0.00000   0.00000   0.00000   0.00000   1.24756
  10        6D 0        0.00000   0.00000   0.00000   0.00000   0.46397
  11        6D+1        0.00000   0.60981  -0.00000   0.00000   0.00000
  12        6D-1        0.00000   0.00000   0.00000  -0.53574   0.00000
  13        6D+2       -0.00000   0.00000   0.00000   0.00000   0.26786
  14        6D-2        0.60981   0.00000   0.00000   0.00000   0.00000
  15 2   H  1S         -0.00000   0.00000   0.00000   0.00000  -0.75579
  16        2S         -0.00000   0.00000   0.00000   0.00000  -0.36800
  17        3PX         0.00000   0.42988   0.00000  -0.00000   0.00000
  18        3PY         0.00000  -0.00000   0.59394  -0.55530   0.00000
  19        3PZ        -0.00000   0.00000   0.00000   0.00000  -0.26067
  20 3   H  1S         -0.00000   0.00000   0.00000  -0.65453   0.37789
  21        2S          0.00000   0.00000   0.00000  -0.31870   0.18400
  22        3PX         0.37229  -0.21494   0.00000  -0.00000  -0.00000
  23        3PY         0.00000  -0.00000  -0.29697  -0.33433  -0.12758
  24        3PZ        -0.00000   0.00000  -0.51436  -0.12758  -0.48165
  25 4   H  1S         -0.00000  -0.00000  -0.00000   0.65453   0.37789
  26        2S          0.00000  -0.00000  -0.00000   0.31870   0.18400
  27        3PX        -0.37229  -0.21494   0.00000  -0.00000   0.00000
  28        3PY        -0.00000  -0.00000  -0.29697  -0.33433   0.12758
  29        3PZ        -0.00000  -0.00000   0.51436   0.12758  -0.48165
                          21        22        23        24        25
                           V         V         V         V         V
     Eigenvalues --     1.55327   1.60537   1.86487   1.86487   2.08296
   1 1   C  1S         -0.04861   0.00000  -0.00000   0.00000   0.00000
   2        2S         -0.67680   0.00000  -0.00000   0.00000   0.00000
   3        3S          1.49263   0.00000   0.00000   0.00000   0.00000
   4        4PX         0.00000  -0.27524   0.00000  -0.00000   0.00000
   5        4PY         0.00000  -0.00000   0.00000  -0.00000  -0.60211
   6        4PZ         0.00000   0.00000   0.00000   0.00000   0.00000
   7        5PX         0.00000  -0.44927   0.00000  -0.00000   0.00000
   8        5PY         0.00000   0.00000   0.00000  -0.00000  -0.68745
   9        5PZ        -0.00001   0.00000  -0.00000   0.00000   0.00000
  10        6D 0        0.52574   0.00000   0.00000   0.00000   0.00000
  11        6D+1        0.00000  -0.00000   0.00000   1.03426  -0.00000
  12        6D-1        0.00000  -0.00000   0.00000   0.00000  -0.63989
  13        6D+2       -0.91061   0.00000  -0.00000   0.00000   0.00000
  14        6D-2       -0.00000   0.00000   1.03425   0.00000   0.00000
  15 2   H  1S         -0.51220   0.00000   0.00000   0.00000   0.00000
  16        2S         -0.14256   0.00000   0.00000   0.00000   0.00000
  17        3PX         0.00000   0.66678   0.00000  -0.88641   0.00000
  18        3PY         0.00000  -0.00000   0.00000   0.00000   0.83194
  19        3PZ        -0.13442   0.00000   0.00000   0.00000   0.00000
  20 3   H  1S         -0.51221  -0.00000  -0.00000   0.00000   0.04701
  21        2S         -0.14257  -0.00000  -0.00000   0.00000   0.62137
  22        3PX         0.00000   0.66677  -0.76766   0.44321  -0.00000
  23        3PY        -0.11641  -0.00000  -0.00000  -0.00000  -0.24706
  24        3PZ         0.06721   0.00000   0.00000   0.00000   0.62296
  25 4   H  1S         -0.51221   0.00000  -0.00000  -0.00000  -0.04701
  26        2S         -0.14257   0.00000  -0.00000  -0.00000  -0.62137
  27        3PX        -0.00000   0.66677   0.76766   0.44321  -0.00000
  28        3PY         0.11641  -0.00000   0.00000  -0.00000  -0.24706
  29        3PZ         0.06721  -0.00000   0.00000  -0.00000  -0.62296
                          26        27        28        29
                           V         V         V         V
     Eigenvalues --     2.08296   2.45576   2.50723   2.50723
   1 1   C  1S         -0.00000  -0.05833   0.00000  -0.00000
   2        2S          0.00000   1.29073   0.00000   0.00001
   3        3S         -0.00000   1.88367   0.00000   0.00001
   4        4PX         0.00000   0.00000   0.00000   0.00000
   5        4PY         0.00000   0.00000  -1.29814   0.00000
   6        4PZ        -0.60211   0.00001   0.00000  -1.29813
   7        5PX         0.00000   0.00000   0.00000   0.00000
   8        5PY         0.00000   0.00000  -0.75777   0.00000
   9        5PZ        -0.68745   0.00001   0.00000  -0.75777
  10        6D 0        0.55416   0.46393   0.00000  -1.40854
  11        6D+1        0.00000   0.00000  -0.00000   0.00000
  12        6D-1        0.00000   0.00000   1.62645   0.00000
  13        6D+2        0.31994  -0.80354   0.00000  -0.81323
  14        6D-2       -0.00000   0.00000   0.00000   0.00000
  15 2   H  1S          0.05428  -0.89858   0.00000   1.45900
  16        2S          0.71749  -0.41859   0.00000   0.50345
  17        3PX         0.00000   0.00000   0.00000   0.00000
  18        3PY         0.00000   0.00000  -0.48141   0.00000
  19        3PZ        -0.60673   0.99039   0.00000  -1.23926
  20 3   H  1S         -0.02714  -0.89856   1.26353  -0.72951
  21        2S         -0.35875  -0.41858   0.43601  -0.25173
  22        3PX         0.00000  -0.00000  -0.00000  -0.00000
  23        3PY         0.62296   0.85769  -1.04980   0.32816
  24        3PZ         0.47227  -0.49519   0.32816  -0.67088
  25 4   H  1S         -0.02714  -0.89856  -1.26353  -0.72951
  26        2S         -0.35875  -0.41858  -0.43601  -0.25173
  27        3PX        -0.00000   0.00000  -0.00000   0.00000
  28        3PY        -0.62296  -0.85769  -1.04980  -0.32816
  29        3PZ         0.47227  -0.49519  -0.32816  -0.67088
     Alpha Density Matrix:
                           1         2         3         4         5
   1 1   C  1S          1.03148
   2        2S         -0.04806   0.15682
   3        3S         -0.07564   0.12664   0.10361
   4        4PX         0.00000   0.00000   0.00000   0.37510
   5        4PY         0.00000   0.00000   0.00000   0.00000   0.20297
   6        4PZ        -0.00000   0.00000   0.00000   0.00000   0.00000
   7        5PX         0.00000   0.00000   0.00000   0.31137   0.00000
   8        5PY         0.00000   0.00000   0.00000   0.00000   0.08062
   9        5PZ        -0.00000   0.00000   0.00000   0.00000   0.00000
  10        6D 0        0.00235  -0.00301  -0.00249   0.00000   0.00000
  11        6D+1        0.00000   0.00000   0.00000  -0.00000  -0.00000
  12        6D-1        0.00000   0.00000   0.00000  -0.00000  -0.00748
  13        6D+2       -0.00407   0.00522   0.00431   0.00000   0.00000
  14        6D-2       -0.00000  -0.00000   0.00000   0.00000   0.00000
  15 2   H  1S         -0.04025   0.07581   0.06184   0.00000   0.00000
  16        2S         -0.00204   0.00873   0.00702   0.00000   0.00000
  17        3PX         0.00000   0.00000   0.00000   0.01244   0.00000
  18        3PY         0.00000   0.00000   0.00000  -0.00000   0.00640
  19        3PZ         0.00750  -0.01042  -0.00857   0.00000   0.00000
  20 3   H  1S         -0.04025   0.07581   0.06184  -0.00000   0.14233
  21        2S         -0.00204   0.00873   0.00702  -0.00000   0.05204
  22        3PX        -0.00000   0.00000   0.00000   0.01244   0.00000
  23        3PY         0.00649  -0.00902  -0.00742   0.00000  -0.00318
  24        3PZ        -0.00375   0.00521   0.00428  -0.00000   0.00553
  25 4   H  1S         -0.04025   0.07581   0.06184   0.00000  -0.14233
  26        2S         -0.00204   0.00873   0.00702   0.00000  -0.05204
  27        3PX         0.00000  -0.00000  -0.00000   0.01244   0.00000
  28        3PY        -0.00649   0.00902   0.00742   0.00000  -0.00318
  29        3PZ        -0.00375   0.00521   0.00428   0.00000  -0.00553
                           6         7         8         9        10
   6        4PZ         0.20297
   7        5PX         0.00000   0.25847
   8        5PY         0.00000   0.00000   0.03202
   9        5PZ         0.08062   0.00000   0.00000   0.03202
  10        6D 0        0.00647   0.00000   0.00000   0.00257   0.00027
  11        6D+1        0.00000  -0.00000  -0.00000   0.00000   0.00000
  12        6D-1        0.00000  -0.00000  -0.00297   0.00000   0.00000
  13        6D+2        0.00374   0.00000   0.00000   0.00148   0.00002
  14        6D-2        0.00000   0.00000   0.00000   0.00000   0.00000
  15 2   H  1S          0.16435   0.00000   0.00000   0.06528   0.00376
  16        2S          0.06009   0.00000   0.00000   0.02387   0.00175
  17        3PX         0.00000   0.01032   0.00000   0.00000   0.00000
  18        3PY         0.00000  -0.00000   0.00254   0.00000   0.00000
  19        3PZ        -0.00637   0.00000   0.00000  -0.00253   0.00000
  20 3   H  1S         -0.08218  -0.00000   0.05653  -0.03264  -0.00410
  21        2S         -0.03004  -0.00000   0.02067  -0.01193  -0.00113
  22        3PX        -0.00000   0.01032   0.00000  -0.00000  -0.00000
  23        3PY         0.00553   0.00000  -0.00126   0.00220   0.00036
  24        3PZ         0.00321  -0.00000   0.00220   0.00127  -0.00000
  25 4   H  1S         -0.08218   0.00000  -0.05653  -0.03264  -0.00410
  26        2S         -0.03004   0.00000  -0.02067  -0.01193  -0.00113
  27        3PX         0.00000   0.01032   0.00000   0.00000   0.00000
  28        3PY        -0.00553   0.00000  -0.00126  -0.00220  -0.00036
  29        3PZ         0.00321   0.00000  -0.00220   0.00127  -0.00000
                          11        12        13        14        15
  11        6D+1        0.00000
  12        6D-1        0.00000   0.00028
  13        6D+2        0.00000   0.00000   0.00025
  14        6D-2        0.00000   0.00000   0.00000   0.00000
  15 2   H  1S          0.00000   0.00000   0.00559   0.00000   0.17001
  16        2S          0.00000   0.00000   0.00140   0.00000   0.05286
  17        3PX        -0.00000  -0.00000   0.00000   0.00000   0.00000
  18        3PY        -0.00000  -0.00024   0.00000   0.00000   0.00000
  19        3PZ         0.00000   0.00000  -0.00047  -0.00000  -0.01026
  20 3   H  1S         -0.00000  -0.00524   0.00105  -0.00000  -0.02961
  21        2S         -0.00000  -0.00192  -0.00026  -0.00000  -0.02012
  22        3PX        -0.00000  -0.00000   0.00000   0.00000  -0.00000
  23        3PY         0.00000   0.00012  -0.00021  -0.00000   0.00005
  24        3PZ        -0.00000  -0.00020   0.00024   0.00000   0.00515
  25 4   H  1S          0.00000   0.00524   0.00105  -0.00000  -0.02961
  26        2S          0.00000   0.00192  -0.00026  -0.00000  -0.02012
  27        3PX        -0.00000  -0.00000  -0.00000  -0.00000   0.00000
  28        3PY         0.00000   0.00012   0.00021   0.00000  -0.00005
  29        3PZ         0.00000   0.00020   0.00024   0.00000   0.00515
                          16        17        18        19        20
  16        2S          0.01827
  17        3PX         0.00000   0.00041
  18        3PY         0.00000   0.00000   0.00020
  19        3PZ        -0.00246   0.00000   0.00000   0.00091
  20 3   H  1S         -0.02012   0.00000   0.00449  -0.00253   0.17001
  21        2S         -0.00841  -0.00000   0.00164   0.00037   0.05286
  22        3PX        -0.00000   0.00041  -0.00000  -0.00000   0.00000
  23        3PY         0.00114   0.00000  -0.00010   0.00044  -0.00889
  24        3PZ         0.00124  -0.00000   0.00017  -0.00046   0.00513
  25 4   H  1S         -0.02012  -0.00000  -0.00449  -0.00253  -0.02961
  26        2S         -0.00841   0.00000  -0.00164   0.00037  -0.02012
  27        3PX         0.00000   0.00041  -0.00000   0.00000  -0.00000
  28        3PY        -0.00114   0.00000  -0.00010  -0.00044   0.00444
  29        3PZ         0.00124   0.00000  -0.00017  -0.00046  -0.00262
                          21        22        23        24        25
  21        2S          0.01827
  22        3PX        -0.00000   0.00041
  23        3PY        -0.00213   0.00000   0.00073
  24        3PZ         0.00123  -0.00000  -0.00031   0.00038
  25 4   H  1S         -0.02012   0.00000  -0.00444  -0.00262   0.17001
  26        2S         -0.00841   0.00000  -0.00050  -0.00160   0.05286
  27        3PX        -0.00000   0.00041   0.00000  -0.00000  -0.00000
  28        3PY         0.00050   0.00000  -0.00063   0.00013   0.00889
  29        3PZ        -0.00160   0.00000  -0.00013   0.00008   0.00513
                          26        27        28        29
  26        2S          0.01827
  27        3PX         0.00000   0.00041
  28        3PY         0.00213   0.00000   0.00073
  29        3PZ         0.00123   0.00000   0.00031   0.00038
     Beta Density Matrix:
                           1         2         3         4         5
   1 1   C  1S          1.02916
   2        2S         -0.04290   0.13835
   3        3S         -0.06396   0.10317   0.07794
   4        4PX         0.00000   0.00000   0.00000   0.00000
   5        4PY         0.00000   0.00000   0.00000  -0.00000   0.18541
   6        4PZ        -0.00000   0.00000   0.00000   0.00000   0.00000
   7        5PX         0.00000   0.00000   0.00000   0.00000  -0.00000
   8        5PY         0.00000   0.00000   0.00000  -0.00000   0.06585
   9        5PZ        -0.00000   0.00000   0.00000   0.00000   0.00000
  10        6D 0       -0.00032   0.00290   0.00215   0.00000   0.00000
  11        6D+1        0.00000   0.00000   0.00000  -0.00000   0.00000
  12        6D-1        0.00000   0.00000   0.00000   0.00000  -0.00635
  13        6D+2        0.00056  -0.00503  -0.00372   0.00000   0.00000
  14        6D-2       -0.00000  -0.00000   0.00000   0.00000   0.00000
  15 2   H  1S         -0.04218   0.07785   0.05862   0.00000   0.00000
  16        2S         -0.00494   0.01376   0.01028   0.00000   0.00000
  17        3PX         0.00000   0.00000   0.00000   0.00000  -0.00000
  18        3PY         0.00000   0.00000   0.00000  -0.00000   0.00677
  19        3PZ         0.00688  -0.00941  -0.00714   0.00000   0.00000
  20 3   H  1S         -0.04218   0.07785   0.05862  -0.00000   0.14357
  21        2S         -0.00494   0.01376   0.01028  -0.00000   0.05898
  22        3PX        -0.00000   0.00000   0.00000   0.00000  -0.00000
  23        3PY         0.00596  -0.00815  -0.00618   0.00000  -0.00314
  24        3PZ        -0.00344   0.00470   0.00357  -0.00000   0.00572
  25 4   H  1S         -0.04218   0.07785   0.05862   0.00000  -0.14357
  26        2S         -0.00494   0.01376   0.01028   0.00000  -0.05898
  27        3PX         0.00000  -0.00000  -0.00000   0.00000  -0.00000
  28        3PY        -0.00596   0.00815   0.00618   0.00000  -0.00314
  29        3PZ        -0.00344   0.00470   0.00357   0.00000  -0.00572
                           6         7         8         9        10
   6        4PZ         0.18541
   7        5PX         0.00000   0.00000
   8        5PY         0.00000  -0.00000   0.02339
   9        5PZ         0.06585   0.00000   0.00000   0.02339
  10        6D 0        0.00550   0.00000   0.00000   0.00195   0.00022
  11        6D+1        0.00000  -0.00000   0.00000   0.00000   0.00000
  12        6D-1        0.00000   0.00000  -0.00226   0.00000   0.00000
  13        6D+2        0.00318   0.00000   0.00000   0.00113  -0.00001
  14        6D-2       -0.00000   0.00000   0.00000  -0.00000  -0.00000
  15 2   H  1S          0.16578   0.00000   0.00000   0.05887   0.00654
  16        2S          0.06811   0.00000   0.00000   0.02419   0.00231
  17        3PX         0.00000   0.00000  -0.00000   0.00000   0.00000
  18        3PY         0.00000  -0.00000   0.00240   0.00000   0.00000
  19        3PZ        -0.00644   0.00000   0.00000  -0.00229  -0.00039
  20 3   H  1S         -0.08289  -0.00000   0.05099  -0.02944  -0.00084
  21        2S         -0.03405  -0.00000   0.02095  -0.01209  -0.00072
  22        3PX         0.00000   0.00000  -0.00000   0.00000   0.00000
  23        3PY         0.00572   0.00000  -0.00112   0.00203   0.00000
  24        3PZ         0.00346  -0.00000   0.00203   0.00123   0.00020
  25 4   H  1S         -0.08289   0.00000  -0.05099  -0.02944  -0.00084
  26        2S         -0.03405   0.00000  -0.02095  -0.01209  -0.00072
  27        3PX        -0.00000   0.00000  -0.00000  -0.00000  -0.00000
  28        3PY        -0.00572   0.00000  -0.00112  -0.00203  -0.00000
  29        3PZ         0.00346   0.00000  -0.00203   0.00123   0.00020
                          11        12        13        14        15
  11        6D+1        0.00000
  12        6D-1       -0.00000   0.00022
  13        6D+2        0.00000   0.00000   0.00024
  14        6D-2        0.00000   0.00000   0.00000   0.00000
  15 2   H  1S          0.00000   0.00000   0.00003   0.00000   0.19235
  16        2S          0.00000   0.00000   0.00067  -0.00000   0.06865
  17        3PX        -0.00000   0.00000   0.00000   0.00000   0.00000
  18        3PY         0.00000  -0.00023   0.00000   0.00000   0.00000
  19        3PZ         0.00000   0.00000   0.00023  -0.00000  -0.01113
  20 3   H  1S          0.00000  -0.00492  -0.00423   0.00000  -0.02998
  21        2S          0.00000  -0.00202  -0.00108   0.00000  -0.02269
  22        3PX        -0.00000   0.00000  -0.00000   0.00000   0.00000
  23        3PY        -0.00000   0.00011   0.00039  -0.00000   0.00047
  24        3PZ         0.00000  -0.00020  -0.00011   0.00000   0.00578
  25 4   H  1S         -0.00000   0.00492  -0.00423   0.00000  -0.02998
  26        2S         -0.00000   0.00202  -0.00108   0.00000  -0.02269
  27        3PX        -0.00000   0.00000   0.00000  -0.00000  -0.00000
  28        3PY        -0.00000   0.00011  -0.00039   0.00000  -0.00047
  29        3PZ        -0.00000   0.00020  -0.00011   0.00000   0.00578
                          16        17        18        19        20
  16        2S          0.02639
  17        3PX         0.00000   0.00000
  18        3PY         0.00000  -0.00000   0.00025
  19        3PZ        -0.00331   0.00000   0.00000   0.00088
  20 3   H  1S         -0.02269  -0.00000   0.00524  -0.00248   0.19235
  21        2S         -0.01114  -0.00000   0.00215   0.00025   0.06865
  22        3PX         0.00000   0.00000  -0.00000  -0.00000   0.00000
  23        3PY         0.00129   0.00000  -0.00011   0.00037  -0.00964
  24        3PZ         0.00174  -0.00000   0.00021  -0.00045   0.00556
  25 4   H  1S         -0.02269   0.00000  -0.00524  -0.00248  -0.02998
  26        2S         -0.01114   0.00000  -0.00215   0.00025  -0.02269
  27        3PX        -0.00000   0.00000  -0.00000   0.00000  -0.00000
  28        3PY        -0.00129   0.00000  -0.00011  -0.00037   0.00477
  29        3PZ         0.00174   0.00000  -0.00021  -0.00045  -0.00330
                          21        22        23        24        25
  21        2S          0.02639
  22        3PX        -0.00000   0.00000
  23        3PY        -0.00286  -0.00000   0.00072
  24        3PZ         0.00165   0.00000  -0.00027   0.00041
  25 4   H  1S         -0.02269   0.00000  -0.00477  -0.00330   0.19235
  26        2S         -0.01114   0.00000  -0.00086  -0.00199   0.06865
  27        3PX        -0.00000  -0.00000   0.00000  -0.00000  -0.00000
  28        3PY         0.00086   0.00000  -0.00061   0.00008   0.00964
  29        3PZ        -0.00199   0.00000  -0.00008   0.00005   0.00556
                          26        27        28        29
  26        2S          0.02639
  27        3PX         0.00000   0.00000
  28        3PY         0.00286  -0.00000   0.00072
  29        3PZ         0.00165  -0.00000   0.00027   0.00041
    Full Mulliken population analysis:
                           1         2         3         4         5
   1 1   C  1S          2.06064
   2        2S         -0.01875   0.29517
   3        3S         -0.02507   0.18395   0.18155
   4        4PX         0.00000   0.00000   0.00000   0.37510
   5        4PY         0.00000   0.00000   0.00000   0.00000   0.38838
   6        4PZ         0.00000   0.00000   0.00000   0.00000   0.00000
   7        5PX         0.00000   0.00000   0.00000   0.16526   0.00000
   8        5PY         0.00000   0.00000   0.00000   0.00000   0.07774
   9        5PZ         0.00000   0.00000   0.00000   0.00000   0.00000
  10        6D 0        0.00000   0.00000   0.00000   0.00000   0.00000
  11        6D+1        0.00000   0.00000   0.00000   0.00000   0.00000
  12        6D-1        0.00000   0.00000   0.00000   0.00000   0.00000
  13        6D+2        0.00000   0.00000   0.00000   0.00000   0.00000
  14        6D-2        0.00000   0.00000   0.00000   0.00000   0.00000
  15 2   H  1S         -0.00432   0.05205   0.05532   0.00000   0.00000
  16        2S         -0.00063   0.01064   0.01273   0.00000   0.00000
  17        3PX         0.00000   0.00000   0.00000   0.00276   0.00000
  18        3PY         0.00000   0.00000   0.00000   0.00000   0.00292
  19        3PZ        -0.00143   0.00800   0.00384   0.00000   0.00000
  20 3   H  1S         -0.00432   0.05205   0.05531  -0.00000   0.09759
  21        2S         -0.00063   0.01064   0.01273   0.00000   0.02012
  22        3PX         0.00000   0.00000   0.00000   0.00276   0.00000
  23        3PY        -0.00107   0.00600   0.00288  -0.00000   0.00160
  24        3PZ        -0.00036   0.00200   0.00096   0.00000   0.00309
  25 4   H  1S         -0.00432   0.05205   0.05531  -0.00000   0.09759
  26        2S         -0.00063   0.01064   0.01273  -0.00000   0.02012
  27        3PX         0.00000  -0.00000  -0.00000   0.00276   0.00000
  28        3PY        -0.00107   0.00600   0.00288  -0.00000   0.00160
  29        3PZ        -0.00036   0.00200   0.00096  -0.00000   0.00309
                           6         7         8         9        10
   6        4PZ         0.38838
   7        5PX         0.00000   0.25847
   8        5PY         0.00000   0.00000   0.05541
   9        5PZ         0.07774   0.00000   0.00000   0.05541
  10        6D 0        0.00000   0.00000   0.00000   0.00000   0.00049
  11        6D+1        0.00000   0.00000   0.00000   0.00000   0.00000
  12        6D-1        0.00000   0.00000   0.00000   0.00000   0.00000
  13        6D+2        0.00000   0.00000   0.00000   0.00000   0.00000
  14        6D-2        0.00000   0.00000   0.00000   0.00000   0.00000
  15 2   H  1S          0.13012   0.00000   0.00000   0.07001   0.00417
  16        2S          0.02682   0.00000   0.00000   0.02557   0.00032
  17        3PX         0.00000   0.00301   0.00000   0.00000   0.00000
  18        3PY         0.00000   0.00000   0.00144   0.00000   0.00000
  19        3PZ         0.00528   0.00000   0.00000   0.00009   0.00007
  20 3   H  1S          0.03253   0.00000   0.05251   0.01750   0.00025
  21        2S          0.00671   0.00000   0.01918   0.00639   0.00002
  22        3PX         0.00000   0.00301   0.00000   0.00000   0.00000
  23        3PY         0.00309   0.00000  -0.00014   0.00057  -0.00005
  24        3PZ         0.00042   0.00000   0.00057   0.00054  -0.00006
  25 4   H  1S          0.03253  -0.00000   0.05251   0.01750   0.00025
  26        2S          0.00671  -0.00000   0.01918   0.00639   0.00002
  27        3PX        -0.00000   0.00301  -0.00000  -0.00000   0.00000
  28        3PY         0.00309  -0.00000  -0.00014   0.00057  -0.00005
  29        3PZ         0.00042  -0.00000   0.00057   0.00054  -0.00006
                          11        12        13        14        15
  11        6D+1        0.00000
  12        6D-1        0.00000   0.00049
  13        6D+2        0.00000   0.00000   0.00049
  14        6D-2        0.00000   0.00000   0.00000   0.00000
  15 2   H  1S          0.00000   0.00000   0.00000   0.00000   0.36237
  16        2S          0.00000   0.00000   0.00000   0.00000   0.08322
  17        3PX        -0.00000   0.00000   0.00000   0.00000   0.00000
  18        3PY         0.00000  -0.00021   0.00000   0.00000   0.00000
  19        3PZ         0.00000   0.00000   0.00000   0.00000   0.00000
  20 3   H  1S          0.00000   0.00308   0.00083   0.00000  -0.00249
  21        2S          0.00000   0.00023   0.00007  -0.00000  -0.00845
  22        3PX         0.00000  -0.00000   0.00000   0.00000   0.00000
  23        3PY         0.00000   0.00005  -0.00000  -0.00000  -0.00001
  24        3PZ         0.00000  -0.00005  -0.00003   0.00000   0.00052
  25 4   H  1S          0.00000   0.00308   0.00083  -0.00000  -0.00249
  26        2S          0.00000   0.00023   0.00007  -0.00000  -0.00845
  27        3PX         0.00000  -0.00000  -0.00000   0.00000   0.00000
  28        3PY         0.00000   0.00005  -0.00000   0.00000  -0.00001
  29        3PZ        -0.00000  -0.00005  -0.00003   0.00000   0.00052
                          16        17        18        19        20
  16        2S          0.04466
  17        3PX         0.00000   0.00041
  18        3PY         0.00000   0.00000   0.00045
  19        3PZ         0.00000   0.00000   0.00000   0.00179
  20 3   H  1S         -0.00845   0.00000   0.00027   0.00024   0.36237
  21        2S         -0.00899   0.00000   0.00026  -0.00007   0.08322
  22        3PX         0.00000   0.00000   0.00000  -0.00000   0.00000
  23        3PY        -0.00016   0.00000   0.00000   0.00003   0.00000
  24        3PZ         0.00035   0.00000   0.00002   0.00005   0.00000
  25 4   H  1S         -0.00845   0.00000   0.00027   0.00024  -0.00249
  26        2S         -0.00899  -0.00000   0.00026  -0.00007  -0.00845
  27        3PX         0.00000   0.00000   0.00000  -0.00000  -0.00000
  28        3PY        -0.00016  -0.00000   0.00000   0.00003   0.00050
  29        3PZ         0.00035  -0.00000   0.00002   0.00005   0.00000
                          21        22        23        24        25
  21        2S          0.04466
  22        3PX         0.00000   0.00041
  23        3PY         0.00000   0.00000   0.00145
  24        3PZ         0.00000   0.00000   0.00000   0.00078
  25 4   H  1S         -0.00845   0.00000   0.00050   0.00000   0.36237
  26        2S         -0.00899   0.00000   0.00019   0.00000   0.08322
  27        3PX        -0.00000   0.00000   0.00000   0.00000   0.00000
  28        3PY         0.00019   0.00000   0.00010   0.00000   0.00000
  29        3PZ         0.00000   0.00000   0.00000   0.00000   0.00000
                          26        27        28        29
  26        2S          0.04466
  27        3PX         0.00000   0.00041
  28        3PY         0.00000   0.00000   0.00145
  29        3PZ         0.00000   0.00000   0.00000   0.00078
     Gross orbital populations:
                         Total     Alpha     Beta      Spin
   1 1   C  1S          1.99767   0.99886   0.99880   0.00006
   2        2S          0.67243   0.35031   0.32212   0.02820
   3        3S          0.55609   0.29836   0.25773   0.04064
   4        4PX         0.54865   0.54865   0.00000   0.54865
   5        4PY         0.71383   0.36785   0.34598   0.02188
   6        4PZ         0.71383   0.36785   0.34598   0.02188
   7        5PX         0.43276   0.43276   0.00000   0.43276
   8        5PY         0.27881   0.15026   0.12855   0.02170
   9        5PZ         0.27881   0.15026   0.12855   0.02171
  10        6D 0        0.00535   0.00226   0.00309  -0.00084
  11        6D+1        0.00000   0.00000   0.00000   0.00000
  12        6D-1        0.00691   0.00357   0.00333   0.00024
  13        6D+2        0.00224  -0.00038   0.00262  -0.00300
  14        6D-2        0.00000   0.00000   0.00000   0.00000
  15 2   H  1S          0.73205   0.35136   0.38069  -0.02933
  16        2S          0.16881   0.07345   0.09536  -0.02190
  17        3PX         0.00619   0.00619   0.00000   0.00619
  18        3PY         0.00569   0.00274   0.00294  -0.00020
  19        3PZ         0.01814   0.00937   0.00876   0.00061
  20 3   H  1S          0.73205   0.35136   0.38069  -0.02933
  21        2S          0.16881   0.07345   0.09536  -0.02191
  22        3PX         0.00619   0.00619   0.00000   0.00619
  23        3PY         0.01502   0.00772   0.00731   0.00041
  24        3PZ         0.00880   0.00440   0.00440   0.00000
  25 4   H  1S          0.73205   0.35136   0.38069  -0.02933
  26        2S          0.16881   0.07345   0.09536  -0.02191
  27        3PX         0.00619   0.00619   0.00000   0.00619
  28        3PY         0.01502   0.00772   0.00731   0.00041
  29        3PZ         0.00880   0.00440   0.00440   0.00000
          Condensed to atoms (all electrons):
              1          2          3          4
     1  C    4.981695   0.408561   0.408561   0.408561
     2  H    0.408561   0.576115  -0.026902  -0.026902
     3  H    0.408561  -0.026902   0.576118  -0.026903
     4  H    0.408561  -0.026902  -0.026903   0.576118
 Mulliken atomic charges:
              1
     1  C   -0.207379
     2  H    0.069129
     3  H    0.069125
     4  H    0.069125
 Sum of Mulliken atomic charges =  -0.00000
 Mulliken charges with hydrogens summed into heavy atoms:
              1
     1  C   -0.000000
 Sum of Mulliken charges with hydrogens summed into heavy atoms =  -0.00000
          Atomic-Atomic Spin Densities.
              1          2          3          4
     1  C    1.125690   0.002731   0.002731   0.002731
     2  H    0.002731  -0.051680   0.002161   0.002161
     3  H    0.002731   0.002161  -0.051681   0.002161
     4  H    0.002731   0.002161   0.002161  -0.051681
 Mulliken atomic spin densities:
              1
     1  C    1.133884
     2  H   -0.044627
     3  H   -0.044628
     4  H   -0.044628
 Sum of Mulliken atomic spin densities =   1.00000
 Electronic spatial extent (au):  <R**2>=             29.6636
 Charge=             -0.0000 electrons
 Dipole moment (field-independent basis, Debye):
    X=             -0.0000    Y=              0.0000    Z=              0.0000  Tot=              0.0000
 Quadrupole moment (field-independent basis, Debye-Ang):
   XX=             -8.6898   YY=             -7.0443   ZZ=             -7.0443
   XY=              0.0000   XZ=              0.0000   YZ=              0.0000
 Traceless Quadrupole moment (field-independent basis, Debye-Ang):
   XX=             -1.0969   YY=              0.5485   ZZ=              0.5485
   XY=              0.0000   XZ=              0.0000   YZ=              0.0000
 Octapole moment (field-independent basis, Debye-Ang**2):
  XXX=              0.0000  YYY=              0.0000  ZZZ=              0.8344  XYY=             -0.0000
  XXY=             -0.0000  XXZ=              0.0000  XZZ=              0.0000  YZZ=              0.0000
  YYZ=             -0.8344  XYZ=             -0.0000
 Hexadecapole moment (field-independent basis, Debye-Ang**3):
 XXXX=             -9.3943 YYYY=            -14.1599 ZZZZ=            -14.1598 XXXY=              0.0000
 XXXZ=             -0.0000 YYYX=              0.0000 YYYZ=              0.0000 ZZZX=             -0.0000
 ZZZY=              0.0000 XXYY=             -4.3020 XXZZ=             -4.3020 YYZZ=             -4.7200
 XXYZ=              0.0000 YYXZ=              0.0000 ZZXY=              0.0000
 N-N= 9.579588592757D+00 E-N=-1.634714222032D+02  KE= 5.858572648067D+01
 Symmetry A    KE= 5.459320880109D+01
 Symmetry B    KE= 3.992517679575D+00
 Orbital energies and kinetic energies (alpha):
                                 1                 2
   1         O               -10.185535         15.959796
   2         O                -0.686094          1.318354
   3         O                -0.417209          0.968268
   4         O                -0.417209          0.968268
   5         O                -0.234662          1.130435
   6         V                 0.083146          0.783436
   7         V                 0.151263          0.697715
   8         V                 0.151264          0.697715
   9         V                 0.440717          1.130140
  10         V                 0.440719          1.130140
  11         V                 0.478165          1.886446
  12         V                 0.490415          1.521223
  13         V                 0.662622          2.080123
  14         V                 0.662622          2.080122
  15         V                 0.857184          1.986731
  16         V                 0.951082          1.711962
  17         V                 0.951082          1.711962
  18         V                 1.349941          1.978680
  19         V                 1.448819          2.230468
  20         V                 1.448821          2.230468
  21         V                 1.479785          2.345518
  22         V                 1.590317          2.267899
  23         V                 1.830571          2.530060
  24         V                 1.830571          2.530060
  25         V                 2.079263          3.034251
  26         V                 2.079264          3.034252
  27         V                 2.448826          3.959453
  28         V                 2.498009          4.285843
  29         V                 2.498009          4.285844
 Orbital energies and kinetic energies (beta):
                                 1                 2
   1         O               -10.170047         15.975278
   2         O                -0.641866          1.251209
   3         O                -0.405907          0.946909
   4         O                -0.405907          0.946907
   5         V                -0.051176          0.934661
   6         V                 0.096372          0.785827
   7         V                 0.156405          0.694830
   8         V                 0.156406          0.694830
   9         V                 0.447916          1.123157
  10         V                 0.447918          1.123156
  11         V                 0.525422          1.580855
  12         V                 0.569085          2.071589
  13         V                 0.672068          2.097077
  14         V                 0.672068          2.097077
  15         V                 0.894833          1.963514
  16         V                 0.992466          1.704766
  17         V                 0.992466          1.704766
  18         V                 1.346098          1.978680
  19         V                 1.454064          2.223748
  20         V                 1.454066          2.223747
  21         V                 1.553268          2.350960
  22         V                 1.605367          2.278530
  23         V                 1.864872          2.537257
  24         V                 1.864873          2.537257
[...]


 ---------------------------------------------------------------------------------
              Anisotropic Spin Dipole Couplings in Principal Axis System
 ---------------------------------------------------------------------------------

       Atom             a.u.   MegaHertz   Gauss  10(-4) cm-1        Axes

              Baa    -0.5497   -73.761   -26.320   -24.604  0.9999  0.0105 -0.0000
     1 C(13)  Bbb    -0.5497   -73.761   -26.320   -24.604 -0.0105  0.9999 -0.0000
              Bcc     1.0994   147.523    52.640    49.208  0.0000  0.0000  1.0000
 
              Baa    -0.0750   -39.991   -14.270   -13.340  1.0000  0.0000  0.0000
     2 H(1)   Bbb    -0.0022    -1.194    -0.426    -0.398  0.0000  0.0000  1.0000
              Bcc     0.0772    41.185    14.696    13.738  0.0000  1.0000 -0.0000
 
              Baa    -0.0750   -39.991   -14.270   -13.340  0.5000  0.8660  0.0000
     3 H(1)   Bbb    -0.0022    -1.194    -0.426    -0.398  0.0000  0.0000  1.0000
              Bcc     0.0772    41.185    14.696    13.738  0.8660 -0.5000  0.0000
 
              Baa    -0.0750   -39.991   -14.270   -13.340 -0.5000  0.8660  0.0000
     4 H(1)   Bbb    -0.0022    -1.194    -0.426    -0.398  0.0000  0.0000  1.0000
              Bcc     0.0772    41.185    14.696    13.738  0.8660  0.5000 -0.0000
 

 ---------------------------------------------------------------------------------

 No NMR shielding tensors so no spin-rotation constants.
 Leave Link  601 at Sat Aug 17 23:45:02 2024, MaxMem=   13107200 cpu:       0.2
 (Enter /programs/64bit/g09/g09-gfortran/bin/l701.exe)
 Compute integral second derivatives.
 ... and contract with generalized density number  0.
 Leave Link  701 at Sat Aug 17 23:45:02 2024, MaxMem=   13107200 cpu:       0.2
 (Enter /programs/64bit/g09/g09-gfortran/bin/l702.exe)
 L702 exits ... SP integral derivatives will be done elsewhere.
 Leave Link  702 at Sat Aug 17 23:45:03 2024, MaxMem=   13107200 cpu:       0.0
 (Enter /programs/64bit/g09/g09-gfortran/bin/l703.exe)
 Compute integral second derivatives, UseDBF=F ICtDFT=           0.
 Integral derivatives from FoFDir, PRISM(SPDF).
 Calling FoFJK, ICntrl=    100127 FMM=F ISym2X=1 I1Cent= 0 IOpClX= 1 NMat=1 NMatS=1 NMatT=0.
 FoFCou: FMM=F IPFlag=           0 FMFlag=      100000 FMFlg1=         800
         NFxFlg=           0 DoJE=F BraDBF=F KetDBF=F FulRan=T
         Omega=  0.000000  0.000000  1.000000  0.000000  0.000000 ICntrl=  100127 IOpCl=  1
         NMat0=    1 NMatS0=    1 NMatT0=    0 NMatD0=    1 NMtDS0=    0 NMtDT0=    0
         I1Cent=           0 NGrid=           0.
 Petite list used in FoFCou.
 Leave Link  703 at Sat Aug 17 23:45:04 2024, MaxMem=   13107200 cpu:       1.4
 (Enter /programs/64bit/g09/g09-gfortran/bin/l716.exe)
 Dipole        = 2.06648934D-16-7.55959965D-16-1.39907672D-34
 Polarizability= 1.24619766D+01-9.39450636D-10 1.24622790D+01
                 2.40773230D-11-8.40995122D-11 6.83908054D+00
 Full mass-weighted force constant matrix:
 Low frequencies ---  -66.0175  -66.0158  -63.5724   -0.0042    0.0193    0.4645
 Low frequencies ---  456.6407 1368.3148 1368.3158
 Diagonal vibrational polarizability:
        0.0610878       0.0611126       9.2617340
 Harmonic frequencies (cm**-1), IR intensities (KM/Mole), Raman scattering
 activities (A**4/AMU), depolarization ratios for plane and unpolarized
 incident light, reduced masses (AMU), force constants (mDyne/A),
 and normal coordinates:
                     1                      2                      3
                    A2"                    E'                     E'
 Frequencies --   456.6407              1368.3148              1368.3158
 Red. masses --     1.2356                 1.1019                 1.1019
 Frc consts  --     0.1518                 1.2156                 1.2156
 IR Inten    --    71.7643                 3.8523                 3.8509
  Atom  AN      X      Y      Z        X      Y      Z        X      Y      Z
     1   6    -0.00   0.00   0.14    -0.00   0.09  -0.00    -0.09  -0.00  -0.00
     2   1     0.00   0.00  -0.57     0.00   0.08   0.00     0.81  -0.00   0.00
     3   1     0.00  -0.00  -0.57    -0.38  -0.59   0.00     0.15   0.38   0.00
     4   1    -0.00  -0.00  -0.57     0.38  -0.59   0.00     0.15  -0.38   0.00
                     4                      5                      6
                    A1'                    E'                     E'
 Frequencies --  3118.4687              3318.7227              3318.7228
 Red. masses --     1.0078                 1.1185                 1.1185
 Frc consts  --     5.7745                 7.2582                 7.2582
 IR Inten    --     0.0000                 2.3483                 2.3502
  Atom  AN      X      Y      Z        X      Y      Z        X      Y      Z
     1   6    -0.00   0.00  -0.00     0.10   0.00  -0.00    -0.00   0.10  -0.00
     2   1    -0.00   0.58   0.00     0.02  -0.00   0.00    -0.00  -0.81   0.00
     3   1     0.50  -0.29   0.00    -0.61   0.36   0.00     0.36  -0.19   0.00
     4   1    -0.50  -0.29   0.00    -0.61  -0.36   0.00    -0.36  -0.19   0.00

 -------------------
 - Thermochemistry -
 -------------------
 Temperature   298.150 Kelvin.  Pressure   1.00000 Atm.
 Atom     1 has atomic number  6 and mass  12.00000
 Atom     2 has atomic number  1 and mass   1.00783
 Atom     3 has atomic number  1 and mass   1.00783
 Atom     4 has atomic number  1 and mass   1.00783
 Molecular mass:    15.02348 amu.
 Principal axes and moments of inertia in atomic units:
                           1         2         3
     Eigenvalues --     6.41397   6.41397  12.82795
           X           -0.52928   0.84845   0.00000
           Y            0.84845   0.52928   0.00000
           Z            0.00000  -0.00000   1.00000
 This molecule is an oblate symmetric top.
 Rotational symmetry number  6.
 Rotational temperatures (Kelvin)     13.50393    13.50393     6.75196
 Rotational constants (GHZ):         281.37648   281.37648   140.68824
 Zero-point vibrational energy      77453.3 (Joules/Mol)
                                   18.51179 (Kcal/Mol)
 Warning -- explicit consideration of   1 degrees of freedom as
           vibrations may cause significant error
 Vibrational temperatures:    657.00  1968.70  1968.70  4486.78  4774.90
          (Kelvin)           4774.90
 
 Zero-point correction=                           0.029500 (Hartree/Particle)
 Thermal correction to Energy=                    0.032608
 Thermal correction to Enthalpy=                  0.033552
 Thermal correction to Gibbs Free Energy=         0.011348
 Sum of electronic and zero-point Energies=            -39.795781
 Sum of electronic and thermal Energies=               -39.792674
 Sum of electronic and thermal Enthalpies=             -39.791729
 Sum of electronic and thermal Free Energies=          -39.813934
 
                     E (Thermal)             CV                S
                      KCal/Mol        Cal/Mol-Kelvin    Cal/Mol-Kelvin
 Total                   20.462              7.544             46.733
 Electronic               0.000              0.000              1.377
 Translational            0.889              2.981             34.068
 Rotational               0.889              2.981             10.471
 Vibrational             18.684              1.582              0.817
 Vibration     1          0.815              1.346              0.776
                       Q            Log10(Q)             Ln(Q)
 Total Bot       0.602988D-05         -5.219692        -12.018784
 Total V=0       0.223629D+09          8.349528         19.225500
 Vib (Bot)       0.303925D-13        -13.517233        -31.124580
 Vib (Bot)    1  0.373510D+00         -0.427698         -0.984811
 Vib (V=0)       0.112716D+01          0.051987          0.119704
 Vib (V=0)    1  0.112411D+01          0.050808          0.116989
 Electronic      0.200000D+01          0.301030          0.693147
 Translational   0.228882D+07          6.359611         14.643545
 Rotational      0.433412D+02          1.636901          3.769104
 
                                          methyl with imposed symmetry and cc-pVD
 Z basis set
                                                             IR Spectrum
 
      3      3                                                                  1                                                    
      3      1                                                                  3                                  4                 
      1      1                                                                  6                                  5                 
      9      8                                                                  8                                  7                 
 
      X                                                                         X                                  X                 
                                                                                X                                  X                 
                                                                                                                   X                 
                                                                                                                   X                 
                                                                                                                   X                 
                                                                                                                   X                 
                                                                                                                   X                 
                                                                                                                   X                 
                                                                                                                   X                 
                                                                                                                   X                 
                                                                                                                   X                 
                                                                                                                   X                 
                                                                                                                   X                 
                                                                                                                   X                 
                                                                                                                   X                 
                                                                                                                   X                 
                                                                                                                   X                 
                                                                                                                   X                 
                                                                                                                   X                 
                                                                                                                   X                 
 
 ***** Axes restored to original set *****
 -------------------------------------------------------------------
 Center     Atomic                   Forces (Hartrees/Bohr)
 Number     Number              X              Y              Z
 -------------------------------------------------------------------
      1        6           0.000000000   -0.000000000    0.000000000
      2        1          -0.000000000    0.000000000    0.000323562
      3        1           0.000280213   -0.000000000   -0.000161781
      4        1          -0.000280213    0.000000000   -0.000161781
 -------------------------------------------------------------------
 Cartesian Forces:  Max     0.000323562 RMS     0.000161781
 Force constants in Cartesian coordinates: 
                1             2             3             4             5 
      1  0.619566D+00
      2  0.000000D+00  0.190390D-01
      3  0.000000D+00  0.000000D+00  0.619565D+00
      4 -0.511423D-01  0.000000D+00  0.000000D+00  0.428413D-01
      5  0.000000D+00 -0.635391D-02  0.000000D+00  0.000000D+00  0.200716D-02
      6  0.000000D+00  0.000000D+00 -0.361903D+00  0.000000D+00  0.000000D+00
      7 -0.284213D+00  0.000000D+00  0.134563D+00  0.415010D-02  0.000000D+00
      8  0.000000D+00 -0.634823D-02  0.000000D+00  0.000000D+00  0.217337D-02
      9  0.134563D+00  0.000000D+00 -0.128832D+00  0.224274D-01  0.000000D+00
     10 -0.284213D+00  0.000000D+00 -0.134563D+00  0.415010D-02  0.000000D+00
     11  0.000000D+00 -0.634823D-02  0.000000D+00  0.000000D+00  0.217337D-02
     12 -0.134563D+00  0.000000D+00 -0.128832D+00 -0.224274D-01  0.000000D+00
                6             7             8             9            10 
      6  0.373702D+00
      7 -0.502211D-02  0.290987D+00
      8  0.000000D+00  0.000000D+00  0.200716D-02
      9 -0.589883D-02 -0.143267D+00  0.000000D+00  0.125556D+00
     10  0.502211D-02 -0.109233D-01  0.000000D+00 -0.137247D-01  0.290987D+00
     11  0.000000D+00  0.000000D+00  0.217337D-02  0.000000D+00  0.000000D+00
     12 -0.589883D-02  0.137247D-01  0.000000D+00  0.917457D-02  0.143267D+00
               11            12 
     11  0.200716D-02
     12  0.000000D+00  0.125556D+00
 Force constants in internal coordinates: 
                1             2             3             4             5 
      1  0.373701D+00
      2 -0.139948D-02  0.373701D+00
      3 -0.139948D-02 -0.139959D-02  0.373701D+00
      4  0.523171D-02  0.523164D-02 -0.104636D-01  0.608100D-01
      5  0.523171D-02 -0.104636D-01  0.523164D-02 -0.304051D-01  0.608100D-01
      6 -0.104634D-01  0.523192D-02  0.523192D-02 -0.304049D-01 -0.304049D-01
      7  0.000000D+00  0.000000D+00  0.000000D+00  0.000000D+00  0.000000D+00
                6             7 
      6  0.608097D-01
      7  0.000000D+00  0.690015D-02
 Leave Link  716 at Sat Aug 17 23:45:04 2024, MaxMem=   13107200 cpu:       0.0
 (Enter /programs/64bit/g09/g09-gfortran/bin/l103.exe)

 GradGradGradGradGradGradGradGradGradGradGradGradGradGradGradGradGradGrad
 Berny optimization.
 Internal  Forces:  Max     0.000323562 RMS     0.000211821
 Search for a local minimum.
 Step number   1 out of a maximum of    2
 All quantities printed in internal units (Hartrees-Bohrs-Radians)
 Second derivative matrix not updated -- analytic derivatives used.
 The second derivative matrix:
                          R1        R2        R3        A1        A2
           R1           0.37370
           R2          -0.00140   0.37370
           R3          -0.00140  -0.00140   0.37370
           A1           0.00523   0.00523  -0.01046   0.06081
           A2           0.00523  -0.01046   0.00523  -0.03041   0.06081
           A3          -0.01046   0.00523   0.00523  -0.03040  -0.03040
           D1           0.00000   0.00000   0.00000  -0.00000   0.00000
                          A3        D1
           A3           0.06081
           D1          -0.00000   0.00690
     Eigenvalues ---    0.00690   0.09035   0.09035   0.37090   0.37597
     Eigenvalues ---    0.375971000.00000
 Angle between quadratic step and forces=   0.00 degrees.
 Linear search not attempted -- first point.
 Iteration  1 RMS(Cart)=  0.00057110 RMS(Int)=  0.00000000
 Iteration  2 RMS(Cart)=  0.00000000 RMS(Int)=  0.00000000
 ClnCor:  largest displacement from symmetrization is 3.13D-09 for atom     4.
 Variable       Old X    -DE/DX   Delta X   Delta X   Delta X     New X
                                 (Linear)    (Quad)   (Total)
    R1        2.05980   0.00032   0.00000   0.00087   0.00087   2.06067
    R2        2.05980   0.00032   0.00000   0.00087   0.00087   2.06067
    R3        2.05980   0.00032   0.00000   0.00087   0.00087   2.06067
    A1        2.09440   0.00000   0.00000   0.00000   0.00000   2.09440
    A2        2.09440   0.00000   0.00000   0.00000   0.00000   2.09440
    A3        2.09440  -0.00000   0.00000  -0.00000   0.00000   2.09440
    D1        3.14159   0.00000   0.00000  -0.00000   0.00000   3.14159
         Item               Value     Threshold  Converged?
 Maximum Force            0.000324     0.000450     YES
 RMS     Force            0.000212     0.000300     YES
 Maximum Displacement     0.000872     0.001800     YES
 RMS     Displacement     0.000571     0.001200     YES
 Predicted change in Energy=-4.233963D-07
 Optimization completed.
    -- Stationary point found.
                           ----------------------------
                           !   Optimized Parameters   !
                           ! (Angstroms and Degrees)  !
 --------------------------                            --------------------------
 ! Name  Definition              Value          Derivative Info.                !
 --------------------------------------------------------------------------------
 ! R1    R(1,2)                  1.09           -DE/DX =    0.0003              !
 ! R2    R(1,3)                  1.09           -DE/DX =    0.0003              !
 ! R3    R(1,4)                  1.09           -DE/DX =    0.0003              !
 ! A1    A(2,1,3)              120.0            -DE/DX =    0.0                 !
 ! A2    A(2,1,4)              120.0            -DE/DX =    0.0                 !
 ! A3    A(3,1,4)              120.0            -DE/DX =    0.0                 !
 ! D1    D(2,1,4,3)            180.0            -DE/DX =    0.0                 !
 --------------------------------------------------------------------------------
 GradGradGradGradGradGradGradGradGradGradGradGradGradGradGradGradGradGrad

 Leave Link  103 at Sat Aug 17 23:45:04 2024, MaxMem=   13107200 cpu:       0.0
 (Enter /programs/64bit/g09/g09-gfortran/bin/l9999.exe)
 1\1\GINC-MOLMOD\Freq\UB3PW91\CC-pVDZ\C1H3(2)\OSPITE\17-Aug-2024\0\\#P 
 Geom=AllCheck Guess=TCheck SCRF=Check GenChk UB3PW91/CC-pVDZ Freq\\met
 hyl with imposed symmetry and cc-pVDZ basis set\\0,2\C,0.,0.,0.\H,0.,0
 .,1.09\H,0.9439676901,0.,-0.545\H,-0.9439676901,0.,-0.545\\Version=EM6
 4L-G09RevA.02\State=2-A2"\HF=-39.8252817\S2=0.754324\S2-1=0.\S2A=0.750
 009\RMSD=4.266e-09\RMSF=1.618e-04\ZeroPoint=0.0295004\Thermal=0.032608
 1\Dipole=0.,0.,0.\DipoleDeriv=-0.010622,0.,0.,0.,-0.4216132,0.,0.,0.,-
 0.0106033,0.0495827,0.,0.,0.,0.1405564,0.,0.,0.,-0.0425443,-0.0194964,
 0.,0.0398842,0.,0.1405424,0.,0.0398778,0.,0.0265623,-0.0194964,0.,-0.0
 398842,0.,0.1405424,0.,-0.0398778,0.,0.0265623\Polar=12.4619766,0.,6.8
 390805,0.,0.,12.462279\PG=D03H [O(C1),3C2(H1)]\NImag=0\\0.61956631,0.,
 0.01903900,0.,0.,0.61956540,-0.05114234,0.,0.,0.04284132,0.,-0.0063539
 1,0.,0.,0.00200716,0.,0.,-0.36190342,0.,0.,0.37370190,-0.28421257,0.,0
 .13456312,0.00415010,0.,-0.00502211,0.29098675,0.,-0.00634823,0.,0.,0.
 00217337,0.,0.,0.00200716,0.13456334,0.,-0.12883180,0.02242738,0.,-0.0
 0589883,-0.14326683,0.,0.12555647,-0.28421257,0.,-0.13456312,0.0041501
 0,0.,0.00502211,-0.01092330,0.,-0.01372475,0.29098675,0.,-0.00634823,0
 .,0.,0.00217337,0.,0.,0.00217337,0.,0.,0.00200716,-0.13456334,0.,-0.12
 883180,-0.02242738,0.,-0.00589883,0.01372475,0.,0.00917457,0.14326683,
 0.,0.12555647\\0.,0.,0.,0.,0.,-0.00032356,-0.00028021,0.,0.00016178,0.
 00028021,0.,0.00016178\\\@


 WE TEND TO MEET ANY NEW SITUATION BY REORGANIZING. IT CAN BE A
 WONDERFUL METHOD FOR CREATING THE ILLUSION OF PROGRESS WHILE PRODUCING
 CONFUSION, INEFFICIENCY, AND DEMORALIZATION.
     -- PETRONIUS ARBITER, 210 B.C.
 Job cpu time:  0 days  0 hours  0 minutes 15.1 seconds.
 File lengths (MBytes):  RWF=      5 Int=      0 D2E=      0 Chk=      1 Scr=      1
 Normal termination of Gaussian 09 at Sat Aug 17 23:45:04 2024.
