 Entering Gaussian System, Link 0=/programs/64bit/g09/g09-gfortran/bin/g09
 Input=ch3_sto-3g.com
 Output=ch3_sto-3g.log
 Initial command:
 /programs/64bit/g09/g09-gfortran/bin/l1.exe /home/ospite/Desktop/MMfP/Project6/CH3/g09/DFT/B3PW91/Gau-17902.inp -scrdir=/home/ospite/Desktop/MMfP/Project6/CH3/g09/DFT/B3PW91/
 Entering Link 1 = /programs/64bit/g09/g09-gfortran/bin/l1.exe PID=     17903.
  
 Copyright (c) 1988,1990,1992,1993,1995,1998,2003,2009, Gaussian, Inc.
                  All Rights Reserved.
  
 This is part of the Gaussian(R) 09 program.  It is based on
 the Gaussian(R) 03 system (copyright 2003, Gaussian, Inc.),
 the Gaussian(R) 98 system (copyright 1998, Gaussian, Inc.),
 the Gaussian(R) 94 system (copyright 1995, Gaussian, Inc.),
 the Gaussian 92(TM) system (copyright 1992, Gaussian, Inc.),
 the Gaussian 90(TM) system (copyright 1990, Gaussian, Inc.),
 the Gaussian 88(TM) system (copyright 1988, Gaussian, Inc.),
 the Gaussian 86(TM) system (copyright 1986, Carnegie Mellon
 University), and the Gaussian 82(TM) system (copyright 1983,
 Carnegie Mellon University). Gaussian is a federally registered
 trademark of Gaussian, Inc.
  
 This software contains proprietary and confidential information,
 including trade secrets, belonging to Gaussian, Inc.
  
 This software is provided under written license and may be
 used, copied, transmitted, or stored only in accord with that
 written license.
  
 The following legend is applicable only to US Government
 contracts under FAR:
  
                    RESTRICTED RIGHTS LEGEND
  
 Use, reproduction and disclosure by the US Government is
 subject to restrictions as set forth in subparagraphs (a)
 and (c) of the Commercial Computer Software - Restricted
 Rights clause in FAR 52.227-19.
  
 Gaussian, Inc.
 340 Quinnipiac St., Bldg. 40, Wallingford CT 06492
  
  
 ---------------------------------------------------------------
 Warning -- This program may not be used in any manner that
 competes with the business of Gaussian, Inc. or will provide
 assistance to any competitor of Gaussian, Inc.  The licensee
 of this program is prohibited from giving any competitor of
 Gaussian, Inc. access to this program.  By using this program,
 the user acknowledges that Gaussian, Inc. is engaged in the
 business of creating and licensing software in the field of
 computational chemistry and represents and warrants to the
 licensee that it is not a competitor of Gaussian, Inc. and that
 it will not use this program in any manner prohibited above.
 ---------------------------------------------------------------
  

 Cite this work as:
 Gaussian 09, Revision A.02,
 M. J. Frisch, G. W. Trucks, H. B. Schlegel, G. E. Scuseria, 
 M. A. Robb, J. R. Cheeseman, G. Scalmani, V. Barone, B. Mennucci, 
 G. A. Petersson, H. Nakatsuji, M. Caricato, X. Li, H. P. Hratchian, 
 A. F. Izmaylov, J. Bloino, G. Zheng, J. L. Sonnenberg, M. Hada, 
 M. Ehara, K. Toyota, R. Fukuda, J. Hasegawa, M. Ishida, T. Nakajima, 
 Y. Honda, O. Kitao, H. Nakai, T. Vreven, J. A. Montgomery, Jr., 
 J. E. Peralta, F. Ogliaro, M. Bearpark, J. J. Heyd, E. Brothers, 
 K. N. Kudin, V. N. Staroverov, R. Kobayashi, J. Normand, 
 K. Raghavachari, A. Rendell, J. C. Burant, S. S. Iyengar, J. Tomasi, 
 M. Cossi, N. Rega, J. M. Millam, M. Klene, J. E. Knox, J. B. Cross, 
 V. Bakken, C. Adamo, J. Jaramillo, R. Gomperts, R. E. Stratmann, 
 O. Yazyev, A. J. Austin, R. Cammi, C. Pomelli, J. W. Ochterski, 
 R. L. Martin, K. Morokuma, V. G. Zakrzewski, G. A. Voth, 
 P. Salvador, J. J. Dannenberg, S. Dapprich, A. D. Daniels, 
 O. Farkas, J. B. Foresman, J. V. Ortiz, J. Cioslowski, 
 and D. J. Fox, Gaussian, Inc., Wallingford CT, 2009.
 
 ******************************************
 Gaussian 09:  EM64L-G09RevA.02 11-Jun-2009
                17-Aug-2024 
 ******************************************
 %mem=100MB
 -------------------------------------------------------------------
 #p b3pw91/STO-3G opt freq symmetry=(follow,pg=C3v) pop=full gfinput
 -------------------------------------------------------------------
 1/14=-1,18=20,19=15,26=3,38=1/1,3;
 2/9=110,12=2,17=6,18=5,19=2314885530821997379,40=1/2;
 3/6=3,11=2,16=1,24=10,25=1,30=1,71=1,74=-6/1,2,3;
 4//1;
 5/5=2,38=5/2;
 6/7=3,28=1/1;
 7//1,2,3,16;
 1/14=-1,18=20,19=15/3(2);
 2/9=110,15=5,19=2314885530821997379/2;
 99//99;
 2/9=110,15=5,19=2314885530821997379/2;
 3/6=3,11=2,16=1,25=1,30=1,71=1,74=-6/1,2,3;
 4/5=5,16=3/1;
 5/5=2,38=5/2;
 7//1,2,3,16;
 1/14=-1,18=20,19=15/3(-5);
 2/9=110,15=5,19=2314885530821997379/2;
 6/7=3,19=2,28=1/1;
 99/9=1/99;
 Leave Link    1 at Sat Aug 17 23:38:41 2024, MaxMem=   13107200 cpu:       0.1
 (Enter /programs/64bit/g09/g09-gfortran/bin/l101.exe)
 -------------------------------------------------
 methyl with imposed symmetry and STO-3G basis set
 -------------------------------------------------
 Symbolic Z-matrix:
 Charge =  0 Multiplicity = 2
 C1
 H2                   1    d
 H3                   1    d        2    a
 H4                   1    d        2    -a       3    t        0
       Variables:
  d                     1.09                     
  a                   120.                       
  t                     0.                       
 
 NAtoms=      4 NQM=      4 NQMF=      0 NMic=      0 NMicF=      0 NTot=      4.
                    Isotopes and Nuclear Properties:
 (Nuclear quadrupole moments (NQMom) in fm**2, nuclear magnetic moments (NMagM)
  in nuclear magnetons)

  Atom         1           2           3           4
 IAtWgt=          12           1           1           1
 AtmWgt=  12.0000000   1.0078250   1.0078250   1.0078250
 NucSpn=           0           1           1           1
 AtZEff=   0.0000000   0.0000000   0.0000000   0.0000000
 NQMom=    0.0000000   0.0000000   0.0000000   0.0000000
 NMagM=    0.0000000   2.7928460   2.7928460   2.7928460
 Leave Link  101 at Sat Aug 17 23:38:41 2024, MaxMem=   13107200 cpu:       0.1
 (Enter /programs/64bit/g09/g09-gfortran/bin/l103.exe)

 GradGradGradGradGradGradGradGradGradGradGradGradGradGradGradGradGradGrad
 Berny optimization.
 Initialization pass.
                           ----------------------------
                           !    Initial Parameters    !
                           ! (Angstroms and Degrees)  !
 --------------------------                            --------------------------
 ! Name  Definition              Value          Derivative Info.                !
 --------------------------------------------------------------------------------
 ! R1    R(1,2)                  1.09           estimate D2E/DX2                !
 ! R2    R(1,3)                  1.09           estimate D2E/DX2                !
 ! R3    R(1,4)                  1.09           estimate D2E/DX2                !
 ! A1    A(2,1,3)              120.0            estimate D2E/DX2                !
 ! A2    A(2,1,4)              120.0            estimate D2E/DX2                !
 ! A3    A(3,1,4)              120.0            estimate D2E/DX2                !
 ! D1    D(2,1,4,3)            180.0            estimate D2E/DX2                !
 --------------------------------------------------------------------------------
 Trust Radius=3.00D-01 FncErr=1.00D-07 GrdErr=1.00D-06
 Number of steps in this run=  20 maximum allowed number of steps= 100.
 GradGradGradGradGradGradGradGradGradGradGradGradGradGradGradGradGradGrad

 Leave Link  103 at Sat Aug 17 23:38:41 2024, MaxMem=   13107200 cpu:       0.0
 (Enter /programs/64bit/g09/g09-gfortran/bin/l202.exe)
                          Input orientation:                          
 ---------------------------------------------------------------------
 Center     Atomic      Atomic             Coordinates (Angstroms)
 Number     Number       Type             X           Y           Z
 ---------------------------------------------------------------------
      1          6           0        0.000000    0.000000    0.000000
      2          1           0        0.000000    0.000000    1.090000
      3          1           0        0.943968    0.000000   -0.545000
      4          1           0       -0.943968    0.000000   -0.545000
 ---------------------------------------------------------------------
                    Distance matrix (angstroms):
                    1          2          3          4
     1  C    0.000000
     2  H    1.090000   0.000000
     3  H    1.090000   1.887935   0.000000
     4  H    1.090000   1.887935   1.887935   0.000000
 Symm:  InNGrp=C3V  InAxis=0.
 This structure is nearly, but not quite of a higher symmetry.
 Consider Symm=Loose if the higher symmetry is desired.
 Stoichiometry    CH3(2)
 Framework group  C2[C2(CH),X(H2)]
 Deg. of freedom     3
 Full point group                 C2      NOp   2
 Largest Abelian subgroup         C2      NOp   2
 Largest concise Abelian subgroup C2      NOp   2
                         Standard orientation:                         
 ---------------------------------------------------------------------
 Center     Atomic      Atomic             Coordinates (Angstroms)
 Number     Number       Type             X           Y           Z
 ---------------------------------------------------------------------
      1          6           0        0.000000    0.000000    0.000000
      2          1           0        0.000000    0.000000    1.090000
      3          1           0        0.000000    0.943968   -0.545000
      4          1           0       -0.000000   -0.943968   -0.545000
 ---------------------------------------------------------------------
 Rotational constants (GHZ):    281.3764836    281.3764836    140.6882418
 Leave Link  202 at Sat Aug 17 23:38:41 2024, MaxMem=   13107200 cpu:       0.0
 (Enter /programs/64bit/g09/g09-gfortran/bin/l301.exe)
 Standard basis: STO-3G (5D, 7F)
 Ernie: Thresh=  0.10000D-02 Tol=  0.10000D-05 Strict=F.
 AO basis set in the form of general basis input (Overlap normalization):
      1 0
 S   3 1.00       0.000000000000
      0.7161683735D+02  0.1543289673D+00
      0.1304509632D+02  0.5353281423D+00
      0.3530512160D+01  0.4446345422D+00
 SP   3 1.00       0.000000000000
      0.2941249355D+01 -0.9996722919D-01  0.1559162750D+00
      0.6834830964D+00  0.3995128261D+00  0.6076837186D+00
      0.2222899159D+00  0.7001154689D+00  0.3919573931D+00
 ****
      2 0
 S   3 1.00       0.000000000000
      0.3425250914D+01  0.1543289673D+00
      0.6239137298D+00  0.5353281423D+00
      0.1688554040D+00  0.4446345422D+00
 ****
      3 0
 S   3 1.00       0.000000000000
      0.3425250914D+01  0.1543289673D+00
      0.6239137298D+00  0.5353281423D+00
      0.1688554040D+00  0.4446345422D+00
 ****
      4 0
 S   3 1.00       0.000000000000
      0.3425250914D+01  0.1543289673D+00
      0.6239137298D+00  0.5353281423D+00
      0.1688554040D+00  0.4446345422D+00
 ****

 There are     5 symmetry adapted basis functions of A   symmetry.
 There are     3 symmetry adapted basis functions of B   symmetry.
 Integral buffers will be    131072 words long.
 Raffenetti 2 integral format.
 Two-electron integral symmetry is turned on.
     8 basis functions,    24 primitive gaussians,     8 cartesian basis functions
     5 alpha electrons        4 beta electrons
       nuclear repulsion energy         9.5795885928 Hartrees.
 IExCor=  408 DFT=T Ex+Corr=B3PW91 ExCW=0 ScaHFX=  0.200000
 ScaDFX=  0.800000  0.720000  1.000000  0.810000 ScalE2=  1.000000  1.000000
 IRadAn=      0 IRanWt=     -1 IRanGd=            0 ICorTp=0
 NAtoms=    4 NActive=    4 NUniq=    3 SFac= 1.33D+00 NAtFMM=   80 NAOKFM=F Big=F
 Leave Link  301 at Sat Aug 17 23:38:41 2024, MaxMem=   13107200 cpu:       0.1
 (Enter /programs/64bit/g09/g09-gfortran/bin/l302.exe)
 NPDir=0 NMtPBC=     1 NCelOv=     1 NCel=       1 NClECP=     1 NCelD=      1
         NCelK=      1 NCelE2=     1 NClLst=     1 CellRange=     0.0.
 One-electron integrals computed using PRISM.
 One-electron integral symmetry used in STVInt
 NBasis=     8 RedAO= T  NBF=     5     3
 NBsUse=     8 1.00D-06 NBFU=     5     3
 Precomputing XC quadrature grid using
 IXCGrd= 2 IRadAn=           0 IRanWt=          -1 IRanGd=           0 AccXCQ= 1.00D-10.
 NRdTot=     242 NPtTot=       30652 NUsed=       32411 NTot=       32443
 NSgBfM=     8     8     8     8     8 NAtAll=     4     4.
 Leave Link  302 at Sat Aug 17 23:38:41 2024, MaxMem=   13107200 cpu:       0.1
 (Enter /programs/64bit/g09/g09-gfortran/bin/l303.exe)
 DipDrv:  MaxL=1.
 Leave Link  303 at Sat Aug 17 23:38:41 2024, MaxMem=   13107200 cpu:       0.0
 (Enter /programs/64bit/g09/g09-gfortran/bin/l401.exe)
 Harris functional with IExCor=  408 diagonalized for initial guess.
 ExpMin= 1.69D-01 ExpMax= 7.16D+01 ExpMxC= 7.16D+01 IAcc=1 IRadAn=         1 AccDes= 0.00D+00
 HarFok:  IExCor=  408 AccDes= 0.00D+00 IRadAn=         1 IDoV= 1
 ScaDFX=  1.000000  1.000000  1.000000  1.000000
 FoFCou: FMM=F IPFlag=           0 FMFlag=      100000 FMFlg1=           0
         NFxFlg=           0 DoJE=T BraDBF=F KetDBF=T FulRan=T
         Omega=  0.000000  0.000000  1.000000  0.000000  0.000000 ICntrl=     500 IOpCl=  0
         NMat0=    1 NMatS0=    1 NMatT0=    0 NMatD0=    1 NMtDS0=    0 NMtDT0=    0
         I1Cent=           4 NGrid=           0.
 Petite list used in FoFCou.
 Harris En= -39.3451189335678    
 Initial guess orbital symmetries:
 Alpha Orbitals:
       Occupied  (A) (A) (A) (B) (B)
       Virtual   (A) (B) (A)
 Beta  Orbitals:
       Occupied  (A) (A) (A) (B)
       Virtual   (B) (A) (B) (A)
 The electronic state of the initial guess is 2-B.
 Initial guess <Sx>= 0.0000 <Sy>= 0.0000 <Sz>= 0.5000 <S**2>= 0.7500 S= 0.5000
 Leave Link  401 at Sat Aug 17 23:38:42 2024, MaxMem=   13107200 cpu:       0.2
 (Enter /programs/64bit/g09/g09-gfortran/bin/l502.exe)
 UHF open shell SCF:
 Requested convergence on RMS density matrix=1.00D-08 within 128 cycles.
 Requested convergence on MAX density matrix=1.00D-06.
 Requested convergence on             energy=1.00D-06.
 No special actions if energy rises.
 Using DIIS extrapolation, IDIIS=  1040.
 Integral symmetry usage will be decided dynamically.
        32362 words used for storage of precomputed grid.
 Keep R1 and R2 ints in memory in canonical form, NReq=902930.
 IEnd=       52117 IEndB=       52117 NGot=    13107200 MDV=    13070826
 LenX=    13070826 LenY=    13069944
 Symmetry not used in FoFDir.
 MinBra= 0 MaxBra= 1 Meth= 1.
 IRaf=       0 NMat=   1 IRICut=       1 DoRegI=T DoRafI=F ISym2E= 0 JSym2E=0.
 Integral accuracy reduced to 1.0D-05 until final iterations.

 Cycle   1  Pass 0  IDiag  1:
 E= -39.3149619736909    
 DIIS: error= 3.74D-02 at cycle   1 NSaved=   1.
 NSaved= 1 IEnMin= 1 EnMin= -39.3149619736909     IErMin= 1 ErrMin= 3.74D-02
 ErrMax= 3.74D-02 EMaxC= 1.00D-01 BMatC= 5.41D-02 BMatP= 5.41D-02
 IDIUse=3 WtCom= 6.26D-01 WtEn= 3.74D-01
 Coeff-Com:  0.100D+01
 Coeff-En:   0.100D+01
 Coeff:      0.100D+01
 Gap=     0.519 Goal=   None    Shift=    0.000
 Gap=     0.459 Goal=   None    Shift=    0.000
 GapD=    0.459 DampG=2.000 DampE=0.500 DampFc=1.0000 IDamp=-1.
 RMSDP=3.20D-02 MaxDP=1.48D-01              OVMax= 3.33D-16

 Cycle   2  Pass 0  IDiag  1:
 E= -39.3277096231429     Delta-E=       -0.012747649452 Rises=F Damp=F
 DIIS: error= 2.18D-02 at cycle   2 NSaved=   2.
 NSaved= 2 IEnMin= 2 EnMin= -39.3277096231429     IErMin= 2 ErrMin= 2.18D-02
 ErrMax= 2.18D-02 EMaxC= 1.00D-01 BMatC= 1.90D-02 BMatP= 5.41D-02
 IDIUse=3 WtCom= 7.82D-01 WtEn= 2.18D-01
 Coeff-Com:  0.368D+00 0.632D+00
 Coeff-En:   0.112D+00 0.888D+00
 Coeff:      0.312D+00 0.688D+00
 Gap=     0.560 Goal=   None    Shift=    0.000
 Gap=     0.434 Goal=   None    Shift=    0.000
 RMSDP=1.31D-02 MaxDP=5.59D-02 DE=-1.27D-02 OVMax= 1.11D-16

 Cycle   3  Pass 0  IDiag  1:
 E= -39.3340390498616     Delta-E=       -0.006329426719 Rises=F Damp=F
 DIIS: error= 3.19D-03 at cycle   3 NSaved=   3.
 NSaved= 3 IEnMin= 3 EnMin= -39.3340390498616     IErMin= 3 ErrMin= 3.19D-03
 ErrMax= 3.19D-03 EMaxC= 1.00D-01 BMatC= 2.62D-04 BMatP= 1.90D-02
 IDIUse=3 WtCom= 9.68D-01 WtEn= 3.19D-02
 Coeff-Com: -0.869D-01-0.302D-01 0.112D+01
 Coeff-En:   0.000D+00 0.000D+00 0.100D+01
 Coeff:     -0.842D-01-0.292D-01 0.111D+01
 Gap=     0.559 Goal=   None    Shift=    0.000
 Gap=     0.440 Goal=   None    Shift=    0.000
 RMSDP=1.82D-03 MaxDP=9.55D-03 DE=-6.33D-03 OVMax= 1.11D-16

 Cycle   4  Pass 0  IDiag  1:
 E= -39.3341599536816     Delta-E=       -0.000120903820 Rises=F Damp=F
 DIIS: error= 3.56D-04 at cycle   4 NSaved=   4.
 NSaved= 4 IEnMin= 4 EnMin= -39.3341599536816     IErMin= 4 ErrMin= 3.56D-04
 ErrMax= 3.56D-04 EMaxC= 1.00D-01 BMatC= 4.65D-06 BMatP= 2.62D-04
 IDIUse=3 WtCom= 9.96D-01 WtEn= 3.56D-03
 Coeff-Com:  0.526D-02-0.244D-01-0.318D+00 0.134D+01
 Coeff-En:   0.000D+00 0.000D+00 0.000D+00 0.100D+01
 Coeff:      0.524D-02-0.243D-01-0.316D+00 0.134D+01
 Gap=     0.560 Goal=   None    Shift=    0.000
 Gap=     0.440 Goal=   None    Shift=    0.000
 RMSDP=4.74D-04 MaxDP=1.60D-03 DE=-1.21D-04 OVMax= 0.00D+00

 Cycle   5  Pass 0  IDiag  1:
 E= -39.3341640639748     Delta-E=       -0.000004110293 Rises=F Damp=F
 DIIS: error= 1.01D-05 at cycle   5 NSaved=   5.
 NSaved= 5 IEnMin= 5 EnMin= -39.3341640639748     IErMin= 5 ErrMin= 1.01D-05
 ErrMax= 1.01D-05 EMaxC= 1.00D-01 BMatC= 2.49D-09 BMatP= 4.65D-06
 IDIUse=1 WtCom= 1.00D+00 WtEn= 0.00D+00
 Coeff-Com: -0.115D-03 0.201D-02 0.215D-01-0.113D+00 0.109D+01
 Coeff:     -0.115D-03 0.201D-02 0.215D-01-0.113D+00 0.109D+01
 Gap=     0.560 Goal=   None    Shift=    0.000
 Gap=     0.440 Goal=   None    Shift=    0.000
 RMSDP=9.69D-06 MaxDP=4.04D-05 DE=-4.11D-06 OVMax= 1.11D-16

 Initial convergence to 1.0D-05 achieved.  Increase integral accuracy.
 Cycle   6  Pass 1  IDiag  1:
 E= -39.3341665472566     Delta-E=       -0.000002483282 Rises=F Damp=F
 DIIS: error= 1.14D-06 at cycle   1 NSaved=   1.
 NSaved= 1 IEnMin= 1 EnMin= -39.3341665472566     IErMin= 1 ErrMin= 1.14D-06
 ErrMax= 1.14D-06 EMaxC= 1.00D-01 BMatC= 4.63D-11 BMatP= 4.63D-11
 IDIUse=1 WtCom= 1.00D+00 WtEn= 0.00D+00
 Coeff-Com:  0.100D+01
 Coeff:      0.100D+01
 Gap=     0.560 Goal=   None    Shift=    0.000
 Gap=     0.440 Goal=   None    Shift=    0.000
 RMSDP=9.69D-06 MaxDP=4.04D-05 DE=-2.48D-06 OVMax= 3.33D-16

 Cycle   7  Pass 1  IDiag  1:
 E= -39.3341665472698     Delta-E=       -0.000000000013 Rises=F Damp=F
 DIIS: error= 3.87D-07 at cycle   2 NSaved=   2.
 NSaved= 2 IEnMin= 2 EnMin= -39.3341665472698     IErMin= 2 ErrMin= 3.87D-07
 ErrMax= 3.87D-07 EMaxC= 1.00D-01 BMatC= 3.90D-12 BMatP= 4.63D-11
 IDIUse=1 WtCom= 1.00D+00 WtEn= 0.00D+00
 Coeff-Com:  0.116D+00 0.884D+00
 Coeff:      0.116D+00 0.884D+00
 Gap=     0.560 Goal=   None    Shift=    0.000
 Gap=     0.440 Goal=   None    Shift=    0.000
 RMSDP=2.41D-07 MaxDP=1.09D-06 DE=-1.32D-11 OVMax= 1.11D-16

 Cycle   8  Pass 1  IDiag  1:
 E= -39.3341665472711     Delta-E=       -0.000000000001 Rises=F Damp=F
 DIIS: error= 1.57D-07 at cycle   3 NSaved=   3.
 NSaved= 3 IEnMin= 3 EnMin= -39.3341665472711     IErMin= 3 ErrMin= 1.57D-07
 ErrMax= 1.57D-07 EMaxC= 1.00D-01 BMatC= 6.69D-13 BMatP= 3.90D-12
 IDIUse=1 WtCom= 1.00D+00 WtEn= 0.00D+00
 Coeff-Com: -0.276D-01 0.252D+00 0.776D+00
 Coeff:     -0.276D-01 0.252D+00 0.776D+00
 Gap=     0.560 Goal=   None    Shift=    0.000
 Gap=     0.440 Goal=   None    Shift=    0.000
 RMSDP=7.82D-08 MaxDP=3.48D-07 DE=-1.31D-12 OVMax= 2.22D-16

 Cycle   9  Pass 1  IDiag  1:
 E= -39.3341665472713     Delta-E=       -0.000000000000 Rises=F Damp=F
 DIIS: error= 2.27D-08 at cycle   4 NSaved=   4.
 NSaved= 4 IEnMin= 4 EnMin= -39.3341665472713     IErMin= 4 ErrMin= 2.27D-08
 ErrMax= 2.27D-08 EMaxC= 1.00D-01 BMatC= 1.86D-14 BMatP= 6.69D-13
 IDIUse=1 WtCom= 1.00D+00 WtEn= 0.00D+00
 Coeff-Com:  0.377D-02-0.125D+00-0.265D+00 0.139D+01
 Coeff:      0.377D-02-0.125D+00-0.265D+00 0.139D+01
 Gap=     0.560 Goal=   None    Shift=    0.000
 Gap=     0.440 Goal=   None    Shift=    0.000
 RMSDP=2.75D-08 MaxDP=1.19D-07 DE=-2.27D-13 OVMax= 1.11D-16

 Cycle  10  Pass 1  IDiag  1:
 E= -39.3341665472713     Delta-E=       -0.000000000000 Rises=F Damp=F
 DIIS: error= 1.96D-09 at cycle   5 NSaved=   5.
 NSaved= 5 IEnMin= 5 EnMin= -39.3341665472713     IErMin= 5 ErrMin= 1.96D-09
 ErrMax= 1.96D-09 EMaxC= 1.00D-01 BMatC= 1.72D-16 BMatP= 1.86D-14
 IDIUse=1 WtCom= 1.00D+00 WtEn= 0.00D+00
 Coeff-Com:  0.321D-03 0.828D-02 0.130D-01-0.160D+00 0.114D+01
 Coeff:      0.321D-03 0.828D-02 0.130D-01-0.160D+00 0.114D+01
 Gap=     0.560 Goal=   None    Shift=    0.000
 Gap=     0.440 Goal=   None    Shift=    0.000
 RMSDP=2.59D-09 MaxDP=1.12D-08 DE=-4.97D-14 OVMax= 5.55D-16

 SCF Done:  E(UB3PW91) =  -39.3341665473     A.U. after   10 cycles
             Convg  =    0.2587D-08             -V/T =  2.0095
 <Sx>= 0.0000 <Sy>= 0.0000 <Sz>= 0.5000 <S**2>= 0.7549 S= 0.5025
 <L.S>=  0.00000000000    
 KE= 3.896230691419D+01 PE=-1.102127015160D+02 EE= 2.233663946177D+01
 Annihilation of the first spin contaminant:
 S**2 before annihilation     0.7549,   after     0.7500
 Leave Link  502 at Sat Aug 17 23:38:42 2024, MaxMem=   13107200 cpu:       0.8
 (Enter /programs/64bit/g09/g09-gfortran/bin/l601.exe)
 Copying SCF densities to generalized density rwf, IOpCl= 1 IROHF=0.

 **********************************************************************

            Population analysis using the SCF density.

 **********************************************************************

 Orbital symmetries:
 Alpha Orbitals:
       Occupied  (A) (A) (A) (B) (B)
       Virtual   (A) (B) (A)
 Beta  Orbitals:
       Occupied  (A) (A) (A) (B)
       Virtual   (B) (A) (A) (B)
 The electronic state is 2-B.
 Alpha  occ. eigenvalues --   -9.95541  -0.64560  -0.37889  -0.37889  -0.16643
 Alpha virt. eigenvalues --    0.39324   0.49973   0.49973
  Beta  occ. eigenvalues --   -9.93752  -0.59512  -0.36679  -0.36679
  Beta virt. eigenvalues --    0.07361   0.43274   0.51787   0.51787
     Alpha Molecular Orbital Coefficients:
                           1         2         3         4         5
                           O         O         O         O         O
     Eigenvalues --    -9.95541  -0.64560  -0.37889  -0.37889  -0.16643
   1 1   C  1S          0.99069  -0.23352   0.00000   0.00000   0.00000
   2        2S          0.04259   0.69489   0.00000   0.00000   0.00000
   3        2PX         0.00000   0.00000   0.00000  -0.00000   1.00000
   4        2PY         0.00000   0.00000   0.00000   0.57255   0.00000
   5        2PZ        -0.00000   0.00000   0.57255   0.00000   0.00000
   6 2   H  1S         -0.00921   0.19918   0.47543   0.00000   0.00000
   7 3   H  1S         -0.00921   0.19918  -0.23772   0.41174  -0.00000
   8 4   H  1S         -0.00921   0.19918  -0.23772  -0.41174   0.00000
                           6         7         8
                           V         V         V
     Eigenvalues --     0.39324   0.49973   0.49973
   1 1   C  1S         -0.22732   0.00000   0.00000
   2        2S          1.40561   0.00000  -0.00000
   3        2PX         0.00000  -0.00000   0.00000
   4        2PY         0.00000   1.13606   0.00000
   5        2PZ         0.00000   0.00000   1.13606
   6 2   H  1S         -0.75114   0.00000  -1.01627
   7 3   H  1S         -0.75114  -0.88011   0.50814
   8 4   H  1S         -0.75114   0.88011   0.50814
     Beta Molecular Orbital Coefficients:
                           1         2         3         4         5
                           O         O         O         O         V
     Eigenvalues --    -9.93752  -0.59512  -0.36679  -0.36679   0.07361
   1 1   C  1S          0.99125  -0.21945   0.00000   0.00000   0.00000
   2        2S          0.04005   0.61651   0.00000   0.00000   0.00000
   3        2PX         0.00000   0.00000   0.00000  -0.00000   1.00000
   4        2PY         0.00000   0.00000   0.00000   0.53726   0.00000
   5        2PZ        -0.00000   0.00000   0.53726   0.00000   0.00000
   6 2   H  1S         -0.00859   0.24022   0.50653   0.00000   0.00000
   7 3   H  1S         -0.00859   0.24022  -0.25327   0.43867  -0.00000
   8 4   H  1S         -0.00859   0.24022  -0.25327  -0.43867   0.00000
                           6         7         8
                           V         V         V
     Eigenvalues --     0.43274   0.51787   0.51787
   1 1   C  1S         -0.23861   0.00000   0.00000
   2        2S          1.44178  -0.00000   0.00000
   3        2PX         0.00000   0.00000  -0.00000
   4        2PY         0.00000   0.00000   1.15317
   5        2PZ         0.00000   1.15317   0.00000
   6 2   H  1S         -0.73905  -1.00113   0.00000
   7 3   H  1S         -0.73905   0.50057  -0.86700
   8 4   H  1S         -0.73905   0.50057   0.86700
     Alpha Density Matrix:
                           1         2         3         4         5
   1 1   C  1S          1.03600
   2        2S         -0.12008   0.48468
   3        2PX         0.00000   0.00000   1.00000
   4        2PY         0.00000   0.00000   0.00000   0.32781
   5        2PZ        -0.00000   0.00000   0.00000   0.00000   0.32781
   6 2   H  1S         -0.05564   0.13802   0.00000   0.00000   0.27221
   7 3   H  1S         -0.05564   0.13802  -0.00000   0.23574  -0.13610
   8 4   H  1S         -0.05564   0.13802   0.00000  -0.23574  -0.13610
                           6         7         8
   6 2   H  1S          0.26579
   7 3   H  1S         -0.07326   0.26579
   8 4   H  1S         -0.07326  -0.07326   0.26579
     Beta Density Matrix:
                           1         2         3         4         5
   1 1   C  1S          1.03074
   2        2S         -0.09559   0.38169
   3        2PX         0.00000   0.00000   0.00000
   4        2PY         0.00000   0.00000  -0.00000   0.28865
   5        2PZ        -0.00000   0.00000   0.00000   0.00000   0.28865
   6 2   H  1S         -0.06123   0.14775   0.00000   0.00000   0.27214
   7 3   H  1S         -0.06123   0.14775  -0.00000   0.23568  -0.13607
   8 4   H  1S         -0.06123   0.14775   0.00000  -0.23568  -0.13607
                           6         7         8
   6 2   H  1S          0.31435
   7 3   H  1S         -0.07051   0.31435
   8 4   H  1S         -0.07051  -0.07051   0.31435
    Full Mulliken population analysis:
                           1         2         3         4         5
   1 1   C  1S          2.06675
   2        2S         -0.05356   0.86637
   3        2PX         0.00000   0.00000   1.00000
   4        2PY         0.00000   0.00000   0.00000   0.61645
   5        2PZ         0.00000   0.00000   0.00000   0.00000   0.61646
   6 2   H  1S         -0.00728   0.14024   0.00000   0.00000   0.25436
   7 3   H  1S         -0.00728   0.14024   0.00000   0.19077   0.06359
   8 4   H  1S         -0.00728   0.14024  -0.00000   0.19077   0.06359
                           6         7         8
   6 2   H  1S          0.58014
   7 3   H  1S         -0.02054   0.58014
   8 4   H  1S         -0.02054  -0.02054   0.58014
     Gross orbital populations:
                         Total     Alpha     Beta      Spin
   1 1   C  1S          1.99134   0.99578   0.99556   0.00022
   2        2S          1.23353   0.65805   0.57548   0.08258
   3        2PX         1.00000   1.00000   0.00000   1.00000
   4        2PY         0.99799   0.51860   0.47939   0.03921
   5        2PZ         0.99799   0.51860   0.47939   0.03921
   6 2   H  1S          0.92638   0.43632   0.49006  -0.05374
   7 3   H  1S          0.92638   0.43632   0.49006  -0.05374
   8 4   H  1S          0.92638   0.43632   0.49006  -0.05374
          Condensed to atoms (all electrons):
              1          2          3          4
     1  C    5.058895   0.387322   0.387322   0.387322
     2  H    0.387322   0.580144  -0.020543  -0.020543
     3  H    0.387322  -0.020543   0.580145  -0.020543
     4  H    0.387322  -0.020543  -0.020543   0.580145
 Mulliken atomic charges:
              1
     1  C   -0.220860
     2  H    0.073621
     3  H    0.073620
     4  H    0.073620
 Sum of Mulliken atomic charges =  -0.00000
 Mulliken charges with hydrogens summed into heavy atoms:
              1
     1  C   -0.000000
 Sum of Mulliken charges with hydrogens summed into heavy atoms =  -0.00000
          Atomic-Atomic Spin Densities.
              1          2          3          4
     1  C    1.174412  -0.004397  -0.004397  -0.004397
     2  H   -0.004397  -0.048557  -0.000393  -0.000393
     3  H   -0.004397  -0.000393  -0.048558  -0.000393
     4  H   -0.004397  -0.000393  -0.000393  -0.048558
 Mulliken atomic spin densities:
              1
     1  C    1.161221
     2  H   -0.053740
     3  H   -0.053741
     4  H   -0.053741
 Sum of Mulliken atomic spin densities =   1.00000
 Electronic spatial extent (au):  <R**2>=             28.2414
 Charge=             -0.0000 electrons
 Dipole moment (field-independent basis, Debye):
    X=             -0.0000    Y=              0.0000    Z=              0.0000  Tot=              0.0000
 Quadrupole moment (field-independent basis, Debye-Ang):
   XX=             -7.5470   YY=             -6.6593   ZZ=             -6.6593
   XY=              0.0000   XZ=              0.0000   YZ=              0.0000
 Traceless Quadrupole moment (field-independent basis, Debye-Ang):
   XX=             -0.5917   YY=              0.2959   ZZ=              0.2959
   XY=              0.0000   XZ=              0.0000   YZ=              0.0000
 Octapole moment (field-independent basis, Debye-Ang**2):
  XXX=              0.0000  YYY=              0.0000  ZZZ=              0.7196  XYY=             -0.0000
  XXY=             -0.0000  XXZ=              0.0000  XZZ=              0.0000  YZZ=              0.0000
  YYZ=             -0.7196  XYZ=             -0.0000
 Hexadecapole moment (field-independent basis, Debye-Ang**3):
 XXXX=             -5.9698 YYYY=            -12.7292 ZZZZ=            -12.7292 XXXY=              0.0000
 XXXZ=             -0.0000 YYYX=              0.0000 YYYZ=              0.0000 ZZZX=             -0.0000
 ZZZY=              0.0000 XXYY=             -3.4148 XXZZ=             -3.4148 YYZZ=             -4.2431
 XXYZ=              0.0000 YYXZ=              0.0000 ZZXY=              0.0000
 N-N= 9.579588592757D+00 E-N=-1.619247903610D+02  KE= 5.763705424657D+01
 Symmetry A    KE= 5.333017085199D+01
 Symmetry B    KE= 4.306883394576D+00
 Orbital energies and kinetic energies (alpha):
                                 1                 2
   1         O                -9.955406         15.590755
   2         O                -0.645597          1.302663
   3         O                -0.378889          0.958207
   4         O                -0.378889          0.958207
   5         O                -0.166426          1.477728
   6         V                 0.393242          2.379638
   7         V                 0.499730          2.192933
   8         V                 0.499731          2.192933
 Orbital energies and kinetic energies (beta):
                                 1                 2
   1         O                -9.937523         15.608819
   2         O                -0.595122          1.194979
   3         O                -0.366793          0.935475
   4         O                -0.366793          0.935474
   5         V                 0.073607          1.477728
   6         V                 0.432739          2.469258
   7         V                 0.517874          2.215665
   8         V                 0.517874          2.215666
 Total kinetic energy from orbitals= 3.896230691419D+01
                          Isotropic Fermi Contact Couplings
        Atom                 a.u.       MegaHertz       Gauss      10(-4) cm-1
     1  C(13)              0.14932     167.85860      59.89612      55.99160
     2  H(1)              -0.01894     -84.67563     -30.21437     -28.24475
     3  H(1)              -0.01894     -84.67646     -30.21466     -28.24503
     4  H(1)              -0.01894     -84.67646     -30.21466     -28.24503
 --------------------------------------------------------
       Center         ----  Spin Dipole Couplings  ----
                      3XX-RR        3YY-RR        3ZZ-RR
 --------------------------------------------------------
     1   Atom        1.228940     -0.614470     -0.614471
     2   Atom       -0.028103     -0.087598      0.115701
     3   Atom       -0.028103      0.064876     -0.036773
     4   Atom       -0.028103      0.064876     -0.036773
 --------------------------------------------------------
                        XY            XZ            YZ
 --------------------------------------------------------
     1   Atom        0.000000     -0.000000      0.000000
     2   Atom        0.000000     -0.000000     -0.000000
     3   Atom       -0.000000      0.000000     -0.088031
     4   Atom       -0.000000     -0.000000      0.088031
 --------------------------------------------------------


 ---------------------------------------------------------------------------------
              Anisotropic Spin Dipole Couplings in Principal Axis System
 ---------------------------------------------------------------------------------

       Atom             a.u.   MegaHertz   Gauss  10(-4) cm-1        Axes

              Baa    -0.6145   -82.456   -29.422   -27.504  0.0000  0.0000  1.0000
     1 C(13)  Bbb    -0.6145   -82.456   -29.422   -27.504 -0.0000  1.0000  0.0000
              Bcc     1.2289   164.912    58.845    55.009  1.0000  0.0000  0.0000
 
              Baa    -0.0876   -46.738   -16.677   -15.590 -0.0000  1.0000 -0.0000
     2 H(1)   Bbb    -0.0281   -14.994    -5.350    -5.002  1.0000  0.0000  0.0000
              Bcc     0.1157    61.732    22.028    20.592  0.0000  0.0000  1.0000
 
              Baa    -0.0876   -46.738   -16.677   -15.590 -0.0000  0.5000  0.8660
     3 H(1)   Bbb    -0.0281   -14.994    -5.350    -5.002  1.0000  0.0000 -0.0000
              Bcc     0.1157    61.732    22.028    20.592 -0.0000  0.8660 -0.5000
 
              Baa    -0.0876   -46.738   -16.677   -15.590  0.0000 -0.5000  0.8660
     4 H(1)   Bbb    -0.0281   -14.994    -5.350    -5.002  1.0000  0.0000  0.0000
              Bcc     0.1157    61.732    22.028    20.592 -0.0000  0.8660  0.5000
 

 ---------------------------------------------------------------------------------

 No NMR shielding tensors so no spin-rotation constants.
 Leave Link  601 at Sat Aug 17 23:38:43 2024, MaxMem=   13107200 cpu:       0.1
 (Enter /programs/64bit/g09/g09-gfortran/bin/l701.exe)
 Compute integral first derivatives.
 ... and contract with generalized density number  0.
 Leave Link  701 at Sat Aug 17 23:38:43 2024, MaxMem=   13107200 cpu:       0.1
 (Enter /programs/64bit/g09/g09-gfortran/bin/l702.exe)
 L702 exits ... SP integral derivatives will be done elsewhere.
 Leave Link  702 at Sat Aug 17 23:38:43 2024, MaxMem=   13107200 cpu:       0.0
 (Enter /programs/64bit/g09/g09-gfortran/bin/l703.exe)
 Compute integral first derivatives, UseDBF=F ICtDFT=           0.
 Integral derivatives from FoFDir, PRISM(SPDF).
 Calling FoFJK, ICntrl=      2127 FMM=F ISym2X=1 I1Cent= 0 IOpClX= 1 NMat=1 NMatS=1 NMatT=0.
 FoFCou: FMM=F IPFlag=           0 FMFlag=      100000 FMFlg1=         800
         NFxFlg=           0 DoJE=F BraDBF=F KetDBF=F FulRan=T
         Omega=  0.000000  0.000000  1.000000  0.000000  0.000000 ICntrl=    2127 IOpCl=  1
         NMat0=    1 NMatS0=    1 NMatT0=    0 NMatD0=    1 NMtDS0=    0 NMtDT0=    0
         I1Cent=           0 NGrid=           0.
 Petite list used in FoFCou.
 Leave Link  703 at Sat Aug 17 23:38:43 2024, MaxMem=   13107200 cpu:       0.3
 (Enter /programs/64bit/g09/g09-gfortran/bin/l716.exe)
 Dipole        =-1.19774624D-17 0.00000000D+00 1.19395170D-06
 ***** Axes restored to original set *****
 -------------------------------------------------------------------
 Center     Atomic                   Forces (Hartrees/Bohr)
 Number     Number              X              Y              Z
 -------------------------------------------------------------------
      1        6          -0.000000000    0.000000000   -0.000009195
      2        1          -0.000000000   -0.000000000    0.000382939
      3        1           0.000334518    0.000000000   -0.000186872
      4        1          -0.000334518   -0.000000000   -0.000186872
 -------------------------------------------------------------------
 Cartesian Forces:  Max     0.000382939 RMS     0.000191567
 Leave Link  716 at Sat Aug 17 23:38:43 2024, MaxMem=   13107200 cpu:       0.0
 (Enter /programs/64bit/g09/g09-gfortran/bin/l103.exe)

 GradGradGradGradGradGradGradGradGradGradGradGradGradGradGradGradGradGrad
 Berny optimization.
 Internal  Forces:  Max     0.000383137 RMS     0.000250803
 Search for a local minimum.
 Step number   1 out of a maximum of   20
 All quantities printed in internal units (Hartrees-Bohrs-Radians)
 RMS Force = .25080D-03 SwitMx=.10000D-02 MixMth= 2
 Mixed Optimization -- En-DIIS/RFO-DIIS
 Second derivative matrix not updated -- first step.
 The second derivative matrix:
                          R1        R2        R3        A1        A2
           R1           0.34813
           R2           0.00000   0.34813
           R3           0.00000   0.00000   0.34813
           A1           0.00000   0.00000   0.00000   0.16000
           A2           0.00000   0.00000   0.00000   0.00000   0.16000
           A3           0.00000   0.00000   0.00000   0.00000   0.00000
           D1           0.00000   0.00000   0.00000   0.00000   0.00000
                          A3        D1
           A3           0.16000
           D1           0.00000   0.00235
     Eigenvalues ---    0.00235   0.16000   0.16000   0.34813   0.34813
     Eigenvalues ---    0.348131000.00000
 RFO step:  Lambda=-1.26509121D-06 EMin= 2.34830060D-03
 Linear search not attempted -- first point.
 Iteration  1 RMS(Cart)=  0.00072065 RMS(Int)=  0.00000001
 Iteration  2 RMS(Cart)=  0.00000001 RMS(Int)=  0.00000000
 ClnCor:  largest displacement from symmetrization is 5.66D-12 for atom     1.
 Variable       Old X    -DE/DX   Delta X   Delta X   Delta X     New X
                                 (Linear)    (Quad)   (Total)
    R1        2.05980   0.00038   0.00000   0.00110   0.00110   2.06090
    R2        2.05980   0.00038   0.00000   0.00110   0.00110   2.06090
    R3        2.05980   0.00038   0.00000   0.00110   0.00110   2.06090
    A1        2.09440  -0.00000   0.00000  -0.00002  -0.00002   2.09437
    A2        2.09440  -0.00000   0.00000  -0.00002  -0.00002   2.09437
    A3        2.09440   0.00001   0.00000   0.00005   0.00005   2.09444
    D1        3.14159   0.00000   0.00000   0.00000   0.00000   3.14159
         Item               Value     Threshold  Converged?
 Maximum Force            0.000383     0.000450     YES
 RMS     Force            0.000251     0.000300     YES
 Maximum Displacement     0.001079     0.001800     YES
 RMS     Displacement     0.000721     0.001200     YES
 Predicted change in Energy=-6.325456D-07
 Optimization completed.
    -- Stationary point found.
                           ----------------------------
                           !   Optimized Parameters   !
                           ! (Angstroms and Degrees)  !
 --------------------------                            --------------------------
 ! Name  Definition              Value          Derivative Info.                !
 --------------------------------------------------------------------------------
 ! R1    R(1,2)                  1.09           -DE/DX =    0.0004              !
 ! R2    R(1,3)                  1.09           -DE/DX =    0.0004              !
 ! R3    R(1,4)                  1.09           -DE/DX =    0.0004              !
 ! A1    A(2,1,3)              120.0            -DE/DX =    0.0                 !
 ! A2    A(2,1,4)              120.0            -DE/DX =    0.0                 !
 ! A3    A(3,1,4)              120.0            -DE/DX =    0.0                 !
 ! D1    D(2,1,4,3)            180.0            -DE/DX =    0.0                 !
 --------------------------------------------------------------------------------
 GradGradGradGradGradGradGradGradGradGradGradGradGradGradGradGradGradGrad

 Largest change from initial coordinates is atom    0       0.000 Angstoms.
 Leave Link  103 at Sat Aug 17 23:38:43 2024, MaxMem=   13107200 cpu:       0.0
 (Enter /programs/64bit/g09/g09-gfortran/bin/l202.exe)
                          Input orientation:                          
 ---------------------------------------------------------------------
 Center     Atomic      Atomic             Coordinates (Angstroms)
 Number     Number       Type             X           Y           Z
 ---------------------------------------------------------------------
      1          6           0        0.000000    0.000000    0.000000
      2          1           0        0.000000    0.000000    1.090000
      3          1           0        0.943968    0.000000   -0.545000
      4          1           0       -0.943968    0.000000   -0.545000
 ---------------------------------------------------------------------
                    Distance matrix (angstroms):
                    1          2          3          4
     1  C    0.000000
     2  H    1.090000   0.000000
     3  H    1.090000   1.887935   0.000000
     4  H    1.090000   1.887935   1.887935   0.000000
 Stoichiometry    CH3(2)
 Framework group  C2[C2(CH),X(H2)]
 Deg. of freedom     3
 Prev. full point group           C2      NOp   2
 Prev. largest Abelian subgroup   C2      NOp   2
       concise Abelian subgroup   C2      NOp   2
                   Standard orientation:
 ---------------------------------------------------------------------
 Center     Atomic                     Coordinates (Angstroms)
 Number     Number                        X           Y           Z
 ---------------------------------------------------------------------
      1          6                    0.000000    0.000000    0.000000
      2          1                    0.000000    0.000000    1.090000
      3          1                    0.000000    0.943968   -0.545000
      4          1                    0.000000   -0.943968   -0.545000
 ---------------------------------------------------------------------
 Rotational constants (GHZ):    281.3764836    281.3764836    140.6882418
 Leave Link  202 at Sat Aug 17 23:38:43 2024, MaxMem=   13107200 cpu:       0.0
 (Enter /programs/64bit/g09/g09-gfortran/bin/l9999.exe)
 B after Tr=     0.000000    0.000000    0.000000
         Rot=    0.707107   -0.000000    0.000000    0.707107 Ang=  90.00 deg.
 Atom   4 needs variable  -2= 120.0000000000 but is -120.0000000000
 Input z-matrix variables are not compatible with final structure.
 1\1\GINC-MOLMOD\FOpt\UB3PW91\STO-3G\C1H3(2)\OSPITE\17-Aug-2024\0\\#p b
 3pw91/STO-3G opt freq symmetry=(follow,pg=C3v) pop=full gfinput\\methy
 l with imposed symmetry and STO-3G basis set\\0,2\C,0.,0.,0.\H,0.,0.,1
 .09\H,0.9439676901,0.,-0.545\H,-0.9439676901,0.,-0.545\\Version=EM64L-
 G09RevA.02\State=2-B\HF=-39.3341665\S2=0.754932\S2-1=0.\S2A=0.750015\R
 MSD=2.587e-09\RMSF=1.916e-04\Dipole=0.,0.,0.0000012\Quadrupole=0.21996
 99,-0.4399426,0.2199727,0.,0.,0.\PG=C02 [C2(C1H1),X(H2)]\\@


 THOSE WHO TRY TO PASS CHEMISTRY OFF AS A NEW SCIENCE
 SHOW HOW LITTLE KNOWLEDGE THEY HAVE OF THE CHARACTER
 AND LITERATURE OF THE ANCIENTS.
   -- NICOLAS LEFEVRE
 "COURS DE CHYMIE" J.-N.LELOUP, PARIS, 1751
 Leave Link 9999 at Sat Aug 17 23:38:43 2024, MaxMem=   13107200 cpu:       0.0
 Job cpu time:  0 days  0 hours  0 minutes  2.2 seconds.
 File lengths (MBytes):  RWF=      5 Int=      0 D2E=      0 Chk=      1 Scr=      1
 Normal termination of Gaussian 09 at Sat Aug 17 23:38:43 2024.
 (Enter /programs/64bit/g09/g09-gfortran/bin/l1.exe)
 Link1:  Proceeding to internal job step number  2.
 -------------------------------------------------------------------
 #P Geom=AllCheck Guess=TCheck SCRF=Check GenChk UB3PW91/STO-3G Freq
 -------------------------------------------------------------------
 1/10=4,29=7,30=1,38=1,40=1/1,3;
 2/12=2,40=1/2;
 3/6=3,11=2,14=-4,16=1,24=10,25=1,30=1,70=2,71=2,74=-6,116=2/1,2,3;
 4/5=101/1;
 5/5=2,98=1/2;
 8/6=4,10=90,11=11/1;
 11/6=1,8=1,9=11,15=111,16=1/1,2,10;
 10/6=1/2;
 6/7=3,18=1,28=1/1;
 7/8=1,10=1,25=1/1,2,3,16;
 1/10=4,30=1/3;
 99//99;
 Leave Link    1 at Sat Aug 17 23:38:43 2024, MaxMem=   13107200 cpu:       0.1
 (Enter /programs/64bit/g09/g09-gfortran/bin/l101.exe)
 -------------------------------------------------
 methyl with imposed symmetry and STO-3G basis set
 -------------------------------------------------
 Redundant internal coordinates taken from checkpoint file:
 /home/ospite/Desktop/MMfP/Project6/CH3/g09/DFT/B3PW91/Gau-17903.chk
 Charge =  0 Multiplicity = 2
 C,0,0.,0.,0.
 H,0,0.,0.,1.09
 H,0,0.9439676901,0.,-0.545
 H,0,-0.9439676901,0.,-0.545
 Recover connectivity data from disk.
                    Isotopes and Nuclear Properties:
 (Nuclear quadrupole moments (NQMom) in fm**2, nuclear magnetic moments (NMagM)
  in nuclear magnetons)

  Atom         1           2           3           4
 IAtWgt=          12           1           1           1
 AtmWgt=  12.0000000   1.0078250   1.0078250   1.0078250
 NucSpn=           0           1           1           1
 AtZEff=  -3.6000000  -1.0000000  -1.0000000  -1.0000000
 NQMom=    0.0000000   0.0000000   0.0000000   0.0000000
 NMagM=    0.0000000   2.7928460   2.7928460   2.7928460
 Leave Link  101 at Sat Aug 17 23:38:43 2024, MaxMem=   13107200 cpu:       0.1
 (Enter /programs/64bit/g09/g09-gfortran/bin/l103.exe)

 GradGradGradGradGradGradGradGradGradGradGradGradGradGradGradGradGradGrad
 Berny optimization.
 Initialization pass.
                           ----------------------------
                           !    Initial Parameters    !
                           ! (Angstroms and Degrees)  !
 --------------------------                            --------------------------
 ! Name  Definition              Value          Derivative Info.                !
 --------------------------------------------------------------------------------
 ! R1    R(1,2)                  1.09           calculate D2E/DX2 analytically  !
 ! R2    R(1,3)                  1.09           calculate D2E/DX2 analytically  !
 ! R3    R(1,4)                  1.09           calculate D2E/DX2 analytically  !
 ! A1    A(2,1,3)              120.0            calculate D2E/DX2 analytically  !
 ! A2    A(2,1,4)              120.0            calculate D2E/DX2 analytically  !
 ! A3    A(3,1,4)              120.0            calculate D2E/DX2 analytically  !
 ! D1    D(2,1,4,3)            180.0            calculate D2E/DX2 analytically  !
 --------------------------------------------------------------------------------
 Trust Radius=3.00D-01 FncErr=1.00D-07 GrdErr=1.00D-07
 Number of steps in this run=   2 maximum allowed number of steps=   2.
 GradGradGradGradGradGradGradGradGradGradGradGradGradGradGradGradGradGrad

 Leave Link  103 at Sat Aug 17 23:38:43 2024, MaxMem=   13107200 cpu:       0.0
 (Enter /programs/64bit/g09/g09-gfortran/bin/l202.exe)
                          Input orientation:                          
 ---------------------------------------------------------------------
 Center     Atomic      Atomic             Coordinates (Angstroms)
 Number     Number       Type             X           Y           Z
 ---------------------------------------------------------------------
      1          6           0        0.000000    0.000000    0.000000
      2          1           0        0.000000    0.000000    1.090000
      3          1           0        0.943968    0.000000   -0.545000
      4          1           0       -0.943968    0.000000   -0.545000
 ---------------------------------------------------------------------
                    Distance matrix (angstroms):
                    1          2          3          4
     1  C    0.000000
     2  H    1.090000   0.000000
     3  H    1.090000   1.887935   0.000000
     4  H    1.090000   1.887935   1.887935   0.000000
 Stoichiometry    CH3(2)
 Framework group  D3H[O(C),3C2(H)]
 Deg. of freedom     1
 Full point group                 D3H     NOp  12
 Largest Abelian subgroup         C2V     NOp   4
 Largest concise Abelian subgroup C2      NOp   2
                         Standard orientation:                         
 ---------------------------------------------------------------------
 Center     Atomic      Atomic             Coordinates (Angstroms)
 Number     Number       Type             X           Y           Z
 ---------------------------------------------------------------------
      1          6           0        0.000000    0.000000    0.000000
      2          1           0        0.000000    1.090000   -0.000000
      3          1           0        0.943968   -0.545000   -0.000000
      4          1           0       -0.943968   -0.545000   -0.000000
 ---------------------------------------------------------------------
 Rotational constants (GHZ):    281.3764836    281.3764836    140.6882418
 Leave Link  202 at Sat Aug 17 23:38:43 2024, MaxMem=   13107200 cpu:       0.0
 (Enter /programs/64bit/g09/g09-gfortran/bin/l301.exe)
 Standard basis: STO-3G (5D, 7F)
 Ernie: Thresh=  0.10000D-02 Tol=  0.10000D-05 Strict=F.
 AO basis set in the form of general basis input (Overlap normalization):
      1 0
 S   3 1.00       0.000000000000
      0.7161683735D+02  0.1543289673D+00
      0.1304509632D+02  0.5353281423D+00
      0.3530512160D+01  0.4446345422D+00
 SP   3 1.00       0.000000000000
      0.2941249355D+01 -0.9996722919D-01  0.1559162750D+00
      0.6834830964D+00  0.3995128261D+00  0.6076837186D+00
      0.2222899159D+00  0.7001154689D+00  0.3919573931D+00
 ****
      2 0
 S   3 1.00       0.000000000000
      0.3425250914D+01  0.1543289673D+00
      0.6239137298D+00  0.5353281423D+00
      0.1688554040D+00  0.4446345422D+00
 ****
      3 0
 S   3 1.00       0.000000000000
      0.3425250914D+01  0.1543289673D+00
      0.6239137298D+00  0.5353281423D+00
      0.1688554040D+00  0.4446345422D+00
 ****
      4 0
 S   3 1.00       0.000000000000
      0.3425250914D+01  0.1543289673D+00
      0.6239137298D+00  0.5353281423D+00
      0.1688554040D+00  0.4446345422D+00
 ****

 There are     5 symmetry adapted basis functions of A1  symmetry.
 There are     0 symmetry adapted basis functions of A2  symmetry.
 There are     2 symmetry adapted basis functions of B1  symmetry.
 There are     1 symmetry adapted basis functions of B2  symmetry.
 Integral buffers will be    131072 words long.
 Raffenetti 2 integral format.
 Two-electron integral symmetry is turned on.
     8 basis functions,    24 primitive gaussians,     8 cartesian basis functions
     5 alpha electrons        4 beta electrons
       nuclear repulsion energy         9.5795885928 Hartrees.
 IExCor=  408 DFT=T Ex+Corr=B3PW91 ExCW=0 ScaHFX=  0.200000
 ScaDFX=  0.800000  0.720000  1.000000  0.810000 ScalE2=  1.000000  1.000000
 IRadAn=      0 IRanWt=     -1 IRanGd=            0 ICorTp=0
 NAtoms=    4 NActive=    4 NUniq=    2 SFac= 3.00D+00 NAtFMM=   80 NAOKFM=F Big=F
 Leave Link  301 at Sat Aug 17 23:38:44 2024, MaxMem=   13107200 cpu:       0.1
 (Enter /programs/64bit/g09/g09-gfortran/bin/l302.exe)
 NPDir=0 NMtPBC=     1 NCelOv=     1 NCel=       1 NClECP=     1 NCelD=      1
         NCelK=      1 NCelE2=     1 NClLst=     1 CellRange=     0.0.
 One-electron integrals computed using PRISM.
 One-electron integral symmetry used in STVInt
 NBasis=     8 RedAO= T  NBF=     5     0     2     1
 NBsUse=     8 1.00D-06 NBFU=     5     0     2     1
 Precomputing XC quadrature grid using
 IXCGrd= 2 IRadAn=           0 IRanWt=          -1 IRanGd=           0 AccXCQ= 1.00D-10.
 NRdTot=     242 NPtTot=       30652 NUsed=       32411 NTot=       32443
 NSgBfM=     8     8     8     8     8 NAtAll=     4     4.
 Leave Link  302 at Sat Aug 17 23:38:44 2024, MaxMem=   13107200 cpu:       0.1
 (Enter /programs/64bit/g09/g09-gfortran/bin/l303.exe)
 DipDrv:  MaxL=1.
 Leave Link  303 at Sat Aug 17 23:38:44 2024, MaxMem=   13107200 cpu:       0.0
 (Enter /programs/64bit/g09/g09-gfortran/bin/l401.exe)
 Initial guess read from the checkpoint file:  /home/ospite/Desktop/MMfP/Project6
 /CH3/g09/DFT/B3PW91/Gau-17903.chk
 B after Tr=    -0.000000   -0.000000    0.000000
         Rot=    0.500000    0.500000    0.500000    0.500000 Ang= 120.00 deg.
 Guess basis will be translated and rotated to current coordinates.
 Initial guess orbital symmetries:
 Alpha Orbitals:
       Occupied  (A1') (A1') (E') (E') (A2")
       Virtual   (A1') (E') (E')
 Beta  Orbitals:
       Occupied  (A1') (A1') (E') (E')
       Virtual   (A2") (A1') (E') (E')
 The electronic state of the initial guess is 2-A2".
 Initial guess <Sx>= 0.0000 <Sy>= 0.0000 <Sz>= 0.5000 <S**2>= 0.7549 S= 0.5025
 Leave Link  401 at Sat Aug 17 23:38:44 2024, MaxMem=   13107200 cpu:       0.1
 (Enter /programs/64bit/g09/g09-gfortran/bin/l502.exe)
 UHF open shell SCF:
 Requested convergence on RMS density matrix=1.00D-08 within 128 cycles.
 Requested convergence on MAX density matrix=1.00D-06.
 Requested convergence on             energy=1.00D-06.
 No special actions if energy rises.
 Using DIIS extrapolation, IDIIS=  1040.
 Integral symmetry usage will be decided dynamically.
        32362 words used for storage of precomputed grid.
 Keep R1 and R2 ints in memory in canonical form, NReq=902980.
 IEnd=       52167 IEndB=       52167 NGot=    13107200 MDV=    13070776
 LenX=    13070776 LenY=    13069894
 Symmetry not used in FoFDir.
 MinBra= 0 MaxBra= 1 Meth= 1.
 IRaf=       0 NMat=   1 IRICut=       1 DoRegI=T DoRafI=F ISym2E= 0 JSym2E=0.

 Cycle   1  Pass 1  IDiag  1:
 E= -39.3341666151933    
 DIIS: error= 1.47D-08 at cycle   1 NSaved=   1.
 NSaved= 1 IEnMin= 1 EnMin= -39.3341666151933     IErMin= 1 ErrMin= 1.47D-08
 ErrMax= 1.47D-08 EMaxC= 1.00D-01 BMatC= 1.02D-14 BMatP= 1.02D-14
 IDIUse=1 WtCom= 1.00D+00 WtEn= 0.00D+00
 Coeff-Com:  0.100D+01
 Coeff:      0.100D+01
 Gap=     0.560 Goal=   None    Shift=    0.000
 Gap=     0.440 Goal=   None    Shift=    0.000
 RMSDP=7.96D-08 MaxDP=4.07D-07              OVMax= 0.00D+00

 Cycle   2  Pass 1  IDiag  1:
 E= -39.3341666151935     Delta-E=       -0.000000000000 Rises=F Damp=F
 DIIS: error= 8.81D-09 at cycle   2 NSaved=   2.
 NSaved= 2 IEnMin= 2 EnMin= -39.3341666151935     IErMin= 2 ErrMin= 8.81D-09
 ErrMax= 8.81D-09 EMaxC= 1.00D-01 BMatC= 3.56D-15 BMatP= 1.02D-14
 IDIUse=1 WtCom= 1.00D+00 WtEn= 0.00D+00
 Coeff-Com:  0.369D+00 0.631D+00
 Coeff:      0.369D+00 0.631D+00
 Gap=     0.560 Goal=   None    Shift=    0.000
 Gap=     0.440 Goal=   None    Shift=    0.000
 RMSDP=5.19D-09 MaxDP=1.99D-08 DE=-1.42D-13 OVMax= 0.00D+00

 SCF Done:  E(UB3PW91) =  -39.3341666152     A.U. after    2 cycles
             Convg  =    0.5193D-08             -V/T =  2.0095
 <Sx>= 0.0000 <Sy>= 0.0000 <Sz>= 0.5000 <S**2>= 0.7549 S= 0.5025
 <L.S>=  0.00000000000    
 KE= 3.896230703285D+01 PE=-1.102127019829D+02 EE= 2.233663974211D+01
 Annihilation of the first spin contaminant:
 S**2 before annihilation     0.7549,   after     0.7500
 Leave Link  502 at Sat Aug 17 23:38:44 2024, MaxMem=   13107200 cpu:       0.1
 (Enter /programs/64bit/g09/g09-gfortran/bin/l801.exe)
 Range of M.O.s used for correlation:     1     8
 NBasis=     8 NAE=     5 NBE=     4 NFC=     0 NFV=     0
 NROrb=      8 NOA=     5 NOB=     4 NVA=     3 NVB=     4
 Leave Link  801 at Sat Aug 17 23:38:44 2024, MaxMem=   13107200 cpu:       0.0
 (Enter /programs/64bit/g09/g09-gfortran/bin/l1101.exe)
 Using compressed storage, NAtomX=     4.
 Will process   5 centers per pass.
 Leave Link 1101 at Sat Aug 17 23:38:44 2024, MaxMem=   13107200 cpu:       0.1
 (Enter /programs/64bit/g09/g09-gfortran/bin/l1102.exe)
 Symmetrizing basis deriv contribution to polar:
 IMax=3 JMax=2 DiffMx= 0.00D+00
 Leave Link 1102 at Sat Aug 17 23:38:44 2024, MaxMem=   13107200 cpu:       0.0
 (Enter /programs/64bit/g09/g09-gfortran/bin/l1110.exe)
 Forming Gx(P) for the SCF density, NAtomX=     4.
 Integral derivatives from FoFDir/FoFCou, PRISM(SPDF).
 Do as many integral derivatives as possible in FoFDir.
 G2DrvN: MDV=      13107064.
 G2DrvN: will do     5 centers at a time, making    1 passes doing MaxLOS=1.
 Calling FoFCou, ICntrl=  3107 FMM=F I1Cent=   0 AccDes= 0.00D+00.
 FoFCou: FMM=F IPFlag=           0 FMFlag=      100000 FMFlg1=           0
         NFxFlg=           0 DoJE=F BraDBF=F KetDBF=F FulRan=T
         Omega=  0.000000  0.000000  1.000000  0.000000  0.000000 ICntrl=    3107 IOpCl=  1
         NMat0=    1 NMatS0=    1 NMatT0=    0 NMatD0=    1 NMtDS0=    0 NMtDT0=    0
         I1Cent=           0 NGrid=           0.
 Petite list used in FoFCou.
 FoFDir/FoFCou used for L=0 through L=1.
 End of G2Drv Frequency-dependent properties file   721 does not exist.
 End of G2Drv Frequency-dependent properties file   722 does not exist.
 Leave Link 1110 at Sat Aug 17 23:38:45 2024, MaxMem=   13107200 cpu:       0.3
 (Enter /programs/64bit/g09/g09-gfortran/bin/l1002.exe)
 Minotr:  UHF open shell wavefunction.
          IDoAtm=1111
          Direct CPHF calculation.
          Differentiating once with respect to electric field.
                with respect to dipole field.
          Differentiating once with respect to nuclear coordinates.
          Using symmetry in CPHF.
          Requested convergence is 1.0D-08 RMS, and 1.0D-07 maximum.
          Secondary convergence is 1.0D-12 RMS, and 1.0D-12 maximum.
          NewPWx=T KeepS1=F KeepF1=F KeepIn=T MapXYZ=F SortEE=F KeepMc=T.
          MDV=      13107156 using IRadAn=       2.
 Generate precomputed XC quadrature information.
          Keep R1 and R2 ints in memory in canonical form, NReq=802708.
 Symmetry not used in FoFDir.
 MinBra= 0 MaxBra= 1 Meth= 1.
 IRaf=       0 NMat=   1 IRICut=       1 DoRegI=T DoRafI=F ISym2E= 0 JSym2E=0.
          Solving linear equations simultaneously, MaxMat=       0.
          There are     9 degrees of freedom in the 1st order CPHF.  IDoFFX=4.
      9 vectors produced by pass  0 Test12= 3.44D-16 1.11D-08 XBig12= 4.08D+00 1.13D+00.
 AX will form     9 AO Fock derivatives at one time.
      8 vectors produced by pass  1 Test12= 3.44D-16 1.11D-08 XBig12= 3.25D-03 2.58D-02.
      6 vectors produced by pass  2 Test12= 3.44D-16 1.11D-08 XBig12= 8.21D-07 4.69D-04.
      4 vectors produced by pass  3 Test12= 3.44D-16 1.11D-08 XBig12= 9.77D-09 6.10D-05.
      1 vectors produced by pass  4 Test12= 3.44D-16 1.11D-08 XBig12= 8.53D-12 1.84D-06.
 Inverted reduced A of dimension    28 with in-core refinement.
 FullF1:  Do perturbations    1 to     9.
 Isotropic polarizability for W=    0.000000        4.47 Bohr**3.
 End of Minotr Frequency-dependent properties file   721 does not exist.
 End of Minotr Frequency-dependent properties file   722 does not exist.
 Leave Link 1002 at Sat Aug 17 23:38:45 2024, MaxMem=   13107200 cpu:       0.8
 (Enter /programs/64bit/g09/g09-gfortran/bin/l601.exe)
 Copying SCF densities to generalized density rwf, IOpCl= 1 IROHF=0.

 **********************************************************************

            Population analysis using the SCF density.

 **********************************************************************

 Orbital symmetries:
 Alpha Orbitals:
       Occupied  (A1') (A1') (E') (E') (A2")
       Virtual   (A1') (E') (E')
 Beta  Orbitals:
       Occupied  (A1') (A1') (E') (E')
       Virtual   (A2") (A1') (E') (E')
 The electronic state is 2-A2".
 Alpha  occ. eigenvalues --   -9.95541  -0.64560  -0.37889  -0.37889  -0.16643
 Alpha virt. eigenvalues --    0.39324   0.49973   0.49973
  Beta  occ. eigenvalues --   -9.93752  -0.59512  -0.36679  -0.36679
  Beta virt. eigenvalues --    0.07361   0.43274   0.51787   0.51787
     Alpha Molecular Orbital Coefficients:
                           1         2         3         4         5
                       (A1')--O  (A1')--O   (E')--O   (E')--O  (A2")--O
     Eigenvalues --    -9.95541  -0.64560  -0.37889  -0.37889  -0.16643
   1 1   C  1S          0.99069  -0.23352   0.00000   0.00000   0.00000
   2        2S          0.04259   0.69489   0.00000  -0.00000   0.00000
   3        2PX         0.00000   0.00000   0.57255   0.00000   0.00000
   4        2PY         0.00000   0.00000   0.00000   0.57255   0.00000
   5        2PZ         0.00000   0.00000   0.00000   0.00000   1.00000
   6 2   H  1S         -0.00921   0.19918   0.00000   0.47543   0.00000
   7 3   H  1S         -0.00921   0.19918   0.41174  -0.23772   0.00000
   8 4   H  1S         -0.00921   0.19918  -0.41174  -0.23772   0.00000
                           6         7         8
                       (A1')--V   (E')--V   (E')--V
     Eigenvalues --     0.39324   0.49973   0.49973
   1 1   C  1S         -0.22732  -0.00000   0.00000
   2        2S          1.40561   0.00000   0.00000
   3        2PX         0.00000   0.00000   1.13606
   4        2PY        -0.00000   1.13606   0.00000
   5        2PZ         0.00000   0.00000   0.00000
   6 2   H  1S         -0.75114  -1.01627   0.00000
   7 3   H  1S         -0.75114   0.50813  -0.88011
   8 4   H  1S         -0.75114   0.50813   0.88011
     Beta Molecular Orbital Coefficients:
                           1         2         3         4         5
                       (A1')--O  (A1')--O   (E')--O   (E')--O  (A2")--V
     Eigenvalues --    -9.93752  -0.59512  -0.36679  -0.36679   0.07361
   1 1   C  1S          0.99125  -0.21945   0.00000   0.00000   0.00000
   2        2S          0.04005   0.61651   0.00000  -0.00000   0.00000
   3        2PX         0.00000   0.00000   0.53726   0.00000   0.00000
   4        2PY         0.00000   0.00000   0.00000   0.53726   0.00000
   5        2PZ         0.00000   0.00000   0.00000   0.00000   1.00000
   6 2   H  1S         -0.00859   0.24022   0.00000   0.50653   0.00000
   7 3   H  1S         -0.00859   0.24022   0.43867  -0.25327   0.00000
   8 4   H  1S         -0.00859   0.24022  -0.43867  -0.25327   0.00000
                           6         7         8
                       (A1')--V   (E')--V   (E')--V
     Eigenvalues --     0.43274   0.51787   0.51787
   1 1   C  1S         -0.23861  -0.00000   0.00000
   2        2S          1.44178   0.00000   0.00000
   3        2PX         0.00000   0.00000   1.15317
   4        2PY        -0.00000   1.15317   0.00000
   5        2PZ         0.00000   0.00000   0.00000
   6 2   H  1S         -0.73905  -1.00113   0.00000
   7 3   H  1S         -0.73905   0.50057  -0.86701
   8 4   H  1S         -0.73905   0.50057   0.86701
     Alpha Density Matrix:
                           1         2         3         4         5
   1 1   C  1S          1.03600
   2        2S         -0.12008   0.48468
   3        2PX        -0.00000   0.00000   0.32781
   4        2PY         0.00000  -0.00000   0.00000   0.32781
   5        2PZ         0.00000  -0.00000  -0.00000   0.00000   1.00000
   6 2   H  1S         -0.05564   0.13802   0.00000   0.27221   0.00000
   7 3   H  1S         -0.05564   0.13802   0.23574  -0.13610  -0.00000
   8 4   H  1S         -0.05564   0.13802  -0.23574  -0.13610   0.00000
                           6         7         8
   6 2   H  1S          0.26579
   7 3   H  1S         -0.07326   0.26579
   8 4   H  1S         -0.07326  -0.07326   0.26579
     Beta Density Matrix:
                           1         2         3         4         5
   1 1   C  1S          1.03074
   2        2S         -0.09559   0.38169
   3        2PX        -0.00000   0.00000   0.28865
   4        2PY         0.00000  -0.00000   0.00000   0.28865
   5        2PZ         0.00000  -0.00000  -0.00000   0.00000   0.00000
   6 2   H  1S         -0.06123   0.14775   0.00000   0.27214   0.00000
   7 3   H  1S         -0.06123   0.14775   0.23568  -0.13607  -0.00000
   8 4   H  1S         -0.06123   0.14775  -0.23568  -0.13607   0.00000
                           6         7         8
   6 2   H  1S          0.31435
   7 3   H  1S         -0.07051   0.31435
   8 4   H  1S         -0.07051  -0.07051   0.31435
    Full Mulliken population analysis:
                           1         2         3         4         5
   1 1   C  1S          2.06675
   2        2S         -0.05356   0.86637
   3        2PX         0.00000   0.00000   0.61646
   4        2PY         0.00000   0.00000   0.00000   0.61646
   5        2PZ         0.00000   0.00000   0.00000   0.00000   1.00000
   6 2   H  1S         -0.00728   0.14024   0.00000   0.25436   0.00000
   7 3   H  1S         -0.00728   0.14024   0.19077   0.06359   0.00000
   8 4   H  1S         -0.00728   0.14024   0.19077   0.06359   0.00000
                           6         7         8
   6 2   H  1S          0.58014
   7 3   H  1S         -0.02054   0.58014
   8 4   H  1S         -0.02054  -0.02054   0.58014
     Gross orbital populations:
                         Total     Alpha     Beta      Spin
   1 1   C  1S          1.99134   0.99578   0.99556   0.00022
   2        2S          1.23353   0.65805   0.57548   0.08258
   3        2PX         0.99799   0.51860   0.47939   0.03921
   4        2PY         0.99799   0.51860   0.47939   0.03921
   5        2PZ         1.00000   1.00000   0.00000   1.00000
   6 2   H  1S          0.92638   0.43632   0.49006  -0.05374
   7 3   H  1S          0.92638   0.43632   0.49006  -0.05374
   8 4   H  1S          0.92638   0.43632   0.49006  -0.05374
          Condensed to atoms (all electrons):
              1          2          3          4
     1  C    5.058895   0.387322   0.387322   0.387322
     2  H    0.387322   0.580144  -0.020543  -0.020543
     3  H    0.387322  -0.020543   0.580144  -0.020543
     4  H    0.387322  -0.020543  -0.020543   0.580144
 Mulliken atomic charges:
              1
     1  C   -0.220860
     2  H    0.073620
     3  H    0.073620
     4  H    0.073620
 Sum of Mulliken atomic charges =  -0.00000
 Mulliken charges with hydrogens summed into heavy atoms:
              1
     1  C   -0.000000
 Sum of Mulliken charges with hydrogens summed into heavy atoms =  -0.00000
          Atomic-Atomic Spin Densities.
              1          2          3          4
     1  C    1.174412  -0.004397  -0.004397  -0.004397
     2  H   -0.004397  -0.048558  -0.000393  -0.000393
     3  H   -0.004397  -0.000393  -0.048558  -0.000393
     4  H   -0.004397  -0.000393  -0.000393  -0.048558
 Mulliken atomic spin densities:
              1
     1  C    1.161221
     2  H   -0.053740
     3  H   -0.053740
     4  H   -0.053740
 Sum of Mulliken atomic spin densities =   1.00000
 APT atomic charges:
              1
     1  C   -0.111336
     2  H    0.037120
     3  H    0.037114
     4  H    0.037114
 Sum of APT charges=   0.00001
 APT Atomic charges with hydrogens summed into heavy atoms:
              1
     1  C    0.000011
     2  H    0.000000
     3  H    0.000000
     4  H    0.000000
 Sum of APT charges=   0.00001
 Electronic spatial extent (au):  <R**2>=             28.2414
 Charge=             -0.0000 electrons
 Dipole moment (field-independent basis, Debye):
    X=             -0.0000    Y=             -0.0000    Z=             -0.0000  Tot=              0.0000
 Quadrupole moment (field-independent basis, Debye-Ang):
   XX=             -6.6593   YY=             -6.6593   ZZ=             -7.5470
   XY=             -0.0000   XZ=              0.0000   YZ=             -0.0000
 Traceless Quadrupole moment (field-independent basis, Debye-Ang):
   XX=              0.2959   YY=              0.2959   ZZ=             -0.5917
   XY=             -0.0000   XZ=              0.0000   YZ=             -0.0000
 Octapole moment (field-independent basis, Debye-Ang**2):
  XXX=             -0.0000  YYY=              0.7196  ZZZ=             -0.0000  XYY=              0.0000
  XXY=             -0.7196  XXZ=              0.0000  XZZ=              0.0000  YZZ=              0.0000
  YYZ=             -0.0000  XYZ=              0.0000
 Hexadecapole moment (field-independent basis, Debye-Ang**3):
 XXXX=            -12.7292 YYYY=            -12.7292 ZZZZ=             -5.9698 XXXY=              0.0000
 XXXZ=              0.0000 YYYX=              0.0000 YYYZ=             -0.0000 ZZZX=              0.0000
 ZZZY=             -0.0000 XXYY=             -4.2431 XXZZ=             -3.4148 YYZZ=             -3.4148
 XXYZ=             -0.0000 YYXZ=              0.0000 ZZXY=              0.0000
 N-N= 9.579588592757D+00 E-N=-1.619247908555D+02  KE= 5.763705442020D+01
 Symmetry A1   KE= 5.333017066966D+01
 Symmetry A2   KE= 0.000000000000D+00
 Symmetry B1   KE= 2.829155659874D+00
 Symmetry B2   KE= 1.477728090672D+00
 Orbital energies and kinetic energies (alpha):
                                 1                 2
   1         (A1')--O         -9.955406         15.590755
   2         (A1')--O         -0.645597          1.302663
   3         (E')--O          -0.378889          0.958207
   4         (E')--O          -0.378889          0.958207
   5         (A2")--O         -0.166426          1.477728
   6         (A1')--V          0.393242          2.379638
   7         (E')--V           0.499731          2.192933
   8         (E')--V           0.499731          2.192933
 Orbital energies and kinetic energies (beta):
                                 1                 2
   1         (A1')--O         -9.937523         15.608819
   2         (A1')--O         -0.595122          1.194979
   3         (E')--O          -0.366793          0.935474
   4         (E')--O          -0.366793          0.935474
   5         (A2")--V          0.073607          1.477728
   6         (A1')--V          0.432739          2.469258
   7         (E')--V           0.517874          2.215665
   8         (E')--V           0.517874          2.215665
 Total kinetic energy from orbitals= 3.896230703285D+01
  Exact polarizability:   5.693   0.000   5.694  -0.000  -0.000   2.028
 Approx polarizability:   6.869  -0.000   6.869  -0.000  -0.000   2.190
                          Isotropic Fermi Contact Couplings
        Atom                 a.u.       MegaHertz       Gauss      10(-4) cm-1
     1  C(13)              0.14931     167.85859      59.89612      55.99160
     2  H(1)              -0.01894     -84.67618     -30.21457     -28.24493
     3  H(1)              -0.01894     -84.67618     -30.21457     -28.24493
     4  H(1)              -0.01894     -84.67618     -30.21457     -28.24493
 --------------------------------------------------------
       Center         ----  Spin Dipole Couplings  ----
                      3XX-RR        3YY-RR        3ZZ-RR
 --------------------------------------------------------
     1   Atom       -0.614470     -0.614470      1.228940
     2   Atom       -0.087598      0.115701     -0.028103
     3   Atom        0.064876     -0.036773     -0.028103
     4   Atom        0.064876     -0.036773     -0.028103
 --------------------------------------------------------
                        XY            XZ            YZ
 --------------------------------------------------------
     1   Atom        0.000000      0.000000      0.000000
     2   Atom       -0.000000      0.000000      0.000000
     3   Atom       -0.088031      0.000000     -0.000000
     4   Atom        0.088031      0.000000      0.000000
 --------------------------------------------------------


 ---------------------------------------------------------------------------------
              Anisotropic Spin Dipole Couplings in Principal Axis System
 ---------------------------------------------------------------------------------

       Atom             a.u.   MegaHertz   Gauss  10(-4) cm-1        Axes

              Baa    -0.6145   -82.456   -29.422   -27.504  0.9125  0.4091 -0.0000
     1 C(13)  Bbb    -0.6145   -82.456   -29.422   -27.504 -0.4091  0.9125  0.0000
              Bcc     1.2289   164.912    58.845    55.009  0.0000  0.0000  1.0000
 
              Baa    -0.0876   -46.738   -16.677   -15.590  1.0000  0.0000  0.0000
     2 H(1)   Bbb    -0.0281   -14.994    -5.350    -5.002  0.0000  0.0000  1.0000
              Bcc     0.1157    61.732    22.028    20.592 -0.0000  1.0000 -0.0000
 
              Baa    -0.0876   -46.738   -16.677   -15.590  0.5000  0.8660  0.0000
     3 H(1)   Bbb    -0.0281   -14.994    -5.350    -5.002  0.0000  0.0000  1.0000
              Bcc     0.1157    61.732    22.028    20.592  0.8660 -0.5000  0.0000
 
              Baa    -0.0876   -46.738   -16.677   -15.590 -0.5000  0.8660  0.0000
     4 H(1)   Bbb    -0.0281   -14.994    -5.350    -5.002  0.0000  0.0000  1.0000
              Bcc     0.1157    61.732    22.028    20.592  0.8660  0.5000 -0.0000
 

 ---------------------------------------------------------------------------------

 No NMR shielding tensors so no spin-rotation constants.
 Leave Link  601 at Sat Aug 17 23:38:46 2024, MaxMem=   13107200 cpu:       0.1
 (Enter /programs/64bit/g09/g09-gfortran/bin/l701.exe)
 Compute integral second derivatives.
 ... and contract with generalized density number  0.
 Leave Link  701 at Sat Aug 17 23:38:46 2024, MaxMem=   13107200 cpu:       0.1
 (Enter /programs/64bit/g09/g09-gfortran/bin/l702.exe)
 L702 exits ... SP integral derivatives will be done elsewhere.
 Leave Link  702 at Sat Aug 17 23:38:46 2024, MaxMem=   13107200 cpu:       0.0
 (Enter /programs/64bit/g09/g09-gfortran/bin/l703.exe)
 Compute integral second derivatives, UseDBF=F ICtDFT=           0.
 Integral derivatives from FoFDir, PRISM(SPDF).
 Calling FoFJK, ICntrl=    100127 FMM=F ISym2X=1 I1Cent= 0 IOpClX= 1 NMat=1 NMatS=1 NMatT=0.
 FoFCou: FMM=F IPFlag=           0 FMFlag=      100000 FMFlg1=         800
         NFxFlg=           0 DoJE=F BraDBF=F KetDBF=F FulRan=T
         Omega=  0.000000  0.000000  1.000000  0.000000  0.000000 ICntrl=  100127 IOpCl=  1
         NMat0=    1 NMatS0=    1 NMatT0=    0 NMatD0=    1 NMtDS0=    0 NMtDT0=    0
         I1Cent=           0 NGrid=           0.
 Petite list used in FoFCou.
 Leave Link  703 at Sat Aug 17 23:38:46 2024, MaxMem=   13107200 cpu:       0.6
 (Enter /programs/64bit/g09/g09-gfortran/bin/l716.exe)
 Dipole        =-2.22044605D-16-1.11022302D-16-3.60884171D-34
 Polarizability= 5.69347251D+00 4.01598754D-11 5.69398909D+00
                -9.31998314D-12-5.34219774D-12 2.02786846D+00
 Full mass-weighted force constant matrix:
 Low frequencies --- -221.9808  -71.9300  -71.9295  -67.2712   -0.0012    0.0077
 Low frequencies ---    0.2948 1543.5513 1543.5520
 ******    1 imaginary frequencies (negative Signs) ****** 
 Diagonal vibrational polarizability:
        0.0008432       0.0008453      20.8069372
 Harmonic frequencies (cm**-1), IR intensities (KM/Mole), Raman scattering
 activities (A**4/AMU), depolarization ratios for plane and unpolarized
 incident light, reduced masses (AMU), force constants (mDyne/A),
 and normal coordinates:
                     1                      2                      3
                    A2"                    E'                     E'
 Frequencies --  -221.9807              1543.5513              1543.5520
 Red. masses --     1.2356                 1.0993                 1.0993
 Frc consts  --     0.0359                 1.5431                 1.5431
 IR Inten    --    38.0983                 0.0722                 0.0720
  Atom  AN      X      Y      Z        X      Y      Z        X      Y      Z
     1   6    -0.00   0.00   0.14    -0.00   0.09  -0.00    -0.09  -0.00  -0.00
     2   1     0.00   0.00  -0.57     0.00   0.08   0.00     0.81  -0.00   0.00
     3   1     0.00  -0.00  -0.57    -0.39  -0.59   0.00     0.14   0.39   0.00
     4   1    -0.00  -0.00  -0.57     0.39  -0.59   0.00     0.14  -0.39   0.00
                     4                      5                      6
                    A1'                    E'                     E'
 Frequencies --  3354.5533              3631.2343              3631.2347
 Red. masses --     1.0078                 1.1213                 1.1213
 Frc consts  --     6.6820                 8.7109                 8.7109
 IR Inten    --     0.0000                 0.0145                 0.0144
  Atom  AN      X      Y      Z        X      Y      Z        X      Y      Z
     1   6     0.00   0.00  -0.00     0.10  -0.00   0.00     0.00   0.10  -0.00
     2   1     0.00   0.58   0.00     0.01   0.00  -0.00     0.00  -0.81   0.00
     3   1     0.50  -0.29   0.00    -0.61   0.35  -0.00     0.35  -0.20   0.00
     4   1    -0.50  -0.29   0.00    -0.61  -0.35  -0.00    -0.35  -0.20   0.00

 -------------------
 - Thermochemistry -
 -------------------
 Temperature   298.150 Kelvin.  Pressure   1.00000 Atm.
 Atom     1 has atomic number  6 and mass  12.00000
 Atom     2 has atomic number  1 and mass   1.00783
 Atom     3 has atomic number  1 and mass   1.00783
 Atom     4 has atomic number  1 and mass   1.00783
 Molecular mass:    15.02348 amu.
 Principal axes and moments of inertia in atomic units:
                           1         2         3
     Eigenvalues --     6.41397   6.41397  12.82795
           X           -0.52928   0.84845   0.00000
           Y            0.84845   0.52928   0.00000
           Z            0.00000  -0.00000   1.00000
 This molecule is an oblate symmetric top.
 Rotational symmetry number  6.
 Rotational temperatures (Kelvin)     13.50393    13.50393     6.75196
 Rotational constants (GHZ):         281.37648   281.37648   140.68824
    1 imaginary frequencies ignored.
 Zero-point vibrational energy      81968.9 (Joules/Mol)
                                   19.59103 (Kcal/Mol)
 Vibrational temperatures:   2220.82  2220.82  4826.45  5224.53  5224.53
          (Kelvin)
 
 Zero-point correction=                           0.031220 (Hartree/Particle)
 Thermal correction to Energy=                    0.034061
 Thermal correction to Enthalpy=                  0.035005
 Thermal correction to Gibbs Free Energy=         0.013180
 Sum of electronic and zero-point Energies=            -39.302946
 Sum of electronic and thermal Energies=               -39.300106
 Sum of electronic and thermal Enthalpies=             -39.299161
 Sum of electronic and thermal Free Energies=          -39.320987
 
                     E (Thermal)             CV                S
                      KCal/Mol        Cal/Mol-Kelvin    Cal/Mol-Kelvin
 Total                   21.374              6.090             45.936
 Electronic               0.000              0.000              1.377
 Translational            0.889              2.981             34.068
 Rotational               0.889              2.981             10.471
 Vibrational             19.596              0.129              0.020
                       Q            Log10(Q)             Ln(Q)
 Total Bot       0.866442D-06         -6.062261        -13.958871
 Total V=0       0.198631D+09          8.298048         19.106961
 Vib (Bot)       0.436715D-14        -14.359802        -33.064667
 Vib (V=0)       0.100117D+01          0.000506          0.001165
 Electronic      0.200000D+01          0.301030          0.693147
 Translational   0.228882D+07          6.359611         14.643545
 Rotational      0.433412D+02          1.636901          3.769104
 
                                          methyl with imposed symmetry and STO-3G
  basis set
                                                             IR Spectrum
 
      3        3                                                               1                                                     
      6        3                                                               5                                                     
      3        5                                                               4                                                     
      1        5                                                               4                                                     
 
      X                                                                        X                                                     
      X                                                                        X                                                     
      X                                                                        X                                                     
      X                                                                        X                                                     
                                                                               X                                                     
                                                                               X                                                     
                                                                               X                                                     
                                                                               X                                                     
                                                                               X                                                     
                                                                               X                                                     
                                                                               X                                                     
                                                                               X                                                     
                                                                               X                                                     
                                                                               X                                                     
                                                                               X                                                     
                                                                               X                                                     
                                                                               X                                                     
                                                                               X                                                     
                                                                               X                                                     
                                                                               X                                                     
 
 ***** Axes restored to original set *****
 -------------------------------------------------------------------
 Center     Atomic                   Forces (Hartrees/Bohr)
 Number     Number              X              Y              Z
 -------------------------------------------------------------------
      1        6          -0.000000000    0.000000000   -0.000000000
      2        1           0.000000000    0.000000000    0.000383242
      3        1           0.000331897   -0.000000000   -0.000191621
      4        1          -0.000331897    0.000000000   -0.000191621
 -------------------------------------------------------------------
 Cartesian Forces:  Max     0.000383242 RMS     0.000191621
 Force constants in Cartesian coordinates: 
                1             2             3             4             5 
      1  0.759572D+00
      2  0.000000D+00 -0.451422D-02
      3  0.000000D+00  0.000000D+00  0.759572D+00
      4 -0.699462D-01  0.000000D+00  0.000000D+00  0.544392D-01
      5  0.000000D+00  0.150021D-02  0.000000D+00  0.000000D+00 -0.631626D-03
      6  0.000000D+00  0.000000D+00 -0.436436D+00  0.000000D+00  0.000000D+00
      7 -0.344813D+00  0.000000D+00  0.158695D+00  0.775336D-02  0.000000D+00
      8  0.000000D+00  0.150361D-02  0.000000D+00  0.000000D+00 -0.434297D-03
      9  0.158695D+00  0.000000D+00 -0.161568D+00  0.270537D-01  0.000000D+00
     10 -0.344813D+00  0.000000D+00 -0.158695D+00  0.775336D-02  0.000000D+00
     11  0.000000D+00  0.150361D-02  0.000000D+00  0.000000D+00 -0.434297D-03
     12 -0.158695D+00  0.000000D+00 -0.161568D+00 -0.270537D-01  0.000000D+00
                6             7             8             9            10 
      6  0.441886D+00
      7 -0.890518D-02  0.345024D+00
      8  0.000000D+00  0.000000D+00 -0.631626D-03
      9 -0.272472D-02 -0.167769D+00  0.000000D+00  0.151301D+00
     10  0.890518D-02 -0.796376D-02  0.000000D+00 -0.179795D-01  0.345024D+00
     11  0.000000D+00  0.000000D+00 -0.434297D-03  0.000000D+00  0.000000D+00
     12 -0.272472D-02  0.179795D-01  0.000000D+00  0.129924D-01  0.167769D+00
               11            12 
     11 -0.631626D-03
     12  0.000000D+00  0.151301D+00
 Force constants in internal coordinates: 
                1             2             3             4             5 
      1  0.441886D+00
      2 -0.634964D-02  0.441886D+00
      3 -0.634964D-02 -0.634952D-02  0.441886D+00
      4  0.467735D-02  0.467738D-02 -0.935479D-02  0.772482D-01
      5  0.467735D-02 -0.935479D-02  0.467738D-02 -0.386242D-01  0.772482D-01
      6 -0.935470D-02  0.467742D-02  0.467742D-02 -0.386240D-01 -0.386240D-01
      7  0.000000D+00  0.000000D+00  0.000000D+00  0.000000D+00  0.000000D+00
                6             7 
      6  0.772480D-01
      7  0.000000D+00 -0.139752D-02
 Leave Link  716 at Sat Aug 17 23:38:47 2024, MaxMem=   13107200 cpu:       0.0
 (Enter /programs/64bit/g09/g09-gfortran/bin/l103.exe)

 GradGradGradGradGradGradGradGradGradGradGradGradGradGradGradGradGradGrad
 Berny optimization.
 Internal  Forces:  Max     0.000383242 RMS     0.000250891
 Search for a local minimum.
 Step number   1 out of a maximum of    2
 All quantities printed in internal units (Hartrees-Bohrs-Radians)
 Second derivative matrix not updated -- analytic derivatives used.
 The second derivative matrix:
                          R1        R2        R3        A1        A2
           R1           0.44189
           R2          -0.00635   0.44189
           R3          -0.00635  -0.00635   0.44189
           A1           0.00468   0.00468  -0.00935   0.07725
           A2           0.00468  -0.00935   0.00468  -0.03862   0.07725
           A3          -0.00935   0.00468   0.00468  -0.03862  -0.03862
           D1          -0.00000  -0.00000  -0.00000   0.00000   0.00000
                          A3        D1
           A3           0.07725
           D1          -0.00000  -0.00140
     Eigenvalues ---   -0.00140   0.11528   0.11528   0.42919   0.44883
     Eigenvalues ---    0.448831000.00000
 Eigenvalue     1 is  -1.40D-03 should be greater than     0.000000 Eigenvector:
                          D1        R1        R3        R2        A3
   1                    1.00000   0.00000   0.00000   0.00000   0.00000
                          A2        A1
   1                   -0.00000  -0.00000
 Angle between quadratic step and forces=   0.00 degrees.
 Linear search not attempted -- first point.
 Iteration  1 RMS(Cart)=  0.00058457 RMS(Int)=  0.00000000
 Iteration  2 RMS(Cart)=  0.00000000 RMS(Int)=  0.00000000
 ClnCor:  largest displacement from symmetrization is 7.48D-10 for atom     3.
 Variable       Old X    -DE/DX   Delta X   Delta X   Delta X     New X
                                 (Linear)    (Quad)   (Total)
    R1        2.05980   0.00038   0.00000   0.00089   0.00089   2.06069
    R2        2.05980   0.00038   0.00000   0.00089   0.00089   2.06069
    R3        2.05980   0.00038   0.00000   0.00089   0.00089   2.06069
    A1        2.09440  -0.00000   0.00000   0.00000   0.00000   2.09440
    A2        2.09440  -0.00000   0.00000   0.00000   0.00000   2.09440
    A3        2.09440   0.00000   0.00000  -0.00000   0.00000   2.09440
    D1        3.14159   0.00000   0.00000   0.00000   0.00000   3.14159
         Item               Value     Threshold  Converged?
 Maximum Force            0.000383     0.000450     YES
 RMS     Force            0.000251     0.000300     YES
 Maximum Displacement     0.000893     0.001800     YES
 RMS     Displacement     0.000585     0.001200     YES
 Predicted change in Energy=-5.133232D-07
 Optimization completed.
    -- Stationary point found.
                           ----------------------------
                           !   Optimized Parameters   !
                           ! (Angstroms and Degrees)  !
 --------------------------                            --------------------------
 ! Name  Definition              Value          Derivative Info.                !
 --------------------------------------------------------------------------------
 ! R1    R(1,2)                  1.09           -DE/DX =    0.0004              !
 ! R2    R(1,3)                  1.09           -DE/DX =    0.0004              !
 ! R3    R(1,4)                  1.09           -DE/DX =    0.0004              !
 ! A1    A(2,1,3)              120.0            -DE/DX =    0.0                 !
 ! A2    A(2,1,4)              120.0            -DE/DX =    0.0                 !
 ! A3    A(3,1,4)              120.0            -DE/DX =    0.0                 !
 ! D1    D(2,1,4,3)            180.0            -DE/DX =    0.0                 !
 --------------------------------------------------------------------------------
 GradGradGradGradGradGradGradGradGradGradGradGradGradGradGradGradGradGrad

 Leave Link  103 at Sat Aug 17 23:38:47 2024, MaxMem=   13107200 cpu:       0.0
 (Enter /programs/64bit/g09/g09-gfortran/bin/l9999.exe)
 1\1\GINC-MOLMOD\Freq\UB3PW91\STO-3G\C1H3(2)\OSPITE\17-Aug-2024\0\\#P G
 eom=AllCheck Guess=TCheck SCRF=Check GenChk UB3PW91/STO-3G Freq\\methy
 l with imposed symmetry and STO-3G basis set\\0,2\C,0.,0.,0.\H,0.,0.,1
 .09\H,0.9439676901,0.,-0.545\H,-0.9439676901,0.,-0.545\\Version=EM64L-
 G09RevA.02\State=2-A2"\HF=-39.3341666\S2=0.754932\S2-1=0.\S2A=0.750015
 \RMSD=5.193e-09\RMSF=1.916e-04\ZeroPoint=0.0312203\Thermal=0.034061\Di
 pole=0.,0.,0.\DipoleDeriv=-0.0134144,0.,0.,0.,-0.3071651,0.,0.,0.,-0.0
 134279,0.006661,0.,0.,0.,0.1024262,0.,0.,0.,0.0022715,0.0033728,0.,0.0
 01901,0.,0.1023977,0.,0.0018964,0.,0.0055709,0.0033728,0.,-0.001901,0.
 ,0.1023977,0.,-0.0018964,0.,0.0055709\Polar=5.6934725,0.,2.0278685,0.,
 0.,5.6939891\PG=D03H [O(C1),3C2(H1)]\NImag=1\\0.75957190,0.,-0.0045142
 2,0.,0.,0.75957227,-0.06994616,0.,0.,0.05443921,0.,0.00150021,0.,0.,-0
 .00063163,0.,0.,-0.43643625,0.,0.,0.44188592,-0.34481330,0.,0.15869480
 ,0.00775336,0.,-0.00890518,0.34502424,0.,0.00150361,0.,0.,-0.00043430,
 0.,0.,-0.00063163,0.15869454,0.,-0.16156835,0.02705374,0.,-0.00272472,
 -0.16776935,0.,0.15130089,-0.34481330,0.,-0.15869480,0.00775336,0.,0.0
 0890518,-0.00796376,0.,-0.01797946,0.34502424,0.,0.00150361,0.,0.,-0.0
 0043430,0.,0.,-0.00043430,0.,0.,-0.00063163,-0.15869454,0.,-0.16156835
 ,-0.02705374,0.,-0.00272472,0.01797946,0.,0.01299239,0.16776935,0.,0.1
 5130089\\0.,0.,0.,0.,0.,-0.00038324,-0.00033190,0.,0.00019162,0.000331
 90,0.,0.00019162\\\@


 SCIENCE AT ITS BEST PROVIDES US WITH BETTER QUESTIONS, 
 NOT ABSOLUTE ANSWERS

                                    -- NORMAN COUSINS, 1976
 Job cpu time:  0 days  0 hours  0 minutes  3.1 seconds.
 File lengths (MBytes):  RWF=      5 Int=      0 D2E=      0 Chk=      1 Scr=      1
 Normal termination of Gaussian 09 at Sat Aug 17 23:38:47 2024.
