 Entering Gaussian System, Link 0=/programs/64bit/g09/g09-gfortran/bin/g09
 Input=ch3_++.com
 Output=ch3_++.log
 Initial command:
 /programs/64bit/g09/g09-gfortran/bin/l1.exe /home/ospite/Desktop/MMfP/Project6/CH3/g09/DFT/B3PW91/Gau-17851.inp -scrdir=/home/ospite/Desktop/MMfP/Project6/CH3/g09/DFT/B3PW91/
 Entering Link 1 = /programs/64bit/g09/g09-gfortran/bin/l1.exe PID=     17852.
  
 Copyright (c) 1988,1990,1992,1993,1995,1998,2003,2009, Gaussian, Inc.
                  All Rights Reserved.
  
 This is part of the Gaussian(R) 09 program.  It is based on
 the Gaussian(R) 03 system (copyright 2003, Gaussian, Inc.),
 the Gaussian(R) 98 system (copyright 1998, Gaussian, Inc.),
 the Gaussian(R) 94 system (copyright 1995, Gaussian, Inc.),
 the Gaussian 92(TM) system (copyright 1992, Gaussian, Inc.),
 the Gaussian 90(TM) system (copyright 1990, Gaussian, Inc.),
 the Gaussian 88(TM) system (copyright 1988, Gaussian, Inc.),
 the Gaussian 86(TM) system (copyright 1986, Carnegie Mellon
 University), and the Gaussian 82(TM) system (copyright 1983,
 Carnegie Mellon University). Gaussian is a federally registered
 trademark of Gaussian, Inc.
  
 This software contains proprietary and confidential information,
 including trade secrets, belonging to Gaussian, Inc.
  
 This software is provided under written license and may be
 used, copied, transmitted, or stored only in accord with that
 written license.
  
 The following legend is applicable only to US Government
 contracts under FAR:
  
                    RESTRICTED RIGHTS LEGEND
  
 Use, reproduction and disclosure by the US Government is
 subject to restrictions as set forth in subparagraphs (a)
 and (c) of the Commercial Computer Software - Restricted
 Rights clause in FAR 52.227-19.
  
 Gaussian, Inc.
 340 Quinnipiac St., Bldg. 40, Wallingford CT 06492
  
  
 ---------------------------------------------------------------
 Warning -- This program may not be used in any manner that
 competes with the business of Gaussian, Inc. or will provide
 assistance to any competitor of Gaussian, Inc.  The licensee
 of this program is prohibited from giving any competitor of
 Gaussian, Inc. access to this program.  By using this program,
 the user acknowledges that Gaussian, Inc. is engaged in the
 business of creating and licensing software in the field of
 computational chemistry and represents and warrants to the
 licensee that it is not a competitor of Gaussian, Inc. and that
 it will not use this program in any manner prohibited above.
 ---------------------------------------------------------------
  

 Cite this work as:
 Gaussian 09, Revision A.02,
 M. J. Frisch, G. W. Trucks, H. B. Schlegel, G. E. Scuseria, 
 M. A. Robb, J. R. Cheeseman, G. Scalmani, V. Barone, B. Mennucci, 
 G. A. Petersson, H. Nakatsuji, M. Caricato, X. Li, H. P. Hratchian, 
 A. F. Izmaylov, J. Bloino, G. Zheng, J. L. Sonnenberg, M. Hada, 
 M. Ehara, K. Toyota, R. Fukuda, J. Hasegawa, M. Ishida, T. Nakajima, 
 Y. Honda, O. Kitao, H. Nakai, T. Vreven, J. A. Montgomery, Jr., 
 J. E. Peralta, F. Ogliaro, M. Bearpark, J. J. Heyd, E. Brothers, 
 K. N. Kudin, V. N. Staroverov, R. Kobayashi, J. Normand, 
 K. Raghavachari, A. Rendell, J. C. Burant, S. S. Iyengar, J. Tomasi, 
 M. Cossi, N. Rega, J. M. Millam, M. Klene, J. E. Knox, J. B. Cross, 
 V. Bakken, C. Adamo, J. Jaramillo, R. Gomperts, R. E. Stratmann, 
 O. Yazyev, A. J. Austin, R. Cammi, C. Pomelli, J. W. Ochterski, 
 R. L. Martin, K. Morokuma, V. G. Zakrzewski, G. A. Voth, 
 P. Salvador, J. J. Dannenberg, S. Dapprich, A. D. Daniels, 
 O. Farkas, J. B. Foresman, J. V. Ortiz, J. Cioslowski, 
 and D. J. Fox, Gaussian, Inc., Wallingford CT, 2009.
 
 ******************************************
 Gaussian 09:  EM64L-G09RevA.02 11-Jun-2009
                17-Aug-2024 
 ******************************************
 %mem=100MB
 --------------------------------------------------------------------
 #p b3pw91/6-31++G opt freq symmetry=(follow,pg=C3v) pop=full gfinput
 --------------------------------------------------------------------
 1/14=-1,18=20,19=15,26=3,38=1/1,3;
 2/9=110,12=2,17=6,18=5,19=2314885530821997379,40=1/2;
 3/5=1,6=6,7=1010,11=2,16=1,24=10,25=1,30=1,71=1,74=-6/1,2,3;
 4//1;
 5/5=2,38=5/2;
 6/7=3,28=1/1;
 7//1,2,3,16;
 1/14=-1,18=20,19=15/3(2);
 2/9=110,15=5,19=2314885530821997379/2;
 99//99;
 2/9=110,15=5,19=2314885530821997379/2;
 3/5=1,6=6,7=1010,11=2,16=1,25=1,30=1,71=1,74=-6/1,2,3;
 4/5=5,16=3/1;
 5/5=2,38=5/2;
 7//1,2,3,16;
 1/14=-1,18=20,19=15/3(-5);
 2/9=110,15=5,19=2314885530821997379/2;
 6/7=3,19=2,28=1/1;
 99/9=1/99;
 Leave Link    1 at Sat Aug 17 23:37:32 2024, MaxMem=   13107200 cpu:       0.1
 (Enter /programs/64bit/g09/g09-gfortran/bin/l101.exe)
 --------------------------------------------------
 methyl with imposed symmetry and 6-31++G basis set
 --------------------------------------------------
 Symbolic Z-matrix:
 Charge =  0 Multiplicity = 2
 C1
 H2                   1    d
 H3                   1    d        2    a
 H4                   1    d        2    -a       3    t        0
       Variables:
  d                     1.09                     
  a                   120.                       
  t                     0.                       
 
 NAtoms=      4 NQM=      4 NQMF=      0 NMic=      0 NMicF=      0 NTot=      4.
                    Isotopes and Nuclear Properties:
 (Nuclear quadrupole moments (NQMom) in fm**2, nuclear magnetic moments (NMagM)
  in nuclear magnetons)

  Atom         1           2           3           4
 IAtWgt=          12           1           1           1
 AtmWgt=  12.0000000   1.0078250   1.0078250   1.0078250
 NucSpn=           0           1           1           1
 AtZEff=   0.0000000   0.0000000   0.0000000   0.0000000
 NQMom=    0.0000000   0.0000000   0.0000000   0.0000000
 NMagM=    0.0000000   2.7928460   2.7928460   2.7928460
 Leave Link  101 at Sat Aug 17 23:37:32 2024, MaxMem=   13107200 cpu:       0.1
 (Enter /programs/64bit/g09/g09-gfortran/bin/l103.exe)

 GradGradGradGradGradGradGradGradGradGradGradGradGradGradGradGradGradGrad
 Berny optimization.
 Initialization pass.
                           ----------------------------
                           !    Initial Parameters    !
                           ! (Angstroms and Degrees)  !
 --------------------------                            --------------------------
 ! Name  Definition              Value          Derivative Info.                !
 --------------------------------------------------------------------------------
 ! R1    R(1,2)                  1.09           estimate D2E/DX2                !
 ! R2    R(1,3)                  1.09           estimate D2E/DX2                !
 ! R3    R(1,4)                  1.09           estimate D2E/DX2                !
 ! A1    A(2,1,3)              120.0            estimate D2E/DX2                !
 ! A2    A(2,1,4)              120.0            estimate D2E/DX2                !
 ! A3    A(3,1,4)              120.0            estimate D2E/DX2                !
 ! D1    D(2,1,4,3)            180.0            estimate D2E/DX2                !
 --------------------------------------------------------------------------------
 Trust Radius=3.00D-01 FncErr=1.00D-07 GrdErr=1.00D-06
 Number of steps in this run=  20 maximum allowed number of steps= 100.
 GradGradGradGradGradGradGradGradGradGradGradGradGradGradGradGradGradGrad

 Leave Link  103 at Sat Aug 17 23:37:32 2024, MaxMem=   13107200 cpu:       0.0
 (Enter /programs/64bit/g09/g09-gfortran/bin/l202.exe)
                          Input orientation:                          
 ---------------------------------------------------------------------
 Center     Atomic      Atomic             Coordinates (Angstroms)
 Number     Number       Type             X           Y           Z
 ---------------------------------------------------------------------
      1          6           0        0.000000    0.000000    0.000000
      2          1           0        0.000000    0.000000    1.090000
      3          1           0        0.943968    0.000000   -0.545000
      4          1           0       -0.943968    0.000000   -0.545000
 ---------------------------------------------------------------------
                    Distance matrix (angstroms):
                    1          2          3          4
     1  C    0.000000
     2  H    1.090000   0.000000
     3  H    1.090000   1.887935   0.000000
     4  H    1.090000   1.887935   1.887935   0.000000
 Symm:  InNGrp=C3V  InAxis=0.
 This structure is nearly, but not quite of a higher symmetry.
 Consider Symm=Loose if the higher symmetry is desired.
 Stoichiometry    CH3(2)
 Framework group  C2[C2(CH),X(H2)]
 Deg. of freedom     3
 Full point group                 C2      NOp   2
 Largest Abelian subgroup         C2      NOp   2
 Largest concise Abelian subgroup C2      NOp   2
                         Standard orientation:                         
 ---------------------------------------------------------------------
 Center     Atomic      Atomic             Coordinates (Angstroms)
 Number     Number       Type             X           Y           Z
 ---------------------------------------------------------------------
      1          6           0        0.000000    0.000000    0.000000
      2          1           0        0.000000    0.000000    1.090000
      3          1           0        0.000000    0.943968   -0.545000
      4          1           0       -0.000000   -0.943968   -0.545000
 ---------------------------------------------------------------------
 Rotational constants (GHZ):    281.3764836    281.3764836    140.6882418
 Leave Link  202 at Sat Aug 17 23:37:32 2024, MaxMem=   13107200 cpu:       0.0
 (Enter /programs/64bit/g09/g09-gfortran/bin/l301.exe)
 Standard basis: 6-31++G (6D, 7F)
 Ernie: Thresh=  0.10000D-02 Tol=  0.10000D-05 Strict=F.
 AO basis set in the form of general basis input (Overlap normalization):
      1 0
 S   6 1.00       0.000000000000
      0.3047524880D+04  0.1834737132D-02
      0.4573695180D+03  0.1403732281D-01
      0.1039486850D+03  0.6884262226D-01
      0.2921015530D+02  0.2321844432D+00
      0.9286662960D+01  0.4679413484D+00
      0.3163926960D+01  0.3623119853D+00
 SP   3 1.00       0.000000000000
      0.7868272350D+01 -0.1193324198D+00  0.6899906659D-01
      0.1881288540D+01 -0.1608541517D+00  0.3164239610D+00
      0.5442492580D+00  0.1143456438D+01  0.7443082909D+00
 SP   1 1.00       0.000000000000
      0.1687144782D+00  0.1000000000D+01  0.1000000000D+01
 SP   1 1.00       0.000000000000
      0.4380000000D-01  0.1000000000D+01  0.1000000000D+01
 ****
      2 0
 S   3 1.00       0.000000000000
      0.1873113696D+02  0.3349460434D-01
      0.2825394365D+01  0.2347269535D+00
      0.6401216923D+00  0.8137573261D+00
 S   1 1.00       0.000000000000
      0.1612777588D+00  0.1000000000D+01
 S   1 1.00       0.000000000000
      0.3600000000D-01  0.1000000000D+01
 ****
      3 0
 S   3 1.00       0.000000000000
      0.1873113696D+02  0.3349460434D-01
      0.2825394365D+01  0.2347269535D+00
      0.6401216923D+00  0.8137573261D+00
 S   1 1.00       0.000000000000
      0.1612777588D+00  0.1000000000D+01
 S   1 1.00       0.000000000000
      0.3600000000D-01  0.1000000000D+01
 ****
      4 0
 S   3 1.00       0.000000000000
      0.1873113696D+02  0.3349460434D-01
      0.2825394365D+01  0.2347269535D+00
      0.6401216923D+00  0.8137573261D+00
 S   1 1.00       0.000000000000
      0.1612777588D+00  0.1000000000D+01
 S   1 1.00       0.000000000000
      0.3600000000D-01  0.1000000000D+01
 ****

 There are    13 symmetry adapted basis functions of A   symmetry.
 There are     9 symmetry adapted basis functions of B   symmetry.
 Integral buffers will be    131072 words long.
 Raffenetti 2 integral format.
 Two-electron integral symmetry is turned on.
    22 basis functions,    41 primitive gaussians,    22 cartesian basis functions
     5 alpha electrons        4 beta electrons
       nuclear repulsion energy         9.5795885928 Hartrees.
 IExCor=  408 DFT=T Ex+Corr=B3PW91 ExCW=0 ScaHFX=  0.200000
 ScaDFX=  0.800000  0.720000  1.000000  0.810000 ScalE2=  1.000000  1.000000
 IRadAn=      0 IRanWt=     -1 IRanGd=            0 ICorTp=0
 NAtoms=    4 NActive=    4 NUniq=    3 SFac= 1.33D+00 NAtFMM=   80 NAOKFM=F Big=F
 Leave Link  301 at Sat Aug 17 23:37:32 2024, MaxMem=   13107200 cpu:       0.1
 (Enter /programs/64bit/g09/g09-gfortran/bin/l302.exe)
 NPDir=0 NMtPBC=     1 NCelOv=     1 NCel=       1 NClECP=     1 NCelD=      1
         NCelK=      1 NCelE2=     1 NClLst=     1 CellRange=     0.0.
 One-electron integrals computed using PRISM.
 One-electron integral symmetry used in STVInt
 NBasis=    22 RedAO= T  NBF=    13     9
 NBsUse=    22 1.00D-06 NBFU=    13     9
 Precomputing XC quadrature grid using
 IXCGrd= 2 IRadAn=           0 IRanWt=          -1 IRanGd=           0 AccXCQ= 1.00D-10.
 NRdTot=     255 NPtTot=       32550 NUsed=       34400 NTot=       34432
 NSgBfM=    22    22    22    22    22 NAtAll=     4     4.
 Leave Link  302 at Sat Aug 17 23:37:32 2024, MaxMem=   13107200 cpu:       0.1
 (Enter /programs/64bit/g09/g09-gfortran/bin/l303.exe)
 DipDrv:  MaxL=1.
 Leave Link  303 at Sat Aug 17 23:37:33 2024, MaxMem=   13107200 cpu:       0.0
 (Enter /programs/64bit/g09/g09-gfortran/bin/l401.exe)
 Harris functional with IExCor=  408 diagonalized for initial guess.
 ExpMin= 3.60D-02 ExpMax= 3.05D+03 ExpMxC= 4.57D+02 IAcc=3 IRadAn=         0 AccDes= 0.00D+00
 HarFok:  IExCor=  408 AccDes= 0.00D+00 IRadAn=         0 IDoV= 1
 ScaDFX=  1.000000  1.000000  1.000000  1.000000
 FoFCou: FMM=F IPFlag=           0 FMFlag=      100000 FMFlg1=           0
         NFxFlg=           0 DoJE=T BraDBF=F KetDBF=T FulRan=T
         Omega=  0.000000  0.000000  1.000000  0.000000  0.000000 ICntrl=     500 IOpCl=  0
         NMat0=    1 NMatS0=    1 NMatT0=    0 NMatD0=    1 NMtDS0=    0 NMtDT0=    0
         I1Cent=           4 NGrid=           0.
 Petite list used in FoFCou.
 Harris En= -39.8407007953324    
 Initial guess orbital symmetries:
 Alpha Orbitals:
       Occupied  (A) (A) (A) (B) (B)
       Virtual   (A) (B) (A) (B) (B) (A) (A) (B) (A) (A) (B) (A)
                 (B) (A) (B) (A) (A)
 Beta  Orbitals:
       Occupied  (A) (A) (A) (B)
       Virtual   (B) (A) (B) (A) (B) (B) (A) (A) (B) (A) (A) (B)
                 (A) (B) (A) (B) (A) (A)
 The electronic state of the initial guess is 2-B.
 Initial guess <Sx>= 0.0000 <Sy>= 0.0000 <Sz>= 0.5000 <S**2>= 0.7500 S= 0.5000
 Leave Link  401 at Sat Aug 17 23:37:33 2024, MaxMem=   13107200 cpu:       0.4
 (Enter /programs/64bit/g09/g09-gfortran/bin/l502.exe)
 UHF open shell SCF:
 Requested convergence on RMS density matrix=1.00D-08 within 128 cycles.
 Requested convergence on MAX density matrix=1.00D-06.
 Requested convergence on             energy=1.00D-06.
 No special actions if energy rises.
 Using DIIS extrapolation, IDIIS=  1040.
 Integral symmetry usage will be decided dynamically.
        34351 words used for storage of precomputed grid.
 Keep R1 and R2 ints in memory in canonical form, NReq=976758.
 IEnd=       54291 IEndB=       54291 NGot=    13107200 MDV=    13005766
 LenX=    13005766 LenY=    13004841
 Symmetry not used in FoFDir.
 MinBra= 0 MaxBra= 1 Meth= 1.
 IRaf=       0 NMat=   1 IRICut=       1 DoRegI=T DoRafI=F ISym2E= 0 JSym2E=0.

 Cycle   1  Pass 1  IDiag  1:
 E= -39.7833115622246    
 DIIS: error= 3.26D-02 at cycle   1 NSaved=   1.
 NSaved= 1 IEnMin= 1 EnMin= -39.7833115622246     IErMin= 1 ErrMin= 3.26D-02
 ErrMax= 3.26D-02 EMaxC= 1.00D-01 BMatC= 1.16D-01 BMatP= 1.16D-01
 IDIUse=3 WtCom= 6.74D-01 WtEn= 3.26D-01
 Coeff-Com:  0.100D+01
 Coeff-En:   0.100D+01
 Coeff:      0.100D+01
 Gap=     0.173 Goal=   None    Shift=    0.000
 Gap=     0.371 Goal=   None    Shift=    0.000
 GapD=    0.173 DampG=1.000 DampE=0.500 DampFc=0.5000 IDamp=-1.
 Damping current iteration by 5.00D-01
 RMSDP=1.33D-02 MaxDP=1.46D-01              OVMax= 1.65D-01

 Cycle   2  Pass 1  IDiag  1:
 E= -39.8008579996805     Delta-E=       -0.017546437456 Rises=F Damp=T
 DIIS: error= 5.25D-03 at cycle   2 NSaved=   2.
 NSaved= 2 IEnMin= 2 EnMin= -39.8008579996805     IErMin= 2 ErrMin= 5.25D-03
 ErrMax= 5.25D-03 EMaxC= 1.00D-01 BMatC= 2.25D-03 BMatP= 1.16D-01
 IDIUse=3 WtCom= 9.48D-01 WtEn= 5.25D-02
 Coeff-Com:  0.152D-01 0.985D+00
 Coeff-En:   0.000D+00 0.100D+01
 Coeff:      0.144D-01 0.986D+00
 Gap=     0.238 Goal=   None    Shift=    0.000
 Gap=     0.353 Goal=   None    Shift=    0.000
 RMSDP=1.83D-03 MaxDP=1.57D-02 DE=-1.75D-02 OVMax= 9.45D-02

 Cycle   3  Pass 1  IDiag  1:
 E= -39.8194415479820     Delta-E=       -0.018583548302 Rises=F Damp=F
 DIIS: error= 1.32D-03 at cycle   3 NSaved=   3.
 NSaved= 3 IEnMin= 3 EnMin= -39.8194415479820     IErMin= 3 ErrMin= 1.32D-03
 ErrMax= 1.32D-03 EMaxC= 1.00D-01 BMatC= 8.50D-05 BMatP= 2.25D-03
 IDIUse=3 WtCom= 9.87D-01 WtEn= 1.32D-02
 Coeff-Com: -0.115D-01-0.287D-01 0.104D+01
 Coeff-En:   0.000D+00 0.000D+00 0.100D+01
 Coeff:     -0.114D-01-0.283D-01 0.104D+01
 Gap=     0.242 Goal=   None    Shift=    0.000
 Gap=     0.348 Goal=   None    Shift=    0.000
 RMSDP=4.00D-04 MaxDP=3.21D-03 DE=-1.86D-02 OVMax= 3.51D-03

 Cycle   4  Pass 1  IDiag  1:
 E= -39.8195015034330     Delta-E=       -0.000059955451 Rises=F Damp=F
 DIIS: error= 4.01D-04 at cycle   4 NSaved=   4.
 NSaved= 4 IEnMin= 4 EnMin= -39.8195015034330     IErMin= 4 ErrMin= 4.01D-04
 ErrMax= 4.01D-04 EMaxC= 1.00D-01 BMatC= 9.85D-06 BMatP= 8.50D-05
 IDIUse=3 WtCom= 9.96D-01 WtEn= 4.01D-03
 Coeff-Com:  0.140D-02-0.145D-01-0.454D+00 0.147D+01
 Coeff-En:   0.000D+00 0.000D+00 0.000D+00 0.100D+01
 Coeff:      0.140D-02-0.144D-01-0.452D+00 0.147D+01
 Gap=     0.243 Goal=   None    Shift=    0.000
 Gap=     0.348 Goal=   None    Shift=    0.000
 RMSDP=2.01D-04 MaxDP=1.44D-03 DE=-6.00D-05 OVMax= 1.85D-03

 Cycle   5  Pass 1  IDiag  1:
 E= -39.8195102360405     Delta-E=       -0.000008732607 Rises=F Damp=F
 DIIS: error= 3.41D-05 at cycle   5 NSaved=   5.
 NSaved= 5 IEnMin= 5 EnMin= -39.8195102360405     IErMin= 5 ErrMin= 3.41D-05
 ErrMax= 3.41D-05 EMaxC= 1.00D-01 BMatC= 6.87D-08 BMatP= 9.85D-06
 IDIUse=1 WtCom= 1.00D+00 WtEn= 0.00D+00
 Coeff-Com:  0.411D-03 0.216D-02 0.113D-01-0.118D+00 0.110D+01
 Coeff:      0.411D-03 0.216D-02 0.113D-01-0.118D+00 0.110D+01
 Gap=     0.243 Goal=   None    Shift=    0.000
 Gap=     0.348 Goal=   None    Shift=    0.000
 RMSDP=1.54D-05 MaxDP=1.34D-04 DE=-8.73D-06 OVMax= 1.67D-04

 Cycle   6  Pass 1  IDiag  1:
 E= -39.8195102937531     Delta-E=       -0.000000057713 Rises=F Damp=F
 DIIS: error= 3.57D-06 at cycle   6 NSaved=   6.
 NSaved= 6 IEnMin= 6 EnMin= -39.8195102937531     IErMin= 6 ErrMin= 3.57D-06
 ErrMax= 3.57D-06 EMaxC= 1.00D-01 BMatC= 6.69D-10 BMatP= 6.87D-08
 IDIUse=1 WtCom= 1.00D+00 WtEn= 0.00D+00
 Coeff-Com: -0.495D-04-0.259D-03 0.338D-02 0.109D-02-0.167D+00 0.116D+01
 Coeff:     -0.495D-04-0.259D-03 0.338D-02 0.109D-02-0.167D+00 0.116D+01
 Gap=     0.243 Goal=   None    Shift=    0.000
 Gap=     0.348 Goal=   None    Shift=    0.000
 RMSDP=1.56D-06 MaxDP=1.30D-05 DE=-5.77D-08 OVMax= 2.36D-05

 Cycle   7  Pass 1  IDiag  1:
 E= -39.8195102943318     Delta-E=       -0.000000000579 Rises=F Damp=F
 DIIS: error= 2.42D-07 at cycle   7 NSaved=   7.
 NSaved= 7 IEnMin= 7 EnMin= -39.8195102943318     IErMin= 7 ErrMin= 2.42D-07
 ErrMax= 2.42D-07 EMaxC= 1.00D-01 BMatC= 3.25D-12 BMatP= 6.69D-10
 IDIUse=1 WtCom= 1.00D+00 WtEn= 0.00D+00
 Coeff-Com:  0.850D-05 0.157D-04-0.489D-03 0.572D-03 0.125D-01-0.122D+00
 Coeff-Com:  0.111D+01
 Coeff:      0.850D-05 0.157D-04-0.489D-03 0.572D-03 0.125D-01-0.122D+00
 Coeff:      0.111D+01
 Gap=     0.243 Goal=   None    Shift=    0.000
 Gap=     0.348 Goal=   None    Shift=    0.000
 RMSDP=8.63D-08 MaxDP=6.30D-07 DE=-5.79D-10 OVMax= 8.13D-07

 Cycle   8  Pass 1  IDiag  1:
 E= -39.8195102943333     Delta-E=       -0.000000000002 Rises=F Damp=F
 DIIS: error= 1.46D-08 at cycle   8 NSaved=   8.
 NSaved= 8 IEnMin= 8 EnMin= -39.8195102943333     IErMin= 8 ErrMin= 1.46D-08
 ErrMax= 1.46D-08 EMaxC= 1.00D-01 BMatC= 7.27D-15 BMatP= 3.25D-12
 IDIUse=1 WtCom= 1.00D+00 WtEn= 0.00D+00
 Coeff-Com: -0.844D-06-0.107D-05 0.390D-04-0.637D-04-0.714D-03 0.853D-02
 Coeff-Com: -0.100D+00 0.109D+01
 Coeff:     -0.844D-06-0.107D-05 0.390D-04-0.637D-04-0.714D-03 0.853D-02
 Coeff:     -0.100D+00 0.109D+01
 Gap=     0.243 Goal=   None    Shift=    0.000
 Gap=     0.348 Goal=   None    Shift=    0.000
 RMSDP=4.33D-09 MaxDP=6.10D-08 DE=-1.53D-12 OVMax= 5.61D-08

 SCF Done:  E(UB3PW91) =  -39.8195102943     A.U. after    8 cycles
             Convg  =    0.4330D-08             -V/T =  2.0070
 <Sx>= 0.0000 <Sy>= 0.0000 <Sz>= 0.5000 <S**2>= 0.7537 S= 0.5019
 <L.S>=  0.00000000000    
 KE= 3.954342649755D+01 PE=-1.109708715354D+02 EE= 2.202834615074D+01
 Annihilation of the first spin contaminant:
 S**2 before annihilation     0.7537,   after     0.7500
 Leave Link  502 at Sat Aug 17 23:37:35 2024, MaxMem=   13107200 cpu:       2.4
 (Enter /programs/64bit/g09/g09-gfortran/bin/l601.exe)
 Copying SCF densities to generalized density rwf, IOpCl= 1 IROHF=0.

 **********************************************************************

            Population analysis using the SCF density.

 **********************************************************************

 Orbital symmetries:
 Alpha Orbitals:
       Occupied  (A) (A) (A) (B) (B)
       Virtual   (A) (B) (A) (B) (B) (A) (A) (A) (B) (A) (B) (B)
                 (A) (A) (A) (B) (A)
 Beta  Orbitals:
       Occupied  (A) (A) (A) (B)
       Virtual   (B) (A) (B) (A) (B) (B) (A) (A) (A) (B) (A) (B)
                 (A) (B) (A) (B) (A) (A)
 The electronic state is 2-B.
 Alpha  occ. eigenvalues --  -10.18646  -0.69467  -0.42649  -0.42649  -0.23891
 Alpha virt. eigenvalues --    0.00389   0.04393   0.04393   0.07988   0.11845
 Alpha virt. eigenvalues --    0.11845   0.14454   0.19376   0.22014   0.22014
 Alpha virt. eigenvalues --    0.65187   0.72230   0.72230   1.00339   1.01002
 Alpha virt. eigenvalues --    1.02892   1.02892
  Beta  occ. eigenvalues --  -10.17125  -0.64964  -0.41515  -0.41515
  Beta virt. eigenvalues --   -0.06698   0.00899   0.04497   0.04498   0.11247
  Beta virt. eigenvalues --    0.12164   0.12164   0.15859   0.21959   0.22637
  Beta virt. eigenvalues --    0.22637   0.73509   0.73782   0.73782   1.00895
  Beta virt. eigenvalues --    1.03042   1.03043   1.04949
     Alpha Molecular Orbital Coefficients:
                           1         2         3         4         5
                           O         O         O         O         O
     Eigenvalues --   -10.18646  -0.69467  -0.42649  -0.42649  -0.23891
   1 1   C  1S          0.99508  -0.20553   0.00000   0.00000   0.00000
   2        2S          0.03546   0.40397   0.00000   0.00000   0.00000
   3        2PX         0.00000   0.00000   0.00000   0.00000   0.59648
   4        2PY         0.00000   0.00000   0.00000   0.46215   0.00000
   5        2PZ         0.00000   0.00000   0.46215   0.00000   0.00000
   6        3S         -0.02394   0.41697   0.00000   0.00000   0.00000
   7        3PX         0.00000   0.00000   0.00000  -0.00000   0.47137
   8        3PY         0.00000   0.00000   0.00000   0.20342   0.00000
   9        3PZ        -0.00000  -0.00000   0.20342   0.00000   0.00000
  10        4S          0.01539  -0.00514   0.00002   0.00000   0.00000
  11        4PX         0.00000   0.00000   0.00000   0.00000   0.11703
  12        4PY         0.00000   0.00000   0.00000   0.02035   0.00000
  13        4PZ         0.00000   0.00000   0.02035   0.00000   0.00000
  14 2   H  1S         -0.00084   0.14527   0.28558   0.00000   0.00000
  15        2S          0.00348   0.02934   0.19197   0.00000   0.00000
  16        3S         -0.00426   0.00641   0.00379   0.00000   0.00000
  17 3   H  1S         -0.00084   0.14527  -0.14279   0.24732   0.00000
  18        2S          0.00348   0.02934  -0.09599   0.16625  -0.00000
  19        3S         -0.00426   0.00641  -0.00190   0.00328  -0.00000
  20 4   H  1S         -0.00084   0.14527  -0.14279  -0.24732  -0.00000
  21        2S          0.00348   0.02934  -0.09599  -0.16625   0.00000
  22        3S         -0.00426   0.00641  -0.00190  -0.00328   0.00000
                           6         7         8         9        10
                           V         V         V         V         V
     Eigenvalues --     0.00389   0.04393   0.04393   0.07988   0.11845
   1 1   C  1S         -0.06556   0.00000  -0.00000   0.00000   0.00000
   2        2S          0.17456   0.00000   0.00000   0.00000   0.00000
   3        2PX         0.00000   0.00000   0.00000  -0.25189  -0.00000
   4        2PY         0.00000  -0.17609   0.00000  -0.00000   0.05096
   5        2PZ         0.00001   0.00000  -0.17609   0.00000   0.00000
   6        3S          0.43977   0.00000   0.00002   0.00000   0.00000
   7        3PX         0.00000   0.00000   0.00000  -0.38147   0.00000
   8        3PY         0.00000  -0.13109   0.00000  -0.00000  -0.23539
   9        3PZ        -0.00001   0.00000  -0.13109   0.00000   0.00000
  10        4S          2.39364   0.00000   0.00027   0.00000   0.00000
  11        4PX         0.00000  -0.00000   0.00000   1.13341   0.00000
  12        4PY         0.00000  -1.20458   0.00000   0.00000  -3.62691
  13        4PZ        -0.00008   0.00000  -1.20471   0.00000   0.00000
  14 2   H  1S         -0.01380   0.00000  -0.01571   0.00000   0.00000
  15        2S         -0.17190   0.00000   0.05742   0.00000   0.00000
  16        3S         -1.13353   0.00000   3.78002   0.00000   0.00000
  17 3   H  1S         -0.01380  -0.01360   0.00785  -0.00000   0.07145
  18        2S         -0.17194   0.04973  -0.02876  -0.00000   0.71284
  19        3S         -1.13361   3.27351  -1.89014  -0.00000   4.37336
  20 4   H  1S         -0.01380   0.01360   0.00785   0.00000  -0.07145
  21        2S         -0.17194  -0.04973  -0.02876   0.00000  -0.71284
  22        3S         -1.13361  -3.27351  -1.89014   0.00000  -4.37336
                          11        12        13        14        15
                           V         V         V         V         V
     Eigenvalues --     0.11845   0.14454   0.19376   0.22014   0.22014
   1 1   C  1S         -0.00002   0.09900  -0.10583   0.00000  -0.00000
   2        2S          0.00003  -0.15308   0.08213   0.00000   0.00000
   3        2PX         0.00000   0.00000   0.00000  -0.00000   0.00000
   4        2PY         0.00000   0.00000   0.00000   0.40553   0.00000
   5        2PZ         0.05097   0.00003   0.00001   0.00000   0.40553
   6        3S          0.00017  -1.18120   2.04714   0.00000   0.00002
   7        3PX         0.00000   0.00000   0.00000   0.00000   0.00000
   8        3PY         0.00000   0.00000   0.00000   1.50621   0.00000
   9        3PZ        -0.23539  -0.00008  -0.00004   0.00000   1.50621
  10        4S         -0.00345   7.82097   3.18157   0.00000  -0.00004
  11        4PX         0.00000   0.00000   0.00000  -0.00000   0.00000
  12        4PY         0.00000   0.00000   0.00000  -1.44124   0.00000
  13        4PZ        -3.62687  -0.00134  -0.00044   0.00000  -1.44123
  14 2   H  1S          0.08250   0.02906  -0.15759   0.00000  -0.14273
  15        2S          0.82335  -0.09437  -1.49065   0.00000  -1.88285
  16        3S          5.05078  -2.33732  -0.57222   0.00000   3.10554
  17 3   H  1S         -0.04125   0.02901  -0.15761  -0.12360   0.07136
  18        2S         -0.41131  -0.09480  -1.49082  -1.63059   0.94142
  19        3S         -2.52390  -2.34007  -0.57308   2.68949  -1.55275
  20 4   H  1S         -0.04125   0.02901  -0.15761   0.12360   0.07136
  21        2S         -0.41131  -0.09480  -1.49082   1.63059   0.94142
  22        3S         -2.52390  -2.34007  -0.57308  -2.68949  -1.55275
                          16        17        18        19        20
                           V         V         V         V         V
     Eigenvalues --     0.65187   0.72230   0.72230   1.00339   1.01002
   1 1   C  1S          0.00000   0.00000  -0.00000   0.06967   0.03130
   2        2S          0.00000   0.00000  -0.00000  -0.76592   2.08704
   3        2PX        -1.07987   0.00000   0.00000   0.00000   0.00000
   4        2PY        -0.00000  -1.00038   0.00000   0.00000   0.00000
   5        2PZ         0.00000   0.00000  -1.00038  -0.00002  -0.00003
   6        3S          0.00000   0.00000   0.00000   1.86321  -3.87382
   7        3PX         1.41161  -0.00000   0.00000   0.00000   0.00000
   8        3PY         0.00000   2.25393   0.00000   0.00000   0.00000
   9        3PZ         0.00000   0.00000   2.25393   0.00003   0.00003
  10        4S          0.00000   0.00000   0.00002   1.76103   4.45683
  11        4PX        -0.58332   0.00000   0.00000   0.00000   0.00000
  12        4PY        -0.00000  -1.99168   0.00000   0.00000   0.00000
  13        4PZ         0.00000   0.00000  -1.99168  -0.00002  -0.00000
  14 2   H  1S          0.00000   0.00000  -0.29718   0.77605   0.29911
  15        2S          0.00000   0.00000  -0.62049  -1.42628   0.20013
  16        3S          0.00000   0.00000   2.57026  -0.27647  -1.15961
  17 3   H  1S         -0.00000  -0.25736   0.14858   0.77600   0.29903
  18        2S         -0.00000  -0.53736   0.31024  -1.42621   0.20025
  19        3S         -0.00000   2.22591  -1.28514  -0.27653  -1.15966
  20 4   H  1S          0.00000   0.25736   0.14858   0.77600   0.29903
  21        2S          0.00000   0.53736   0.31024  -1.42621   0.20025
  22        3S          0.00000  -2.22591  -1.28514  -0.27653  -1.15966
                          21        22
                           V         V
     Eigenvalues --     1.02892   1.02892
   1 1   C  1S          0.00000   0.00000
   2        2S          0.00000   0.00008
   3        2PX         0.00000   0.00000
   4        2PY         0.60449   0.00000
   5        2PZ         0.00000   0.60449
   6        3S          0.00000  -0.00014
   7        3PX        -0.00000   0.00000
   8        3PY        -0.66730   0.00000
   9        3PZ         0.00000  -0.66730
  10        4S          0.00000   0.00030
  11        4PX         0.00000   0.00000
  12        4PY        -0.36889   0.00000
  13        4PZ         0.00000  -0.36890
  14 2   H  1S          0.00000  -1.12968
  15        2S          0.00000   1.77061
  16        3S          0.00000  -0.13457
  17 3   H  1S         -0.97836   0.56490
  18        2S          1.53342  -0.88536
  19        3S         -0.11649   0.06718
  20 4   H  1S          0.97836   0.56490
  21        2S         -1.53342  -0.88536
  22        3S          0.11649   0.06718
     Beta Molecular Orbital Coefficients:
                           1         2         3         4         5
                           O         O         O         O         V
     Eigenvalues --   -10.17125  -0.64964  -0.41515  -0.41515  -0.06698
   1 1   C  1S          0.99540  -0.19673   0.00000   0.00000   0.00000
   2        2S          0.03355   0.38701   0.00000   0.00000   0.00000
   3        2PX         0.00000   0.00000   0.00000  -0.00000   0.48060
   4        2PY         0.00000   0.00000   0.00000   0.44328   0.00000
   5        2PZ         0.00000   0.00000   0.44328   0.00000   0.00000
   6        3S         -0.02299   0.33508   0.00000   0.00000   0.00000
   7        3PX         0.00000   0.00000   0.00000  -0.00000   0.45085
   8        3PY         0.00000   0.00000   0.00000   0.17850   0.00000
   9        3PZ        -0.00000   0.00000   0.17850   0.00000   0.00000
  10        4S          0.01457  -0.05496   0.00001   0.00000   0.00000
  11        4PX         0.00000   0.00000   0.00000   0.00000   0.31694
  12        4PY         0.00000   0.00000   0.00000   0.02461   0.00000
  13        4PZ         0.00000   0.00000   0.02460   0.00000   0.00000
  14 2   H  1S         -0.00064   0.16414   0.30024   0.00000   0.00000
  15        2S          0.00335   0.07019   0.21884   0.00000   0.00000
  16        3S         -0.00403   0.01758  -0.00130   0.00000   0.00000
  17 3   H  1S         -0.00064   0.16414  -0.15012   0.26001   0.00000
  18        2S          0.00335   0.07019  -0.10942   0.18952  -0.00000
  19        3S         -0.00403   0.01758   0.00064  -0.00112  -0.00000
  20 4   H  1S         -0.00064   0.16414  -0.15012  -0.26001  -0.00000
  21        2S          0.00335   0.07019  -0.10942  -0.18952   0.00000
  22        3S         -0.00403   0.01758   0.00064   0.00112   0.00000
                           6         7         8         9        10
                           V         V         V         V         V
     Eigenvalues --     0.00899   0.04497   0.04498   0.11247   0.12164
   1 1   C  1S         -0.06269   0.00000  -0.00000   0.00000   0.00000
   2        2S          0.16038   0.00000   0.00000   0.00000   0.00000
   3        2PX         0.00000   0.00000   0.00000  -0.30771   0.00000
   4        2PY         0.00000  -0.16941   0.00000  -0.00000   0.04619
   5        2PZ         0.00000   0.00000  -0.16941   0.00000   0.00000
   6        3S          0.40095   0.00000   0.00001   0.00000   0.00000
   7        3PX         0.00000   0.00000   0.00000  -0.54399   0.00000
   8        3PY         0.00000  -0.12617   0.00000  -0.00000  -0.21778
   9        3PZ        -0.00001   0.00000  -0.12618   0.00000   0.00000
  10        4S          2.74146   0.00000   0.00023   0.00000   0.00000
  11        4PX         0.00000   0.00000   0.00000   1.11672  -0.00000
  12        4PY         0.00000  -1.27406   0.00000  -0.00000  -3.62149
  13        4PZ        -0.00007   0.00000  -1.27417   0.00000   0.00000
  14 2   H  1S         -0.00373   0.00000  -0.02147   0.00000   0.00000
  15        2S         -0.17601   0.00000   0.05215   0.00000   0.00000
  16        3S         -1.23842   0.00000   3.88832   0.00000   0.00000
  17 3   H  1S         -0.00373  -0.01860   0.01074   0.00000   0.06995
  18        2S         -0.17604   0.04515  -0.02611   0.00000   0.70296
  19        3S         -1.23853   3.36731  -1.94426   0.00000   4.34016
  20 4   H  1S         -0.00373   0.01860   0.01074  -0.00000  -0.06995
  21        2S         -0.17604  -0.04515  -0.02611  -0.00000  -0.70296
  22        3S         -1.23853  -3.36731  -1.94426  -0.00000  -4.34016
                          11        12        13        14        15
                           V         V         V         V         V
     Eigenvalues --     0.12164   0.15859   0.21959   0.22637   0.22637
   1 1   C  1S         -0.00001   0.11216  -0.10475   0.00000  -0.00000
   2        2S          0.00001  -0.13722   0.09976   0.00000   0.00000
   3        2PX         0.00000   0.00000   0.00000  -0.00000   0.00000
   4        2PY         0.00000   0.00000   0.00000   0.40800   0.00000
   5        2PZ         0.04620   0.00002   0.00001   0.00000   0.40800
   6        3S          0.00013  -1.43486   1.94179   0.00000  -0.00000
   7        3PX         0.00000   0.00000   0.00000   0.00000   0.00000
   8        3PY         0.00000   0.00000   0.00000   1.52934   0.00000
   9        3PZ        -0.21776  -0.00004  -0.00002   0.00000   1.52934
  10        4S         -0.00224   7.45752   3.83924   0.00000  -0.00011
  11        4PX         0.00000   0.00000   0.00000   0.00000   0.00000
  12        4PY         0.00000   0.00000   0.00000  -1.42506   0.00000
  13        4PZ        -3.62146  -0.00083  -0.00036   0.00000  -1.42504
  14 2   H  1S          0.08077   0.03353  -0.14170   0.00000  -0.12944
  15        2S          0.81184   0.05019  -1.49864   0.00000  -1.89685
  16        3S          5.01213  -2.23967  -0.76857   0.00000   3.06116
  17 3   H  1S         -0.04039   0.03350  -0.14172  -0.11209   0.06472
  18        2S         -0.40569   0.04994  -1.49874  -1.64273   0.94844
  19        3S         -2.50510  -2.24136  -0.76929   2.65103  -1.53054
  20 4   H  1S         -0.04039   0.03350  -0.14172   0.11209   0.06472
  21        2S         -0.40569   0.04994  -1.49874   1.64273   0.94844
  22        3S         -2.50510  -2.24136  -0.76929  -2.65103  -1.53054
                          16        17        18        19        20
                           V         V         V         V         V
     Eigenvalues --     0.73509   0.73782   0.73782   1.00895   1.03042
   1 1   C  1S          0.00000  -0.00000   0.00000   0.07973   0.00000
   2        2S          0.00000  -0.00000   0.00000  -0.30180   0.00000
   3        2PX        -1.12236   0.00000   0.00000   0.00000   0.00000
   4        2PY        -0.00000   0.00000  -0.99702   0.00000   0.62448
   5        2PZ         0.00000  -0.99702   0.00000  -0.00004   0.00000
   6        3S          0.00000   0.00001   0.00000   0.93758   0.00000
   7        3PX         1.36425   0.00000  -0.00000   0.00000  -0.00000
   8        3PY         0.00000   0.00000   2.23864   0.00000  -0.68009
   9        3PZ         0.00000   2.23864   0.00000   0.00005   0.00000
  10        4S          0.00000   0.00002   0.00000   2.71465   0.00000
  11        4PX        -0.53951   0.00000   0.00000   0.00000   0.00000
  12        4PY        -0.00000   0.00000  -1.97209   0.00000  -0.35645
  13        4PZ         0.00000  -1.97208   0.00000  -0.00001   0.00000
  14 2   H  1S          0.00000  -0.31061   0.00000   0.82177   0.00000
  15        2S          0.00000  -0.59476   0.00000  -1.33629   0.00000
  16        3S          0.00000   2.53599   0.00000  -0.53012   0.00000
  17 3   H  1S         -0.00000   0.15530  -0.26899   0.82168  -0.97334
  18        2S         -0.00000   0.29738  -0.51507  -1.33615   1.53011
  19        3S          0.00000  -1.26801   2.19625  -0.53019  -0.12808
  20 4   H  1S          0.00000   0.15530   0.26899   0.82168   0.97334
  21        2S          0.00000   0.29738   0.51507  -1.33615  -1.53011
  22        3S         -0.00000  -1.26801  -2.19625  -0.53019   0.12808
                          21        22
                           V         V
     Eigenvalues --     1.03043   1.04949
   1 1   C  1S          0.00000  -0.01433
   2        2S         -0.00012  -2.20702
   3        2PX         0.00000   0.00000
   4        2PY         0.00000   0.00000
   5        2PZ         0.62448  -0.00003
   6        3S          0.00024   4.17731
   7        3PX         0.00000   0.00000
   8        3PY         0.00000   0.00000
   9        3PZ        -0.68009   0.00003
  10        4S         -0.00000  -3.83949
  11        4PX         0.00000   0.00000
  12        4PY         0.00000   0.00000
  13        4PZ        -0.35646   0.00003
  14 2   H  1S         -1.12388  -0.12340
  15        2S          1.76672  -0.51585
  16        3S         -0.14787   1.03833
  17 3   H  1S          0.56200  -0.12348
  18        2S         -0.88351  -0.51573
  19        3S          0.07395   1.03835
  20 4   H  1S          0.56200  -0.12348
  21        2S         -0.88351  -0.51573
  22        3S          0.07395   1.03835
     Alpha Density Matrix:
                           1         2         3         4         5
   1 1   C  1S          1.03243
   2        2S         -0.04774   0.16445
   3        2PX         0.00000   0.00000   0.35579
   4        2PY         0.00000   0.00000   0.00000   0.21359
   5        2PZ         0.00000   0.00000   0.00000   0.00000   0.21359
   6        3S         -0.10952   0.16759   0.00000   0.00000   0.00000
   7        3PX         0.00000   0.00000   0.28116  -0.00000   0.00000
   8        3PY         0.00000   0.00000   0.00000   0.09401   0.00000
   9        3PZ         0.00000  -0.00000   0.00000   0.00000   0.09401
  10        4S          0.01637  -0.00153   0.00000   0.00000   0.00001
  11        4PX         0.00000   0.00000   0.06981   0.00000   0.00000
  12        4PY         0.00000   0.00000   0.00000   0.00941   0.00000
  13        4PZ        -0.00000   0.00000   0.00000   0.00000   0.00940
  14 2   H  1S         -0.03069   0.05866   0.00000   0.00000   0.13198
  15        2S         -0.00256   0.01198   0.00000   0.00000   0.08872
  16        3S         -0.00555   0.00244   0.00000   0.00000   0.00175
  17 3   H  1S         -0.03069   0.05866   0.00000   0.11430  -0.06599
  18        2S         -0.00256   0.01198  -0.00000   0.07683  -0.04436
  19        3S         -0.00555   0.00244  -0.00000   0.00152  -0.00088
  20 4   H  1S         -0.03069   0.05866  -0.00000  -0.11430  -0.06599
  21        2S         -0.00256   0.01198   0.00000  -0.07683  -0.04436
  22        3S         -0.00555   0.00244   0.00000  -0.00152  -0.00088
                           6         7         8         9        10
   6        3S          0.17444
   7        3PX         0.00000   0.22219
   8        3PY         0.00000   0.00000   0.04138
   9        3PZ         0.00000   0.00000   0.00000   0.04138
  10        4S         -0.00251   0.00000   0.00000   0.00000   0.00026
  11        4PX         0.00000   0.05517   0.00000   0.00000   0.00000
  12        4PY         0.00000   0.00000   0.00414   0.00000   0.00000
  13        4PZ         0.00000   0.00000   0.00000   0.00414   0.00000
  14 2   H  1S          0.06060   0.00000   0.00000   0.05809  -0.00075
  15        2S          0.01215   0.00000   0.00000   0.03905  -0.00009
  16        3S          0.00277   0.00000   0.00000   0.00077  -0.00010
  17 3   H  1S          0.06059  -0.00000   0.05031  -0.02905  -0.00076
  18        2S          0.01215  -0.00000   0.03382  -0.01953  -0.00010
  19        3S          0.00278  -0.00000   0.00067  -0.00039  -0.00010
  20 4   H  1S          0.06059   0.00000  -0.05031  -0.02905  -0.00076
  21        2S          0.01215   0.00000  -0.03382  -0.01953  -0.00010
  22        3S          0.00278   0.00000  -0.00067  -0.00039  -0.00010
                          11        12        13        14        15
  11        4PX         0.01370
  12        4PY         0.00000   0.00041
  13        4PZ         0.00000   0.00000   0.00041
  14 2   H  1S          0.00000   0.00000   0.00581   0.10266
  15        2S          0.00000   0.00000   0.00391   0.05908   0.03773
  16        3S          0.00000   0.00000   0.00008   0.00202   0.00090
  17 3   H  1S          0.00000   0.00503  -0.00291  -0.01967  -0.02315
  18        2S         -0.00000   0.00338  -0.00195  -0.02315  -0.01755
  19        3S         -0.00000   0.00007  -0.00004   0.00039  -0.00019
  20 4   H  1S         -0.00000  -0.00503  -0.00291  -0.01967  -0.02315
  21        2S          0.00000  -0.00338  -0.00195  -0.02315  -0.01755
  22        3S          0.00000  -0.00007  -0.00004   0.00039  -0.00019
                          16        17        18        19        20
  16        3S          0.00007
  17 3   H  1S          0.00039   0.10266
  18        2S         -0.00019   0.05909   0.03773
  19        3S          0.00005   0.00202   0.00090   0.00007
  20 4   H  1S          0.00039  -0.01967  -0.02315   0.00039   0.10266
  21        2S         -0.00019  -0.02315  -0.01755  -0.00019   0.05909
  22        3S          0.00005   0.00039  -0.00019   0.00005   0.00202
                          21        22
  21        2S          0.03773
  22        3S          0.00090   0.00007
     Beta Density Matrix:
                           1         2         3         4         5
   1 1   C  1S          1.02952
   2        2S         -0.04274   0.15090
   3        2PX         0.00000   0.00000   0.00000
   4        2PY         0.00000   0.00000  -0.00000   0.19650
   5        2PZ         0.00000   0.00000   0.00000   0.00000   0.19650
   6        3S         -0.08881   0.12891   0.00000   0.00000   0.00000
   7        3PX         0.00000   0.00000   0.00000  -0.00000   0.00000
   8        3PY         0.00000   0.00000  -0.00000   0.07912   0.00000
   9        3PZ        -0.00000   0.00000   0.00000   0.00000   0.07913
  10        4S          0.02531  -0.02078   0.00000   0.00000   0.00001
  11        4PX         0.00000   0.00000  -0.00000   0.00000   0.00000
  12        4PY         0.00000   0.00000  -0.00000   0.01091   0.00000
  13        4PZ        -0.00000   0.00000   0.00000   0.00000   0.01091
  14 2   H  1S         -0.03293   0.06350   0.00000   0.00000   0.13309
  15        2S         -0.01047   0.02727   0.00000   0.00000   0.09701
  16        3S         -0.00747   0.00667   0.00000   0.00000  -0.00058
  17 3   H  1S         -0.03293   0.06350  -0.00000   0.11526  -0.06654
  18        2S         -0.01047   0.02728  -0.00000   0.08401  -0.04851
  19        3S         -0.00748   0.00667   0.00000  -0.00050   0.00029
  20 4   H  1S         -0.03293   0.06350   0.00000  -0.11526  -0.06654
  21        2S         -0.01047   0.02728   0.00000  -0.08401  -0.04851
  22        3S         -0.00748   0.00667  -0.00000   0.00050   0.00029
                           6         7         8         9        10
   6        3S          0.11281
   7        3PX         0.00000   0.00000
   8        3PY         0.00000  -0.00000   0.03186
   9        3PZ         0.00000   0.00000   0.00000   0.03186
  10        4S         -0.01875   0.00000   0.00000   0.00000   0.00323
  11        4PX         0.00000  -0.00000   0.00000   0.00000   0.00000
  12        4PY         0.00000  -0.00000   0.00439   0.00000   0.00000
  13        4PZ         0.00000   0.00000   0.00000   0.00439   0.00000
  14 2   H  1S          0.05501   0.00000   0.00000   0.05359  -0.00903
  15        2S          0.02344   0.00000   0.00000   0.03906  -0.00381
  16        3S          0.00598   0.00000   0.00000  -0.00023  -0.00102
  17 3   H  1S          0.05501  -0.00000   0.04641  -0.02680  -0.00903
  18        2S          0.02344  -0.00000   0.03383  -0.01953  -0.00381
  19        3S          0.00599   0.00000  -0.00020   0.00011  -0.00103
  20 4   H  1S          0.05501   0.00000  -0.04641  -0.02680  -0.00903
  21        2S          0.02344   0.00000  -0.03383  -0.01953  -0.00381
  22        3S          0.00599  -0.00000   0.00020   0.00011  -0.00103
                          11        12        13        14        15
  11        4PX         0.00000
  12        4PY         0.00000   0.00061
  13        4PZ         0.00000   0.00000   0.00061
  14 2   H  1S          0.00000   0.00000   0.00739   0.11708
  15        2S          0.00000   0.00000   0.00538   0.07722   0.05283
  16        3S          0.00000   0.00000  -0.00003   0.00250   0.00094
  17 3   H  1S          0.00000   0.00640  -0.00369  -0.01813  -0.02133
  18        2S          0.00000   0.00466  -0.00269  -0.02133  -0.01901
  19        3S         -0.00000  -0.00003   0.00002   0.00308   0.00136
  20 4   H  1S         -0.00000  -0.00640  -0.00369  -0.01813  -0.02133
  21        2S         -0.00000  -0.00466  -0.00269  -0.02133  -0.01901
  22        3S          0.00000   0.00003   0.00002   0.00308   0.00136
                          16        17        18        19        20
  16        3S          0.00033
  17 3   H  1S          0.00308   0.11708
  18        2S          0.00136   0.07722   0.05283
  19        3S          0.00032   0.00250   0.00094   0.00033
  20 4   H  1S          0.00308  -0.01813  -0.02133   0.00308   0.11708
  21        2S          0.00136  -0.02133  -0.01901   0.00136   0.07722
  22        3S          0.00032   0.00308   0.00136   0.00032   0.00250
                          21        22
  21        2S          0.05283
  22        3S          0.00094   0.00033
    Full Mulliken population analysis:
                           1         2         3         4         5
   1 1   C  1S          2.06195
   2        2S         -0.01982   0.31535
   3        2PX         0.00000   0.00000   0.35579
   4        2PY         0.00000   0.00000   0.00000   0.41009
   5        2PZ         0.00000   0.00000   0.00000   0.00000   0.41009
   6        3S         -0.03654   0.24084   0.00000   0.00000   0.00000
   7        3PX         0.00000   0.00000   0.16019   0.00000   0.00000
   8        3PY         0.00000   0.00000   0.00000   0.09864   0.00000
   9        3PZ         0.00000   0.00000   0.00000   0.00000   0.09864
  10        4S          0.00291  -0.00897   0.00000   0.00000   0.00000
  11        4PX         0.00000   0.00000   0.01150   0.00000   0.00000
  12        4PY         0.00000   0.00000   0.00000   0.00335   0.00000
  13        4PZ         0.00000   0.00000   0.00000   0.00000   0.00334
  14 2   H  1S         -0.00208   0.03343   0.00000   0.00000   0.09790
  15        2S         -0.00120   0.01869   0.00000   0.00000   0.04936
  16        3S         -0.00068   0.00280   0.00000   0.00000   0.00005
  17 3   H  1S         -0.00208   0.03343  -0.00000   0.07343   0.02448
  18        2S         -0.00120   0.01869   0.00000   0.03702   0.01234
  19        3S         -0.00068   0.00280   0.00000   0.00004   0.00001
  20 4   H  1S         -0.00208   0.03343   0.00000   0.07343   0.02448
  21        2S         -0.00120   0.01869  -0.00000   0.03702   0.01234
  22        3S         -0.00068   0.00280  -0.00000   0.00004   0.00001
                           6         7         8         9        10
   6        3S          0.28725
   7        3PX         0.00000   0.22219
   8        3PY         0.00000   0.00000   0.07324
   9        3PZ         0.00000   0.00000   0.00000   0.07324
  10        4S         -0.01547   0.00000   0.00000   0.00000   0.00350
  11        4PX         0.00000   0.03248   0.00000   0.00000   0.00000
  12        4PY         0.00000   0.00000   0.00502   0.00000   0.00000
  13        4PZ         0.00000   0.00000   0.00000   0.00502   0.00000
  14 2   H  1S          0.04359   0.00000   0.00000   0.05752  -0.00253
  15        2S          0.02508   0.00000   0.00000   0.04551  -0.00250
  16        3S          0.00513   0.00000   0.00000   0.00009  -0.00103
  17 3   H  1S          0.04359   0.00000   0.04314   0.01438  -0.00254
  18        2S          0.02508   0.00000   0.03413   0.01138  -0.00251
  19        3S          0.00513   0.00000   0.00007   0.00002  -0.00103
  20 4   H  1S          0.04359  -0.00000   0.04314   0.01438  -0.00254
  21        2S          0.02508  -0.00000   0.03413   0.01138  -0.00251
  22        3S          0.00513  -0.00000   0.00007   0.00002  -0.00103
                          11        12        13        14        15
  11        4PX         0.01370
  12        4PY         0.00000   0.00102
  13        4PZ         0.00000   0.00000   0.00102
  14 2   H  1S          0.00000   0.00000   0.00277   0.21975
  15        2S          0.00000   0.00000   0.00404   0.08973   0.09055
  16        3S          0.00000   0.00000   0.00002   0.00122   0.00125
  17 3   H  1S         -0.00000   0.00208   0.00069  -0.00044  -0.00551
  18        2S          0.00000   0.00303   0.00101  -0.00551  -0.01310
  19        3S          0.00000   0.00001   0.00000   0.00061   0.00055
  20 4   H  1S          0.00000   0.00208   0.00069  -0.00044  -0.00551
  21        2S         -0.00000   0.00303   0.00101  -0.00551  -0.01310
  22        3S         -0.00000   0.00001   0.00000   0.00061   0.00055
                          16        17        18        19        20
  16        3S          0.00040
  17 3   H  1S          0.00061   0.21975
  18        2S          0.00055   0.08973   0.09056
  19        3S          0.00030   0.00122   0.00125   0.00040
  20 4   H  1S          0.00061  -0.00044  -0.00551   0.00061   0.21975
  21        2S          0.00055  -0.00551  -0.01310   0.00055   0.08973
  22        3S          0.00030   0.00061   0.00055   0.00030   0.00122
                          21        22
  21        2S          0.09056
  22        3S          0.00125   0.00040
     Gross orbital populations:
                         Total     Alpha     Beta      Spin
   1 1   C  1S          1.99661   0.99835   0.99826   0.00008
   2        2S          0.69217   0.35702   0.33514   0.02188
   3        2PX         0.52747   0.52747   0.00000   0.52747
   4        2PY         0.73305   0.37730   0.35575   0.02156
   5        2PZ         0.73305   0.37730   0.35575   0.02156
   6        3S          0.69747   0.38767   0.30980   0.07787
   7        3PX         0.41486   0.41486   0.00000   0.41486
   8        3PY         0.33159   0.17659   0.15501   0.02158
   9        3PZ         0.33160   0.17659   0.15501   0.02158
  10        4S         -0.03623  -0.00208  -0.03415   0.03206
  11        4PX         0.05767   0.05767   0.00000   0.05767
  12        4PY         0.01963   0.00882   0.01081  -0.00199
  13        4PZ         0.01963   0.00882   0.01081  -0.00199
  14 2   H  1S          0.53061   0.25363   0.27698  -0.02335
  15        2S          0.28436   0.12073   0.16363  -0.04290
  16        3S          0.01217   0.00351   0.00866  -0.00515
  17 3   H  1S          0.53061   0.25363   0.27698  -0.02335
  18        2S          0.28437   0.12073   0.16364  -0.04290
  19        3S          0.01217   0.00351   0.00866  -0.00515
  20 4   H  1S          0.53061   0.25363   0.27698  -0.02335
  21        2S          0.28437   0.12073   0.16364  -0.04290
  22        3S          0.01217   0.00351   0.00866  -0.00515
          Condensed to atoms (all electrons):
              1          2          3          4
     1  C    5.390676   0.375965   0.375960   0.375960
     2  H    0.375965   0.495093  -0.021960  -0.021960
     3  H    0.375960  -0.021960   0.495104  -0.021955
     4  H    0.375960  -0.021960  -0.021955   0.495104
 Mulliken atomic charges:
              1
     1  C   -0.518562
     2  H    0.172861
     3  H    0.172850
     4  H    0.172850
 Sum of Mulliken atomic charges =   0.00000
 Mulliken charges with hydrogens summed into heavy atoms:
              1
     1  C    0.000000
 Sum of Mulliken charges with hydrogens summed into heavy atoms =   0.00000
          Atomic-Atomic Spin Densities.
              1          2          3          4
     1  C    1.251172  -0.012326  -0.012325  -0.012325
     2  H   -0.012326  -0.053962  -0.002556  -0.002556
     3  H   -0.012325  -0.002556  -0.053963  -0.002556
     4  H   -0.012325  -0.002556  -0.002556  -0.053963
 Mulliken atomic spin densities:
              1
     1  C    1.214197
     2  H   -0.071400
     3  H   -0.071399
     4  H   -0.071399
 Sum of Mulliken atomic spin densities =   1.00000
 Electronic spatial extent (au):  <R**2>=             30.3918
 Charge=              0.0000 electrons
 Dipole moment (field-independent basis, Debye):
    X=             -0.0000    Y=             -0.0000    Z=              0.0000  Tot=              0.0000
 Quadrupole moment (field-independent basis, Debye-Ang):
   XX=             -9.3183   YY=             -7.2198   ZZ=             -7.2198
   XY=             -0.0000   XZ=              0.0000   YZ=             -0.0000
 Traceless Quadrupole moment (field-independent basis, Debye-Ang):
   XX=             -1.3990   YY=              0.6995   ZZ=              0.6995
   XY=             -0.0000   XZ=              0.0000   YZ=             -0.0000
 Octapole moment (field-independent basis, Debye-Ang**2):
  XXX=              0.0000  YYY=              0.0000  ZZZ=              0.8935  XYY=             -0.0000
  XXY=              0.0000  XXZ=             -0.0000  XZZ=              0.0000  YZZ=              0.0000
  YYZ=             -0.8935  XYZ=             -0.0000
 Hexadecapole moment (field-independent basis, Debye-Ang**3):
 XXXX=            -13.1273 YYYY=            -15.3722 ZZZZ=            -15.3721 XXXY=              0.0000
 XXXZ=             -0.0000 YYYX=              0.0000 YYYZ=              0.0000 ZZZX=             -0.0000
 ZZZY=              0.0000 XXYY=             -5.0955 XXZZ=             -5.0954 YYZZ=             -5.1241
 XXYZ=             -0.0000 YYXZ=              0.0000 ZZXY=              0.0000
 N-N= 9.579588592757D+00 E-N=-1.635308049091D+02  KE= 5.871658747310D+01
 Symmetry A    KE= 5.470264437718D+01
 Symmetry B    KE= 4.013943095921D+00
 Orbital energies and kinetic energies (alpha):
                                 1                 2
   1         O               -10.186464         15.957914
   2         O                -0.694667          1.342147
   3         O                -0.426491          0.986090
   4         O                -0.426491          0.986089
   5         O                -0.238913          1.098027
   6         V                 0.003886          0.215346
   7         V                 0.043927          0.160855
   8         V                 0.043927          0.160852
   9         V                 0.079875          0.304980
  10         V                 0.118445          0.235109
  11         V                 0.118450          0.235111
  12         V                 0.144538          0.490093
  13         V                 0.193760          0.828766
  14         V                 0.220136          0.881702
  15         V                 0.220137          0.881703
  16         V                 0.651867          2.143285
  17         V                 0.722298          1.965416
  18         V                 0.722299          1.965418
  19         V                 1.003394          2.545231
  20         V                 1.010021          2.046357
  21         V                 1.028917          2.583918
  22         V                 1.028919          2.583914
 Orbital energies and kinetic energies (beta):
                                 1                 2
   1         O               -10.171251         15.972791
   2         O                -0.649635          1.270541
   3         O                -0.415148          0.964916
   4         O                -0.415148          0.964914
   5         V                -0.066983          0.802579
   6         V                 0.008993          0.196784
   7         V                 0.044974          0.157006
   8         V                 0.044976          0.157006
   9         V                 0.112466          0.446312
  10         V                 0.121636          0.232737
  11         V                 0.121640          0.232738
  12         V                 0.158586          0.558810
  13         V                 0.219589          0.802773
  14         V                 0.226374          0.888129
  15         V                 0.226375          0.888129
  16         V                 0.735091          2.297401
  17         V                 0.737818          1.965619
  18         V                 0.737818          1.965616
  19         V                 1.008949          2.421730
  20         V                 1.030425          2.604686
  21         V                 1.030426          2.604681
  22         V                 1.049493          2.202427
 Total kinetic energy from orbitals= 3.954342649755D+01
                          Isotropic Fermi Contact Couplings
        Atom                 a.u.       MegaHertz       Gauss      10(-4) cm-1
     1  C(13)              0.14521     163.24621      58.25031      54.45308
     2  H(1)              -0.01859     -83.10817     -29.65506     -27.72190
     3  H(1)              -0.01859     -83.10892     -29.65533     -27.72215
     4  H(1)              -0.01859     -83.10892     -29.65533     -27.72215
 --------------------------------------------------------
       Center         ----  Spin Dipole Couplings  ----
                      3XX-RR        3YY-RR        3ZZ-RR
 --------------------------------------------------------
     1   Atom        1.045260     -0.522629     -0.522631
     2   Atom       -0.009076     -0.069912      0.078988
     3   Atom       -0.009076      0.041763     -0.032687
     4   Atom       -0.009076      0.041763     -0.032687
 --------------------------------------------------------
                        XY            XZ            YZ
 --------------------------------------------------------
     1   Atom        0.000000      0.000000     -0.000000
     2   Atom        0.000000     -0.000000     -0.000000
     3   Atom        0.000000      0.000000     -0.064475
     4   Atom        0.000000     -0.000000      0.064475
 --------------------------------------------------------


 ---------------------------------------------------------------------------------
              Anisotropic Spin Dipole Couplings in Principal Axis System
 ---------------------------------------------------------------------------------

       Atom             a.u.   MegaHertz   Gauss  10(-4) cm-1        Axes

              Baa    -0.5226   -70.132   -25.025   -23.394  0.0000  0.0000  1.0000
     1 C(13)  Bbb    -0.5226   -70.132   -25.025   -23.393 -0.0000  1.0000 -0.0000
              Bcc     1.0453   140.264    50.050    46.787  1.0000  0.0000  0.0000
 
              Baa    -0.0699   -37.302   -13.310   -12.442 -0.0000  1.0000 -0.0000
     2 H(1)   Bbb    -0.0091    -4.843    -1.728    -1.615  1.0000  0.0000  0.0000
              Bcc     0.0790    42.144    15.038    14.058  0.0000  0.0000  1.0000
 
              Baa    -0.0699   -37.302   -13.310   -12.442 -0.0000  0.5000  0.8660
     3 H(1)   Bbb    -0.0091    -4.843    -1.728    -1.615  1.0000  0.0000  0.0000
              Bcc     0.0790    42.144    15.038    14.058  0.0000  0.8660 -0.5000
 
              Baa    -0.0699   -37.302   -13.310   -12.442  0.0000 -0.5000  0.8660
     4 H(1)   Bbb    -0.0091    -4.843    -1.728    -1.615  1.0000  0.0000 -0.0000
              Bcc     0.0790    42.144    15.038    14.058  0.0000  0.8660  0.5000
 

 ---------------------------------------------------------------------------------

 No NMR shielding tensors so no spin-rotation constants.
 Leave Link  601 at Sat Aug 17 23:37:36 2024, MaxMem=   13107200 cpu:       0.2
 (Enter /programs/64bit/g09/g09-gfortran/bin/l701.exe)
 Compute integral first derivatives.
 ... and contract with generalized density number  0.
 Leave Link  701 at Sat Aug 17 23:37:36 2024, MaxMem=   13107200 cpu:       0.1
 (Enter /programs/64bit/g09/g09-gfortran/bin/l702.exe)
 L702 exits ... SP integral derivatives will be done elsewhere.
 Leave Link  702 at Sat Aug 17 23:37:36 2024, MaxMem=   13107200 cpu:       0.0
 (Enter /programs/64bit/g09/g09-gfortran/bin/l703.exe)
 Compute integral first derivatives, UseDBF=F ICtDFT=           0.
 Integral derivatives from FoFDir, PRISM(SPDF).
 Calling FoFJK, ICntrl=      2127 FMM=F ISym2X=1 I1Cent= 0 IOpClX= 1 NMat=1 NMatS=1 NMatT=0.
 FoFCou: FMM=F IPFlag=           0 FMFlag=      100000 FMFlg1=         800
         NFxFlg=           0 DoJE=F BraDBF=F KetDBF=F FulRan=T
         Omega=  0.000000  0.000000  1.000000  0.000000  0.000000 ICntrl=    2127 IOpCl=  1
         NMat0=    1 NMatS0=    1 NMatT0=    0 NMatD0=    1 NMtDS0=    0 NMtDT0=    0
         I1Cent=           0 NGrid=           0.
 Petite list used in FoFCou.
 Leave Link  703 at Sat Aug 17 23:37:36 2024, MaxMem=   13107200 cpu:       0.6
 (Enter /programs/64bit/g09/g09-gfortran/bin/l716.exe)
 Dipole        =-2.99801814D-17 0.00000000D+00 1.04430006D-06
 ***** Axes restored to original set *****
 -------------------------------------------------------------------
 Center     Atomic                   Forces (Hartrees/Bohr)
 Number     Number              X              Y              Z
 -------------------------------------------------------------------
      1        6           0.000000000    0.000000000   -0.000002247
      2        1          -0.000000000    0.000000000   -0.004736741
      3        1          -0.004100558   -0.000000000    0.002369494
      4        1           0.004100558    0.000000000    0.002369494
 -------------------------------------------------------------------
 Cartesian Forces:  Max     0.004736741 RMS     0.002368102
 Leave Link  716 at Sat Aug 17 23:37:36 2024, MaxMem=   13107200 cpu:       0.0
 (Enter /programs/64bit/g09/g09-gfortran/bin/l103.exe)

 GradGradGradGradGradGradGradGradGradGradGradGradGradGradGradGradGradGrad
 Berny optimization.
 Internal  Forces:  Max     0.004736741 RMS     0.003100573
 Search for a local minimum.
 Step number   1 out of a maximum of   20
 All quantities printed in internal units (Hartrees-Bohrs-Radians)
 RMS Force = .31006D-02 SwitMx=.10000D-02 MixMth= 1
 Mixed Optimization -- RFO/linear search
 Second derivative matrix not updated -- first step.
 The second derivative matrix:
                          R1        R2        R3        A1        A2
           R1           0.34813
           R2           0.00000   0.34813
           R3           0.00000   0.00000   0.34813
           A1           0.00000   0.00000   0.00000   0.16000
           A2           0.00000   0.00000   0.00000   0.00000   0.16000
           A3           0.00000   0.00000   0.00000   0.00000   0.00000
           D1           0.00000   0.00000   0.00000   0.00000   0.00000
                          A3        D1
           A3           0.16000
           D1           0.00000   0.00235
     Eigenvalues ---    0.00235   0.16000   0.16000   0.34813   0.34813
     Eigenvalues ---    0.348131000.00000
 RFO step:  Lambda=-1.93198650D-04 EMin= 2.34830060D-03
 Linear search not attempted -- first point.
 Iteration  1 RMS(Cart)=  0.00890152 RMS(Int)=  0.00000005
 Iteration  2 RMS(Cart)=  0.00000004 RMS(Int)=  0.00000000
 ClnCor:  largest displacement from symmetrization is 2.39D-11 for atom     1.
 Variable       Old X    -DE/DX   Delta X   Delta X   Delta X     New X
                                 (Linear)    (Quad)   (Total)
    R1        2.05980  -0.00474   0.00000  -0.01360  -0.01360   2.04620
    R2        2.05980  -0.00474   0.00000  -0.01360  -0.01360   2.04620
    R3        2.05980  -0.00474   0.00000  -0.01360  -0.01360   2.04620
    A1        2.09440  -0.00000   0.00000  -0.00001  -0.00001   2.09439
    A2        2.09440  -0.00000   0.00000  -0.00001  -0.00001   2.09439
    A3        2.09440   0.00000   0.00000   0.00002   0.00002   2.09441
    D1        3.14159   0.00000   0.00000   0.00000   0.00000   3.14159
         Item               Value     Threshold  Converged?
 Maximum Force            0.004737     0.000450     NO 
 RMS     Force            0.003101     0.000300     NO 
 Maximum Displacement     0.013605     0.001800     NO 
 RMS     Displacement     0.008902     0.001200     NO 
 Predicted change in Energy=-9.665293D-05
 GradGradGradGradGradGradGradGradGradGradGradGradGradGradGradGradGradGrad

 Leave Link  103 at Sat Aug 17 23:37:36 2024, MaxMem=   13107200 cpu:       0.0
 (Enter /programs/64bit/g09/g09-gfortran/bin/l202.exe)
                          Input orientation:                          
 ---------------------------------------------------------------------
 Center     Atomic      Atomic             Coordinates (Angstroms)
 Number     Number       Type             X           Y           Z
 ---------------------------------------------------------------------
      1          6           0        0.000000   -0.000000   -0.000003
      2          1           0        0.000000    0.000000    1.082801
      3          1           0        0.937741   -0.000000   -0.541399
      4          1           0       -0.937741    0.000000   -0.541399
 ---------------------------------------------------------------------
                    Distance matrix (angstroms):
                    1          2          3          4
     1  C    0.000000
     2  H    1.082804   0.000000
     3  H    1.082805   1.875468   0.000000
     4  H    1.082805   1.875468   1.875482   0.000000
 Stoichiometry    CH3(2)
 Framework group  C2[C2(CH),X(H2)]
 Deg. of freedom     3
 Prev. full point group           C2      NOp   2
 Prev. largest Abelian subgroup   C2      NOp   2
       concise Abelian subgroup   C2      NOp   2
                   Standard orientation:
 ---------------------------------------------------------------------
 Center     Atomic                     Coordinates (Angstroms)
 Number     Number                        X           Y           Z
 ---------------------------------------------------------------------
      1          6                    0.000000    0.000000   -0.000001
      2          1                    0.000000    0.000000    1.082802
      3          1                    0.000000    0.937741   -0.541397
      4          1                    0.000000   -0.937741   -0.541397
 ---------------------------------------------------------------------
 Rotational constants (GHZ):    285.1311784    285.1257725    142.5642377
 Leave Link  202 at Sat Aug 17 23:37:36 2024, MaxMem=   13107200 cpu:       0.0
 (Enter /programs/64bit/g09/g09-gfortran/bin/l301.exe)
 Standard basis: 6-31++G (6D, 7F)
 Ernie: Thresh=  0.10000D-02 Tol=  0.10000D-05 Strict=F.
 There are    13 symmetry adapted basis functions of A   symmetry.
 There are     9 symmetry adapted basis functions of B   symmetry.
 Integral buffers will be    131072 words long.
 Raffenetti 2 integral format.
 Two-electron integral symmetry is turned on.
    22 basis functions,    41 primitive gaussians,    22 cartesian basis functions
     5 alpha electrons        4 beta electrons
       nuclear repulsion energy         9.6432462081 Hartrees.
 IExCor=  408 DFT=T Ex+Corr=B3PW91 ExCW=0 ScaHFX=  0.200000
 ScaDFX=  0.800000  0.720000  1.000000  0.810000 ScalE2=  1.000000  1.000000
 IRadAn=      0 IRanWt=     -1 IRanGd=            0 ICorTp=0
 NAtoms=    4 NActive=    4 NUniq=    3 SFac= 1.33D+00 NAtFMM=   80 NAOKFM=F Big=F
 Leave Link  301 at Sat Aug 17 23:37:37 2024, MaxMem=   13107200 cpu:       0.1
 (Enter /programs/64bit/g09/g09-gfortran/bin/l302.exe)
 NPDir=0 NMtPBC=     1 NCelOv=     1 NCel=       1 NClECP=     1 NCelD=      1
         NCelK=      1 NCelE2=     1 NClLst=     1 CellRange=     0.0.
 One-electron integrals computed using PRISM.
 One-electron integral symmetry used in STVInt
 NBasis=    22 RedAO= T  NBF=    13     9
 NBsUse=    22 1.00D-06 NBFU=    13     9
 Precomputing XC quadrature grid using
 IXCGrd= 2 IRadAn=           0 IRanWt=          -1 IRanGd=           0 AccXCQ= 1.00D-10.
 NRdTot=     255 NPtTot=       32550 NUsed=       34400 NTot=       34432
 NSgBfM=    22    22    22    22    22 NAtAll=     4     4.
 Leave Link  302 at Sat Aug 17 23:37:37 2024, MaxMem=   13107200 cpu:       0.1
 (Enter /programs/64bit/g09/g09-gfortran/bin/l303.exe)
 DipDrv:  MaxL=1.
 Leave Link  303 at Sat Aug 17 23:37:37 2024, MaxMem=   13107200 cpu:       0.0
 (Enter /programs/64bit/g09/g09-gfortran/bin/l401.exe)
 Initial guess read from the read-write file.
 B after Tr=     0.000000    0.000000    0.000000
         Rot=    1.000000    0.000000    0.000000    0.000000 Ang=   0.00 deg.
 Guess basis will be translated and rotated to current coordinates.
 Initial guess orbital symmetries:
 Alpha Orbitals:
       Occupied  (A) (A) (A) (B) (B)
       Virtual   (A) (B) (A) (B) (B) (A) (A) (A) (B) (A) (B) (B)
                 (A) (A) (A) (B) (A)
 Beta  Orbitals:
       Occupied  (A) (A) (A) (B)
       Virtual   (B) (A) (B) (A) (B) (B) (A) (A) (A) (B) (A) (B)
                 (A) (B) (A) (B) (A) (A)
 The electronic state of the initial guess is 2-B.
 Initial guess <Sx>= 0.0000 <Sy>= 0.0000 <Sz>= 0.5000 <S**2>= 0.7537 S= 0.5018
 Leave Link  401 at Sat Aug 17 23:37:37 2024, MaxMem=   13107200 cpu:       0.1
 (Enter /programs/64bit/g09/g09-gfortran/bin/l502.exe)
 UHF open shell SCF:
 Requested convergence on RMS density matrix=1.00D-08 within 128 cycles.
 Requested convergence on MAX density matrix=1.00D-06.
 Requested convergence on             energy=1.00D-06.
 No special actions if energy rises.
 Using DIIS extrapolation, IDIIS=  1040.
 Integral symmetry usage will be decided dynamically.
        34351 words used for storage of precomputed grid.
 Keep R1 and R2 ints in memory in canonical form, NReq=976758.
 IEnd=       54291 IEndB=       54291 NGot=    13107200 MDV=    13005766
 LenX=    13005766 LenY=    13004841
 Symmetry not used in FoFDir.
 MinBra= 0 MaxBra= 1 Meth= 1.
 IRaf=       0 NMat=   1 IRICut=       1 DoRegI=T DoRafI=F ISym2E= 0 JSym2E=0.

 Cycle   1  Pass 1  IDiag  1:
 E= -39.8195781538421    
 DIIS: error= 8.40D-04 at cycle   1 NSaved=   1.
 NSaved= 1 IEnMin= 1 EnMin= -39.8195781538421     IErMin= 1 ErrMin= 8.40D-04
 ErrMax= 8.40D-04 EMaxC= 1.00D-01 BMatC= 6.97D-05 BMatP= 6.97D-05
 IDIUse=3 WtCom= 9.92D-01 WtEn= 8.40D-03
 Coeff-Com:  0.100D+01
 Coeff-En:   0.100D+01
 Coeff:      0.100D+01
 Gap=     0.245 Goal=   None    Shift=    0.000
 Gap=     0.350 Goal=   None    Shift=    0.000
 RMSDP=2.85D-04 MaxDP=2.19D-03              OVMax= 2.80D-03

 Cycle   2  Pass 1  IDiag  1:
 E= -39.8195920044131     Delta-E=       -0.000013850571 Rises=F Damp=F
 DIIS: error= 6.58D-04 at cycle   2 NSaved=   2.
 NSaved= 2 IEnMin= 2 EnMin= -39.8195920044131     IErMin= 2 ErrMin= 6.58D-04
 ErrMax= 6.58D-04 EMaxC= 1.00D-01 BMatC= 3.37D-05 BMatP= 6.97D-05
 IDIUse=3 WtCom= 9.93D-01 WtEn= 6.58D-03
 Coeff-Com:  0.393D+00 0.607D+00
 Coeff-En:   0.152D+00 0.848D+00
 Coeff:      0.391D+00 0.609D+00
 Gap=     0.243 Goal=   None    Shift=    0.000
 Gap=     0.350 Goal=   None    Shift=    0.000
 RMSDP=1.33D-04 MaxDP=1.77D-03 DE=-1.39D-05 OVMax= 1.89D-03

 Cycle   3  Pass 1  IDiag  1:
 E= -39.8196014454544     Delta-E=       -0.000009441041 Rises=F Damp=F
 DIIS: error= 1.52D-04 at cycle   3 NSaved=   3.
 NSaved= 3 IEnMin= 3 EnMin= -39.8196014454544     IErMin= 3 ErrMin= 1.52D-04
 ErrMax= 1.52D-04 EMaxC= 1.00D-01 BMatC= 1.97D-06 BMatP= 3.37D-05
 IDIUse=3 WtCom= 9.98D-01 WtEn= 1.52D-03
 Coeff-Com:  0.136D-01 0.200D+00 0.787D+00
 Coeff-En:   0.000D+00 0.000D+00 0.100D+01
 Coeff:      0.136D-01 0.199D+00 0.787D+00
 Gap=     0.243 Goal=   None    Shift=    0.000
 Gap=     0.350 Goal=   None    Shift=    0.000
 RMSDP=2.37D-05 MaxDP=2.35D-04 DE=-9.44D-06 OVMax= 2.51D-04

 Cycle   4  Pass 1  IDiag  1:
 E= -39.8196019929334     Delta-E=       -0.000000547479 Rises=F Damp=F
 DIIS: error= 7.92D-06 at cycle   4 NSaved=   4.
 NSaved= 4 IEnMin= 4 EnMin= -39.8196019929334     IErMin= 4 ErrMin= 7.92D-06
 ErrMax= 7.92D-06 EMaxC= 1.00D-01 BMatC= 4.38D-09 BMatP= 1.97D-06
 IDIUse=1 WtCom= 1.00D+00 WtEn= 0.00D+00
 Coeff-Com: -0.608D-02-0.259D-01-0.116D+00 0.115D+01
 Coeff:     -0.608D-02-0.259D-01-0.116D+00 0.115D+01
 Gap=     0.243 Goal=   None    Shift=    0.000
 Gap=     0.350 Goal=   None    Shift=    0.000
 RMSDP=2.90D-06 MaxDP=4.53D-05 DE=-5.47D-07 OVMax= 5.15D-05

 Cycle   5  Pass 1  IDiag  1:
 E= -39.8196019959332     Delta-E=       -0.000000003000 Rises=F Damp=F
 DIIS: error= 1.28D-06 at cycle   5 NSaved=   5.
 NSaved= 5 IEnMin= 5 EnMin= -39.8196019959332     IErMin= 5 ErrMin= 1.28D-06
 ErrMax= 1.28D-06 EMaxC= 1.00D-01 BMatC= 1.18D-10 BMatP= 4.38D-09
 IDIUse=1 WtCom= 1.00D+00 WtEn= 0.00D+00
 Coeff-Com:  0.128D-02 0.255D-02 0.134D-01-0.290D+00 0.127D+01
 Coeff:      0.128D-02 0.255D-02 0.134D-01-0.290D+00 0.127D+01
 Gap=     0.243 Goal=   None    Shift=    0.000
 Gap=     0.350 Goal=   None    Shift=    0.000
 RMSDP=6.13D-07 MaxDP=7.50D-06 DE=-3.00D-09 OVMax= 9.08D-06

 Cycle   6  Pass 1  IDiag  1:
 E= -39.8196019960427     Delta-E=       -0.000000000110 Rises=F Damp=F
 DIIS: error= 2.54D-07 at cycle   6 NSaved=   6.
 NSaved= 6 IEnMin= 6 EnMin= -39.8196019960427     IErMin= 6 ErrMin= 2.54D-07
 ErrMax= 2.54D-07 EMaxC= 1.00D-01 BMatC= 4.30D-12 BMatP= 1.18D-10
 IDIUse=1 WtCom= 1.00D+00 WtEn= 0.00D+00
 Coeff-Com: -0.327D-03-0.251D-03-0.195D-02 0.824D-01-0.505D+00 0.142D+01
 Coeff:     -0.327D-03-0.251D-03-0.195D-02 0.824D-01-0.505D+00 0.142D+01
 Gap=     0.243 Goal=   None    Shift=    0.000
 Gap=     0.350 Goal=   None    Shift=    0.000
 RMSDP=1.45D-07 MaxDP=1.02D-06 DE=-1.10D-10 OVMax= 1.29D-06

 Cycle   7  Pass 1  IDiag  1:
 E= -39.8196019960467     Delta-E=       -0.000000000004 Rises=F Damp=F
 DIIS: error= 1.20D-08 at cycle   7 NSaved=   7.
 NSaved= 7 IEnMin= 7 EnMin= -39.8196019960467     IErMin= 7 ErrMin= 1.20D-08
 ErrMax= 1.20D-08 EMaxC= 1.00D-01 BMatC= 1.29D-14 BMatP= 4.30D-12
 IDIUse=1 WtCom= 1.00D+00 WtEn= 0.00D+00
 Coeff-Com:  0.367D-04 0.620D-05 0.165D-03-0.933D-02 0.633D-01-0.211D+00
 Coeff-Com:  0.116D+01
 Coeff:      0.367D-04 0.620D-05 0.165D-03-0.933D-02 0.633D-01-0.211D+00
 Coeff:      0.116D+01
 Gap=     0.243 Goal=   None    Shift=    0.000
 Gap=     0.350 Goal=   None    Shift=    0.000
 RMSDP=7.29D-09 MaxDP=3.26D-08 DE=-3.95D-12 OVMax= 4.90D-08

 SCF Done:  E(UB3PW91) =  -39.8196019960     A.U. after    7 cycles
             Convg  =    0.7291D-08             -V/T =  2.0062
 <Sx>= 0.0000 <Sy>= 0.0000 <Sz>= 0.5000 <S**2>= 0.7537 S= 0.5018
 <L.S>=  0.00000000000    
 KE= 3.957279180474D+01 PE=-1.111181078546D+02 EE= 2.208246784574D+01
 Annihilation of the first spin contaminant:
 S**2 before annihilation     0.7537,   after     0.7500
 Leave Link  502 at Sat Aug 17 23:37:39 2024, MaxMem=   13107200 cpu:       2.1
 (Enter /programs/64bit/g09/g09-gfortran/bin/l701.exe)
 Compute integral first derivatives.
 ... and contract with generalized density number  0.
 Leave Link  701 at Sat Aug 17 23:37:39 2024, MaxMem=   13107200 cpu:       0.1
 (Enter /programs/64bit/g09/g09-gfortran/bin/l702.exe)
 L702 exits ... SP integral derivatives will be done elsewhere.
 Leave Link  702 at Sat Aug 17 23:37:39 2024, MaxMem=   13107200 cpu:       0.0
 (Enter /programs/64bit/g09/g09-gfortran/bin/l703.exe)
 Compute integral first derivatives, UseDBF=F ICtDFT=           0.
 Integral derivatives from FoFDir, PRISM(SPDF).
 Calling FoFJK, ICntrl=      2127 FMM=F ISym2X=1 I1Cent= 0 IOpClX= 1 NMat=1 NMatS=1 NMatT=0.
 FoFCou: FMM=F IPFlag=           0 FMFlag=      100000 FMFlg1=         800
         NFxFlg=           0 DoJE=F BraDBF=F KetDBF=F FulRan=T
         Omega=  0.000000  0.000000  1.000000  0.000000  0.000000 ICntrl=    2127 IOpCl=  1
         NMat0=    1 NMatS0=    1 NMatT0=    0 NMatD0=    1 NMtDS0=    0 NMtDT0=    0
         I1Cent=           0 NGrid=           0.
 Petite list used in FoFCou.
 Leave Link  703 at Sat Aug 17 23:37:40 2024, MaxMem=   13107200 cpu:       0.6
 (Enter /programs/64bit/g09/g09-gfortran/bin/l716.exe)
 Dipole        = 1.66400347D-31 1.56252788D-12 3.12730355D-06
 ***** Axes restored to original set *****
 -------------------------------------------------------------------
 Center     Atomic                   Forces (Hartrees/Bohr)
 Number     Number              X              Y              Z
 -------------------------------------------------------------------
      1        6           0.000000000    0.000000000   -0.000002014
      2        1           0.000000000    0.000000000    0.000274951
      3        1           0.000238149   -0.000000000   -0.000136468
      4        1          -0.000238149    0.000000000   -0.000136468
 -------------------------------------------------------------------
 Cartesian Forces:  Max     0.000274951 RMS     0.000137319
 Leave Link  716 at Sat Aug 17 23:37:40 2024, MaxMem=   13107200 cpu:       0.0
 (Enter /programs/64bit/g09/g09-gfortran/bin/l103.exe)

 GradGradGradGradGradGradGradGradGradGradGradGradGradGradGradGradGradGrad
 Berny optimization.
 Using GEDIIS/GDIIS optimizer.
 Internal  Forces:  Max     0.000274951 RMS     0.000179792
 Search for a local minimum.
 Step number   2 out of a maximum of   20
 All quantities printed in internal units (Hartrees-Bohrs-Radians)
 RMS Force = .17979D-03 SwitMx=.10000D-02 MixMth= 2
 Mixed Optimization -- En-DIIS/RFO-DIIS
 Update second derivatives using D2CorX and points    1    2
 DE= -9.17D-05 DEPred=-9.67D-05 R= 9.49D-01
 SS=  1.41D+00  RLast= 2.36D-02 DXNew= 5.0454D-01 7.0654D-02
 Trust test= 9.49D-01 RLast= 2.36D-02 DXMaxT set to 3.00D-01
 The second derivative matrix:
                          R1        R2        R3        A1        A2
           R1           0.35494
           R2           0.00680   0.35492
           R3           0.00680   0.00679   0.35492
           A1          -0.00001  -0.00001  -0.00001   0.16000
           A2          -0.00001  -0.00001  -0.00001  -0.00000   0.16000
           A3           0.00003   0.00003   0.00003   0.00000   0.00000
           D1          -0.00000  -0.00000  -0.00000  -0.00000  -0.00000
                          A3        D1
           A3           0.16000
           D1           0.00000   0.00235
 Use linear search instead of GDIIS.
     Eigenvalues ---    0.00235   0.16000   0.16000   0.34813   0.34813
     Eigenvalues ---    0.368521000.00000
[...]
              Anisotropic Spin Dipole Couplings in Principal Axis System
 ---------------------------------------------------------------------------------

       Atom             a.u.   MegaHertz   Gauss  10(-4) cm-1        Axes

              Baa    -0.5227   -70.144   -25.029   -23.398  0.0000  1.0000 -0.0000
     1 C(13)  Bbb    -0.5227   -70.144   -25.029   -23.398  1.0000 -0.0000  0.0000
              Bcc     1.0454   140.288    50.058    46.795  0.0000  0.0000  1.0000
 
              Baa    -0.0707   -37.732   -13.464   -12.586  1.0000 -0.0000  0.0000
     2 H(1)   Bbb    -0.0086    -4.569    -1.630    -1.524  0.0000  0.0000  1.0000
              Bcc     0.0793    42.301    15.094    14.110  0.0000  1.0000 -0.0000
 
              Baa    -0.0707   -37.732   -13.464   -12.586 -0.5000  0.8660  0.0000
     3 H(1)   Bbb    -0.0086    -4.569    -1.630    -1.524  0.0000  0.0000  1.0000
              Bcc     0.0793    42.301    15.094    14.110  0.8660  0.5000 -0.0000
 
              Baa    -0.0707   -37.732   -13.464   -12.586  0.5000  0.8660  0.0000
     4 H(1)   Bbb    -0.0086    -4.569    -1.630    -1.524  0.0000  0.0000  1.0000
              Bcc     0.0793    42.301    15.094    14.110  0.8660 -0.5000  0.0000
 

 ---------------------------------------------------------------------------------

 No NMR shielding tensors so no spin-rotation constants.
 Leave Link  601 at Sat Aug 17 23:37:51 2024, MaxMem=   13107200 cpu:       0.2
 (Enter /programs/64bit/g09/g09-gfortran/bin/l701.exe)
 Compute integral second derivatives.
 ... and contract with generalized density number  0.
 Leave Link  701 at Sat Aug 17 23:37:51 2024, MaxMem=   13107200 cpu:       0.1
 (Enter /programs/64bit/g09/g09-gfortran/bin/l702.exe)
 L702 exits ... SP integral derivatives will be done elsewhere.
 Leave Link  702 at Sat Aug 17 23:37:51 2024, MaxMem=   13107200 cpu:       0.0
 (Enter /programs/64bit/g09/g09-gfortran/bin/l703.exe)
 Compute integral second derivatives, UseDBF=F ICtDFT=           0.
 Integral derivatives from FoFDir, PRISM(SPDF).
 Calling FoFJK, ICntrl=    100127 FMM=F ISym2X=1 I1Cent= 0 IOpClX= 1 NMat=1 NMatS=1 NMatT=0.
 FoFCou: FMM=F IPFlag=           0 FMFlag=      100000 FMFlg1=         800
         NFxFlg=           0 DoJE=F BraDBF=F KetDBF=F FulRan=T
         Omega=  0.000000  0.000000  1.000000  0.000000  0.000000 ICntrl=  100127 IOpCl=  1
         NMat0=    1 NMatS0=    1 NMatT0=    0 NMatD0=    1 NMtDS0=    0 NMtDT0=    0
         I1Cent=           0 NGrid=           0.
 Petite list used in FoFCou.
 Leave Link  703 at Sat Aug 17 23:37:53 2024, MaxMem=   13107200 cpu:       2.3
 (Enter /programs/64bit/g09/g09-gfortran/bin/l716.exe)
 Dipole        =-6.51342554D-12-3.12014087D-06 6.59256631D-33
 Polarizability= 1.26207090D+01-5.91600659D-09 1.26210097D+01
                 1.92498884D-11 3.78369919D-10 1.06164182D+01
 Full mass-weighted force constant matrix:
 Low frequencies ---  -70.6106  -60.3327  -58.2341   -0.0013   -0.0010    0.0004
 Low frequencies ---  582.8490 1428.1886 1428.3258
 Diagonal vibrational polarizability:
        0.1276628       0.1276826      10.6221934
 Harmonic frequencies (cm**-1), IR intensities (KM/Mole), Raman scattering
 activities (A**4/AMU), depolarization ratios for plane and unpolarized
 incident light, reduced masses (AMU), force constants (mDyne/A),
 and normal coordinates:
                     1                      2                      3
                    A"                     A'                     A'
 Frequencies --   582.8486              1428.1886              1428.3258
 Red. masses --     1.2356                 1.1032                 1.1032
 Frc consts  --     0.2473                 1.3258                 1.3261
 IR Inten    --   134.0888                 8.0873                 8.0889
  Atom  AN      X      Y      Z        X      Y      Z        X      Y      Z
     1   6    -0.00  -0.00   0.14    -0.09  -0.00  -0.00    -0.00   0.09   0.00
     2   1     0.00   0.00  -0.57     0.81  -0.00   0.00     0.00   0.07  -0.00
     3   1    -0.00  -0.00  -0.57     0.15  -0.38   0.00     0.38  -0.59  -0.00
     4   1     0.00  -0.00  -0.57     0.15   0.38   0.00    -0.38  -0.59  -0.00
                     4                      5                      6
                    A'                     A'                     A'
 Frequencies --  3140.5600              3334.9866              3334.9900
 Red. masses --     1.0078                 1.1172                 1.1171
 Frc consts  --     5.8567                 7.3207                 7.3206
 IR Inten    --     0.0000                 8.6637                 8.6716
  Atom  AN      X      Y      Z        X      Y      Z        X      Y      Z
     1   6    -0.00  -0.00   0.00     0.10  -0.00  -0.00     0.00   0.10   0.00
     2   1    -0.00  -0.58  -0.00     0.02   0.00   0.00     0.00  -0.81  -0.00
     3   1     0.50   0.29  -0.00    -0.60  -0.36   0.00    -0.36  -0.19  -0.00
     4   1    -0.50   0.29  -0.00    -0.60   0.36   0.00     0.36  -0.19  -0.00

 -------------------
 - Thermochemistry -
 -------------------
 Temperature   298.150 Kelvin.  Pressure   1.00000 Atm.
 Atom     1 has atomic number  6 and mass  12.00000
 Atom     2 has atomic number  1 and mass   1.00783
 Atom     3 has atomic number  1 and mass   1.00783
 Atom     4 has atomic number  1 and mass   1.00783
 Molecular mass:    15.02348 amu.
 Principal axes and moments of inertia in atomic units:
                           1         2         3
     Eigenvalues --     6.32951   6.32963  12.65914
           X            1.00000   0.00000   0.00000
           Y           -0.00000   1.00000   0.00000
           Z            0.00000  -0.00000   1.00000
 This molecule is an asymmetric top.
 Rotational symmetry number  1.
 Rotational temperatures (Kelvin)     13.68412    13.68386     6.84200
 Rotational constants (GHZ):         285.13118   285.12577   142.56424
 Zero-point vibrational energy      79252.0 (Joules/Mol)
                                   18.94168 (Kcal/Mol)
 Warning -- explicit consideration of   1 degrees of freedom as
           vibrations may cause significant error
 Vibrational temperatures:    838.59  2054.84  2055.04  4518.56  4798.30
          (Kelvin)           4798.30
 
 Zero-point correction=                           0.030185 (Hartree/Particle)
 Thermal correction to Energy=                    0.033201
 Thermal correction to Enthalpy=                  0.034145
 Thermal correction to Gibbs Free Energy=         0.010413
 Sum of electronic and zero-point Energies=            -39.789417
 Sum of electronic and thermal Energies=               -39.786401
 Sum of electronic and thermal Enthalpies=             -39.785457
 Sum of electronic and thermal Free Energies=          -39.809189
 
                     E (Thermal)             CV                S
                      KCal/Mol        Cal/Mol-Kelvin    Cal/Mol-Kelvin
 Total                   20.834              7.222             49.949
 Electronic               0.000              0.000              1.377
 Translational            0.889              2.981             34.068
 Rotational               0.889              2.981             13.992
 Vibrational             19.056              1.261              0.512
 Vibration     1          0.940              1.068              0.480
                       Q            Log10(Q)             Ln(Q)
 Total Bot       0.162371D-04         -4.789493        -11.028215
 Total V=0       0.124406D+10          9.094840         20.941643
 Vib (Bot)       0.139137D-13        -13.856557        -31.905900
 Vib (Bot)    1  0.260698D+00         -0.583863         -1.344394
 Vib (V=0)       0.106605D+01          0.027776          0.063957
 Vib (V=0)    1  0.106388D+01          0.026894          0.061925
 Electronic      0.200000D+01          0.301030          0.693147
 Translational   0.228882D+07          6.359611         14.643545
 Rotational      0.254931D+03          2.406423          5.540994
 
                                          methyl with imposed symmetry and 6-31++
 G basis set
                                                             IR Spectrum
 
      3      3                                                                1                                                      
      3      1                                                                4                               5                      
      3      4                                                                2                               8                      
      5      1                                                                8                               3                      
 
      X                                                                       X                               X                      
      X                                                                       X                               X                      
      X                                                                                                       X                      
                                                                                                              X                      
                                                                                                              X                      
                                                                                                              X                      
                                                                                                              X                      
                                                                                                              X                      
                                                                                                              X                      
                                                                                                              X                      
                                                                                                              X                      
                                                                                                              X                      
                                                                                                              X                      
                                                                                                              X                      
                                                                                                              X                      
                                                                                                              X                      
                                                                                                              X                      
                                                                                                              X                      
                                                                                                              X                      
                                                                                                              X                      
 
 ***** Axes restored to original set *****
 -------------------------------------------------------------------
 Center     Atomic                   Forces (Hartrees/Bohr)
 Number     Number              X              Y              Z
 -------------------------------------------------------------------
      1        6           0.000000000    0.000000000   -0.000002016
      2        1          -0.000000000   -0.000000000    0.000274951
      3        1           0.000238149    0.000000000   -0.000136468
      4        1          -0.000238149   -0.000000000   -0.000136468
 -------------------------------------------------------------------
 Cartesian Forces:  Max     0.000274951 RMS     0.000137319
 Force constants in Cartesian coordinates: 
                1             2             3             4             5 
      1  0.627076D+00
      2  0.000000D+00  0.310470D-01
      3  0.000000D+00  0.000000D+00  0.627041D+00
      4 -0.545127D-01  0.000000D+00  0.000000D+00  0.467220D-01
      5  0.000000D+00 -0.103679D-01  0.000000D+00  0.000000D+00  0.337603D-02
      6  0.000000D+00  0.000000D+00 -0.363519D+00  0.000000D+00  0.000000D+00
      7 -0.286282D+00  0.000000D+00  0.133785D+00  0.389536D-02  0.000000D+00
      8  0.000000D+00 -0.103396D-01  0.000000D+00  0.000000D+00  0.349592D-02
      9  0.133787D+00  0.000000D+00 -0.131761D+00  0.248125D-01  0.000000D+00
     10 -0.286282D+00  0.000000D+00 -0.133785D+00  0.389536D-02  0.000000D+00
     11  0.000000D+00 -0.103396D-01  0.000000D+00  0.000000D+00  0.349592D-02
     12 -0.133787D+00  0.000000D+00 -0.131761D+00 -0.248125D-01  0.000000D+00
                6             7             8             9            10 
      6  0.378172D+00
      7 -0.537911D-02  0.295322D+00
      8  0.000000D+00  0.000000D+00  0.332675D-02
      9 -0.732642D-02 -0.143502D+00  0.000000D+00  0.129582D+00
     10  0.537911D-02 -0.129362D-01  0.000000D+00 -0.150970D-01  0.295322D+00
     11  0.000000D+00  0.000000D+00  0.351691D-02  0.000000D+00  0.000000D+00
     12 -0.732642D-02  0.150970D-01  0.000000D+00  0.950566D-02  0.143502D+00
               11            12 
     11  0.332675D-02
     12  0.000000D+00  0.129582D+00
 Force constants in internal coordinates: 
                1             2             3             4             5 
      1  0.378172D+00
      2 -0.995305D-03  0.378164D+00
      3 -0.995305D-03 -0.995688D-03  0.378164D+00
      4  0.616209D-02  0.615151D-02 -0.123227D-01  0.654107D-01
      5  0.616209D-02 -0.123227D-01  0.615151D-02 -0.327004D-01  0.654107D-01
      6 -0.123242D-01  0.617120D-02  0.617120D-02 -0.327103D-01 -0.327103D-01
      7  0.000000D+00  0.000000D+00  0.000000D+00  0.000000D+00  0.000000D+00
                6             7 
      6  0.654206D-01
      7  0.000000D+00  0.109731D-01
 Leave Link  716 at Sat Aug 17 23:37:53 2024, MaxMem=   13107200 cpu:       0.0
 (Enter /programs/64bit/g09/g09-gfortran/bin/l103.exe)

 GradGradGradGradGradGradGradGradGradGradGradGradGradGradGradGradGradGrad
 Berny optimization.
 Internal  Forces:  Max     0.000274951 RMS     0.000179792
 Search for a local minimum.
 Step number   1 out of a maximum of    2
 All quantities printed in internal units (Hartrees-Bohrs-Radians)
 Second derivative matrix not updated -- analytic derivatives used.
 The second derivative matrix:
                          R1        R2        R3        A1        A2
           R1           0.37817
           R2          -0.00100   0.37816
           R3          -0.00100  -0.00100   0.37816
           A1           0.00616   0.00615  -0.01232   0.06541
           A2           0.00616  -0.01232   0.00615  -0.03270   0.06541
           A3          -0.01232   0.00617   0.00617  -0.03271  -0.03271
           D1           0.00000   0.00000   0.00000   0.00000  -0.00000
                          A3        D1
           A3           0.06542
           D1          -0.00000   0.01097
     Eigenvalues ---    0.01097   0.09690   0.09692   0.37618   0.38037
     Eigenvalues ---    0.380381000.00000
 Angle between quadratic step and forces=   0.51 degrees.
 Linear search not attempted -- first point.
 Iteration  1 RMS(Cart)=  0.00047797 RMS(Int)=  0.00000000
 Iteration  2 RMS(Cart)=  0.00000000 RMS(Int)=  0.00000000
 ClnCor:  largest displacement from symmetrization is 1.85D-10 for atom     1.
 Variable       Old X    -DE/DX   Delta X   Delta X   Delta X     New X
                                 (Linear)    (Quad)   (Total)
    R1        2.04620   0.00027   0.00000   0.00073   0.00073   2.04693
    R2        2.04620   0.00027   0.00000   0.00073   0.00073   2.04693
    R3        2.04620   0.00027   0.00000   0.00073   0.00073   2.04693
    A1        2.09439  -0.00000   0.00000  -0.00001  -0.00001   2.09438
    A2        2.09439  -0.00000   0.00000  -0.00001  -0.00001   2.09438
    A3        2.09441   0.00000   0.00000   0.00001   0.00001   2.09442
    D1        3.14159   0.00000   0.00000  -0.00000   0.00000   3.14159
         Item               Value     Threshold  Converged?
 Maximum Force            0.000275     0.000450     YES
 RMS     Force            0.000180     0.000300     YES
 Maximum Displacement     0.000725     0.001800     YES
 RMS     Displacement     0.000478     0.001200     YES
 Predicted change in Energy=-3.007660D-07
 Optimization completed.
    -- Stationary point found.
                           ----------------------------
                           !   Optimized Parameters   !
                           ! (Angstroms and Degrees)  !
 --------------------------                            --------------------------
 ! Name  Definition              Value          Derivative Info.                !
 --------------------------------------------------------------------------------
 ! R1    R(1,2)                  1.0828         -DE/DX =    0.0003              !
 ! R2    R(1,3)                  1.0828         -DE/DX =    0.0003              !
 ! R3    R(1,4)                  1.0828         -DE/DX =    0.0003              !
 ! A1    A(2,1,3)              119.9996         -DE/DX =    0.0                 !
 ! A2    A(2,1,4)              119.9996         -DE/DX =    0.0                 !
 ! A3    A(3,1,4)              120.0009         -DE/DX =    0.0                 !
 ! D1    D(2,1,4,3)            180.0            -DE/DX =    0.0                 !
 --------------------------------------------------------------------------------
 GradGradGradGradGradGradGradGradGradGradGradGradGradGradGradGradGradGrad

 Leave Link  103 at Sat Aug 17 23:37:53 2024, MaxMem=   13107200 cpu:       0.0
 (Enter /programs/64bit/g09/g09-gfortran/bin/l9999.exe)
 1\1\GINC-MOLMOD\Freq\UB3PW91\6-31++G\C1H3(2)\OSPITE\17-Aug-2024\0\\#P 
 Geom=AllCheck Guess=TCheck SCRF=Check GenChk UB3PW91/6-31++G Freq\\met
 hyl with imposed symmetry and 6-31++G basis set\\0,2\C,0.,0.,-0.000003
 2367\H,0.,0.,1.0828005685\H,0.9377407549,0.,-0.5413986659\H,-0.9377407
 549,0.,-0.5413986659\\Version=EM64L-G09RevA.02\State=2-A"\HF=-39.81960
 2\S2=0.753652\S2-1=0.\S2A=0.750008\RMSD=3.399e-10\RMSF=1.373e-04\ZeroP
 oint=0.0301855\Thermal=0.0332009\Dipole=0.,0.,0.0000031\DipoleDeriv=0.
 0097959,0.,0.,0.,-0.5763407,0.,0.,0.,0.0098216,0.0726319,0.,0.,0.,0.19
 22386,0.,0.,0.,-0.0791925,-0.0412139,0.,0.0657311,0.,0.1920511,0.,0.06
 57131,0.,0.0346854,-0.0412139,0.,-0.0657311,0.,0.1920511,0.,-0.0657131
 ,0.,0.0346854\Polar=12.620709,0.,10.6164182,0.,0.,12.6210097\PG=CS [SG
 (C1H3)]\NImag=0\\0.62707603,0.,0.03104704,0.,0.,0.62704092,-0.05451272
 ,0.,0.,0.04672201,0.,-0.01036788,0.,0.,0.00337603,0.,0.,-0.36351884,0.
 ,0.,0.37817169,-0.28628166,0.,0.13378456,0.00389536,0.,-0.00537911,0.2
 9532246,0.,-0.01033958,0.,0.,0.00349592,0.,0.,0.00332675,0.13378691,0.
 ,-0.13176104,0.02481248,0.,-0.00732642,-0.14350242,0.,0.12958180,-0.28
 628166,0.,-0.13378456,0.00389536,0.,0.00537911,-0.01293616,0.,-0.01509
 697,0.29532246,0.,-0.01033958,0.,0.,0.00349592,0.,0.,0.00351691,0.,0.,
 0.00332675,-0.13378691,0.,-0.13176104,-0.02481248,0.,-0.00732642,0.015
 09697,0.,0.00950566,0.14350242,0.,0.12958180\\0.,0.,0.00000202,0.,0.,-
 0.00027495,-0.00023815,0.,0.00013647,0.00023815,0.,0.00013647\\\@


 IT IS IMPOSSIBLE TO MEDITATE ON TIME AND THE MYSTERY 
 OF NATURE WITHOUT AN OVERWHELMING EMOTION AT THE
 LIMITATIONS OF HUMAN INTELLIGENCE.

                                         -- ALFRED NORTH WHITEHEAD
 Job cpu time:  0 days  0 hours  0 minutes 12.6 seconds.
 File lengths (MBytes):  RWF=      5 Int=      0 D2E=      0 Chk=      1 Scr=      1
 Normal termination of Gaussian 09 at Sat Aug 17 23:37:53 2024.
