 H2                                                      
GAUSSIAN              1 MOL ORBITALS     14 PRIMITIVES        2 NUCLEI
  H    1    (CENTRE  1)  -0.00000000  0.00000000  0.70203220  CHARGE =  1.0
  H    2    (CENTRE  2)   0.00000000  0.00000000 -0.70203220  CHARGE =  1.0
CENTRE ASSIGNMENTS    1  1  1  1  1  1  1  2  2  2  2  2  2  2
TYPE ASSIGNMENTS      1  1  1  1  2  3  4  1  1  1  1  2  3  4
EXPONENTS  0.1873114D+02 0.2825394D+01 0.6401217D+00 0.1612778D+00 0.1100000D+01
EXPONENTS  0.1100000D+01 0.1100000D+01 0.1873114D+02 0.2825394D+01 0.6401217D+00
EXPONENTS  0.1612778D+00 0.1100000D+01 0.1100000D+01 0.1100000D+01
MO    1     MO 0.0        OCC NO =    2.0000000  ORB. ENERGY =   -0.431534
  0.69794954D-01  0.11838545D+00  0.13477765D+00  0.49068660D-01  0.00000000D+00
  0.00000000D+00 -0.24669129D-01  0.69794954D-01  0.11838545D+00  0.13477765D+00
  0.49068660D-01  0.00000000D+00  0.00000000D+00  0.24669129D-01
END DATA
 THE  HF ENERGY =     -1.178539307414 THE VIRIAL(-V/T)=   2.03152187
