 Entering Gaussian System, Link 0=/programs/64bit/g09/g09-gfortran/bin/g09
 Input=ch4_opt.com
 Output=ch4_opt.log
 Initial command:
 /programs/64bit/g09/g09-gfortran/bin/l1.exe /home/ospite/Desktop/MMfP/Project2/ch4/Gau-3511.inp -scrdir=/home/ospite/Desktop/MMfP/Project2/ch4/
 Entering Link 1 = /programs/64bit/g09/g09-gfortran/bin/l1.exe PID=      3512.
  
 Copyright (c) 1988,1990,1992,1993,1995,1998,2003,2009, Gaussian, Inc.
                  All Rights Reserved.
  
 This is part of the Gaussian(R) 09 program.  It is based on
 the Gaussian(R) 03 system (copyright 2003, Gaussian, Inc.),
 the Gaussian(R) 98 system (copyright 1998, Gaussian, Inc.),
 the Gaussian(R) 94 system (copyright 1995, Gaussian, Inc.),
 the Gaussian 92(TM) system (copyright 1992, Gaussian, Inc.),
 the Gaussian 90(TM) system (copyright 1990, Gaussian, Inc.),
 the Gaussian 88(TM) system (copyright 1988, Gaussian, Inc.),
 the Gaussian 86(TM) system (copyright 1986, Carnegie Mellon
 University), and the Gaussian 82(TM) system (copyright 1983,
 Carnegie Mellon University). Gaussian is a federally registered
 trademark of Gaussian, Inc.
  
 This software contains proprietary and confidential information,
 including trade secrets, belonging to Gaussian, Inc.
  
 This software is provided under written license and may be
 used, copied, transmitted, or stored only in accord with that
 written license.
  
 The following legend is applicable only to US Government
 contracts under FAR:
  
                    RESTRICTED RIGHTS LEGEND
  
 Use, reproduction and disclosure by the US Government is
 subject to restrictions as set forth in subparagraphs (a)
 and (c) of the Commercial Computer Software - Restricted
 Rights clause in FAR 52.227-19.
  
 Gaussian, Inc.
 340 Quinnipiac St., Bldg. 40, Wallingford CT 06492
  
  
 ---------------------------------------------------------------
 Warning -- This program may not be used in any manner that
 competes with the business of Gaussian, Inc. or will provide
 assistance to any competitor of Gaussian, Inc.  The licensee
 of this program is prohibited from giving any competitor of
 Gaussian, Inc. access to this program.  By using this program,
 the user acknowledges that Gaussian, Inc. is engaged in the
 business of creating and licensing software in the field of
 computational chemistry and represents and warrants to the
 licensee that it is not a competitor of Gaussian, Inc. and that
 it will not use this program in any manner prohibited above.
 ---------------------------------------------------------------
  

 Cite this work as:
 Gaussian 09, Revision A.02,
 M. J. Frisch, G. W. Trucks, H. B. Schlegel, G. E. Scuseria, 
 M. A. Robb, J. R. Cheeseman, G. Scalmani, V. Barone, B. Mennucci, 
 G. A. Petersson, H. Nakatsuji, M. Caricato, X. Li, H. P. Hratchian, 
 A. F. Izmaylov, J. Bloino, G. Zheng, J. L. Sonnenberg, M. Hada, 
 M. Ehara, K. Toyota, R. Fukuda, J. Hasegawa, M. Ishida, T. Nakajima, 
 Y. Honda, O. Kitao, H. Nakai, T. Vreven, J. A. Montgomery, Jr., 
 J. E. Peralta, F. Ogliaro, M. Bearpark, J. J. Heyd, E. Brothers, 
 K. N. Kudin, V. N. Staroverov, R. Kobayashi, J. Normand, 
 K. Raghavachari, A. Rendell, J. C. Burant, S. S. Iyengar, J. Tomasi, 
 M. Cossi, N. Rega, J. M. Millam, M. Klene, J. E. Knox, J. B. Cross, 
 V. Bakken, C. Adamo, J. Jaramillo, R. Gomperts, R. E. Stratmann, 
 O. Yazyev, A. J. Austin, R. Cammi, C. Pomelli, J. W. Ochterski, 
 R. L. Martin, K. Morokuma, V. G. Zakrzewski, G. A. Voth, 
 P. Salvador, J. J. Dannenberg, S. Dapprich, A. D. Daniels, 
 O. Farkas, J. B. Foresman, J. V. Ortiz, J. Cioslowski, 
 and D. J. Fox, Gaussian, Inc., Wallingford CT, 2009.
 
 ******************************************
 Gaussian 09:  EM64L-G09RevA.02 11-Jun-2009
                14-Aug-2024 
 ******************************************
 %chk=tmp
 %mem=100MB
 ----------------------------------------------
 #p B3LYP/6-31+g(d,p) opt freq pop=full gfinput
 ----------------------------------------------
 1/14=-1,18=20,19=15,26=3,38=1/1,3;
 2/9=110,12=2,17=6,18=5,40=1/2;
 3/5=1,6=6,7=111,11=2,16=1,24=10,25=1,30=1,71=1,74=-5/1,2,3;
 4//1;
 5/5=2,38=5/2;
 6/7=3,28=1/1;
 7//1,2,3,16;
 1/14=-1,18=20,19=15/3(2);
 2/9=110/2;
 99//99;
 2/9=110/2;
 3/5=1,6=6,7=111,11=2,16=1,25=1,30=1,71=1,74=-5/1,2,3;
 4/5=5,16=3/1;
 5/5=2,38=5/2;
 7//1,2,3,16;
 1/14=-1,18=20,19=15/3(-5);
 2/9=110/2;
 6/7=3,19=2,28=1/1;
 99/9=1/99;
 Leave Link    1 at Wed Aug 14 16:42:29 2024, MaxMem=   13107200 cpu:       0.1
 (Enter /programs/64bit/g09/g09-gfortran/bin/l101.exe)
 -------
 methane
 -------
 Symbolic Z-matrix:
 Charge =  0 Multiplicity = 1
 C1
 H1                   1    d1
 H2                   1    d2       2    a1
 H4                   1    d3       2    a2       3    t1       0
 H5                   1    d4       2    a3       3    t2       0
       Variables:
  d1                    1.09                     
  a1                  109.                       
  t1                  120.                       
  d2                    1.03                     
  a2                  110.                       
  t2                 -120.                       
  d3                    1.05                     
  d4                    1.1                      
  a3                  109.                       
 
 NAtoms=      5 NQM=      5 NQMF=      0 NMic=      0 NMicF=      0 NTot=      5.
                    Isotopes and Nuclear Properties:
 (Nuclear quadrupole moments (NQMom) in fm**2, nuclear magnetic moments (NMagM)
  in nuclear magnetons)

  Atom         1           2           3           4           5
 IAtWgt=          12           1           1           1           1
 AtmWgt=  12.0000000   1.0078250   1.0078250   1.0078250   1.0078250
 NucSpn=           0           1           1           1           1
 AtZEff=   0.0000000   0.0000000   0.0000000   0.0000000   0.0000000
 NQMom=    0.0000000   0.0000000   0.0000000   0.0000000   0.0000000
 NMagM=    0.0000000   2.7928460   2.7928460   2.7928460   2.7928460
 Leave Link  101 at Wed Aug 14 16:42:30 2024, MaxMem=   13107200 cpu:       0.3
 (Enter /programs/64bit/g09/g09-gfortran/bin/l103.exe)

 GradGradGradGradGradGradGradGradGradGradGradGradGradGradGradGradGradGrad
 Berny optimization.
 Initialization pass.
                           ----------------------------
                           !    Initial Parameters    !
                           ! (Angstroms and Degrees)  !
 --------------------------                            --------------------------
 ! Name  Definition              Value          Derivative Info.                !
 --------------------------------------------------------------------------------
 ! R1    R(1,2)                  1.09           estimate D2E/DX2                !
 ! R2    R(1,3)                  1.03           estimate D2E/DX2                !
 ! R3    R(1,4)                  1.05           estimate D2E/DX2                !
 ! R4    R(1,5)                  1.1            estimate D2E/DX2                !
 ! A1    A(2,1,3)              109.0            estimate D2E/DX2                !
 ! A2    A(2,1,4)              110.0            estimate D2E/DX2                !
 ! A3    A(2,1,5)              109.0            estimate D2E/DX2                !
 ! A4    A(3,1,4)              109.4447         estimate D2E/DX2                !
 ! A5    A(3,1,5)              109.9383         estimate D2E/DX2                !
 ! A6    A(4,1,5)              109.4447         estimate D2E/DX2                !
 ! D1    D(2,1,4,3)           -119.7299         estimate D2E/DX2                !
 ! D2    D(2,1,5,3)            119.4187         estimate D2E/DX2                !
 ! D3    D(2,1,5,4)           -120.3424         estimate D2E/DX2                !
 ! D4    D(3,1,5,4)            120.2389         estimate D2E/DX2                !
 --------------------------------------------------------------------------------
 Trust Radius=3.00D-01 FncErr=1.00D-07 GrdErr=1.00D-06
 Number of steps in this run=  24 maximum allowed number of steps= 100.
 GradGradGradGradGradGradGradGradGradGradGradGradGradGradGradGradGradGrad

 Leave Link  103 at Wed Aug 14 16:42:30 2024, MaxMem=   13107200 cpu:       0.0
 (Enter /programs/64bit/g09/g09-gfortran/bin/l202.exe)
                          Input orientation:                          
 ---------------------------------------------------------------------
 Center     Atomic      Atomic             Coordinates (Angstroms)
 Number     Number       Type             X           Y           Z
 ---------------------------------------------------------------------
      1          6           0        0.000000    0.000000    0.000000
      2          1           0        0.000000    0.000000    1.090000
      3          1           0        0.973884    0.000000   -0.335335
      4          1           0       -0.493339   -0.854488   -0.359121
      5          1           0       -0.520035    0.900727   -0.358125
 ---------------------------------------------------------------------
                    Distance matrix (angstroms):
                    1          2          3          4          5
     1  C    0.000000
     2  H    1.090000   0.000000
     3  H    1.030000   1.726277   0.000000
     4  H    1.050000   1.753136   1.698075   0.000000
     5  H    1.100000   1.782922   1.744599   1.755418   0.000000
 Stoichiometry    CH4
 Framework group  C1[X(CH4)]
 Deg. of freedom     9
 Full point group                 C1      NOp   1
 Largest Abelian subgroup         C1      NOp   1
 Largest concise Abelian subgroup C1      NOp   1
                         Standard orientation:                         
 ---------------------------------------------------------------------
 Center     Atomic      Atomic             Coordinates (Angstroms)
 Number     Number       Type             X           Y           Z
 ---------------------------------------------------------------------
      1          6           0        0.001713    0.006366    0.002743
      2          1           0        0.763439   -0.733823   -0.242196
      3          1           0        0.164913    0.351575    0.959349
      4          1           0        0.051267    0.809443   -0.671877
      5          1           0       -0.989897   -0.465388   -0.061732
 ---------------------------------------------------------------------
 Rotational constants (GHZ):    168.9202733    165.6661572    160.3698003
 Leave Link  202 at Wed Aug 14 16:42:30 2024, MaxMem=   13107200 cpu:       0.0
 (Enter /programs/64bit/g09/g09-gfortran/bin/l301.exe)
 Standard basis: 6-31+G(d,p) (6D, 7F)
 Ernie: Thresh=  0.10000D-02 Tol=  0.10000D-05 Strict=F.
 AO basis set in the form of general basis input (Overlap normalization):
      1 0
 S   6 1.00       0.000000000000
      0.3047524880D+04  0.1834737132D-02
      0.4573695180D+03  0.1403732281D-01
      0.1039486850D+03  0.6884262226D-01
      0.2921015530D+02  0.2321844432D+00
      0.9286662960D+01  0.4679413484D+00
      0.3163926960D+01  0.3623119853D+00
 SP   3 1.00       0.000000000000
      0.7868272350D+01 -0.1193324198D+00  0.6899906659D-01
      0.1881288540D+01 -0.1608541517D+00  0.3164239610D+00
      0.5442492580D+00  0.1143456438D+01  0.7443082909D+00
 SP   1 1.00       0.000000000000
      0.1687144782D+00  0.1000000000D+01  0.1000000000D+01
 SP   1 1.00       0.000000000000
      0.4380000000D-01  0.1000000000D+01  0.1000000000D+01
 D   1 1.00       0.000000000000
      0.8000000000D+00  0.1000000000D+01
 ****
      2 0
 S   3 1.00       0.000000000000
      0.1873113696D+02  0.3349460434D-01
      0.2825394365D+01  0.2347269535D+00
      0.6401216923D+00  0.8137573261D+00
 S   1 1.00       0.000000000000
      0.1612777588D+00  0.1000000000D+01
 P   1 1.00       0.000000000000
      0.1100000000D+01  0.1000000000D+01
 ****
      3 0
 S   3 1.00       0.000000000000
      0.1873113696D+02  0.3349460434D-01
      0.2825394365D+01  0.2347269535D+00
      0.6401216923D+00  0.8137573261D+00
 S   1 1.00       0.000000000000
      0.1612777588D+00  0.1000000000D+01
 P   1 1.00       0.000000000000
      0.1100000000D+01  0.1000000000D+01
 ****
      4 0
 S   3 1.00       0.000000000000
      0.1873113696D+02  0.3349460434D-01
      0.2825394365D+01  0.2347269535D+00
      0.6401216923D+00  0.8137573261D+00
 S   1 1.00       0.000000000000
      0.1612777588D+00  0.1000000000D+01
 P   1 1.00       0.000000000000
      0.1100000000D+01  0.1000000000D+01
 ****
      5 0
 S   3 1.00       0.000000000000
      0.1873113696D+02  0.3349460434D-01
      0.2825394365D+01  0.2347269535D+00
      0.6401216923D+00  0.8137573261D+00
 S   1 1.00       0.000000000000
      0.1612777588D+00  0.1000000000D+01
 P   1 1.00       0.000000000000
      0.1100000000D+01  0.1000000000D+01
 ****

 There are    39 symmetry adapted basis functions of A   symmetry.
 Integral buffers will be    131072 words long.
 Raffenetti 2 integral format.
 Two-electron integral symmetry is turned on.
    39 basis functions,    60 primitive gaussians,    39 cartesian basis functions
     5 alpha electrons        5 beta electrons
       nuclear repulsion energy        13.7273810915 Hartrees.
 IExCor=  402 DFT=T Ex+Corr=B3LYP ExCW=0 ScaHFX=  0.200000
 ScaDFX=  0.800000  0.720000  1.000000  0.810000 ScalE2=  1.000000  1.000000
 IRadAn=      0 IRanWt=     -1 IRanGd=            0 ICorTp=0
 NAtoms=    5 NActive=    5 NUniq=    5 SFac= 7.50D-01 NAtFMM=   80 NAOKFM=F Big=F
 Leave Link  301 at Wed Aug 14 16:42:30 2024, MaxMem=   13107200 cpu:       0.1
 (Enter /programs/64bit/g09/g09-gfortran/bin/l302.exe)
 NPDir=0 NMtPBC=     1 NCelOv=     1 NCel=       1 NClECP=     1 NCelD=      1
         NCelK=      1 NCelE2=     1 NClLst=     1 CellRange=     0.0.
 One-electron integrals computed using PRISM.
 NBasis=    39 RedAO= T  NBF=    39
 NBsUse=    39 1.00D-06 NBFU=    39
 Precomputing XC quadrature grid using
 IXCGrd= 2 IRadAn=           0 IRanWt=          -1 IRanGd=           0 AccXCQ= 1.00D-10.
 NRdTot=     319 NPtTot=       40280 NUsed=       42591 NTot=       42623
 NSgBfM=    39    39    39    39    39 NAtAll=     5     5.
 Leave Link  302 at Wed Aug 14 16:42:30 2024, MaxMem=   13107200 cpu:       0.2
 (Enter /programs/64bit/g09/g09-gfortran/bin/l303.exe)
 DipDrv:  MaxL=1.
 Leave Link  303 at Wed Aug 14 16:42:30 2024, MaxMem=   13107200 cpu:       0.0
 (Enter /programs/64bit/g09/g09-gfortran/bin/l401.exe)
 Harris functional with IExCor=  402 diagonalized for initial guess.
 ExpMin= 4.38D-02 ExpMax= 3.05D+03 ExpMxC= 4.57D+02 IAcc=2 IRadAn=         0 AccDes= 0.00D+00
 HarFok:  IExCor=  402 AccDes= 0.00D+00 IRadAn=         0 IDoV= 1
 ScaDFX=  1.000000  1.000000  1.000000  1.000000
 FoFCou: FMM=F IPFlag=           0 FMFlag=      100000 FMFlg1=           0
         NFxFlg=           0 DoJE=T BraDBF=F KetDBF=T FulRan=T
         Omega=  0.000000  0.000000  1.000000  0.000000  0.000000 ICntrl=     500 IOpCl=  0
         NMat0=    1 NMatS0=    1 NMatT0=    0 NMatD0=    1 NMtDS0=    0 NMtDT0=    0
         I1Cent=           4 NGrid=           0.
 Petite list used in FoFCou.
 Harris En= -40.5788706628214    
 Initial guess orbital symmetries:
       Occupied  (A) (A) (A) (A) (A)
       Virtual   (A) (A) (A) (A) (A) (A) (A) (A) (A) (A) (A) (A)
                 (A) (A) (A) (A) (A) (A) (A) (A) (A) (A) (A) (A)
                 (A) (A) (A) (A) (A) (A) (A) (A) (A) (A)
 The electronic state of the initial guess is 1-A.
 Leave Link  401 at Wed Aug 14 16:42:31 2024, MaxMem=   13107200 cpu:       1.3
 (Enter /programs/64bit/g09/g09-gfortran/bin/l502.exe)
 Closed shell SCF:
 Requested convergence on RMS density matrix=1.00D-08 within 128 cycles.
 Requested convergence on MAX density matrix=1.00D-06.
 Requested convergence on             energy=1.00D-06.
 No special actions if energy rises.
 Using DIIS extrapolation, IDIIS=  1040.
 Integral symmetry usage will be decided dynamically.
        42533 words used for storage of precomputed grid.
 Keep R1 ints in memory in canonical form, NReq=1229632.
 IEnd=       65776 IEndB=       65776 NGot=    13107200 MDV=    12755007
 LenX=    12755007 LenY=    12753045
 Symmetry not used in FoFDir.
 MinBra= 0 MaxBra= 2 Meth= 1.
 IRaf=       0 NMat=   1 IRICut=       1 DoRegI=T DoRafI=F ISym2E= 0 JSym2E=0.

 Cycle   1  Pass 1  IDiag  1:
 E= -40.4185349479582    
 DIIS: error= 5.06D-02 at cycle   1 NSaved=   1.
 NSaved= 1 IEnMin= 1 EnMin= -40.4185349479582     IErMin= 1 ErrMin= 5.06D-02
 ErrMax= 5.06D-02 EMaxC= 1.00D-01 BMatC= 9.52D-02 BMatP= 9.52D-02
 IDIUse=3 WtCom= 4.94D-01 WtEn= 5.06D-01
 Coeff-Com:  0.100D+01
 Coeff-En:   0.100D+01
 Coeff:      0.100D+01
 Gap=     0.303 Goal=   None    Shift=    0.000
 GapD=    0.303 DampG=1.000 DampE=0.500 DampFc=0.5000 IDamp=-1.
 Damping current iteration by 5.00D-01
 RMSDP=1.27D-02 MaxDP=1.63D-01              OVMax= 2.17D-01

 Cycle   2  Pass 1  IDiag  1:
 E= -40.4656901294909     Delta-E=       -0.047155181533 Rises=F Damp=T
 DIIS: error= 1.22D-02 at cycle   2 NSaved=   2.
 NSaved= 2 IEnMin= 2 EnMin= -40.4656901294909     IErMin= 2 ErrMin= 1.22D-02
 ErrMax= 1.22D-02 EMaxC= 1.00D-01 BMatC= 1.78D-03 BMatP= 9.52D-02
 IDIUse=3 WtCom= 8.78D-01 WtEn= 1.22D-01
 Coeff-Com:  0.725D-01 0.927D+00
 Coeff-En:   0.122D+00 0.878D+00
 Coeff:      0.786D-01 0.921D+00
 Gap=     0.402 Goal=   None    Shift=    0.000
 RMSDP=1.15D-03 MaxDP=9.32D-03 DE=-4.72D-02 OVMax= 1.16D-01

 Cycle   3  Pass 1  IDiag  1:
 E= -40.5220975849173     Delta-E=       -0.056407455426 Rises=F Damp=F
 DIIS: error= 5.11D-04 at cycle   3 NSaved=   3.
 NSaved= 3 IEnMin= 3 EnMin= -40.5220975849173     IErMin= 3 ErrMin= 5.11D-04
 ErrMax= 5.11D-04 EMaxC= 1.00D-01 BMatC= 8.37D-06 BMatP= 1.78D-03
 IDIUse=3 WtCom= 9.95D-01 WtEn= 5.11D-03
 Coeff-Com:  0.488D-02-0.355D-01 0.103D+01
 Coeff-En:   0.000D+00 0.000D+00 0.100D+01
 Coeff:      0.485D-02-0.353D-01 0.103D+01
 Gap=     0.408 Goal=   None    Shift=    0.000
 RMSDP=5.68D-05 MaxDP=8.82D-04 DE=-5.64D-02 OVMax= 6.52D-04

 Cycle   4  Pass 1  IDiag  1:
 E= -40.5221031953683     Delta-E=       -0.000005610451 Rises=F Damp=F
 DIIS: error= 1.01D-04 at cycle   4 NSaved=   4.
 NSaved= 4 IEnMin= 4 EnMin= -40.5221031953683     IErMin= 4 ErrMin= 1.01D-04
 ErrMax= 1.01D-04 EMaxC= 1.00D-01 BMatC= 3.53D-07 BMatP= 8.37D-06
 IDIUse=3 WtCom= 9.99D-01 WtEn= 1.01D-03
 Coeff-Com:  0.202D-02-0.633D-02 0.168D+00 0.836D+00
 Coeff-En:   0.000D+00 0.000D+00 0.000D+00 0.100D+01
 Coeff:      0.202D-02-0.633D-02 0.168D+00 0.836D+00
 Gap=     0.408 Goal=   None    Shift=    0.000
 RMSDP=1.24D-05 MaxDP=1.36D-04 DE=-5.61D-06 OVMax= 2.27D-04

 Cycle   5  Pass 1  IDiag  1:
 E= -40.5221035776780     Delta-E=       -0.000000382310 Rises=F Damp=F
 DIIS: error= 1.75D-05 at cycle   5 NSaved=   5.
 NSaved= 5 IEnMin= 5 EnMin= -40.5221035776780     IErMin= 5 ErrMin= 1.75D-05
 ErrMax= 1.75D-05 EMaxC= 1.00D-01 BMatC= 9.72D-09 BMatP= 3.53D-07
 IDIUse=1 WtCom= 1.00D+00 WtEn= 0.00D+00
 Coeff-Com:  0.475D-03-0.393D-03 0.102D-01 0.177D+00 0.813D+00
 Coeff:      0.475D-03-0.393D-03 0.102D-01 0.177D+00 0.813D+00
 Gap=     0.408 Goal=   None    Shift=    0.000
 RMSDP=2.45D-06 MaxDP=1.84D-05 DE=-3.82D-07 OVMax= 4.23D-05

 Cycle   6  Pass 1  IDiag  1:
 E= -40.5221035886324     Delta-E=       -0.000000010954 Rises=F Damp=F
 DIIS: error= 7.36D-07 at cycle   6 NSaved=   6.
 NSaved= 6 IEnMin= 6 EnMin= -40.5221035886324     IErMin= 6 ErrMin= 7.36D-07
 ErrMax= 7.36D-07 EMaxC= 1.00D-01 BMatC= 2.83D-11 BMatP= 9.72D-09
 IDIUse=1 WtCom= 1.00D+00 WtEn= 0.00D+00
 Coeff-Com: -0.880D-05 0.207D-04-0.166D-02-0.649D-02 0.416D-01 0.967D+00
 Coeff:     -0.880D-05 0.207D-04-0.166D-02-0.649D-02 0.416D-01 0.967D+00
 Gap=     0.408 Goal=   None    Shift=    0.000
 RMSDP=1.83D-07 MaxDP=1.92D-06 DE=-1.10D-08 OVMax= 2.87D-06

 Cycle   7  Pass 1  IDiag  1:
 E= -40.5221035886658     Delta-E=       -0.000000000033 Rises=F Damp=F
 DIIS: error= 4.39D-08 at cycle   7 NSaved=   7.
 NSaved= 7 IEnMin= 7 EnMin= -40.5221035886658     IErMin= 7 ErrMin= 4.39D-08
 ErrMax= 4.39D-08 EMaxC= 1.00D-01 BMatC= 1.06D-13 BMatP= 2.83D-11
 IDIUse=1 WtCom= 1.00D+00 WtEn= 0.00D+00
 Coeff-Com: -0.807D-06-0.241D-06-0.777D-04-0.514D-03-0.809D-03 0.314D-01
 Coeff-Com:  0.970D+00
 Coeff:     -0.807D-06-0.241D-06-0.777D-04-0.514D-03-0.809D-03 0.314D-01
 Coeff:      0.970D+00
 Gap=     0.408 Goal=   None    Shift=    0.000
 RMSDP=1.26D-08 MaxDP=1.09D-07 DE=-3.35D-11 OVMax= 1.65D-07

 Cycle   8  Pass 1  IDiag  1:
 E= -40.5221035886659     Delta-E=       -0.000000000000 Rises=F Damp=F
 DIIS: error= 1.28D-08 at cycle   8 NSaved=   8.
 NSaved= 8 IEnMin= 8 EnMin= -40.5221035886659     IErMin= 8 ErrMin= 1.28D-08
 ErrMax= 1.28D-08 EMaxC= 1.00D-01 BMatC= 7.21D-15 BMatP= 1.06D-13
 IDIUse=1 WtCom= 1.00D+00 WtEn= 0.00D+00
 Coeff-Com:  0.423D-07-0.516D-06 0.155D-04 0.110D-05-0.101D-02-0.119D-01
 Coeff-Com:  0.223D+00 0.789D+00
 Coeff:      0.423D-07-0.516D-06 0.155D-04 0.110D-05-0.101D-02-0.119D-01
 Coeff:      0.223D+00 0.789D+00
 Gap=     0.408 Goal=   None    Shift=    0.000
 RMSDP=2.35D-09 MaxDP=1.57D-08 DE=-8.53D-14 OVMax= 3.52D-08

 SCF Done:  E(RB3LYP) =  -40.5221035887     A.U. after    8 cycles
             Convg  =    0.2350D-08             -V/T =  2.0078
 KE= 4.020807167144D+01 PE=-1.205491380326D+02 EE= 2.609158168092D+01
 Leave Link  502 at Wed Aug 14 16:42:42 2024, MaxMem=   13107200 cpu:       9.7
 (Enter /programs/64bit/g09/g09-gfortran/bin/l601.exe)
 Copying SCF densities to generalized density rwf, IOpCl= 0 IROHF=0.

 **********************************************************************

            Population analysis using the SCF density.

 **********************************************************************

 Orbital symmetries:
       Occupied  (A) (A) (A) (A) (A)
       Virtual   (A) (A) (A) (A) (A) (A) (A) (A) (A) (A) (A) (A)
                 (A) (A) (A) (A) (A) (A) (A) (A) (A) (A) (A) (A)
                 (A) (A) (A) (A) (A) (A) (A) (A) (A) (A)
 The electronic state is 1-A.
 Alpha  occ. eigenvalues --  -10.16175  -0.70417  -0.40420  -0.39846  -0.39124
 Alpha virt. eigenvalues --    0.01719   0.06071   0.06115   0.06181   0.17980
 Alpha virt. eigenvalues --    0.18922   0.19850   0.28756   0.62638   0.63423
 Alpha virt. eigenvalues --    0.64129   0.90709   0.92047   0.93524   1.07218
 Alpha virt. eigenvalues --    1.13420   1.35425   1.35757   2.04721   2.05265
 Alpha virt. eigenvalues --    2.05942   2.07937   2.12036   2.16918   2.64808
 Alpha virt. eigenvalues --    2.65648   2.67266   2.96161   2.97481   3.22795
 Alpha virt. eigenvalues --    3.41236   3.48068   3.54037   4.42331
     Molecular Orbital Coefficients:
                           1         2         3         4         5
                           O         O         O         O         O
     Eigenvalues --   -10.16175  -0.70417  -0.40420  -0.39846  -0.39124
   1 1   C  1S          0.99278  -0.20120   0.00148   0.00219   0.00064
   2        2S          0.05029   0.38463  -0.00258  -0.00347  -0.00111
   3        2PX         0.00002   0.00456   0.08158   0.02356   0.43467
   4        2PY         0.00005   0.01128  -0.03698   0.44624  -0.01719
   5        2PZ         0.00003   0.00721   0.44595   0.03318  -0.08360
   6        3S         -0.01617   0.35107  -0.01038  -0.01814  -0.00396
   7        3PX        -0.00007   0.00074   0.03489   0.01030   0.19596
   8        3PY        -0.00015   0.00135  -0.01578   0.19368  -0.00765
   9        3PZ        -0.00011   0.00102   0.18586   0.01402  -0.03666
  10        4S         -0.00071   0.01476  -0.00213  -0.00406  -0.00089
  11        4PX        -0.00000   0.00025   0.00614   0.00187   0.03648
  12        4PY         0.00000   0.00062  -0.00279   0.03509  -0.00142
  13        4PZ        -0.00000   0.00040   0.03323   0.00257  -0.00692
  14        5XX        -0.00934  -0.01050  -0.00420  -0.01862  -0.00811
  15        5YY        -0.00930  -0.00989  -0.00986   0.00232   0.00673
  16        5ZZ        -0.00926  -0.00946   0.01370   0.01551   0.00128
  17        5XY         0.00000   0.00004  -0.00066   0.00550  -0.01978
  18        5XZ         0.00001   0.00028   0.00502   0.00353  -0.00485
  19        5YZ        -0.00000   0.00001   0.01936  -0.00969   0.00024
  20 2   H  1S         -0.00023   0.13446  -0.01471  -0.19849   0.22401
  21        2S          0.00306   0.03386  -0.01148  -0.15569   0.17945
  22        3PX         0.00010  -0.00900   0.00198   0.00752   0.00027
  23        3PY        -0.00008   0.00907  -0.00108   0.00168   0.00766
  24        3PZ        -0.00003   0.00312   0.00847  -0.00166   0.00108
  25 3   H  1S         -0.00029   0.15314   0.27194   0.11929  -0.01128
  26        2S          0.00347   0.03642   0.20700   0.09237  -0.00910
  27        3PX         0.00001  -0.00211  -0.00051  -0.00054   0.00916
  28        3PY         0.00002  -0.00449  -0.00548   0.00716  -0.00023
  29        3PZ         0.00006  -0.01306  -0.00396  -0.00531  -0.00132
  30 4   H  1S         -0.00028   0.14642  -0.20771   0.21022   0.04052
  31        2S          0.00331   0.03556  -0.15867   0.16313   0.03209
  32        3PX         0.00001  -0.00057   0.00214  -0.00003   0.00875
  33        3PY         0.00007  -0.01026   0.00734   0.00053  -0.00195
  34        3PZ        -0.00006   0.00905   0.00216   0.00795  -0.00033
  35 5   H  1S         -0.00022   0.13135  -0.05691  -0.14552  -0.25609
  36        2S          0.00299   0.03349  -0.04404  -0.11432  -0.20561
  37        3PX        -0.00013   0.01164  -0.00107  -0.00625  -0.00373
  38        3PY        -0.00006   0.00573  -0.00195   0.00530  -0.00612
  39        3PZ        -0.00000   0.00088   0.00829   0.00019  -0.00241
                           6         7         8         9        10
                           V         V         V         V         V
     Eigenvalues --     0.01719   0.06071   0.06115   0.06181   0.17980
   1 1   C  1S          0.08613  -0.00108  -0.00184  -0.00045   0.00293
   2        2S         -0.17859   0.00082   0.00115   0.00037  -0.00475
   3        2PX         0.00380  -0.03679  -0.01355  -0.17626   0.31919
   4        2PY         0.01125   0.01768  -0.17592   0.00972  -0.00359
   5        2PZ         0.00556  -0.16728  -0.01528   0.03648  -0.04409
   6        3S         -0.56245   0.01712   0.03023   0.00614  -0.02050
   7        3PX         0.01213  -0.03500  -0.01333  -0.18069   1.36241
   8        3PY         0.03099   0.01577  -0.16627   0.00968  -0.01412
   9        3PZ         0.01798  -0.14176  -0.01385   0.03405  -0.18926
  10        4S          1.50056  -0.01401  -0.02056  -0.00476  -0.04294
  11        4PX         0.00652   0.23952   0.08781   1.14979   0.31118
  12        4PY         0.01171  -0.11897   1.16735  -0.06459  -0.00271
  13        4PZ         0.00941   1.14111   0.10251  -0.24673  -0.03577
  14        5XX         0.01142   0.00167   0.00883   0.00371   0.01200
  15        5YY         0.01148   0.00443  -0.00172  -0.00355  -0.00798
  16        5ZZ         0.01158  -0.00675  -0.00811  -0.00042  -0.00331
  17        5XY         0.00002   0.00056  -0.00255   0.00987   0.02579
  18        5XZ        -0.00000  -0.00236  -0.00174   0.00246   0.00643
  19        5YZ         0.00004  -0.00943   0.00449   0.00004  -0.00123
  20 2   H  1S          0.01067   0.00098   0.03531  -0.04362  -0.12668
  21        2S         -0.09607   0.00724   0.15614  -0.18170  -1.41523
  22        3PX         0.00949   0.00047  -0.00331   0.00667   0.00576
  23        3PY        -0.00874  -0.00025   0.00618  -0.00410   0.00695
  24        3PZ        -0.00284   0.00288   0.00136  -0.00193   0.00053
  25 3   H  1S          0.00181  -0.05510  -0.02626   0.00423  -0.00040
  26        2S         -0.14429  -0.23334  -0.10458   0.01900  -0.01516
  27        3PX         0.00233   0.00153   0.00069   0.00197   0.01333
  28        3PY         0.00504   0.00214   0.00326  -0.00025  -0.00012
  29        3PZ         0.01315   0.00881   0.00323  -0.00090  -0.00214
  30 4   H  1S          0.00493   0.04114  -0.04205  -0.00874  -0.02014
  31        2S         -0.12593   0.17967  -0.17191  -0.03582  -0.23387
  32        3PX         0.00077   0.00020   0.00042   0.00230   0.01335
  33        3PY         0.01082  -0.00445   0.00655   0.00064  -0.00164
  34        3PZ        -0.00862   0.00601  -0.00328  -0.00120  -0.00069
  35 5   H  1S          0.01238   0.01019   0.02672   0.04699   0.15862
  36        2S         -0.08668   0.04633   0.11978   0.19806   1.75209
  37        3PX        -0.01183   0.00202   0.00374   0.00853   0.00163
  38        3PY        -0.00533   0.00040   0.00454   0.00262  -0.00555
  39        3PZ        -0.00059   0.00308   0.00050  -0.00026  -0.00251
                          11        12        13        14        15
                           V         V         V         V         V
     Eigenvalues --     0.18922   0.19850   0.28756   0.62638   0.63423
   1 1   C  1S          0.01067  -0.00682  -0.15610  -0.00179  -0.00281
   2        2S         -0.01701   0.01056   0.19125  -0.00565  -0.01293
   3        2PX         0.00607  -0.04207   0.00553  -0.08806  -0.03807
   4        2PY         0.31193   0.02451   0.01054   0.00870  -0.90292
   5        2PZ         0.02344  -0.29863   0.00892  -0.86746  -0.00568
   6        3S         -0.06963   0.05698   3.41164   0.05344   0.08200
   7        3PX         0.02924  -0.20935   0.07057   0.17195   0.07037
   8        3PY         1.43946   0.12439   0.17052  -0.01679   1.65638
   9        3PZ         0.10701  -1.49829   0.11948   1.61359   0.01024
  10        4S         -0.16086   0.09300   1.84485  -0.00448  -0.02007
  11        4PX         0.00693  -0.04740   0.01053  -0.05806  -0.02385
  12        4PY         0.31135   0.02522   0.01810   0.00633  -0.58476
  13        4PZ         0.02182  -0.29216   0.01624  -0.60010  -0.00319
  14        5XX         0.02171  -0.00447  -0.01004   0.00904   0.03453
  15        5YY        -0.00048  -0.01165  -0.01182   0.01885  -0.00496
  16        5ZZ        -0.01906   0.01467  -0.01345  -0.02592  -0.02695
  17        5XY        -0.00677   0.00011   0.00002  -0.00255  -0.01009
  18        5XZ        -0.00434   0.00542  -0.00082  -0.01014  -0.00599
  19        5YZ         0.01290   0.02147  -0.00001  -0.03352   0.02068
  20 2   H  1S          0.12507  -0.01863  -0.05925   0.04752   0.20303
  21        2S          1.47695  -0.22021  -1.53201  -0.00421   0.09325
  22        3PX         0.00709  -0.00252  -0.00347  -0.00382  -0.02409
  23        3PY         0.00657   0.00198   0.00442   0.00482   0.03883
  24        3PZ        -0.00137  -0.01251   0.00131   0.01658   0.00771
  25 3   H  1S         -0.05971   0.14417  -0.06584  -0.35145  -0.13430
  26        2S         -0.76083   1.93781  -1.96508  -0.08777  -0.05840
  27        3PX        -0.00047   0.00015  -0.00098   0.00809   0.00333
  28        3PY         0.01119   0.00531  -0.00149   0.01441   0.01427
  29        3PZ        -0.00440  -0.00099  -0.00488   0.04969   0.01596
  30 4   H  1S         -0.11144  -0.11951  -0.06276   0.22746  -0.27559
  31        2S         -1.39074  -1.56128  -1.77940   0.04446  -0.11850
  32        3PX        -0.00035  -0.00228   0.00017  -0.00017   0.00208
  33        3PY         0.00553  -0.00643  -0.00386  -0.02397   0.04071
  34        3PZ         0.00755  -0.00657   0.00379   0.03126  -0.02513
  35 5   H  1S          0.08572  -0.02942  -0.05833   0.04121   0.13928
  36        2S          1.00181  -0.36438  -1.46135   0.01697   0.06919
  37        3PX        -0.00559   0.00015   0.00498   0.00856   0.02381
  38        3PY         0.01031   0.00196   0.00295   0.00306   0.02660
  39        3PZ         0.00065  -0.01284   0.00102   0.01657   0.00167
                          16        17        18        19        20
                           V         V         V         V         V
     Eigenvalues --     0.64129   0.90709   0.92047   0.93524   1.07218
   1 1   C  1S         -0.00090  -0.00035  -0.00080   0.00182  -0.12499
   2        2S         -0.00172   0.02852   0.13369  -0.07012  -0.49850
   3        2PX        -0.92768  -0.54535  -0.01778   0.08905   0.02689
   4        2PY         0.03779   0.01170  -0.58301  -0.06044   0.06895
   5        2PZ         0.09325   0.09148  -0.05270   0.61609   0.04567
   6        3S          0.02334  -0.08049  -0.36856   0.18646   1.56497
   7        3PX         1.66154   0.95211   0.03086  -0.16007  -0.02632
   8        3PY        -0.06729  -0.02046   1.02934   0.10868  -0.07704
   9        3PZ        -0.15828  -0.16062   0.09189  -1.10545  -0.05155
  10        4S         -0.00249  -0.03020  -0.12705   0.07393  -0.67865
  11        4PX        -0.56858   0.36134   0.01171  -0.05388   0.00033
  12        4PY         0.02384  -0.00669   0.34371   0.03210   0.00627
  13        4PZ         0.05954  -0.04978   0.02851  -0.31015  -0.00082
  14        5XX         0.01668  -0.10814  -0.22028   0.04316  -0.06280
  15        5YY        -0.01077   0.08137   0.02304   0.12458  -0.09514
  16        5ZZ        -0.00458   0.02856   0.20604  -0.16952  -0.12369
  17        5XY         0.03741  -0.24650   0.07066   0.00309   0.00019
  18        5XZ         0.00842  -0.06032   0.04592  -0.06163  -0.01633
  19        5YZ        -0.00359   0.00904  -0.12463  -0.24521  -0.00325
  20 2   H  1S         -0.23924   0.69071  -0.67370   0.08065  -0.68791
  21        2S         -0.14071  -1.43349   1.50806  -0.20533   0.23850
  22        3PX         0.04322   0.01602  -0.07699   0.01809  -0.03054
  23        3PY        -0.02966  -0.07151   0.01348  -0.01436   0.03853
  24        3PZ        -0.01083  -0.01555   0.01947   0.05828   0.01282
  25 3   H  1S         -0.01764  -0.00787   0.33527  -0.77722  -0.73102
  26        2S         -0.02453   0.04151  -0.68307   1.77367   0.34112
  27        3PX         0.00796  -0.06338   0.00943  -0.01679  -0.01330
  28        3PY         0.00079   0.00086  -0.04157  -0.06465  -0.02447
  29        3PZ         0.00183   0.00846   0.06248  -0.09519  -0.07564
  30 4   H  1S         -0.03044   0.11035   0.60010   0.66652  -0.70161
  31        2S         -0.01180  -0.22911  -1.25334  -1.53446   0.27937
  32        3PX         0.01006  -0.06061   0.00321   0.01639   0.00125
  33        3PY         0.00281   0.01733   0.02606   0.09497  -0.04837
  34        3PZ        -0.00370  -0.00437  -0.08225  -0.02102   0.04745
  35 5   H  1S          0.26911  -0.84551  -0.47654   0.17335  -0.67784
  36        2S          0.16555   1.77012   1.07670  -0.39284   0.22391
  37        3PX         0.06003   0.05390   0.06342  -0.01438   0.03988
  38        3PY         0.02124   0.05436  -0.02765  -0.01746   0.02290
  39        3PZ         0.00184   0.01607  -0.00078   0.05830   0.00893
                          21        22        23        24        25
                           V         V         V         V         V
     Eigenvalues --     1.13420   1.35425   1.35757   2.04721   2.05265
   1 1   C  1S         -0.04384   0.00016  -0.00299   0.00029   0.00113
   2        2S         -2.23337  -0.00126  -0.04542  -0.00005  -0.00065
   3        2PX        -0.01495   0.00092  -0.00525   0.00138  -0.00392
   4        2PY        -0.03834  -0.01863  -0.00836   0.00101   0.00544
   5        2PZ        -0.02729  -0.00127  -0.00251   0.00247   0.00919
   6        3S          6.33132   0.00351   0.14180  -0.00387  -0.01444
   7        3PX         0.05776  -0.00077   0.00557  -0.07301  -0.02614
   8        3PY         0.13567   0.01596   0.00877   0.01667  -0.04000
   9        3PZ         0.09730   0.00103   0.00310  -0.00758  -0.02836
  10        4S          0.79244   0.00098   0.01042  -0.00031  -0.00083
  11        4PX         0.00888  -0.00012   0.00081   0.03403   0.01524
  12        4PY         0.01903   0.00289   0.00167  -0.00760   0.01208
  13        4PZ         0.01354   0.00015   0.00080  -0.00025   0.00317
  14        5XX        -0.08714  -0.30146  -0.09460   0.02795   0.05455
  15        5YY        -0.05964   0.46841   0.32399  -0.01999  -0.00759
  16        5ZZ        -0.01025  -0.16629  -0.23505  -0.00741  -0.04542
  17        5XY         0.00233   0.25413  -0.05560   0.09616   0.02592
  18        5XZ         0.00219  -0.26643   0.56177   0.02201  -0.00537
  19        5YZ        -0.00066   0.26944   0.06525  -0.02901   0.00172
  20 2   H  1S          0.11041  -0.00510  -0.01182   0.09720   0.00438
  21        2S         -1.63077   0.01370  -0.02606  -0.05303  -0.01316
  22        3PX         0.03352  -0.16125  -0.07602  -0.34332  -0.15437
  23        3PY        -0.03755  -0.11323  -0.13797  -0.46733  -0.03078
  24        3PZ        -0.01749  -0.14891   0.18744   0.12137  -0.40443
  25 3   H  1S          0.21404   0.00432  -0.00594   0.01016   0.03915
  26        2S         -2.02855  -0.00968  -0.04259   0.00197   0.00283
  27        3PX         0.00677  -0.09800   0.21948   0.17485   0.57937
  28        3PY         0.01782   0.21414   0.08004   0.01527   0.04407
  29        3PZ         0.06872  -0.05856  -0.06547  -0.03153  -0.09936
  30 4   H  1S          0.17569   0.00653  -0.00706  -0.01497   0.02852
  31        2S         -1.86821  -0.01674  -0.03856   0.00382  -0.01374
  32        3PX         0.00342   0.15794  -0.18493   0.51171  -0.34044
  33        3PY         0.04141   0.11536   0.10905  -0.11320  -0.00984
  34        3PZ        -0.04761   0.14447   0.11551  -0.08755  -0.05743
  35 5   H  1S          0.09524  -0.00291  -0.01350  -0.09036  -0.06240
  36        2S         -1.56891   0.00670  -0.01902   0.05089   0.03678
  37        3PX        -0.04449   0.09990   0.04229  -0.20238  -0.02816
  38        3PY        -0.02511  -0.21523  -0.05084   0.53763   0.05743
  39        3PZ        -0.00296   0.06176  -0.23606   0.00157   0.59340
                          26        27        28        29        30
                           V         V         V         V         V
     Eigenvalues --     2.05942   2.07937   2.12036   2.16918   2.64808
   1 1   C  1S         -0.00017  -0.00393  -0.01210   0.00715  -0.00611
   2        2S          0.00046   0.00192   0.01226  -0.00519   0.01824
   3        2PX         0.01517  -0.12412   0.00087   0.00814  -0.01842
   4        2PY        -0.01624   0.00004  -0.10746   0.00021  -0.09074
   5        2PZ         0.01705   0.01247  -0.00103   0.08767  -0.14148
   6        3S          0.00122   0.04840   0.13170  -0.08516   0.01839
   7        3PX        -0.06038   0.60155   0.00220  -0.06526  -0.07612
   8        3PY         0.04688   0.00702   0.64996   0.00547  -0.31867
   9        3PZ        -0.02311  -0.04973  -0.00216  -0.68711  -0.53445
  10        4S         -0.00012   0.00316   0.00578  -0.00570   0.00601
  11        4PX         0.01737  -0.20465   0.00026   0.01746  -0.00236
  12        4PY        -0.00754  -0.00120  -0.20997  -0.00047  -0.00612
  13        4PZ        -0.00389   0.01754  -0.00024   0.21095  -0.01942
  14        5XX         0.00094  -0.28061  -0.51024   0.13016  -0.32605
  15        5YY        -0.01125   0.17033   0.07146   0.27908  -0.10567
  16        5ZZ         0.01015   0.10294   0.41625  -0.39843   0.41785
  17        5XY         0.06016  -0.57086   0.17776  -0.04659   0.09663
  18        5XZ         0.01603  -0.12704   0.09641  -0.15282   0.15089
  19        5YZ        -0.02261   0.05004  -0.32934  -0.50279   0.25509
  20 2   H  1S          0.06363  -0.49123   0.45362  -0.10752   0.03457
  21        2S         -0.01413   0.18675  -0.19709   0.06282  -0.25939
  22        3PX         0.12443  -0.36164   0.05058   0.01915   0.37518
  23        3PY        -0.06204  -0.02356  -0.29726   0.02132   0.09693
  24        3PZ         0.43924   0.07265  -0.06680   0.29288   0.45442
  25 3   H  1S         -0.00995  -0.05914  -0.26050   0.69054  -0.12015
  26        2S          0.02162   0.00577   0.05694  -0.18373   0.56167
  27        3PX        -0.05216  -0.18123   0.02682   0.01559  -0.05869
  28        3PY         0.55336   0.05150  -0.28932   0.02099   0.00820
  29        3PZ        -0.19820  -0.01429  -0.02626   0.34980  -0.16373
  30 4   H  1S         -0.01426  -0.08162  -0.56133  -0.44888   0.02883
  31        2S         -0.02461   0.01806   0.15850   0.15651  -0.11730
  32        3PX        -0.06006  -0.19400  -0.03820   0.02548   0.08058
  33        3PY        -0.38394  -0.06212  -0.29024  -0.04033   0.41331
  34        3PZ        -0.45870  -0.03168   0.06917   0.31656   0.43019
  35 5   H  1S         -0.04120   0.60310   0.27732  -0.08099   0.02392
  36        2S          0.01655  -0.25424  -0.13019   0.04226  -0.21015
  37        3PX         0.08911  -0.37528  -0.04050   0.04193  -0.22590
  38        3PY        -0.16974   0.02497  -0.29230  -0.00536   0.22434
  39        3PZ         0.23666   0.07399   0.02247   0.26480   0.53770
                          31        32        33        34        35
                           V         V         V         V         V
     Eigenvalues --     2.65648   2.67266   2.96161   2.97481   3.22795
   1 1   C  1S         -0.00335  -0.00199   0.00110   0.00239  -0.12677
   2        2S          0.00438   0.00715  -0.01138  -0.01021   0.88011
   3        2PX         0.03188  -0.21136   0.01759   0.00622  -0.06720
   4        2PY        -0.15917  -0.01504   0.01939   0.06964  -0.17414
   5        2PZ         0.08142   0.03757   0.00556   0.00865  -0.08049
   6        3S          0.01864   0.00497  -0.02604  -0.02482   1.63511
   7        3PX         0.10486  -0.63799   0.02938   0.00649  -0.05269
   8        3PY        -0.54722  -0.05341   0.02912   0.11071  -0.13743
   9        3PZ         0.30279   0.11356   0.01269   0.01104  -0.05808
  10        4S          0.00297   0.00214  -0.01157  -0.00678   0.35313
  11        4PX         0.00125  -0.00455  -0.00144   0.00062   0.00157
  12        4PY        -0.01214  -0.00183  -0.00022  -0.00227   0.00327
  13        4PZ         0.01229   0.00241  -0.00055   0.00028   0.00259
  14        5XX        -0.29867  -0.23573  -0.00761  -0.38241   0.24317
  15        5YY         0.21597   0.17158   0.29141   0.75267  -0.02239
  16        5ZZ         0.07213   0.05918  -0.29715  -0.36898  -0.36511
  17        5XY         0.17936  -0.42096  -0.14572   0.31295   0.01337
  18        5XZ         0.00799  -0.07779   0.87107  -0.20645  -0.03131
  19        5YZ        -0.39455  -0.01483   0.00010   0.43815   0.03655
  20 2   H  1S          0.03495  -0.03347   0.00210   0.00618  -0.32447
  21        2S         -0.31860   0.35159   0.01864   0.06567  -0.63782
  22        3PX         0.28111   0.24566   0.03671   0.27844   0.54405
  23        3PY         0.26401   0.43204   0.21390   0.26458  -0.52890
  24        3PZ        -0.39454  -0.00819  -0.44406   0.22089  -0.18551
  25 3   H  1S          0.02987   0.00400  -0.00073  -0.00092  -0.08697
  26        2S         -0.12570  -0.00140  -0.00541  -0.03104  -0.49954
  27        3PX        -0.08066   0.64753  -0.55797   0.10797   0.04981
  28        3PY         0.57117   0.04367  -0.08197  -0.58133   0.12373
  29        3PZ        -0.15040  -0.12031   0.11839   0.20352   0.40877
  30 4   H  1S         -0.09607  -0.02025  -0.00104  -0.00152  -0.15330
  31        2S          0.53901   0.12603   0.00057  -0.05032  -0.52675
  32        3PX        -0.17455   0.66125   0.44866  -0.24267   0.02352
  33        3PY        -0.08611  -0.10444  -0.19056  -0.31899   0.37573
  34        3PZ         0.14063  -0.01463  -0.18537  -0.42292  -0.35184
  35 5   H  1S          0.01170   0.04161   0.00427   0.00713  -0.37687
  36        2S         -0.11214  -0.48500   0.04290   0.05448  -0.67443
  37        3PX        -0.27479  -0.06485  -0.00244  -0.14428  -0.78804
  38        3PY         0.52453  -0.25560   0.00512   0.38792  -0.37289
  39        3PZ        -0.30257  -0.13092   0.48260  -0.01824  -0.04643
                          36        37        38        39
                           V         V         V         V
     Eigenvalues --     3.41236   3.48068   3.54037   4.42331
   1 1   C  1S          0.00604  -0.01773  -0.00877  -0.48862
   2        2S         -0.08934   0.36655   0.27794   2.73759
   3        2PX        -0.88848   0.07806   0.12580  -0.01813
   4        2PY         0.11136   0.98661   0.15973  -0.04708
   5        2PZ         0.08219  -0.20550   1.12198  -0.02741
   6        3S         -0.09253   0.30004   0.19102   2.39714
   7        3PX        -0.51646   0.03924   0.05842   0.01217
   8        3PY         0.06489   0.49743   0.07481   0.02758
   9        3PZ         0.04504  -0.09834   0.50004   0.01966
  10        4S         -0.02179   0.07193   0.04802   0.07924
  11        4PX        -0.00334   0.00063   0.00120   0.00152
  12        4PY         0.00019   0.00544   0.00110   0.00238
  13        4PZ        -0.00041  -0.00053   0.00547   0.00213
  14        5XX         0.38252  -0.85803  -0.36472  -2.03218
  15        5YY        -0.30291   0.24499  -0.47986  -2.06484
  16        5ZZ        -0.08445   0.63329   0.86752  -2.08830
  17        5XY         1.07175   0.18034   0.11287  -0.00120
  18        5XZ         0.25529   0.09189   0.30515  -0.01248
  19        5YZ        -0.14640  -0.74664   0.82717   0.00342
  20 2   H  1S          0.67147   0.38999   0.16684   0.25416
  21        2S          0.46748   0.18977   0.06217  -0.44726
  22        3PX        -0.71481  -0.35199  -0.14111  -0.21319
  23        3PY         0.67943   0.34972   0.13089   0.20329
  24        3PZ         0.22808   0.10448   0.04782   0.07007
  25 3   H  1S          0.04200  -0.24469  -1.08584   0.34653
  26        2S          0.05074  -0.20383  -0.61319  -0.53585
  27        3PX        -0.04246   0.06444   0.21869  -0.04766
  28        3PY        -0.02624   0.14941   0.46475  -0.10653
  29        3PZ        -0.06297   0.33779   1.28888  -0.29435
  30 4   H  1S          0.04099  -0.90510   0.44883   0.31656
  31        2S          0.04193  -0.58749   0.20670  -0.50102
  32        3PX        -0.03400   0.06094  -0.02466  -0.01715
  33        3PY        -0.05060   0.97088  -0.40445  -0.24064
  34        3PZ         0.05077  -0.79522   0.35534   0.20272
  35 5   H  1S         -0.64539   0.31369   0.12724   0.24049
  36        2S         -0.42138   0.14481   0.04596  -0.43273
  37        3PX        -0.87268   0.36750   0.13230   0.27142
  38        3PY        -0.40659   0.17752   0.06196   0.12706
  39        3PZ        -0.05293   0.02029   0.01737   0.01463
     Density Matrix:
                           1         2         3         4         5
   1 1   C  1S          2.05222
   2        2S         -0.05494   0.30098
   3        2PX        -0.00089   0.00196   0.39234
   4        2PY        -0.00262   0.00582   0.00015   0.40185
   5        2PZ        -0.00148   0.00321   0.00171  -0.00033   0.41403
   6        3S         -0.17350   0.26863  -0.00279  -0.00736  -0.00474
   7        3PX        -0.00004  -0.00013   0.17654  -0.00011  -0.00096
   8        3PY        -0.00005  -0.00022  -0.00009   0.17432   0.00007
   9        3PZ        -0.00006  -0.00020  -0.00087   0.00005   0.17285
  10        4S         -0.00737   0.01132  -0.00118  -0.00311  -0.00181
  11        4PX        -0.00003   0.00007   0.03281  -0.00003  -0.00050
  12        4PY        -0.00010   0.00026  -0.00003   0.03159   0.00009
  13        4PZ        -0.00006   0.00013  -0.00047   0.00008   0.03097
  14        5XX        -0.01442  -0.00885  -0.00871  -0.01627  -0.00378
  15        5YY        -0.01449  -0.00853   0.00426   0.00234  -0.00991
  16        5ZZ        -0.01447  -0.00839   0.00399   0.01257   0.01290
  17        5XY        -0.00002   0.00004  -0.01704   0.00564   0.00308
  18        5XZ        -0.00006   0.00018  -0.00323   0.00296   0.00553
  19        5YZ         0.00000  -0.00003   0.00291  -0.01009   0.01658
  20 2   H  1S         -0.05520   0.10437   0.18422  -0.18073  -0.06181
  21        2S         -0.00803   0.02710   0.14710  -0.14351  -0.05009
  22        3PX         0.00386  -0.00698   0.00083   0.00635   0.00209
  23        3PY        -0.00380   0.00694   0.00665   0.00152  -0.00200
  24        3PZ        -0.00130   0.00236   0.00227  -0.00208   0.00731
  25 3   H  1S         -0.06088   0.11557   0.04158   0.09020   0.25456
  26        2S         -0.00675   0.02667   0.03054   0.06827   0.19281
  27        3PX         0.00087  -0.00163   0.00783  -0.00080  -0.00205
  28        3PY         0.00187  -0.00347  -0.00080   0.00670  -0.00444
  29        3PZ         0.00534  -0.00998  -0.00216  -0.00469  -0.00386
  30 4   H  1S         -0.05911   0.11213   0.01258   0.20489  -0.17597
  31        2S         -0.00745   0.02731   0.01002   0.15703  -0.13554
  32        3PX         0.00026  -0.00047   0.00795  -0.00050   0.00044
  33        3PY         0.00429  -0.00792  -0.00057  -0.00023   0.00676
  34        3PZ        -0.00371   0.00689   0.00052   0.00715   0.00264
  35 5   H  1S         -0.05444   0.10289  -0.23757  -0.11389  -0.01571
  36        2S         -0.00843   0.02754  -0.19101  -0.09094  -0.01200
  37        3PX        -0.00498   0.00900  -0.00360  -0.00511  -0.00057
  38        3PY        -0.00241   0.00439  -0.00533   0.00521  -0.00028
  39        3PZ        -0.00033   0.00063  -0.00073  -0.00034   0.00782
                           6         7         8         9        10
   6        3S          0.24793
   7        3PX        -0.00213   0.07945
   8        3PY        -0.00568  -0.00011   0.07564
   9        3PZ        -0.00336  -0.00111   0.00013   0.07217
  10        4S          0.01058  -0.00056  -0.00145  -0.00081   0.00048
  11        4PX        -0.00031   0.01476  -0.00003  -0.00034  -0.00010
  12        4PY        -0.00077  -0.00003   0.01370   0.00005  -0.00025
  13        4PZ        -0.00045  -0.00034   0.00005   0.01293  -0.00014
  14        5XX        -0.00625  -0.00387  -0.00698  -0.00151  -0.00011
  15        5YY        -0.00658   0.00198   0.00108  -0.00411  -0.00027
  16        5ZZ        -0.00720   0.00176   0.00553   0.00542  -0.00045
  17        5XY        -0.00000  -0.00769   0.00246   0.00136  -0.00001
  18        5XZ         0.00000  -0.00148   0.00129   0.00232  -0.00003
  19        5YZ        -0.00004   0.00125  -0.00437   0.00691  -0.00000
  20 2   H  1S          0.10015   0.08288  -0.07948  -0.02719   0.00525
  21        2S          0.02814   0.06637  -0.06260  -0.02172   0.00199
  22        3PX        -0.00664   0.00039   0.00282   0.00091  -0.00034
  23        3PY         0.00627   0.00298   0.00059  -0.00090   0.00025
  24        3PZ         0.00207   0.00098  -0.00092   0.00303   0.00007
  25 3   H  1S          0.09766   0.01724   0.03821   0.10557   0.00241
  26        2S          0.01788   0.01283   0.02948   0.08028  -0.00055
  27        3PX        -0.00152   0.00354  -0.00034  -0.00088  -0.00007
  28        3PY        -0.00330  -0.00033   0.00294  -0.00183  -0.00017
  29        3PZ        -0.00889  -0.00092  -0.00195  -0.00155  -0.00032
  30 4   H  1S          0.09919   0.00594   0.08776  -0.07399   0.00343
  31        2S          0.02199   0.00492   0.06780  -0.05669   0.00034
  32        3PX        -0.00051   0.00358  -0.00022   0.00015  -0.00004
  33        3PY        -0.00736  -0.00026  -0.00002   0.00286  -0.00033
  34        3PZ         0.00602   0.00020   0.00304   0.00107   0.00019
  35 5   H  1S          0.10073  -0.10714  -0.05030  -0.00620   0.00576
  36        2S          0.03011  -0.08596  -0.03966  -0.00444   0.00247
  37        3PX         0.00846  -0.00165  -0.00230  -0.00027   0.00041
  38        3PY         0.00392  -0.00242   0.00222  -0.00012   0.00015
  39        3PZ         0.00045  -0.00036  -0.00015   0.00326  -0.00001
                          11        12        13        14        15
  11        4PX         0.00274
  12        4PY        -0.00001   0.00248
  13        4PZ        -0.00009   0.00002   0.00232
  14        5XX        -0.00072  -0.00127  -0.00027   0.00126
  15        5YY         0.00037   0.00019  -0.00074   0.00027   0.00066
  16        5ZZ         0.00032   0.00100   0.00096  -0.00034   0.00018
  17        5XY        -0.00143   0.00045   0.00026   0.00012  -0.00023
  18        5XZ        -0.00028   0.00023   0.00042  -0.00010  -0.00015
  19        5YZ         0.00022  -0.00079   0.00123   0.00019  -0.00042
  20 2   H  1S          0.01549  -0.01432  -0.00499   0.00106  -0.00027
  21        2S          0.01239  -0.01133  -0.00402   0.00222   0.00119
  22        3PX         0.00007   0.00050   0.00016  -0.00011   0.00018
  23        3PY         0.00056   0.00011  -0.00016  -0.00037  -0.00005
  24        3PZ         0.00018  -0.00016   0.00054  -0.00009  -0.00022
  25 3   H  1S          0.00304   0.00708   0.01897  -0.00976  -0.00799
  26        2S          0.00224   0.00540   0.01439  -0.00586  -0.00456
  27        3PX         0.00066  -0.00006  -0.00017  -0.00008   0.00017
  28        3PY        -0.00006   0.00053  -0.00033  -0.00012   0.00023
  29        3PZ        -0.00017  -0.00036  -0.00028   0.00053   0.00029
  30 4   H  1S          0.00127   0.01598  -0.01317  -0.00981   0.00272
  31        2S          0.00102   0.01229  -0.01012  -0.00607   0.00355
  32        3PX         0.00066  -0.00004   0.00002  -0.00015   0.00009
  33        3PY        -0.00006  -0.00001   0.00051   0.00016   0.00003
  34        3PZ         0.00004   0.00056   0.00020  -0.00050  -0.00019
  35 5   H  1S         -0.01986  -0.00901  -0.00088   0.00730  -0.00559
  36        2S         -0.01595  -0.00715  -0.00064   0.00720  -0.00315
  37        3PX        -0.00030  -0.00041  -0.00004   0.00006  -0.00029
  38        3PY        -0.00045   0.00041  -0.00001  -0.00020  -0.00013
  39        3PZ        -0.00007  -0.00002   0.00059  -0.00006  -0.00021
                          16        17        18        19        20
  16        5ZZ         0.00121
  17        5XY         0.00010   0.00084
  18        5XZ         0.00023   0.00022   0.00012
  19        5YZ         0.00023  -0.00014   0.00012   0.00094
  20 2   H  1S         -0.00853  -0.01102  -0.00365   0.00339   0.21575
  21        2S         -0.00538  -0.00880  -0.00294   0.00266   0.15165
  22        3PX         0.00046   0.00007   0.00007  -0.00007  -0.00534
  23        3PY        -0.00013  -0.00028  -0.00007  -0.00007   0.00524
  24        3PZ         0.00012  -0.00007   0.00006   0.00036   0.00173
  25 3   H  1S          0.00823   0.00141   0.00377   0.00821  -0.01923
  26        2S          0.00776   0.00111   0.00284   0.00622  -0.03705
  27        3PX         0.00003  -0.00037  -0.00010  -0.00001   0.00376
  28        3PY         0.00016   0.00009  -0.00000  -0.00035  -0.00399
  29        3PZ        -0.00003  -0.00000  -0.00007  -0.00005  -0.00188
  30 4   H  1S         -0.00183   0.00100  -0.00091  -0.01209  -0.01981
  31        2S          0.00006   0.00074  -0.00073  -0.00929  -0.03615
  32        3PX         0.00009  -0.00035  -0.00006   0.00009   0.00372
  33        3PY         0.00041   0.00007   0.00009   0.00027  -0.00406
  34        3PZ         0.00013   0.00010   0.00009  -0.00007  -0.00094
  35 5   H  1S         -0.00921   0.00862   0.00096   0.00049  -0.01997
  36        2S         -0.00597   0.00694   0.00076   0.00041  -0.03643
  37        3PX        -0.00045   0.00008  -0.00001   0.00008   0.00397
  38        3PY        -0.00001   0.00030   0.00008  -0.00018  -0.00325
  39        3PZ         0.00021   0.00009   0.00011   0.00032  -0.00117
                          21        22        23        24        25
  21        2S          0.11546
  22        3PX        -0.00290   0.00028
  23        3PY         0.00287  -0.00014   0.00029
  24        3PZ         0.00092  -0.00005   0.00005   0.00017
  25 3   H  1S         -0.03707   0.00011   0.00242   0.00514   0.22352
  26        2S         -0.03430   0.00155   0.00038   0.00341   0.14598
  27        3PX         0.00332   0.00003   0.00010  -0.00000  -0.00126
  28        3PY        -0.00249   0.00017  -0.00005  -0.00015  -0.00264
  29        3PZ         0.00039   0.00014  -0.00027  -0.00013  -0.00739
  30 4   H  1S         -0.03623  -0.00028   0.00443  -0.00322  -0.01888
  31        2S         -0.03321   0.00120   0.00203  -0.00294  -0.03721
  32        3PX         0.00306   0.00002   0.00012   0.00005   0.00079
  33        3PY        -0.00173   0.00022  -0.00023   0.00005   0.00102
  34        3PZ        -0.00203  -0.00003   0.00018   0.00007   0.00585
  35 5   H  1S         -0.03639  -0.00492  -0.00191  -0.00021  -0.01966
  36        2S         -0.03490  -0.00261  -0.00283  -0.00060  -0.03633
  37        3PX         0.00142  -0.00031   0.00014   0.00007   0.00158
  38        3PY        -0.00341  -0.00003   0.00003  -0.00003   0.00210
  39        3PZ        -0.00106   0.00002  -0.00004   0.00014   0.00488
                          26        27        28        29        30
  26        2S          0.10561
  27        3PX        -0.00063   0.00018
  28        3PY        -0.00127   0.00001   0.00020
  29        3PZ        -0.00355   0.00004   0.00009   0.00043
  30 4   H  1S         -0.03723   0.00011   0.00395  -0.00452   0.22084
  31        2S         -0.03352   0.00043   0.00374  -0.00149   0.14752
  32        3PX         0.00068   0.00016  -0.00002  -0.00002  -0.00036
  33        3PY         0.00242  -0.00000   0.00002   0.00021  -0.00599
  34        3PZ         0.00303  -0.00005   0.00001  -0.00034   0.00507
  35 5   H  1S         -0.03622  -0.00503  -0.00252  -0.00076  -0.01983
  36        2S         -0.03315  -0.00374  -0.00136   0.00123  -0.03663
  37        3PX        -0.00068  -0.00011  -0.00018  -0.00022   0.00092
  38        3PY         0.00070  -0.00014   0.00005  -0.00017   0.00422
  39        3PZ         0.00357  -0.00006  -0.00009  -0.00008  -0.00330
                          31        32        33        34        35
  31        2S          0.10819
  32        3PX        -0.00017   0.00016
  33        3PY        -0.00301   0.00001   0.00033
  34        3PZ         0.00253  -0.00001  -0.00014   0.00030
  35 5   H  1S         -0.03651  -0.00487  -0.00268  -0.00001   0.21450
  36        2S         -0.03412  -0.00382  -0.00065  -0.00126   0.15239
  37        3PX        -0.00111  -0.00008  -0.00025   0.00011   0.00691
  38        3PY         0.00236  -0.00012  -0.00012   0.00018   0.00332
  39        3PZ        -0.00266  -0.00001   0.00011   0.00006   0.00047
                          36        37        38        39
  36        2S          0.11683
  37        3PX         0.00383   0.00038
  38        3PY         0.00186   0.00012   0.00020
  39        3PZ         0.00028   0.00002   0.00001   0.00015
    Full Mulliken population analysis:
                           1         2         3         4         5
   1 1   C  1S          2.05222
   2        2S         -0.01203   0.30098
   3        2PX         0.00000   0.00000   0.39234
   4        2PY         0.00000   0.00000   0.00000   0.40185
   5        2PZ         0.00000   0.00000   0.00000   0.00000   0.41403
   6        3S         -0.03197   0.21820   0.00000   0.00000   0.00000
   7        3PX         0.00000   0.00000   0.10059   0.00000   0.00000
   8        3PY         0.00000   0.00000   0.00000   0.09932   0.00000
   9        3PZ         0.00000   0.00000   0.00000   0.00000   0.09848
  10        4S         -0.00051   0.00455   0.00000   0.00000   0.00000
  11        4PX         0.00000   0.00000   0.00540   0.00000   0.00000
  12        4PY         0.00000   0.00000   0.00000   0.00520   0.00000
  13        4PZ         0.00000   0.00000   0.00000   0.00000   0.00510
  14        5XX        -0.00114  -0.00629   0.00000   0.00000   0.00000
  15        5YY        -0.00115  -0.00606   0.00000   0.00000   0.00000
  16        5ZZ        -0.00114  -0.00596   0.00000   0.00000   0.00000
  17        5XY         0.00000   0.00000   0.00000   0.00000   0.00000
  18        5XZ         0.00000   0.00000   0.00000   0.00000   0.00000
  19        5YZ         0.00000   0.00000   0.00000   0.00000   0.00000
  20 2   H  1S         -0.00181   0.02856   0.04755   0.04533   0.00513
  21        2S         -0.00074   0.01290   0.02732   0.02590   0.00299
  22        3PX        -0.00012   0.00143  -0.00008   0.00155   0.00017
  23        3PY        -0.00012   0.00138   0.00162  -0.00013   0.00016
  24        3PZ        -0.00001   0.00016   0.00018   0.00016   0.00092
  25 3   H  1S         -0.00258   0.03617   0.00268   0.01232   0.09632
  26        2S         -0.00067   0.01342   0.00129   0.00609   0.04765
  27        3PX        -0.00001   0.00008   0.00132   0.00002   0.00017
  28        3PY        -0.00004   0.00037   0.00002   0.00080   0.00077
  29        3PZ        -0.00032   0.00298   0.00018   0.00082   0.00115
  30 4   H  1S         -0.00230   0.03359   0.00023   0.06186   0.04463
  31        2S         -0.00072   0.01350   0.00013   0.03197   0.02318
  32        3PX        -0.00000   0.00001   0.00136   0.00001   0.00001
  33        3PY        -0.00019   0.00189   0.00001   0.00003   0.00181
  34        3PZ        -0.00014   0.00138   0.00001   0.00191  -0.00014
  35 5   H  1S         -0.00171   0.02752   0.07774   0.01773   0.00033
  36        2S         -0.00077   0.01299   0.04572   0.01036   0.00019
  37        3PX        -0.00019   0.00233   0.00095   0.00100   0.00002
  38        3PY        -0.00004   0.00054   0.00105   0.00028   0.00000
  39        3PZ        -0.00000   0.00001   0.00002   0.00000   0.00114
                           6         7         8         9        10
   6        3S          0.24793
   7        3PX         0.00000   0.07945
   8        3PY         0.00000   0.00000   0.07564
   9        3PZ         0.00000   0.00000   0.00000   0.07217
  10        4S          0.00770   0.00000   0.00000   0.00000   0.00048
  11        4PX         0.00000   0.00869   0.00000   0.00000   0.00000
  12        4PY         0.00000   0.00000   0.00807   0.00000   0.00000
  13        4PZ         0.00000   0.00000   0.00000   0.00761   0.00000
  14        5XX        -0.00393   0.00000   0.00000   0.00000  -0.00004
  15        5YY        -0.00414   0.00000   0.00000   0.00000  -0.00009
  16        5ZZ        -0.00453   0.00000   0.00000   0.00000  -0.00015
  17        5XY         0.00000   0.00000   0.00000   0.00000   0.00000
  18        5XZ         0.00000   0.00000   0.00000   0.00000   0.00000
  19        5YZ         0.00000   0.00000   0.00000   0.00000   0.00000
  20 2   H  1S          0.03776   0.02983   0.02780   0.00315   0.00136
  21        2S          0.01983   0.02702   0.02477   0.00284   0.00128
  22        3PX         0.00080   0.00003   0.00034   0.00004   0.00001
  23        3PY         0.00074   0.00036   0.00005   0.00003   0.00001
  24        3PZ         0.00008   0.00004   0.00004   0.00058   0.00000
  25 3   H  1S          0.03917   0.00141   0.00663   0.05077   0.00064
  26        2S          0.01308   0.00116   0.00565   0.04262  -0.00036
  27        3PX         0.00004   0.00075   0.00000   0.00003   0.00000
  28        3PY         0.00019   0.00000   0.00056   0.00014   0.00000
  29        3PZ         0.00144   0.00003   0.00015  -0.00001   0.00001
  30 4   H  1S          0.03899   0.00014   0.03472   0.02459   0.00090
  31        2S          0.01589   0.00013   0.02985   0.02096   0.00022
  32        3PX         0.00000   0.00076   0.00000   0.00000   0.00000
  33        3PY         0.00098   0.00000  -0.00000   0.00035   0.00001
  34        3PZ         0.00067   0.00000   0.00037   0.00012   0.00000
  35 5   H  1S          0.03758   0.04966   0.01109   0.00019   0.00149
  36        2S          0.02108   0.04527   0.00994   0.00015   0.00158
  37        3PX         0.00131   0.00001   0.00023   0.00000   0.00001
  38        3PY         0.00029   0.00024   0.00034   0.00000   0.00000
  39        3PZ         0.00000   0.00000   0.00000   0.00066  -0.00000
                          11        12        13        14        15
  11        4PX         0.00274
  12        4PY         0.00000   0.00248
  13        4PZ         0.00000   0.00000   0.00232
  14        5XX         0.00000   0.00000   0.00000   0.00126
  15        5YY         0.00000   0.00000   0.00000   0.00009   0.00066
  16        5ZZ         0.00000   0.00000   0.00000  -0.00011   0.00006
  17        5XY         0.00000   0.00000   0.00000   0.00000   0.00000
  18        5XZ         0.00000   0.00000   0.00000   0.00000   0.00000
  19        5YZ         0.00000   0.00000   0.00000   0.00000   0.00000
  20 2   H  1S          0.00227   0.00204   0.00024   0.00030  -0.00007
  21        2S          0.00376   0.00334   0.00039   0.00087   0.00046
  22        3PX         0.00000   0.00001   0.00000   0.00001  -0.00005
  23        3PY         0.00001   0.00001   0.00000  -0.00011  -0.00000
  24        3PZ         0.00000   0.00000   0.00004  -0.00001  -0.00002
  25 3   H  1S          0.00010   0.00048   0.00356  -0.00144  -0.00143
  26        2S          0.00015   0.00076   0.00558  -0.00220  -0.00174
  27        3PX         0.00005   0.00000   0.00000  -0.00000  -0.00001
  28        3PY         0.00000   0.00004   0.00000   0.00001   0.00001
  29        3PZ         0.00000   0.00000  -0.00002  -0.00008  -0.00006
  30 4   H  1S          0.00001   0.00250   0.00173  -0.00130   0.00092
  31        2S          0.00002   0.00398   0.00275  -0.00222   0.00146
  32        3PX         0.00005   0.00000   0.00000  -0.00000  -0.00000
  33        3PY         0.00000  -0.00000   0.00001  -0.00002  -0.00000
  34        3PZ         0.00000   0.00001   0.00001  -0.00004  -0.00006
  35 5   H  1S          0.00378   0.00082   0.00001   0.00281  -0.00098
  36        2S          0.00629   0.00134   0.00002   0.00298  -0.00114
  37        3PX        -0.00002   0.00000   0.00000   0.00002  -0.00006
  38        3PY         0.00000   0.00003   0.00000  -0.00006   0.00000
  39        3PZ         0.00000   0.00000   0.00004  -0.00000  -0.00000
                          16        17        18        19        20
  16        5ZZ         0.00121
  17        5XY         0.00000   0.00084
  18        5XZ         0.00000   0.00000   0.00012
  19        5YZ         0.00000   0.00000   0.00000   0.00094
  20 2   H  1S         -0.00115   0.00306   0.00034   0.00030   0.21575
  21        2S         -0.00191   0.00058   0.00006   0.00006   0.09983
  22        3PX        -0.00005   0.00001   0.00000   0.00001   0.00000
  23        3PY        -0.00001   0.00005   0.00001  -0.00000   0.00000
  24        3PZ        -0.00001   0.00001   0.00001  -0.00006   0.00000
  25 3   H  1S          0.00372   0.00005   0.00035   0.00161  -0.00044
  26        2S          0.00341   0.00001   0.00006   0.00026  -0.00604
  27        3PX        -0.00000  -0.00004  -0.00003   0.00000   0.00003
  28        3PY        -0.00004   0.00000   0.00000  -0.00007   0.00007
  29        3PZ         0.00001   0.00000   0.00001   0.00001   0.00003
  30 4   H  1S         -0.00051   0.00002   0.00002   0.00366  -0.00041
  31        2S          0.00002   0.00000   0.00000   0.00062  -0.00564
  32        3PX        -0.00000  -0.00009   0.00001   0.00000   0.00004
  33        3PY        -0.00013  -0.00000   0.00000   0.00006   0.00008
  34        3PZ         0.00000   0.00000  -0.00000   0.00001  -0.00001
  35 5   H  1S         -0.00106   0.00193   0.00003   0.00001  -0.00036
  36        2S         -0.00208   0.00038   0.00001   0.00000  -0.00541
  37        3PX        -0.00005   0.00002  -0.00000   0.00000   0.00008
  38        3PY        -0.00000  -0.00002   0.00000   0.00000   0.00001
  39        3PZ        -0.00000   0.00000  -0.00003  -0.00004   0.00000
                          21        22        23        24        25
  21        2S          0.11546
  22        3PX         0.00000   0.00028
  23        3PY         0.00000   0.00000   0.00029
  24        3PZ         0.00000   0.00000   0.00000   0.00017
  25 3   H  1S         -0.00604  -0.00000   0.00004   0.00009   0.22352
  26        2S         -0.01454  -0.00006   0.00003   0.00025   0.09610
  27        3PX         0.00012  -0.00000   0.00000  -0.00000   0.00000
  28        3PY         0.00017   0.00000   0.00000   0.00000   0.00000
  29        3PZ        -0.00003   0.00000   0.00000   0.00000   0.00000
  30 4   H  1S         -0.00565   0.00000   0.00009   0.00002  -0.00049
  31        2S         -0.01371  -0.00005   0.00018   0.00007  -0.00634
  32        3PX         0.00013  -0.00000   0.00000  -0.00000   0.00000
  33        3PY         0.00016   0.00000   0.00000   0.00000  -0.00001
  34        3PZ        -0.00005   0.00000   0.00000   0.00000   0.00017
  35 5   H  1S         -0.00540   0.00010  -0.00001  -0.00000  -0.00042
  36        2S         -0.01397   0.00026  -0.00004  -0.00001  -0.00574
  37        3PX         0.00014   0.00001   0.00000   0.00000   0.00003
  38        3PY         0.00005  -0.00000   0.00000   0.00000   0.00002
  39        3PZ         0.00001   0.00000   0.00000   0.00000   0.00007
                          26        27        28        29        30
  26        2S          0.10561
  27        3PX         0.00000   0.00018
  28        3PY         0.00000   0.00000   0.00020
  29        3PZ         0.00000   0.00000   0.00000   0.00043
  30 4   H  1S         -0.00634  -0.00000   0.00003   0.00013   0.22084
  31        2S         -0.01461  -0.00000   0.00011   0.00016   0.09711
  32        3PX         0.00001   0.00000  -0.00000   0.00000   0.00000
  33        3PY        -0.00007  -0.00000   0.00000   0.00000   0.00000
  34        3PZ         0.00032   0.00000   0.00000   0.00001   0.00000
  35 5   H  1S         -0.00573   0.00008   0.00003   0.00001  -0.00040
  36        2S         -0.01380   0.00026   0.00007  -0.00008  -0.00569
  37        3PX        -0.00005   0.00000   0.00000   0.00000   0.00001
  38        3PY         0.00003   0.00000  -0.00000   0.00000   0.00007
  39        3PZ         0.00022   0.00000   0.00000   0.00000   0.00003
                          31        32        33        34        35
  31        2S          0.10819
  32        3PX         0.00000   0.00016
  33        3PY         0.00000   0.00000   0.00033
  34        3PZ         0.00000   0.00000   0.00000   0.00030
  35 5   H  1S         -0.00567   0.00007   0.00005  -0.00000   0.21450
  36        2S         -0.01405   0.00023   0.00005  -0.00005   0.10031
  37        3PX        -0.00007   0.00000   0.00000   0.00000   0.00000
  38        3PY         0.00018   0.00000   0.00000   0.00000   0.00000
  39        3PZ         0.00010  -0.00000   0.00000  -0.00000   0.00000
                          36        37        38        39
  36        2S          0.11683
  37        3PX         0.00000   0.00038
  38        3PY         0.00000   0.00000   0.00020
  39        3PZ         0.00000   0.00000   0.00000   0.00015
     Gross orbital populations:
                           1
   1 1   C  1S          1.99178
   2        2S          0.68461
   3        2PX         0.70764
   4        2PY         0.72439
   5        2PZ         0.74421
   6        3S          0.65917
   7        3PX         0.34561
   8        3PY         0.33555
   9        3PZ         0.32547
  10        4S          0.01910
  11        4PX         0.03333
  12        4PY         0.03111
  13        4PZ         0.02940
  14        5XX        -0.01066
  15        5YY        -0.01340
  16        5ZZ        -0.01046
  17        5XY         0.00683
  18        5XZ         0.00097
  19        5YZ         0.00738
  20 2   H  1S          0.52961
  21        2S          0.30841
  22        3PX         0.00464
  23        3PY         0.00463
  24        3PZ         0.00273
  25 3   H  1S          0.55110
  26        2S          0.27753
  27        3PX         0.00306
  28        3PY         0.00347
  29        3PZ         0.00698
  30 4   H  1S          0.54377
  31        2S          0.28769
  32        3PX         0.00276
  33        3PY         0.00540
  34        3PZ         0.00482
  35 5   H  1S          0.52611
  36        2S          0.31347
  37        3PX         0.00613
  38        3PY         0.00325
  39        3PZ         0.00239
          Condensed to atoms (all electrons):
              1          2          3          4          5
     1  C    5.029315   0.393975   0.398204   0.397207   0.393336
     2  H    0.393975   0.531609  -0.026291  -0.024722  -0.024544
     3  H    0.398204  -0.026291   0.522139  -0.026927  -0.024984
     4  H    0.397207  -0.024722  -0.026927   0.524027  -0.025140
     5  H    0.393336  -0.024544  -0.024984  -0.025140   0.532685
 Mulliken atomic charges:
              1
     1  C   -0.612036
     2  H    0.149974
     3  H    0.157860
     4  H    0.155555
     5  H    0.148648
 Sum of Mulliken atomic charges =   0.00000
 Mulliken charges with hydrogens summed into heavy atoms:
              1
     1  C    0.000000
 Sum of Mulliken charges with hydrogens summed into heavy atoms =   0.00000
 Electronic spatial extent (au):  <R**2>=             35.0898
 Charge=              0.0000 electrons
 Dipole moment (field-independent basis, Debye):
    X=              0.0149    Y=              0.0324    Z=              0.0202  Tot=              0.0410
 Quadrupole moment (field-independent basis, Debye-Ang):
   XX=             -8.4242   YY=             -8.4104   ZZ=             -8.4549
   XY=              0.0029   XZ=              0.0213   YZ=             -0.0046
 Traceless Quadrupole moment (field-independent basis, Debye-Ang):
   XX=              0.0056   YY=              0.0195   ZZ=             -0.0251
   XY=              0.0029   XZ=              0.0213   YZ=             -0.0046
 Octapole moment (field-independent basis, Debye-Ang**2):
  XXX=             -0.2697  YYY=              0.2667  ZZZ=              0.4940  XYY=              0.1960
  XXY=             -0.5192  XXZ=             -0.0782  XZZ=              0.1730  YZZ=              0.5024
  YYZ=             -0.2745  XYZ=              0.0895
 Hexadecapole moment (field-independent basis, Debye-Ang**3):
 XXXX=            -16.7948 YYYY=            -16.7174 ZZZZ=            -15.6606 XXXY=              0.1490
 XXXZ=              0.0061 YYYX=             -0.1801 YYYZ=             -0.2416 ZZZX=              0.1817
 ZZZY=              0.0669 XXYY=             -5.3790 XXZZ=             -5.7677 YYZZ=             -5.2490
 XXYZ=              0.1507 YYXZ=             -0.0804 ZZXY=              0.0460
 N-N= 1.372738109155D+01 E-N=-1.205491381660D+02  KE= 4.020807167144D+01
 Orbital energies and kinetic energies (alpha):
                                 1                 2
   1         O               -10.161747         15.877948
   2         O                -0.704174          1.295833
   3         O                -0.404196          1.001260
   4         O                -0.398458          0.974772
   5         O                -0.391236          0.954223
   6         V                 0.017195          0.336292
   7         V                 0.060708          0.224214
   8         V                 0.061151          0.228724
   9         V                 0.061810          0.232175
  10         V                 0.179797          0.810117
  11         V                 0.189216          0.797318
  12         V                 0.198498          0.780245
  13         V                 0.287558          1.099307
  14         V                 0.626383          1.775147
  15         V                 0.634226          1.824827
  16         V                 0.641295          1.871972
  17         V                 0.907089          2.268912
  18         V                 0.920474          2.320593
  19         V                 0.935236          2.378551
  20         V                 1.072176          2.308087
  21         V                 1.134202          2.329933
  22         V                 1.354250          2.350426
  23         V                 1.357565          2.353593
  24         V                 2.047207          2.851606
  25         V                 2.052649          2.855083
  26         V                 2.059422          2.865854
  27         V                 2.079367          3.173785
  28         V                 2.120355          3.226032
  29         V                 2.169176          3.271112
  30         V                 2.648078          3.563028
  31         V                 2.656484          3.570760
  32         V                 2.672660          3.586149
  33         V                 2.961614          3.956807
  34         V                 2.974806          3.973726
  35         V                 3.227949          4.806861
  36         V                 3.412358          5.053611
  37         V                 3.480683          5.242902
  38         V                 3.540367          5.409854
  39         V                 4.423309          9.928594
 Total kinetic energy from orbitals= 4.020807167144D+01
 No NMR shielding tensors so no spin-rotation constants.
 Leave Link  601 at Wed Aug 14 16:42:42 2024, MaxMem=   13107200 cpu:       0.2
 (Enter /programs/64bit/g09/g09-gfortran/bin/l701.exe)
 Compute integral first derivatives.
 ... and contract with generalized density number  0.
 Leave Link  701 at Wed Aug 14 16:42:42 2024, MaxMem=   13107200 cpu:       0.2
 (Enter /programs/64bit/g09/g09-gfortran/bin/l702.exe)
 L702 exits ... SP integral derivatives will be done elsewhere.
 Leave Link  702 at Wed Aug 14 16:42:42 2024, MaxMem=   13107200 cpu:       0.0
 (Enter /programs/64bit/g09/g09-gfortran/bin/l703.exe)
 Compute integral first derivatives, UseDBF=F ICtDFT=           0.
 Integral derivatives from FoFDir, PRISM(SPDF).
 Calling FoFJK, ICntrl=      2127 FMM=F ISym2X=0 I1Cent= 0 IOpClX= 0 NMat=1 NMatS=1 NMatT=0.
 FoFCou: FMM=F IPFlag=           0 FMFlag=      100000 FMFlg1=         800
         NFxFlg=           0 DoJE=F BraDBF=F KetDBF=F FulRan=T
         Omega=  0.000000  0.000000  1.000000  0.000000  0.000000 ICntrl=    2127 IOpCl=  0
         NMat0=    1 NMatS0=    1 NMatT0=    0 NMatD0=    1 NMtDS0=    0 NMtDT0=    0
         I1Cent=           0 NGrid=           0.
 Symmetry not used in FoFCou.
 Leave Link  703 at Wed Aug 14 16:42:46 2024, MaxMem=   13107200 cpu:       3.2
 (Enter /programs/64bit/g09/g09-gfortran/bin/l716.exe)
 Dipole        = 5.86675754D-03 1.27661072D-02 7.94714438D-03
 ***** Axes restored to original set *****
 -------------------------------------------------------------------
 Center     Atomic                   Forces (Hartrees/Bohr)
 Number     Number              X              Y              Z
 -------------------------------------------------------------------
      1        6          -0.031576960    0.027924203    0.022755257
      2        1          -0.001260718   -0.000299762    0.002262188
      3        1           0.046597246    0.001333821   -0.016604391
      4        1          -0.015997640   -0.025586846   -0.009802484
      5        1           0.002238073   -0.003371416    0.001389430
 -------------------------------------------------------------------
 Cartesian Forces:  Max     0.046597246 RMS     0.019621855
 Leave Link  716 at Wed Aug 14 16:42:46 2024, MaxMem=   13107200 cpu:       0.0
 (Enter /programs/64bit/g09/g09-gfortran/bin/l103.exe)

 GradGradGradGradGradGradGradGradGradGradGradGradGradGradGradGradGradGrad
 Berny optimization.
 Internal  Forces:  Max     0.049464449 RMS     0.015764795
 Search for a local minimum.
 Step number   1 out of a maximum of   24
 All quantities printed in internal units (Hartrees-Bohrs-Radians)
 RMS Force = .15765D-01 SwitMx=.10000D-02 MixMth= 1
 Mixed Optimization -- RFO/linear search
 Second derivative matrix not updated -- first step.
 The second derivative matrix:
                          R1        R2        R3        R4        A1
           R1           0.34813
           R2           0.00000   0.42780
           R3           0.00000   0.00000   0.39877
           R4           0.00000   0.00000   0.00000   0.33682
           A1           0.00000   0.00000   0.00000   0.00000   0.16000
           A2           0.00000   0.00000   0.00000   0.00000   0.00000
           A3           0.00000   0.00000   0.00000   0.00000   0.00000
           A4           0.00000   0.00000   0.00000   0.00000   0.00000
[...]
     1   6     0.00   0.00  -0.00     0.00  -0.00  -0.00    -0.00  -0.00   0.00
     2   1     0.11  -0.37   0.32     0.49   0.06  -0.10     0.04   0.34   0.38
     3   1    -0.20   0.39  -0.23     0.09  -0.21  -0.44    -0.44  -0.22   0.02
     4   1     0.32   0.36   0.14    -0.13  -0.07   0.48     0.36  -0.34   0.05
     5   1    -0.23  -0.38  -0.23    -0.44   0.22   0.07     0.05   0.24  -0.44
                     7                      8                      9
                     A                      A                      A
 Frequencies --  3146.9944              3149.5169              3152.8615
 Red. masses --     1.1011                 1.1013                 1.1016
 Frc consts  --     6.4252                 6.4367                 6.4519
 IR Inten    --    25.8203                25.5338                25.2093
  Atom  AN      X      Y      Z        X      Y      Z        X      Y      Z
     1   6    -0.00   0.02   0.09    -0.01   0.09  -0.02     0.09   0.01  -0.00
     2   1    -0.05  -0.50  -0.54    -0.03  -0.27  -0.32     0.01  -0.09  -0.10
     3   1    -0.02  -0.01   0.02    -0.26  -0.11   0.01    -0.73  -0.37   0.03
     4   1     0.03  -0.03   0.02     0.50  -0.46   0.07    -0.37   0.37  -0.05
     5   1     0.07   0.33  -0.58    -0.06  -0.23   0.46     0.00  -0.07   0.13

 -------------------
 - Thermochemistry -
 -------------------
 Temperature   298.150 Kelvin.  Pressure   1.00000 Atm.
 Atom     1 has atomic number  6 and mass  12.00000
 Atom     2 has atomic number  1 and mass   1.00783
 Atom     3 has atomic number  1 and mass   1.00783
 Atom     4 has atomic number  1 and mass   1.00783
 Atom     5 has atomic number  1 and mass   1.00783
 Molecular mass:    16.03130 amu.
 Principal axes and moments of inertia in atomic units:
                           1         2         3
     Eigenvalues --    11.44987  11.46156  11.47189
           X            1.00000  -0.00015   0.00001
           Y            0.00015   1.00000   0.00008
           Z           -0.00001  -0.00008   1.00000
 This molecule is an asymmetric top.
 Rotational symmetry number  1.
 Rotational temperatures (Kelvin)      7.56461     7.55689     7.55009
 Rotational constants (GHZ):         157.62109   157.46033   157.31856
 Zero-point vibrational energy     117569.7 (Joules/Mol)
                                   28.09983 (Kcal/Mol)
 Vibrational temperatures:   1936.52  1938.50  1940.98  2249.87  2249.88
          (Kelvin)           4369.45  4527.82  4531.45  4536.26
 
 Zero-point correction=                           0.044780 (Hartree/Particle)
 Thermal correction to Energy=                    0.047648
 Thermal correction to Enthalpy=                  0.048592
 Thermal correction to Gibbs Free Energy=         0.025111
 Sum of electronic and zero-point Energies=            -40.481357
 Sum of electronic and thermal Energies=               -40.478489
 Sum of electronic and thermal Enthalpies=             -40.477545
 Sum of electronic and thermal Free Energies=          -40.501026
 
                     E (Thermal)             CV                S
                      KCal/Mol        Cal/Mol-Kelvin    Cal/Mol-Kelvin
 Total                   29.899              6.461             49.419
 Electronic               0.000              0.000              0.000
 Translational            0.889              2.981             34.261
 Rotational               0.889              2.981             15.073
 Vibrational             28.122              0.499              0.085
                       Q            Log10(Q)             Ln(Q)
 Total Bot       0.281655D-11        -11.550282        -26.595507
 Total V=0       0.111432D+10          9.047010         20.831509
 Vib (Bot)       0.254170D-20        -20.594876        -47.421455
 Vib (V=0)       0.100558D+01          0.002415          0.005561
 Electronic      0.100000D+01          0.000000          0.000000
 Translational   0.252295D+07          6.401908         14.740939
 Rotational      0.439224D+03          2.642686          6.085010
 
                                                               methane
                                                             IR Spectrum
 
    333   3                                                           1     111                                                      
    111   0                                                           5     333                                                      
    554   3                                                           6     444                                                      
    307   7                                                           4     976                                                      
 
    XXX                                                                     XXX                                                      
    XXX                                                                     XXX                                                      
    XXX                                                                     XXX                                                      
    XXX                                                                     XXX                                                      
    XXX                                                                     XXX                                                      
    XXX                                                                     XXX                                                      
    XXX                                                                     XXX                                                      
    XXX                                                                     XXX                                                      
    XXX                                                                     XXX                                                      
    XXX                                                                     XXX                                                      
    XXX                                                                     XXX                                                      
    XXX                                                                     XXX                                                      
    XXX                                                                     XXX                                                      
    XXX                                                                     XXX                                                      
    XXX                                                                     XXX                                                      
    XXX                                                                                                                              
    XXX                                                                                                                              
    XXX                                                                                                                              
    XXX                                                                                                                              
    XXX                                                                                                                              
 
 ***** Axes restored to original set *****
 -------------------------------------------------------------------
 Center     Atomic                   Forces (Hartrees/Bohr)
 Number     Number              X              Y              Z
 -------------------------------------------------------------------
      1        6          -0.000509597    0.000483025    0.000466737
      2        1           0.000128648   -0.000148274   -0.000155789
      3        1           0.000069677   -0.000149824   -0.000103973
      4        1           0.000185757   -0.000074202   -0.000080800
      5        1           0.000125516   -0.000110725   -0.000126175
 -------------------------------------------------------------------
 Cartesian Forces:  Max     0.000509597 RMS     0.000245253
 Force constants in Cartesian coordinates: 
                1             2             3             4             5 
      1  0.550264D+00
      2  0.849568D-03  0.548300D+00
      3 -0.633459D-03  0.596822D-03  0.547433D+00
      4 -0.460453D-01 -0.480763D-04  0.118448D-02  0.451423D-01
      5 -0.404023D-04 -0.458993D-01  0.122649D-02  0.373494D-05  0.450811D-01
      6  0.115630D-02  0.124023D-02 -0.319035D+00 -0.120592D-02 -0.142257D-02
      7 -0.290610D+00 -0.820722D-03  0.855076D-01  0.208849D-02  0.127484D-04
      8 -0.837696D-03 -0.458873D-01  0.237577D-03 -0.165310D-03 -0.160524D-02
      9  0.855029D-01  0.216809D-03 -0.757072D-01  0.316493D-01  0.570370D-04
     10 -0.106972D+00 -0.105261D+00 -0.437566D-01 -0.593784D-03  0.172168D-02
     11 -0.105256D+00 -0.227465D+00 -0.756224D-01  0.172245D-02  0.136906D-02
     12 -0.437346D-01 -0.756199D-01 -0.772578D-01 -0.157992D-01 -0.273548D-01
     13 -0.106637D+00  0.105280D+00 -0.423020D-01 -0.591656D-03 -0.169776D-02
     14  0.105285D+00 -0.229048D+00  0.735615D-01 -0.151280D-02  0.105435D-02
     15 -0.422911D-01  0.735661D-01 -0.754328D-01 -0.158287D-01  0.274939D-01
                6             7             8             9            10 
      6  0.345121D+00
      7 -0.881188D-03  0.313586D+00
      8  0.408456D-04  0.820835D-03  0.449462D-01
      9 -0.854215D-02 -0.938821D-01 -0.267545D-03  0.777548D-01
     10  0.479461D-03 -0.124839D-01 -0.251819D-01 -0.117801D-01  0.111920D+00
     11  0.845411D-03  0.131066D-02  0.121199D-02  0.129819D-02  0.115522D+00
     12 -0.888511D-02  0.462416D-02  0.106044D-01  0.331457D-02  0.480708D-01
     13  0.451348D-03 -0.125805D-01  0.253641D-01 -0.114900D-01  0.813019D-02
     14 -0.703918D-03 -0.132353D-02  0.133431D-02 -0.130449D-02  0.131990D-01
     15 -0.865860D-02  0.463145D-02 -0.106153D-01  0.318004D-02  0.698654D-02
               11            12            13            14            15 
     11  0.244438D+00
     12  0.830598D-01  0.795085D-01
     13 -0.132993D-01  0.683885D-02  0.111679D+00
     14 -0.195536D-01  0.931050D-02 -0.115648D+00  0.246213D+00
     15 -0.958103D-02  0.331986D-02  0.465018D-01 -0.808636D-01  0.775915D-01
 Force constants in internal coordinates: 
                1             2             3             4             5 
      1  0.345132D+00
      2  0.202133D-02  0.346398D+00
      3  0.204488D-02  0.198492D-02  0.345923D+00
      4  0.207175D-02  0.202256D-02  0.203747D-02  0.345244D+00
      5  0.191272D-02  0.193757D-02 -0.122450D-02 -0.263745D-02  0.196442D-01
      6  0.301416D-02 -0.803955D-03  0.337180D-02 -0.559907D-02 -0.871665D-02
      7  0.596460D-02 -0.474424D-02 -0.526082D-02  0.411981D-02 -0.130668D-01
      8 -0.783152D-03  0.300044D-02  0.333971D-02 -0.561090D-02 -0.874805D-02
      9 -0.474695D-02  0.592466D-02 -0.526123D-02  0.406655D-02 -0.129440D-01
     10 -0.534038D-02 -0.534754D-02  0.501159D-02  0.569708D-02  0.238179D-01
     11 -0.372937D-02 -0.372991D-02 -0.263886D-02  0.101562D-01 -0.133377D-01
     12  0.309180D-02  0.307498D-02 -0.790229D-02  0.175934D-02  0.818019D-02
     13 -0.406906D-02  0.710405D-02 -0.395835D-02  0.883436D-03  0.415282D-02
     14 -0.716086D-02  0.402907D-02  0.394393D-02 -0.875899D-03 -0.402738D-02
                6             7             8             9            10 
      6  0.368561D-01
      7 -0.224926D-01  0.725936D-01
      8 -0.212714D-02  0.247047D-01  0.370760D-01
      9  0.246432D-01 -0.351072D-01 -0.225006D-01  0.726116D-01
     10 -0.282400D-01 -0.264696D-01 -0.284526D-01 -0.267662D-01  0.861509D-01
     11 -0.107768D-01  0.147300D-01 -0.107849D-01  0.145147D-01  0.574822D-02
     12 -0.940085D-02  0.696985D-02 -0.929835D-02  0.688364D-02 -0.329053D-02
     13 -0.142370D-01 -0.594099D-03  0.482840D-02  0.744910D-02 -0.162788D-02
     14 -0.483614D-02 -0.756395D-02  0.141268D-01  0.565460D-03  0.166265D-02
               11            12            13            14 
     11  0.296810D-01
     12  0.149814D-02  0.184336D-01
     13  0.730122D-03  0.924051D-02  0.187346D-01
     14 -0.768014D-03 -0.919307D-02  0.949413D-02  0.186872D-01
 Leave Link  716 at Wed Aug 14 16:43:59 2024, MaxMem=   13107200 cpu:       0.0
 (Enter /programs/64bit/g09/g09-gfortran/bin/l103.exe)

 GradGradGradGradGradGradGradGradGradGradGradGradGradGradGradGradGradGrad
 Berny optimization.
 Internal  Forces:  Max     0.000210940 RMS     0.000117142
 Search for a local minimum.
 Step number   1 out of a maximum of    2
 All quantities printed in internal units (Hartrees-Bohrs-Radians)
 Second derivative matrix not updated -- analytic derivatives used.
 The second derivative matrix:
                          R1        R2        R3        R4        A1
           R1           0.34513
           R2           0.00202   0.34640
           R3           0.00204   0.00198   0.34592
           R4           0.00207   0.00202   0.00204   0.34524
           A1           0.00191   0.00194  -0.00122  -0.00264   0.01964
           A2           0.00301  -0.00080   0.00337  -0.00560  -0.00872
           A3           0.00596  -0.00474  -0.00526   0.00412  -0.01307
           A4          -0.00078   0.00300   0.00334  -0.00561  -0.00875
           A5          -0.00475   0.00592  -0.00526   0.00407  -0.01294
           A6          -0.00534  -0.00535   0.00501   0.00570   0.02382
           D1          -0.00373  -0.00373  -0.00264   0.01016  -0.01334
           D2           0.00309   0.00307  -0.00790   0.00176   0.00818
           D3          -0.00407   0.00710  -0.00396   0.00088   0.00415
           D4          -0.00716   0.00403   0.00394  -0.00088  -0.00403
                          A2        A3        A4        A5        A6
           A2           0.03686
           A3          -0.02249   0.07259
           A4          -0.00213   0.02470   0.03708
           A5           0.02464  -0.03511  -0.02250   0.07261
           A6          -0.02824  -0.02647  -0.02845  -0.02677   0.08615
           D1          -0.01078   0.01473  -0.01078   0.01451   0.00575
           D2          -0.00940   0.00697  -0.00930   0.00688  -0.00329
           D3          -0.01424  -0.00059   0.00483   0.00745  -0.00163
           D4          -0.00484  -0.00756   0.01413   0.00057   0.00166
                          D1        D2        D3        D4
           D1           0.02968
           D2           0.00150   0.01843
           D3           0.00073   0.00924   0.01873
           D4          -0.00077  -0.00919   0.00949   0.01869
     Eigenvalues ---    0.03783   0.04261   0.06460   0.13092   0.13148
     Eigenvalues ---    0.34412   0.34467   0.34513   0.351801000.00000
     Eigenvalues --- 1000.000001000.000001000.000001000.00000
 Angle between quadratic step and forces=  27.28 degrees.
 Linear search not attempted -- first point.
 Iteration  1 RMS(Cart)=  0.00113150 RMS(Int)=  0.00000259
 Iteration  2 RMS(Cart)=  0.00000201 RMS(Int)=  0.00000172
 Iteration  3 RMS(Cart)=  0.00000000 RMS(Int)=  0.00000172
 Variable       Old X    -DE/DX   Delta X   Delta X   Delta X     New X
                                 (Linear)    (Quad)   (Total)
    R1        2.06556  -0.00016   0.00000  -0.00060  -0.00060   2.06496
    R2        2.06446   0.00010   0.00000   0.00050   0.00050   2.06496
    R3        2.06483   0.00000   0.00000   0.00012   0.00012   2.06496
    R4        2.06546  -0.00011   0.00000  -0.00050  -0.00050   2.06496
    A1        1.91114  -0.00002   0.00000  -0.00051  -0.00052   1.91062
    A2        1.91042  -0.00006   0.00000   0.00024   0.00024   1.91065
    A3        1.90742   0.00021   0.00000   0.00320   0.00319   1.91062
    A4        1.91393  -0.00015   0.00000  -0.00329  -0.00329   1.91064
    A5        1.91096  -0.00004   0.00000  -0.00032  -0.00032   1.91064
    A6        1.90993   0.00007   0.00000   0.00071   0.00071   1.91063
    D1       -2.09690   0.00016   0.00000   0.00251   0.00251  -2.09439
    D2        2.09325   0.00007   0.00000   0.00113   0.00113   2.09437
    D3       -2.09174  -0.00010   0.00000  -0.00266  -0.00267  -2.09441
    D4        2.09820  -0.00017   0.00000  -0.00379  -0.00379   2.09440
         Item               Value     Threshold  Converged?
 Maximum Force            0.000211     0.000450     YES
 RMS     Force            0.000117     0.000300     YES
 Maximum Displacement     0.001829     0.001800     NO 
 RMS     Displacement     0.001131     0.001200     YES
 Predicted change in Energy=-1.402965D-06
 GradGradGradGradGradGradGradGradGradGradGradGradGradGradGradGradGradGrad

 Leave Link  103 at Wed Aug 14 16:44:00 2024, MaxMem=   13107200 cpu:       0.0
 (Enter /programs/64bit/g09/g09-gfortran/bin/l9999.exe)
 1\1\GINC-MOLMOD\Freq\RB3LYP\6-31+G(d,p)\C1H4\OSPITE\14-Aug-2024\0\\#P 
 Geom=AllCheck Guess=TCheck SCRF=Check GenChk RB3LYP/6-31+G(d,p) Freq\\
 methane\\0,1\C,-0.0071380384,0.008444916,0.0068122998\H,-0.0118533712,
 0.0036534926,1.0998392634\H,1.0242264496,0.0119315111,-0.3534016336\H,
 -0.5227953119,-0.8809459024,-0.3633160373\H,-0.5219294377,0.9031558341
 ,-0.3525152117\\Version=EM64L-G09RevA.02\State=1-A\HF=-40.526137\RMSD=
 7.461e-10\RMSF=2.453e-04\ZeroPoint=0.0447799\Thermal=0.0476477\Dipole=
 -0.0004396,0.0005055,0.0003729\DipoleDeriv=-0.0236731,0.0001474,-0.000
 0899,0.0001519,-0.023793,0.0000965,-0.0000723,0.0000832,-0.0238167,0.0
 816862,-0.0002291,0.0010198,-0.0002286,0.0820503,0.0009526,0.0007381,0
 .0013086,-0.1467445,-0.120325,-0.0004808,0.070883,-0.0007936,0.0819478
 ,0.00006,0.0707063,-0.0000541,0.057383,0.0313132,-0.0874823,-0.0362557
 ,-0.0870711,-0.0687979,-0.0630035,-0.0360346,-0.0629346,0.0559398,0.03
 09988,0.0880448,-0.0355572,0.0879413,-0.0714072,0.0618944,-0.0353376,0
 .0615969,0.0572383\Polar=13.7093021,0.0009086,13.7080027,0.0003326,0.0
 007285,13.7087759\PG=C01 [X(C1H4)]\NImag=0\\0.55026440,0.00084957,0.54
 830017,-0.00063346,0.00059682,0.54743264,-0.04604530,-0.00004808,0.001
 18448,0.04514226,-0.00004040,-0.04589929,0.00122649,0.00000373,0.04508
 112,0.00115630,0.00124023,-0.31903478,-0.00120592,-0.00142257,0.345120
 64,-0.29061027,-0.00082072,0.08550764,0.00208849,0.00001275,-0.0008811
 9,0.31358617,-0.00083770,-0.04588730,0.00023758,-0.00016531,-0.0016052
 4,0.00004085,0.00082084,0.04494623,0.08550287,0.00021681,-0.07570721,0
 .03164930,0.00005704,-0.00854215,-0.09388206,-0.00026754,0.07775475,-0
 .10697218,-0.10526122,-0.04375664,-0.00059378,0.00172168,0.00047946,-0
 .01248391,-0.02518193,-0.01178014,0.11191968,-0.10525629,-0.22746524,-
 0.07562238,0.00172245,0.00136906,0.00084541,0.00131066,0.00121199,0.00
 129819,0.11552246,0.24443785,-0.04373460,-0.07561995,-0.07725783,-0.01
 579919,-0.02735481,-0.00888511,0.00462416,0.01060444,0.00331457,0.0480
 7078,0.08305981,0.07950851,-0.10663665,0.10528045,-0.04230202,-0.00059
 166,-0.00169776,0.00045135,-0.01258047,0.02536411,-0.01148997,0.008130
 19,-0.01329928,0.00683885,0.11167858,0.10528482,-0.22904833,0.07356150
 ,-0.00151280,0.00105435,-0.00070392,-0.00132353,0.00133431,-0.00130449
 ,0.01319901,-0.01955365,0.00931050,-0.11564752,0.24621332,-0.04229111,
 0.07356609,-0.07543282,-0.01582866,0.02749385,-0.00865860,0.00463145,-
 0.01061532,0.00318004,0.00698654,-0.00958103,0.00331986,0.04650179,-0.
 08086358,0.07759152\\0.00050960,-0.00048303,-0.00046674,-0.00012865,0.
 00014827,0.00015579,-0.00006968,0.00014982,0.00010397,-0.00018576,0.00
 007420,0.00008080,-0.00012552,0.00011073,0.00012617\\\@


 ERWIN WITH HIS PSI CAN DO
 CALCULATIONS QUITE A FEW.
 BUT ONE THING HAS NOT BEEN SEEN
 JUST WHAT DOES PSI REALLY MEAN.
 -- WALTER HUCKEL, TRANS. BY FELIX BLOCH
 Job cpu time:  0 days  0 hours  0 minutes 43.3 seconds.
 File lengths (MBytes):  RWF=      5 Int=      0 D2E=      0 Chk=      1 Scr=      1
 Normal termination of Gaussian 09 at Wed Aug 14 16:44:00 2024.
