 Entering Gaussian System, Link 0=/programs/64bit/g09/g09-gfortran/bin/g09
 Input=co.com
 Output=co.log
 Initial command:
 /programs/64bit/g09/g09-gfortran/bin/l1.exe /home/ospite/Desktop/MMfP/Project3/CO/Gau-4957.inp -scrdir=/home/ospite/Desktop/MMfP/Project3/CO/
 Entering Link 1 = /programs/64bit/g09/g09-gfortran/bin/l1.exe PID=      4958.
  
 Copyright (c) 1988,1990,1992,1993,1995,1998,2003,2009, Gaussian, Inc.
                  All Rights Reserved.
  
 This is part of the Gaussian(R) 09 program.  It is based on
 the Gaussian(R) 03 system (copyright 2003, Gaussian, Inc.),
 the Gaussian(R) 98 system (copyright 1998, Gaussian, Inc.),
 the Gaussian(R) 94 system (copyright 1995, Gaussian, Inc.),
 the Gaussian 92(TM) system (copyright 1992, Gaussian, Inc.),
 the Gaussian 90(TM) system (copyright 1990, Gaussian, Inc.),
 the Gaussian 88(TM) system (copyright 1988, Gaussian, Inc.),
 the Gaussian 86(TM) system (copyright 1986, Carnegie Mellon
 University), and the Gaussian 82(TM) system (copyright 1983,
 Carnegie Mellon University). Gaussian is a federally registered
 trademark of Gaussian, Inc.
  
 This software contains proprietary and confidential information,
 including trade secrets, belonging to Gaussian, Inc.
  
 This software is provided under written license and may be
 used, copied, transmitted, or stored only in accord with that
 written license.
  
 The following legend is applicable only to US Government
 contracts under FAR:
  
                    RESTRICTED RIGHTS LEGEND
  
 Use, reproduction and disclosure by the US Government is
 subject to restrictions as set forth in subparagraphs (a)
 and (c) of the Commercial Computer Software - Restricted
 Rights clause in FAR 52.227-19.
  
 Gaussian, Inc.
 340 Quinnipiac St., Bldg. 40, Wallingford CT 06492
  
  
 ---------------------------------------------------------------
 Warning -- This program may not be used in any manner that
 competes with the business of Gaussian, Inc. or will provide
 assistance to any competitor of Gaussian, Inc.  The licensee
 of this program is prohibited from giving any competitor of
 Gaussian, Inc. access to this program.  By using this program,
 the user acknowledges that Gaussian, Inc. is engaged in the
 business of creating and licensing software in the field of
 computational chemistry and represents and warrants to the
 licensee that it is not a competitor of Gaussian, Inc. and that
 it will not use this program in any manner prohibited above.
 ---------------------------------------------------------------
  

 Cite this work as:
 Gaussian 09, Revision A.02,
 M. J. Frisch, G. W. Trucks, H. B. Schlegel, G. E. Scuseria, 
 M. A. Robb, J. R. Cheeseman, G. Scalmani, V. Barone, B. Mennucci, 
 G. A. Petersson, H. Nakatsuji, M. Caricato, X. Li, H. P. Hratchian, 
 A. F. Izmaylov, J. Bloino, G. Zheng, J. L. Sonnenberg, M. Hada, 
 M. Ehara, K. Toyota, R. Fukuda, J. Hasegawa, M. Ishida, T. Nakajima, 
 Y. Honda, O. Kitao, H. Nakai, T. Vreven, J. A. Montgomery, Jr., 
 J. E. Peralta, F. Ogliaro, M. Bearpark, J. J. Heyd, E. Brothers, 
 K. N. Kudin, V. N. Staroverov, R. Kobayashi, J. Normand, 
 K. Raghavachari, A. Rendell, J. C. Burant, S. S. Iyengar, J. Tomasi, 
 M. Cossi, N. Rega, J. M. Millam, M. Klene, J. E. Knox, J. B. Cross, 
 V. Bakken, C. Adamo, J. Jaramillo, R. Gomperts, R. E. Stratmann, 
 O. Yazyev, A. J. Austin, R. Cammi, C. Pomelli, J. W. Ochterski, 
 R. L. Martin, K. Morokuma, V. G. Zakrzewski, G. A. Voth, 
 P. Salvador, J. J. Dannenberg, S. Dapprich, A. D. Daniels, 
 O. Farkas, J. B. Foresman, J. V. Ortiz, J. Cioslowski, 
 and D. J. Fox, Gaussian, Inc., Wallingford CT, 2009.
 
 ******************************************
 Gaussian 09:  EM64L-G09RevA.02 11-Jun-2009
                13-Aug-2024 
 ******************************************
 ----------------------------------------------
 #p B3LYP/6-31+g(d,p) opt freq pop=full gfinput
 ----------------------------------------------
 1/14=-1,18=20,19=15,26=3,38=1/1,3;
 2/9=110,12=2,17=6,18=5,40=1/2;
 3/5=1,6=6,7=111,11=2,16=1,24=10,25=1,30=1,71=1,74=-5/1,2,3;
 4//1;
 5/5=2,38=5/2;
 6/7=3,28=1/1;
 7//1,2,3,16;
 1/14=-1,18=20,19=15/3(2);
 2/9=110/2;
 99//99;
 2/9=110/2;
 3/5=1,6=6,7=111,11=2,16=1,25=1,30=1,71=1,74=-5/1,2,3;
 4/5=5,16=3/1;
 5/5=2,38=5/2;
 7//1,2,3,16;
 1/14=-1,18=20,19=15/3(-5);
 2/9=110/2;
 6/7=3,19=2,28=1/1;
 99/9=1/99;
 Leave Link    1 at Tue Aug 13 22:04:09 2024, MaxMem=          0 cpu:       0.1
 (Enter /programs/64bit/g09/g09-gfortran/bin/l101.exe)
 ---------------
 carbon_monoxide
 ---------------
 Symbolic Z-matrix:
 Charge =  0 Multiplicity = 1
 C1
 O2                   1    d
       Variables:
  d                     1.128                    
 
 NAtoms=      2 NQM=      2 NQMF=      0 NMic=      0 NMicF=      0 NTot=      2.
                    Isotopes and Nuclear Properties:
 (Nuclear quadrupole moments (NQMom) in fm**2, nuclear magnetic moments (NMagM)
  in nuclear magnetons)

  Atom         1           2
 IAtWgt=          12          16
 AtmWgt=  12.0000000  15.9949146
 NucSpn=           0           0
 AtZEff=   0.0000000   0.0000000
 NQMom=    0.0000000   0.0000000
 NMagM=    0.0000000   0.0000000
 Leave Link  101 at Tue Aug 13 22:04:09 2024, MaxMem=   33554432 cpu:       0.1
 (Enter /programs/64bit/g09/g09-gfortran/bin/l103.exe)

 GradGradGradGradGradGradGradGradGradGradGradGradGradGradGradGradGradGrad
 Berny optimization.
 Initialization pass.
                           ----------------------------
                           !    Initial Parameters    !
                           ! (Angstroms and Degrees)  !
 --------------------------                            --------------------------
 ! Name  Definition              Value          Derivative Info.                !
 --------------------------------------------------------------------------------
 ! R1    R(1,2)                  1.128          estimate D2E/DX2                !
 --------------------------------------------------------------------------------
 Trust Radius=3.00D-01 FncErr=1.00D-07 GrdErr=1.00D-06
 Number of steps in this run=  20 maximum allowed number of steps= 100.
 GradGradGradGradGradGradGradGradGradGradGradGradGradGradGradGradGradGrad

 Leave Link  103 at Tue Aug 13 22:04:09 2024, MaxMem=   33554432 cpu:       0.0
 (Enter /programs/64bit/g09/g09-gfortran/bin/l202.exe)
                          Input orientation:                          
 ---------------------------------------------------------------------
 Center     Atomic      Atomic             Coordinates (Angstroms)
 Number     Number       Type             X           Y           Z
 ---------------------------------------------------------------------
      1          6           0        0.000000    0.000000    0.000000
      2          8           0        0.000000    0.000000    1.128000
 ---------------------------------------------------------------------
 Stoichiometry    CO
 Framework group  C*V[C*(CO)]
 Deg. of freedom     1
 Full point group                 C*V     NOp   4
 Largest Abelian subgroup         C2V     NOp   4
 Largest concise Abelian subgroup C1      NOp   1
                         Standard orientation:                         
 ---------------------------------------------------------------------
 Center     Atomic      Atomic             Coordinates (Angstroms)
 Number     Number       Type             X           Y           Z
 ---------------------------------------------------------------------
      1          6           0        0.000000    0.000000   -0.644571
      2          8           0        0.000000    0.000000    0.483429
 ---------------------------------------------------------------------
 Rotational constants (GHZ):      0.0000000     57.9315264     57.9315264
 Leave Link  202 at Tue Aug 13 22:04:09 2024, MaxMem=   33554432 cpu:       0.0
 (Enter /programs/64bit/g09/g09-gfortran/bin/l301.exe)
 Standard basis: 6-31+G(d,p) (6D, 7F)
 Ernie: Thresh=  0.10000D-02 Tol=  0.10000D-05 Strict=F.
 AO basis set in the form of general basis input (Overlap normalization):
      1 0
 S   6 1.00       0.000000000000
      0.3047524880D+04  0.1834737132D-02
      0.4573695180D+03  0.1403732281D-01
      0.1039486850D+03  0.6884262226D-01
      0.2921015530D+02  0.2321844432D+00
      0.9286662960D+01  0.4679413484D+00
      0.3163926960D+01  0.3623119853D+00
 SP   3 1.00       0.000000000000
      0.7868272350D+01 -0.1193324198D+00  0.6899906659D-01
      0.1881288540D+01 -0.1608541517D+00  0.3164239610D+00
      0.5442492580D+00  0.1143456438D+01  0.7443082909D+00
 SP   1 1.00       0.000000000000
      0.1687144782D+00  0.1000000000D+01  0.1000000000D+01
 SP   1 1.00       0.000000000000
      0.4380000000D-01  0.1000000000D+01  0.1000000000D+01
 D   1 1.00       0.000000000000
      0.8000000000D+00  0.1000000000D+01
 ****
      2 0
 S   6 1.00       0.000000000000
      0.5484671660D+04  0.1831074430D-02
      0.8252349460D+03  0.1395017220D-01
      0.1880469580D+03  0.6844507810D-01
      0.5296450000D+02  0.2327143360D+00
      0.1689757040D+02  0.4701928980D+00
      0.5799635340D+01  0.3585208530D+00
 SP   3 1.00       0.000000000000
      0.1553961625D+02 -0.1107775495D+00  0.7087426823D-01
      0.3599933586D+01 -0.1480262627D+00  0.3397528391D+00
      0.1013761750D+01  0.1130767015D+01  0.7271585773D+00
 SP   1 1.00       0.000000000000
      0.2700058226D+00  0.1000000000D+01  0.1000000000D+01
 SP   1 1.00       0.000000000000
      0.8450000000D-01  0.1000000000D+01  0.1000000000D+01
 D   1 1.00       0.000000000000
      0.8000000000D+00  0.1000000000D+01
 ****

 There are    20 symmetry adapted basis functions of A1  symmetry.
 There are     2 symmetry adapted basis functions of A2  symmetry.
 There are     8 symmetry adapted basis functions of B1  symmetry.
 There are     8 symmetry adapted basis functions of B2  symmetry.
 Integral buffers will be    131072 words long.
 Raffenetti 2 integral format.
 Two-electron integral symmetry is turned on.
    38 basis functions,    64 primitive gaussians,    38 cartesian basis functions
     7 alpha electrons        7 beta electrons
       nuclear repulsion energy        22.5181790889 Hartrees.
 IExCor=  402 DFT=T Ex+Corr=B3LYP ExCW=0 ScaHFX=  0.200000
 ScaDFX=  0.800000  0.720000  1.000000  0.810000 ScalE2=  1.000000  1.000000
 IRadAn=      0 IRanWt=     -1 IRanGd=            0 ICorTp=0
 NAtoms=    2 NActive=    2 NUniq=    2 SFac= 7.50D-01 NAtFMM=   80 NAOKFM=F Big=F
 Leave Link  301 at Tue Aug 13 22:04:09 2024, MaxMem=   33554432 cpu:       0.1
 (Enter /programs/64bit/g09/g09-gfortran/bin/l302.exe)
 NPDir=0 NMtPBC=     1 NCelOv=     1 NCel=       1 NClECP=     1 NCelD=      1
         NCelK=      1 NCelE2=     1 NClLst=     1 CellRange=     0.0.
 One-electron integrals computed using PRISM.
 NBasis=    38 RedAO= T  NBF=    20     2     8     8
 NBsUse=    38 1.00D-06 NBFU=    20     2     8     8
 Precomputing XC quadrature grid using
 IXCGrd= 2 IRadAn=           0 IRanWt=          -1 IRanGd=           0 AccXCQ= 1.00D-10.
 NRdTot=     128 NPtTot=       16092 NUsed=       17027 NTot=       17059
 NSgBfM=    38    38    38    38    38 NAtAll=     2     2.
 Leave Link  302 at Tue Aug 13 22:04:09 2024, MaxMem=   33554432 cpu:       0.1
 (Enter /programs/64bit/g09/g09-gfortran/bin/l303.exe)
 DipDrv:  MaxL=1.
 Leave Link  303 at Tue Aug 13 22:04:09 2024, MaxMem=   33554432 cpu:       0.0
 (Enter /programs/64bit/g09/g09-gfortran/bin/l401.exe)
 Harris functional with IExCor=  402 diagonalized for initial guess.
 ExpMin= 4.38D-02 ExpMax= 5.48D+03 ExpMxC= 8.25D+02 IAcc=2 IRadAn=         0 AccDes= 0.00D+00
 HarFok:  IExCor=  402 AccDes= 0.00D+00 IRadAn=         0 IDoV= 1
 ScaDFX=  1.000000  1.000000  1.000000  1.000000
 FoFCou: FMM=F IPFlag=           0 FMFlag=      100000 FMFlg1=           0
         NFxFlg=           0 DoJE=T BraDBF=F KetDBF=T FulRan=T
         Omega=  0.000000  0.000000  1.000000  0.000000  0.000000 ICntrl=     500 IOpCl=  0
         NMat0=    1 NMatS0=    1 NMatT0=    0 NMatD0=    1 NMtDS0=    0 NMtDT0=    0
         I1Cent=           4 NGrid=           0.
 Petite list used in FoFCou.
 Harris En= -113.313278706046    
 Initial guess orbital symmetries:
       Occupied  (SG) (SG) (SG) (SG) (PI) (PI) (SG)
       Virtual   (PI) (PI) (SG) (SG) (PI) (PI) (SG) (PI) (PI) (SG)
                 (SG) (PI) (PI) (SG) (SG) (PI) (PI) (SG) (DLTA)
                 (DLTA) (SG) (PI) (PI) (DLTA) (DLTA) (SG) (PI)
                 (PI) (SG) (SG) (SG)
 The electronic state of the initial guess is 1-SG.
 Leave Link  401 at Tue Aug 13 22:04:10 2024, MaxMem=   33554432 cpu:       0.3
 (Enter /programs/64bit/g09/g09-gfortran/bin/l502.exe)
 Closed shell SCF:
 Requested convergence on RMS density matrix=1.00D-08 within 128 cycles.
 Requested convergence on MAX density matrix=1.00D-06.
 Requested convergence on             energy=1.00D-06.
 No special actions if energy rises.
 Using DIIS extrapolation, IDIIS=  1040.
 Integral symmetry usage will be decided dynamically.
        16996 words used for storage of precomputed grid.
 Keep R1 ints in memory in canonical form, NReq=1173967.
 IEnd=       40012 IEndB=       40012 NGot=    33554432 MDV=    33257604
 LenX=    33257604 LenY=    33255719
 Symmetry not used in FoFDir.
 MinBra= 0 MaxBra= 2 Meth= 1.
 IRaf=       0 NMat=   1 IRICut=       1 DoRegI=T DoRafI=F ISym2E= 0 JSym2E=0.

 Cycle   1  Pass 1  IDiag  1:
 E= -113.297628816445    
 DIIS: error= 2.55D-02 at cycle   1 NSaved=   1.
 NSaved= 1 IEnMin= 1 EnMin= -113.297628816445     IErMin= 1 ErrMin= 2.55D-02
 ErrMax= 2.55D-02 EMaxC= 1.00D-01 BMatC= 2.92D-02 BMatP= 2.92D-02
 IDIUse=3 WtCom= 7.45D-01 WtEn= 2.55D-01
 Coeff-Com:  0.100D+01
 Coeff-En:   0.100D+01
 Coeff:      0.100D+01
 Gap=     0.370 Goal=   None    Shift=    0.000
 GapD=    0.370 DampG=1.000 DampE=0.500 DampFc=0.5000 IDamp=-1.
 Damping current iteration by 5.00D-01
 RMSDP=6.67D-03 MaxDP=1.11D-01              OVMax= 1.42D-01

 Cycle   2  Pass 1  IDiag  1:
 E= -113.293549750782     Delta-E=        0.004079065663 Rises=F Damp=T
 DIIS: error= 2.00D-02 at cycle   2 NSaved=   2.
 NSaved= 2 IEnMin= 1 EnMin= -113.297628816445     IErMin= 2 ErrMin= 2.00D-02
 ErrMax= 2.00D-02 EMaxC= 1.00D-01 BMatC= 1.14D-02 BMatP= 2.92D-02
 IDIUse=3 WtCom= 8.00D-01 WtEn= 2.00D-01
 Coeff-Com:  0.368D+00 0.632D+00
 Coeff-En:   0.562D+00 0.438D+00
 Coeff:      0.407D+00 0.593D+00
 Gap=     0.347 Goal=   None    Shift=    0.000
 RMSDP=2.34D-03 MaxDP=2.07D-02 DE= 4.08D-03 OVMax= 1.06D-01

 Cycle   3  Pass 1  IDiag  1:
 E= -113.316549395266     Delta-E=       -0.022999644484 Rises=F Damp=F
 DIIS: error= 4.49D-03 at cycle   3 NSaved=   3.
 NSaved= 3 IEnMin= 3 EnMin= -113.316549395266     IErMin= 3 ErrMin= 4.49D-03
 ErrMax= 4.49D-03 EMaxC= 1.00D-01 BMatC= 5.20D-04 BMatP= 1.14D-02
 IDIUse=3 WtCom= 9.55D-01 WtEn= 4.49D-02
 Coeff-Com:  0.822D-01 0.192D+00 0.726D+00
 Coeff-En:   0.000D+00 0.000D+00 0.100D+01
 Coeff:      0.785D-01 0.184D+00 0.738D+00
 Gap=     0.347 Goal=   None    Shift=    0.000
 RMSDP=7.45D-04 MaxDP=9.51D-03 DE=-2.30D-02 OVMax= 1.13D-02

 Cycle   4  Pass 1  IDiag  1:
 E= -113.317082326332     Delta-E=       -0.000532931066 Rises=F Damp=F
 DIIS: error= 1.31D-03 at cycle   4 NSaved=   4.
 NSaved= 4 IEnMin= 4 EnMin= -113.317082326332     IErMin= 4 ErrMin= 1.31D-03
 ErrMax= 1.31D-03 EMaxC= 1.00D-01 BMatC= 4.42D-05 BMatP= 5.20D-04
 IDIUse=3 WtCom= 9.87D-01 WtEn= 1.31D-02
 Coeff-Com:  0.477D-02-0.850D-03 0.215D+00 0.781D+00
 Coeff-En:   0.000D+00 0.000D+00 0.000D+00 0.100D+01
 Coeff:      0.471D-02-0.839D-03 0.212D+00 0.784D+00
 Gap=     0.346 Goal=   None    Shift=    0.000
 RMSDP=1.53D-04 MaxDP=2.06D-03 DE=-5.33D-04 OVMax= 2.05D-03

 Cycle   5  Pass 1  IDiag  1:
 E= -113.317125726522     Delta-E=       -0.000043400190 Rises=F Damp=F
 DIIS: error= 1.41D-04 at cycle   5 NSaved=   5.
 NSaved= 5 IEnMin= 5 EnMin= -113.317125726522     IErMin= 5 ErrMin= 1.41D-04
 ErrMax= 1.41D-04 EMaxC= 1.00D-01 BMatC= 4.40D-07 BMatP= 4.42D-05
 IDIUse=3 WtCom= 9.99D-01 WtEn= 1.41D-03
 Coeff-Com:  0.178D-02-0.381D-02 0.415D-01 0.165D+00 0.795D+00
 Coeff-En:   0.000D+00 0.000D+00 0.000D+00 0.000D+00 0.100D+01
 Coeff:      0.177D-02-0.380D-02 0.414D-01 0.165D+00 0.795D+00
 Gap=     0.346 Goal=   None    Shift=    0.000
 RMSDP=1.18D-05 MaxDP=1.47D-04 DE=-4.34D-05 OVMax= 1.64D-04

 Cycle   6  Pass 1  IDiag  1:
 E= -113.317126076068     Delta-E=       -0.000000349546 Rises=F Damp=F
 DIIS: error= 1.73D-05 at cycle   6 NSaved=   6.
 NSaved= 6 IEnMin= 6 EnMin= -113.317126076068     IErMin= 6 ErrMin= 1.73D-05
 ErrMax= 1.73D-05 EMaxC= 1.00D-01 BMatC= 7.71D-09 BMatP= 4.40D-07
 IDIUse=1 WtCom= 1.00D+00 WtEn= 0.00D+00
 Coeff-Com:  0.291D-03-0.695D-03 0.216D-02 0.816D-02 0.434D-01 0.947D+00
 Coeff:      0.291D-03-0.695D-03 0.216D-02 0.816D-02 0.434D-01 0.947D+00
 Gap=     0.346 Goal=   None    Shift=    0.000
 RMSDP=1.45D-06 MaxDP=1.54D-05 DE=-3.50D-07 OVMax= 2.63D-05

 Cycle   7  Pass 1  IDiag  1:
 E= -113.317126082133     Delta-E=       -0.000000006064 Rises=F Damp=F
 DIIS: error= 5.67D-07 at cycle   7 NSaved=   7.
 NSaved= 7 IEnMin= 7 EnMin= -113.317126082133     IErMin= 7 ErrMin= 5.67D-07
 ErrMax= 5.67D-07 EMaxC= 1.00D-01 BMatC= 9.30D-12 BMatP= 7.71D-09
 IDIUse=1 WtCom= 1.00D+00 WtEn= 0.00D+00
 Coeff-Com: -0.111D-04 0.202D-04-0.293D-03-0.128D-02-0.108D-01 0.331D-01
 Coeff-Com:  0.979D+00
 Coeff:     -0.111D-04 0.202D-04-0.293D-03-0.128D-02-0.108D-01 0.331D-01
 Coeff:      0.979D+00
 Gap=     0.346 Goal=   None    Shift=    0.000
 RMSDP=7.63D-08 MaxDP=9.39D-07 DE=-6.06D-09 OVMax= 9.32D-07

 Cycle   8  Pass 1  IDiag  1:
 E= -113.317126082140     Delta-E=       -0.000000000007 Rises=F Damp=F
 DIIS: error= 1.39D-08 at cycle   8 NSaved=   8.
 NSaved= 8 IEnMin= 8 EnMin= -113.317126082140     IErMin= 8 ErrMin= 1.39D-08
 ErrMax= 1.39D-08 EMaxC= 1.00D-01 BMatC= 5.57D-15 BMatP= 9.30D-12
 IDIUse=1 WtCom= 1.00D+00 WtEn= 0.00D+00
 Coeff-Com: -0.753D-06 0.172D-05-0.462D-05-0.193D-04 0.347D-04-0.298D-02
 Coeff-Com: -0.143D-01 0.102D+01
 Coeff:     -0.753D-06 0.172D-05-0.462D-05-0.193D-04 0.347D-04-0.298D-02
 Coeff:     -0.143D-01 0.102D+01
 Gap=     0.346 Goal=   None    Shift=    0.000
 RMSDP=3.60D-09 MaxDP=3.32D-08 DE=-7.33D-12 OVMax= 4.85D-08

 SCF Done:  E(RB3LYP) =  -113.317126082     A.U. after    8 cycles
             Convg  =    0.3596D-08             -V/T =  2.0088
 KE= 1.123275715622D+02 PE=-3.105055409055D+02 EE= 6.234266417228D+01
 Leave Link  502 at Tue Aug 13 22:04:12 2024, MaxMem=   33554432 cpu:       1.1
 (Enter /programs/64bit/g09/g09-gfortran/bin/l601.exe)
 Copying SCF densities to generalized density rwf, IOpCl= 0 IROHF=0.

 **********************************************************************

            Population analysis using the SCF density.

 **********************************************************************

 Orbital symmetries:
       Occupied  (SG) (SG) (SG) (SG) (PI) (PI) (SG)
       Virtual   (PI) (PI) (SG) (SG) (PI) (PI) (SG) (PI) (PI) (SG)
                 (SG) (PI) (PI) (SG) (SG) (PI) (PI) (SG) (DLTA)
                 (DLTA) (SG) (PI) (PI) (DLTA) (DLTA) (SG) (PI)
                 (PI) (SG) (SG) (SG)
 The electronic state is 1-SG.
 Alpha  occ. eigenvalues --  -19.27450 -10.31846  -1.17945  -0.58450  -0.48546
 Alpha  occ. eigenvalues --   -0.48546  -0.38636
 Alpha virt. eigenvalues --   -0.04069  -0.04069   0.02832   0.05950   0.07196
 Alpha virt. eigenvalues --    0.07196   0.17948   0.20877   0.20877   0.26085
 Alpha virt. eigenvalues --    0.42638   0.63342   0.63342   0.74476   1.03552
 Alpha virt. eigenvalues --    1.13419   1.13419   1.15034   1.46160   1.46161
 Alpha virt. eigenvalues --    1.47713   1.53450   1.53450   1.93416   1.93416
 Alpha virt. eigenvalues --    2.48119   2.60891   2.60891   3.05062   3.99802
 Alpha virt. eigenvalues --    4.15106
     Molecular Orbital Coefficients:
                           1         2         3         4         5
                           O         O         O         O         O
     Eigenvalues --   -19.27450 -10.31846  -1.17945  -0.58450  -0.48546
   1 1   C  1S          0.00003   0.99307  -0.11758   0.13369   0.00000
   2        2S          0.00030   0.04987   0.22469  -0.29664   0.00000
   3        2PX         0.00000   0.00000   0.00000   0.00000   0.00000
   4        2PY         0.00000   0.00000   0.00000   0.00000   0.32203
   5        2PZ        -0.00011   0.00408   0.22243  -0.11774   0.00000
   6        3S         -0.00090  -0.01096   0.07378  -0.28628   0.00000
   7        3PX         0.00000   0.00000   0.00000   0.00000   0.00000
   8        3PY         0.00000   0.00000   0.00000   0.00000   0.10221
   9        3PZ        -0.00113  -0.00125  -0.01042  -0.02315   0.00000
  10        4S          0.00199  -0.00167   0.01960  -0.00301   0.00000
  11        4PX         0.00000   0.00000   0.00000   0.00000   0.00000
  12        4PY         0.00000   0.00000   0.00000   0.00000   0.01395
  13        4PZ         0.00112  -0.00056   0.01867   0.00607   0.00000
  14        5XX        -0.00010  -0.00965  -0.02424   0.01512   0.00000
  15        5YY        -0.00010  -0.00965  -0.02424   0.01512   0.00000
  16        5ZZ        -0.00088  -0.00764   0.03068   0.00288   0.00000
  17        5XY         0.00000   0.00000   0.00000   0.00000   0.00000
  18        5XZ         0.00000   0.00000   0.00000   0.00000   0.00000
  19        5YZ         0.00000   0.00000   0.00000   0.00000   0.04021
  20 2   O  1S          0.99260  -0.00041  -0.20262  -0.11545   0.00000
  21        2S          0.02549   0.00035   0.44201   0.26535   0.00000
  22        2PX         0.00000   0.00000   0.00000   0.00000   0.00000
  23        2PY         0.00000   0.00000   0.00000   0.00000   0.56668
  24        2PZ        -0.00142   0.00028  -0.18213   0.49603   0.00000
  25        3S          0.01542  -0.00313   0.36763   0.45514   0.00000
  26        3PX         0.00000   0.00000   0.00000   0.00000   0.00000
  27        3PY         0.00000   0.00000   0.00000   0.00000   0.32480
  28        3PZ        -0.00020   0.00286  -0.02981   0.19461   0.00000
  29        4S         -0.00514   0.00682  -0.05222   0.06487   0.00000
  30        4PX         0.00000   0.00000   0.00000   0.00000   0.00000
  31        4PY         0.00000   0.00000   0.00000   0.00000   0.03175
  32        4PZ        -0.00002  -0.00355   0.00023   0.00561   0.00000
  33        5XX        -0.00861   0.00039  -0.00852   0.00508   0.00000
  34        5YY        -0.00861   0.00039  -0.00852   0.00508   0.00000
  35        5ZZ        -0.00814  -0.00092   0.00797  -0.02864   0.00000
  36        5XY         0.00000   0.00000   0.00000   0.00000   0.00000
  37        5XZ         0.00000   0.00000   0.00000   0.00000   0.00000
  38        5YZ         0.00000   0.00000   0.00000   0.00000  -0.03436
                           6         7         8         9        10
                           O         O         V         V         V
     Eigenvalues --    -0.48546  -0.38636  -0.04069  -0.04069   0.02832
   1 1   C  1S          0.00000  -0.14328   0.00000   0.00000   0.03201
   2        2S          0.00000   0.28565   0.00000   0.00000  -0.12289
   3        2PX         0.32203   0.00000   0.50856   0.00000   0.00000
   4        2PY         0.00000   0.00000   0.00000   0.50856   0.00000
   5        2PZ         0.00000  -0.45027   0.00000   0.00000   0.11540
   6        3S          0.00000   0.50821   0.00000   0.00000   0.22941
   7        3PX         0.10221   0.00000   0.52206   0.00000   0.00000
   8        3PY         0.00000   0.00000   0.00000   0.52206   0.00000
   9        3PZ         0.00000  -0.14495   0.00000   0.00000   0.38925
  10        4S          0.00000   0.08367   0.00000   0.00000   2.16634
  11        4PX         0.01395   0.00000   0.40946   0.00000   0.00000
  12        4PY         0.00000   0.00000   0.00000   0.40946   0.00000
  13        4PZ         0.00000  -0.02804   0.00000   0.00000   0.80344
  14        5XX         0.00000   0.01056   0.00000   0.00000   0.00191
  15        5YY         0.00000   0.01056   0.00000   0.00000   0.00191
  16        5ZZ         0.00000  -0.04307   0.00000   0.00000   0.00557
  17        5XY         0.00000   0.00000   0.00000   0.00000   0.00000
  18        5XZ         0.04021   0.00000  -0.01550   0.00000   0.00000
  19        5YZ         0.00000   0.00000   0.00000  -0.01550   0.00000
  20 2   O  1S          0.00000   0.01430   0.00000   0.00000   0.03255
  21        2S          0.00000  -0.03917   0.00000   0.00000  -0.11337
  22        2PX         0.56668   0.00000  -0.39597   0.00000   0.00000
  23        2PY         0.00000   0.00000   0.00000  -0.39597   0.00000
  24        2PZ         0.00000   0.27506   0.00000   0.00000  -0.06770
  25        3S          0.00000  -0.01650   0.00000   0.00000  -0.24268
  26        3PX         0.32480   0.00000  -0.34248   0.00000   0.00000
  27        3PY         0.00000   0.00000   0.00000  -0.34248   0.00000
  28        3PZ         0.00000   0.10598   0.00000   0.00000   0.05694
  29        4S          0.00000   0.04613   0.00000   0.00000  -1.68680
  30        4PX         0.03175   0.00000  -0.26907   0.00000   0.00000
  31        4PY         0.00000   0.00000   0.00000  -0.26907   0.00000
  32        4PZ         0.00000   0.01797   0.00000   0.00000   0.38187
  33        5XX         0.00000   0.00430   0.00000   0.00000  -0.00215
  34        5YY         0.00000   0.00430   0.00000   0.00000  -0.00215
  35        5ZZ         0.00000   0.00134   0.00000   0.00000  -0.01698
  36        5XY         0.00000   0.00000   0.00000   0.00000   0.00000
  37        5XZ        -0.03436   0.00000  -0.01116   0.00000   0.00000
  38        5YZ         0.00000   0.00000   0.00000  -0.01116   0.00000
                          11        12        13        14        15
                           V         V         V         V         V
     Eigenvalues --     0.05950   0.07196   0.07196   0.17948   0.20877
   1 1   C  1S         -0.05382   0.00000   0.00000  -0.06264   0.00000
   2        2S          0.11464   0.00000   0.00000   0.02454   0.00000
   3        2PX         0.00000  -0.31682   0.00000   0.00000   0.05460
   4        2PY         0.00000   0.00000  -0.31682   0.00000   0.00000
   5        2PZ        -0.07955   0.00000   0.00000  -0.00596   0.00000
   6        3S          0.29891   0.00000   0.00000   1.34967   0.00000
   7        3PX         0.00000  -0.42274   0.00000   0.00000  -0.14277
   8        3PY         0.00000   0.00000  -0.42274   0.00000   0.00000
   9        3PZ        -0.18505   0.00000   0.00000  -0.07846   0.00000
  10        4S         -0.47021   0.00000   0.00000   0.05924   0.00000
  11        4PX         0.00000   1.12319   0.00000   0.00000  -1.14245
  12        4PY         0.00000   0.00000   1.12319   0.00000   0.00000
  13        4PZ         1.16797   0.00000   0.00000  -0.65170   0.00000
  14        5XX         0.00236   0.00000   0.00000  -0.03148   0.00000
  15        5YY         0.00236   0.00000   0.00000  -0.03148   0.00000
  16        5ZZ        -0.03130   0.00000   0.00000  -0.01203   0.00000
  17        5XY         0.00000   0.00000   0.00000   0.00000   0.00000
  18        5XZ         0.00000  -0.01150   0.00000   0.00000  -0.00311
  19        5YZ         0.00000   0.00000  -0.01150   0.00000   0.00000
  20 2   O  1S          0.02239   0.00000   0.00000   0.01817   0.00000
  21        2S         -0.08052   0.00000   0.00000  -0.01256   0.00000
  22        2PX         0.00000   0.04416   0.00000   0.00000  -0.24830
  23        2PY         0.00000   0.00000   0.04416   0.00000   0.00000
  24        2PZ         0.01873   0.00000   0.00000  -0.12043   0.00000
  25        3S         -0.04392   0.00000   0.00000  -0.18403   0.00000
  26        3PX         0.00000   0.11380   0.00000   0.00000  -0.44235
  27        3PY         0.00000   0.00000   0.11380   0.00000   0.00000
  28        3PZ        -0.01151   0.00000   0.00000  -0.20056   0.00000
  29        4S         -0.14051   0.00000   0.00000  -0.47585   0.00000
  30        4PX         0.00000  -0.03922   0.00000   0.00000   1.91620
  31        4PY         0.00000   0.00000  -0.03922   0.00000   0.00000
  32        4PZ        -0.20109   0.00000   0.00000   1.96995   0.00000
  33        5XX        -0.00524   0.00000   0.00000   0.00056   0.00000
  34        5YY        -0.00524   0.00000   0.00000   0.00056   0.00000
  35        5ZZ         0.00537   0.00000   0.00000   0.05201   0.00000
  36        5XY         0.00000   0.00000   0.00000   0.00000   0.00000
  37        5XZ         0.00000   0.01541   0.00000   0.00000   0.01904
  38        5YZ         0.00000   0.00000   0.01541   0.00000   0.00000
                          16        17        18        19        20
                           V         V         V         V         V
     Eigenvalues --     0.20877   0.26085   0.42638   0.63342   0.63342
   1 1   C  1S          0.00000   0.03414  -0.11050   0.00000   0.00000
   2        2S          0.00000  -0.02644   0.18190   0.00000   0.00000
   3        2PX         0.00000   0.00000   0.00000  -1.02892   0.00000
   4        2PY         0.05460   0.00000   0.00000   0.00000  -1.02892
   5        2PZ         0.00000   0.09494   0.12111   0.00000   0.00000
   6        3S          0.00000  -1.44089   4.11715   0.00000   0.00000
   7        3PX         0.00000   0.00000   0.00000   1.58083   0.00000
   8        3PY        -0.14277   0.00000   0.00000   0.00000   1.58083
   9        3PZ         0.00000  -0.07359   2.89003   0.00000   0.00000
  10        4S          0.00000  -3.03752   1.63221   0.00000   0.00000
  11        4PX         0.00000   0.00000   0.00000  -0.44815   0.00000
  12        4PY        -1.14245   0.00000   0.00000   0.00000  -0.44815
  13        4PZ         0.00000  -1.56933  -0.12210   0.00000   0.00000
  14        5XX         0.00000   0.03543   0.01352   0.00000   0.00000
  15        5YY         0.00000   0.03543   0.01352   0.00000   0.00000
  16        5ZZ         0.00000  -0.04141  -0.02404   0.00000   0.00000
  17        5XY         0.00000   0.00000   0.00000   0.00000   0.00000
  18        5XZ         0.00000   0.00000   0.00000  -0.02032   0.00000
  19        5YZ        -0.00311   0.00000   0.00000   0.00000  -0.02032
  20 2   O  1S          0.00000   0.10261   0.06939   0.00000   0.00000
  21        2S          0.00000  -0.09951  -0.02690   0.00000   0.00000
  22        2PX         0.00000   0.00000   0.00000   0.08235   0.00000
  23        2PY        -0.24830   0.00000   0.00000   0.00000   0.08235
  24        2PZ         0.00000  -0.02114   0.30840   0.00000   0.00000
  25        3S          0.00000  -1.48471  -2.18363   0.00000   0.00000
  26        3PX         0.00000   0.00000   0.00000  -0.20361   0.00000
  27        3PY        -0.44235   0.00000   0.00000   0.00000  -0.20361
  28        3PZ         0.00000  -0.26039   1.25934   0.00000   0.00000
  29        4S          0.00000   5.73816  -3.82963   0.00000   0.00000
  30        4PX         0.00000   0.00000   0.00000  -0.24215   0.00000
  31        4PY         1.91620   0.00000   0.00000   0.00000  -0.24215
  32        4PZ         0.00000  -0.72937   1.27268   0.00000   0.00000
  33        5XX         0.00000   0.07297   0.04502   0.00000   0.00000
  34        5YY         0.00000   0.07297   0.04502   0.00000   0.00000
  35        5ZZ         0.00000   0.08036   0.01620   0.00000   0.00000
  36        5XY         0.00000   0.00000   0.00000   0.00000   0.00000
  37        5XZ         0.00000   0.00000   0.00000   0.07842   0.00000
  38        5YZ         0.01904   0.00000   0.00000   0.00000   0.07842
                          21        22        23        24        25
                           V         V         V         V         V
     Eigenvalues --     0.74476   1.03552   1.13419   1.13419   1.15034
   1 1   C  1S         -0.03452  -0.04466   0.00000   0.00000   0.05289
   2        2S         -0.21018  -1.89907   0.00000   0.00000  -0.76204
   3        2PX         0.00000   0.00000  -0.11848   0.00000   0.00000
   4        2PY         0.00000   0.00000   0.00000  -0.11848   0.00000
   5        2PZ         1.12721  -0.15120   0.00000   0.00000   0.13159
   6        3S          1.39621   4.06136   0.00000   0.00000   5.49453
   7        3PX         0.00000   0.00000  -0.19334   0.00000   0.00000
   8        3PY         0.00000   0.00000   0.00000  -0.19334   0.00000
   9        3PZ        -0.64939   0.77498   0.00000   0.00000   2.27831
  10        4S         -0.15128   0.50911   0.00000   0.00000   1.35273
  11        4PX         0.00000   0.00000   0.49202   0.00000   0.00000
  12        4PY         0.00000   0.00000   0.00000   0.49202   0.00000
  13        4PZ         0.39232   0.03449   0.00000   0.00000   0.49141
  14        5XX         0.02391  -0.03412   0.00000   0.00000  -0.12774
  15        5YY         0.02391  -0.03412   0.00000   0.00000  -0.12774
  16        5ZZ        -0.16696  -0.12469   0.00000   0.00000   0.27546
  17        5XY         0.00000   0.00000   0.00000   0.00000   0.00000
  18        5XZ         0.00000   0.00000  -0.04290   0.00000   0.00000
  19        5YZ         0.00000   0.00000   0.00000  -0.04290   0.00000
  20 2   O  1S          0.05165  -0.01601   0.00000   0.00000   0.01201
  21        2S         -0.13367   0.23501   0.00000   0.00000   0.00852
  22        2PX         0.00000   0.00000  -0.95000   0.00000   0.00000
  23        2PY         0.00000   0.00000   0.00000  -0.95000   0.00000
  24        2PZ         0.29841   0.19238   0.00000   0.00000  -0.81170
  25        3S         -0.29188  -0.76450   0.00000   0.00000  -1.79581
  26        3PX         0.00000   0.00000   1.70098   0.00000   0.00000
  27        3PY         0.00000   0.00000   0.00000   1.70098   0.00000
  28        3PZ         0.64441  -0.66394   0.00000   0.00000   2.68547
  29        4S         -0.54305  -2.30139   0.00000   0.00000  -4.32235
  30        4PX         0.00000   0.00000  -1.11700   0.00000   0.00000
  31        4PY         0.00000   0.00000   0.00000  -1.11700   0.00000
  32        4PZ        -0.04011   1.65341   0.00000   0.00000   0.65445
  33        5XX        -0.05522   0.14961   0.00000   0.00000   0.01630
  34        5YY        -0.05522   0.14961   0.00000   0.00000   0.01630
  35        5ZZ         0.17154  -0.09593   0.00000   0.00000  -0.20715
  36        5XY         0.00000   0.00000   0.00000   0.00000   0.00000
  37        5XZ         0.00000   0.00000   0.04121   0.00000   0.00000
  38        5YZ         0.00000   0.00000   0.00000   0.04121   0.00000
                          26        27        28        29        30
                           V         V         V         V         V
     Eigenvalues --     1.46160   1.46161   1.47713   1.53450   1.53450
   1 1   C  1S         -0.00000   0.00000  -0.03327   0.00000   0.00000
   2        2S          0.00000   0.00000  -0.14854   0.00000   0.00000
   3        2PX         0.00000   0.00000   0.00000  -0.27932   0.00000
   4        2PY         0.00000   0.00000   0.00000   0.00000  -0.27932
   5        2PZ        -0.00000   0.00000  -0.05968   0.00000   0.00000
   6        3S         -0.00000   0.00000  -2.00375   0.00000   0.00000
   7        3PX         0.00000   0.00000   0.00000   0.14795   0.00000
   8        3PY         0.00000   0.00000   0.00000   0.00000   0.14795
   9        3PZ        -0.00000   0.00000  -1.54796   0.00000   0.00000
  10        4S          0.00000   0.00000   1.11011   0.00000   0.00000
  11        4PX         0.00000   0.00000   0.00000  -0.05667   0.00000
  12        4PY         0.00000   0.00000   0.00000   0.00000  -0.05667
  13        4PZ         0.00000   0.00000   0.73318   0.00000   0.00000
  14        5XX         0.60436   0.00000   0.08947   0.00000   0.00000
  15        5YY        -0.60436   0.00000   0.08947   0.00000   0.00000
  16        5ZZ        -0.00000   0.00000  -0.12696   0.00000   0.00000
  17        5XY         0.00000   0.69785   0.00000   0.00000   0.00000
  18        5XZ         0.00000   0.00000   0.00000   0.62803   0.00000
  19        5YZ         0.00000   0.00000   0.00000   0.00000   0.62803
  20 2   O  1S         -0.00000   0.00000  -0.09564   0.00000   0.00000
  21        2S         -0.00000   0.00000  -1.99018   0.00000   0.00000
  22        2PX         0.00000   0.00000   0.00000  -0.15438   0.00000
  23        2PY         0.00000   0.00000   0.00000   0.00000  -0.15438
  24        2PZ         0.00000   0.00000   0.00521   0.00000   0.00000
  25        3S          0.00000   0.00000   5.95061   0.00000   0.00000
  26        3PX         0.00000   0.00000   0.00000  -0.12669   0.00000
  27        3PY         0.00000   0.00000   0.00000   0.00000  -0.12669
  28        3PZ        -0.00000   0.00000  -0.98573   0.00000   0.00000
  29        4S         -0.00000   0.00000  -2.26680   0.00000   0.00000
  30        4PX         0.00000   0.00000   0.00000   0.08480   0.00000
  31        4PY         0.00000   0.00000   0.00000   0.00000   0.08480
  32        4PZ        -0.00000   0.00000  -0.07357   0.00000   0.00000
  33        5XX         0.52983   0.00000  -0.36164   0.00000   0.00000
  34        5YY        -0.52983   0.00000  -0.36164   0.00000   0.00000
  35        5ZZ        -0.00000   0.00000  -0.61832   0.00000   0.00000
  36        5XY         0.00000   0.61180   0.00000   0.00000   0.00000
  37        5XZ         0.00000   0.00000   0.00000  -0.58064   0.00000
  38        5YZ         0.00000   0.00000   0.00000   0.00000  -0.58064
                          31        32        33        34        35
                           V         V         V         V         V
     Eigenvalues --     1.93416   1.93416   2.48119   2.60891   2.60891
   1 1   C  1S          0.00000   0.00000  -0.11870   0.00000   0.00000
   2        2S         -0.00000   0.00000  -0.46462   0.00000   0.00000
   3        2PX         0.00000   0.00000   0.00000   0.36191   0.00000
   4        2PY         0.00000   0.00000   0.00000   0.00000   0.36191
   5        2PZ         0.00000   0.00000   0.10525   0.00000   0.00000
   6        3S          0.00000   0.00000   1.76747   0.00000   0.00000
   7        3PX         0.00000   0.00000   0.00000   0.34604   0.00000
   8        3PY         0.00000   0.00000   0.00000   0.00000   0.34604
   9        3PZ         0.00000   0.00000   0.82149   0.00000   0.00000
  10        4S          0.00000   0.00000   0.50438   0.00000   0.00000
  11        4PX         0.00000   0.00000   0.00000  -0.13303   0.00000
  12        4PY         0.00000   0.00000   0.00000   0.00000  -0.13303
  13        4PZ         0.00000   0.00000   0.04243   0.00000   0.00000
  14        5XX        -0.63645   0.00000  -0.65356   0.00000   0.00000
  15        5YY         0.63645   0.00000  -0.65356   0.00000   0.00000
  16        5ZZ        -0.00000   0.00000   1.09753   0.00000   0.00000
  17        5XY         0.00000  -0.73491   0.00000   0.00000   0.00000
  18        5XZ         0.00000   0.00000   0.00000   1.08810   0.00000
  19        5YZ         0.00000   0.00000   0.00000   0.00000   1.08810
  20 2   O  1S          0.00000   0.00000  -0.01501   0.00000   0.00000
  21        2S         -0.00000   0.00000  -0.82742   0.00000   0.00000
  22        2PX         0.00000   0.00000   0.00000  -0.04566   0.00000
  23        2PY         0.00000   0.00000   0.00000   0.00000  -0.04566
  24        2PZ        -0.00000   0.00000   0.67030   0.00000   0.00000
  25        3S          0.00000   0.00000   0.25151   0.00000   0.00000
  26        3PX         0.00000   0.00000   0.00000  -0.65638   0.00000
  27        3PY         0.00000   0.00000   0.00000   0.00000  -0.65638
  28        3PZ         0.00000   0.00000  -0.24285   0.00000   0.00000
  29        4S         -0.00000   0.00000  -1.44579   0.00000   0.00000
  30        4PX         0.00000   0.00000   0.00000   0.15409   0.00000
  31        4PY         0.00000   0.00000   0.00000   0.00000   0.15409
  32        4PZ         0.00000   0.00000   0.57858   0.00000   0.00000
  33        5XX         0.69972   0.00000  -0.25103   0.00000   0.00000
  34        5YY        -0.69972   0.00000  -0.25103   0.00000   0.00000
  35        5ZZ        -0.00000   0.00000   0.12168   0.00000   0.00000
  36        5XY         0.00000   0.80796   0.00000   0.00000   0.00000
  37        5XZ         0.00000   0.00000   0.00000   1.10193   0.00000
  38        5YZ         0.00000   0.00000   0.00000   0.00000   1.10193
                          36        37        38
                           V         V         V
     Eigenvalues --     3.05062   3.99802   4.15106
   1 1   C  1S         -0.13262   0.18911  -0.46989
   2        2S         -1.78465  -0.98397   2.51179
   3        2PX         0.00000   0.00000   0.00000
   4        2PY         0.00000   0.00000   0.00000
   5        2PZ        -1.61677   0.53237  -0.14738
   6        3S         -2.33147  -1.51377   1.93274
   7        3PX         0.00000   0.00000   0.00000
   8        3PY         0.00000   0.00000   0.00000
   9        3PZ        -1.34194  -0.70608   0.04986
  10        4S         -0.11107   0.80614   0.67509
  11        4PX         0.00000   0.00000   0.00000
  12        4PY         0.00000   0.00000   0.00000
  13        4PZ         0.04079   0.44781   0.34544
  14        5XX         0.37373   0.61991  -1.70346
  15        5YY         0.37373   0.61991  -1.70346
  16        5ZZ        -0.83495   1.12977  -1.80984
  17        5XY         0.00000   0.00000   0.00000
  18        5XZ         0.00000   0.00000   0.00000
  19        5YZ         0.00000   0.00000   0.00000
  20 2   O  1S         -0.10465  -0.52953  -0.22780
  21        2S         -0.44059  -0.51153  -0.06739
  22        2PX         0.00000   0.00000   0.00000
  23        2PY         0.00000   0.00000   0.00000
  24        2PZ        -0.44383   0.37097  -0.16785
  25        3S          3.96843   5.69946   2.54867
  26        3PX         0.00000   0.00000   0.00000
  27        3PY         0.00000   0.00000   0.00000
  28        3PZ        -2.46471  -0.15826  -0.26225
  29        4S          0.54699  -1.68255  -2.25734
  30        4PX         0.00000   0.00000   0.00000
  31        4PY         0.00000   0.00000   0.00000
  32        4PZ         0.04632  -0.23300   0.60840
  33        5XX        -0.88920  -1.70842  -0.78812
  34        5YY        -0.88920  -1.70842  -0.78812
  35        5ZZ         1.47976  -1.99925  -0.64292
  36        5XY         0.00000   0.00000   0.00000
  37        5XZ         0.00000   0.00000   0.00000
  38        5YZ         0.00000   0.00000   0.00000
     Density Matrix:
                           1         2         3         4         5
   1 1   C  1S          2.07683
   2        2S         -0.11495   0.44513
   3        2PX         0.00000   0.00000   0.20741
   4        2PY         0.00000   0.00000   0.00000   0.20741
   5        2PZ         0.05335  -0.08702   0.00000   0.00000   0.53219
   6        3S         -0.26131   0.49225   0.00000   0.00000  -0.35752
   7        3PX         0.00000   0.00000   0.06583   0.00000   0.00000
   8        3PY         0.00000   0.00000   0.00000   0.06583   0.00000
   9        3PZ         0.03532  -0.07388   0.00000   0.00000   0.13134
  10        4S         -0.03271   0.05823   0.00000   0.00000  -0.06593
  11        4PX         0.00000   0.00000   0.00899   0.00000   0.00000
  12        4PY         0.00000   0.00000   0.00000   0.00899   0.00000
  13        4PZ         0.00416  -0.01128   0.00000   0.00000   0.03212
  14        5XX        -0.01245  -0.01479   0.00000   0.00000  -0.02393
  15        5YY        -0.01245  -0.01479   0.00000   0.00000  -0.02393
  16        5ZZ        -0.00927  -0.01329   0.00000   0.00000   0.05169
  17        5XY         0.00000   0.00000   0.00000   0.00000   0.00000
  18        5XZ         0.00000   0.00000   0.02590   0.00000   0.00000
  19        5YZ         0.00000   0.00000   0.00000   0.02590   0.00000
  20 2   O  1S          0.01193  -0.01383   0.00000   0.00000  -0.07605
  21        2S         -0.02106   0.01887   0.00000   0.00000   0.16942
  22        2PX         0.00000   0.00000   0.36498   0.00000   0.00000
  23        2PY         0.00000   0.00000   0.00000   0.36498   0.00000
  24        2PZ         0.09720  -0.21896   0.00000   0.00000  -0.44552
  25        3S          0.03376  -0.11455   0.00000   0.00000   0.07120
  26        3PX         0.00000   0.00000   0.20919   0.00000   0.00000
  27        3PY         0.00000   0.00000   0.00000   0.20919   0.00000
  28        3PZ         0.03436  -0.06802   0.00000   0.00000  -0.15450
  29        4S          0.02994  -0.03492   0.00000   0.00000  -0.07999
  30        4PX         0.00000   0.00000   0.02045   0.00000   0.00000
  31        4PY         0.00000   0.00000   0.00000   0.02045   0.00000
  32        4PZ        -0.01075   0.00669   0.00000   0.00000  -0.01743
  33        5XX         0.00290  -0.00435   0.00000   0.00000  -0.00885
  34        5YY         0.00290  -0.00435   0.00000   0.00000  -0.00885
  35        5ZZ        -0.01174   0.02124   0.00000   0.00000   0.00908
  36        5XY         0.00000   0.00000   0.00000   0.00000   0.00000
  37        5XZ         0.00000   0.00000  -0.02213   0.00000   0.00000
  38        5YZ         0.00000   0.00000   0.00000  -0.02213   0.00000
                           6         7         8         9        10
   6        3S          0.69160
   7        3PX         0.00000   0.02089
   8        3PY         0.00000   0.00000   0.02089
   9        3PZ        -0.13559   0.00000   0.00000   0.04332
  10        4S          0.08969   0.00000   0.00000  -0.02452   0.01480
  11        4PX         0.00000   0.00285   0.00000   0.00000   0.00000
  12        4PY         0.00000   0.00000   0.00285   0.00000   0.00000
  13        4PZ        -0.02921   0.00000   0.00000   0.00746  -0.00399
  14        5XX        -0.00129   0.00000   0.00000  -0.00323   0.00076
  15        5YY        -0.00129   0.00000   0.00000  -0.00323   0.00076
  16        5ZZ        -0.04073   0.00000   0.00000   0.01173  -0.00600
  17        5XY         0.00000   0.00000   0.00000   0.00000   0.00000
  18        5XZ         0.00000   0.00822   0.00000   0.00000   0.00000
  19        5YZ         0.00000   0.00000   0.00822   0.00000   0.00000
  20 2   O  1S          0.04897   0.00000   0.00000   0.00318  -0.00091
  21        2S         -0.12657   0.00000   0.00000  -0.01020   0.00928
  22        2PX         0.00000   0.11584   0.00000   0.00000   0.00000
  23        2PY         0.00000   0.00000   0.11584   0.00000   0.00000
  24        2PZ        -0.03131   0.00000   0.00000  -0.09891   0.03590
  25        3S         -0.22307   0.00000   0.00000  -0.02398   0.00899
  26        3PX         0.00000   0.06639   0.00000   0.00000   0.00000
  27        3PY         0.00000   0.00000   0.06639   0.00000   0.00000
  28        3PZ        -0.00817   0.00000   0.00000  -0.03912   0.01538
  29        4S          0.00190   0.00000   0.00000  -0.01529   0.00524
  30        4PX         0.00000   0.00649   0.00000   0.00000   0.00000
  31        4PY         0.00000   0.00000   0.00649   0.00000   0.00000
  32        4PZ         0.01516   0.00000   0.00000  -0.00546   0.00299
  33        5XX         0.00021   0.00000   0.00000  -0.00129   0.00032
  34        5YY         0.00021   0.00000   0.00000  -0.00129   0.00032
  35        5ZZ         0.01897   0.00000   0.00000   0.00079   0.00068
  36        5XY         0.00000   0.00000   0.00000   0.00000   0.00000
  37        5XZ         0.00000  -0.00702   0.00000   0.00000   0.00000
  38        5YZ         0.00000   0.00000  -0.00702   0.00000   0.00000
                          11        12        13        14        15
  11        4PX         0.00039
  12        4PY         0.00000   0.00039
  13        4PZ         0.00000   0.00000   0.00235
  14        5XX         0.00000   0.00000  -0.00130   0.00204
  15        5YY         0.00000   0.00000  -0.00130   0.00204   0.00204
  16        5ZZ         0.00000   0.00000   0.00360  -0.00216  -0.00216
  17        5XY         0.00000   0.00000   0.00000   0.00000   0.00000
  18        5XZ         0.00112   0.00000   0.00000   0.00000   0.00000
  19        5YZ         0.00000   0.00112   0.00000   0.00000   0.00000
  20 2   O  1S          0.00000   0.00000  -0.00755   0.00645   0.00645
  21        2S          0.00000   0.00000   0.02198  -0.01424  -0.01424
  22        2PX         0.01582   0.00000   0.00000   0.00000   0.00000
  23        2PY         0.00000   0.01582   0.00000   0.00000   0.00000
  24        2PZ         0.00000   0.00000  -0.01621   0.02963   0.02963
  25        3S          0.00000   0.00000   0.02022  -0.00435  -0.00435
  26        3PX         0.00906   0.00000   0.00000   0.00000   0.00000
  27        3PY         0.00000   0.00906   0.00000   0.00000   0.00000
  28        3PZ         0.00000   0.00000  -0.00470   0.00951   0.00951
  29        4S          0.00000   0.00000  -0.00377   0.00534   0.00534
  30        4PX         0.00089   0.00000   0.00000   0.00000   0.00000
  31        4PY         0.00000   0.00089   0.00000   0.00000   0.00000
  32        4PZ         0.00000   0.00000  -0.00093   0.00061   0.00061
  33        5XX         0.00000   0.00000  -0.00052   0.00065   0.00065
  34        5YY         0.00000   0.00000  -0.00052   0.00065   0.00065
  35        5ZZ         0.00000   0.00000  -0.00014  -0.00121  -0.00121
  36        5XY         0.00000   0.00000   0.00000   0.00000   0.00000
  37        5XZ        -0.00096   0.00000   0.00000   0.00000   0.00000
  38        5YZ         0.00000  -0.00096   0.00000   0.00000   0.00000
                          16        17        18        19        20
  16        5ZZ         0.00573
  17        5XY         0.00000  -0.00000
  18        5XZ         0.00000   0.00000   0.00323
  19        5YZ         0.00000   0.00000   0.00000   0.00323
  20 2   O  1S         -0.01607   0.00000   0.00000   0.00000   2.07967
  21        2S          0.03197   0.00000   0.00000   0.00000  -0.19091
  22        2PX         0.00000   0.00000   0.04557   0.00000   0.00000
  23        2PY         0.00000   0.00000   0.00000   0.04557   0.00000
  24        2PZ        -0.03201   0.00000   0.00000   0.00000  -0.03568
  25        3S          0.02662   0.00000   0.00000   0.00000  -0.22393
  26        3PX         0.00000   0.00000   0.02612   0.00000   0.00000
  27        3PY         0.00000   0.00000   0.00000   0.02612   0.00000
  28        3PZ        -0.00988   0.00000   0.00000   0.00000  -0.03023
  29        4S         -0.00690   0.00000   0.00000   0.00000  -0.00271
  30        4PX         0.00000   0.00000   0.00255   0.00000   0.00000
  31        4PY         0.00000   0.00000   0.00000   0.00255   0.00000
  32        4PZ        -0.00145   0.00000   0.00000   0.00000  -0.00091
  33        5XX        -0.00085   0.00000   0.00000   0.00000  -0.01470
  34        5YY        -0.00085   0.00000   0.00000   0.00000  -0.01470
  35        5ZZ         0.00024   0.00000   0.00000   0.00000  -0.01273
  36        5XY         0.00000   0.00000   0.00000   0.00000   0.00000
  37        5XZ         0.00000   0.00000  -0.00276   0.00000   0.00000
  38        5YZ         0.00000   0.00000   0.00000  -0.00276   0.00000
                          21        22        23        24        25
  21        2S          0.53593
  22        2PX         0.00000   0.64225
  23        2PY         0.00000   0.00000   0.64225
  24        2PZ         0.08062   0.00000   0.00000   0.70975
  25        3S          0.56861   0.00000   0.00000   0.30849   0.68565
  26        3PX         0.00000   0.36811   0.00000   0.00000   0.00000
  27        3PY         0.00000   0.00000   0.36811   0.00000   0.00000
  28        3PZ         0.06861   0.00000   0.00000   0.26223   0.15171
  29        4S         -0.01561   0.00000   0.00000   0.10877   0.01892
  30        4PX         0.00000   0.03598   0.00000   0.00000   0.00000
  31        4PY         0.00000   0.00000   0.03598   0.00000   0.00000
  32        4PZ         0.00177   0.00000   0.00000   0.01536   0.00470
  33        5XX        -0.00561   0.00000   0.00000   0.01053  -0.00205
  34        5YY        -0.00561   0.00000   0.00000   0.01053  -0.00205
  35        5ZZ        -0.00867   0.00000   0.00000  -0.03056  -0.02050
  36        5XY         0.00000   0.00000   0.00000   0.00000   0.00000
  37        5XZ         0.00000  -0.03894   0.00000   0.00000   0.00000
  38        5YZ         0.00000   0.00000  -0.03894   0.00000   0.00000
                          26        27        28        29        30
  26        3PX         0.21099
  27        3PY         0.00000   0.21099
  28        3PZ         0.00000   0.00000   0.10000
  29        4S          0.00000   0.00000   0.03818   0.01827
  30        4PX         0.02062   0.00000   0.00000   0.00000   0.00202
  31        4PY         0.00000   0.02062   0.00000   0.00000   0.00000
  32        4PZ         0.00000   0.00000   0.00596   0.00231   0.00000
  33        5XX         0.00000   0.00000   0.00340   0.00204   0.00000
  34        5YY         0.00000   0.00000   0.00340   0.00204   0.00000
  35        5ZZ         0.00000   0.00000  -0.01134  -0.00435   0.00000
  36        5XY         0.00000   0.00000   0.00000   0.00000   0.00000
  37        5XZ        -0.02232   0.00000   0.00000   0.00000  -0.00218
  38        5YZ         0.00000  -0.02232   0.00000   0.00000   0.00000
                          31        32        33        34        35
  31        4PY         0.00202
  32        4PZ         0.00000   0.00073
  33        5XX         0.00000   0.00021   0.00038
  34        5YY         0.00000   0.00021   0.00038   0.00038
  35        5ZZ         0.00000  -0.00026  -0.00028  -0.00028   0.00191
  36        5XY         0.00000   0.00000   0.00000   0.00000   0.00000
  37        5XZ         0.00000   0.00000   0.00000   0.00000   0.00000
  38        5YZ        -0.00218   0.00000   0.00000   0.00000   0.00000
                          36        37        38
  36        5XY         0.00000
  37        5XZ         0.00000   0.00236
  38        5YZ         0.00000   0.00000   0.00236
    Full Mulliken population analysis:
                           1         2         3         4         5
   1 1   C  1S          2.07683
   2        2S         -0.02518   0.44513
   3        2PX         0.00000   0.00000   0.20741
   4        2PY         0.00000   0.00000   0.00000   0.20741
   5        2PZ         0.00000   0.00000   0.00000   0.00000   0.53219
   6        3S         -0.04815   0.39984   0.00000   0.00000   0.00000
   7        3PX         0.00000   0.00000   0.03751   0.00000   0.00000
   8        3PY         0.00000   0.00000   0.00000   0.03751   0.00000
   9        3PZ         0.00000   0.00000   0.00000   0.00000   0.07483
  10        4S         -0.00228   0.02341   0.00000   0.00000   0.00000
  11        4PX         0.00000   0.00000   0.00148   0.00000   0.00000
  12        4PY         0.00000   0.00000   0.00000   0.00148   0.00000
  13        4PZ         0.00000   0.00000   0.00000   0.00000   0.00529
  14        5XX        -0.00098  -0.01050   0.00000   0.00000   0.00000
  15        5YY        -0.00098  -0.01050   0.00000   0.00000   0.00000
  16        5ZZ        -0.00073  -0.00944   0.00000   0.00000   0.00000
  17        5XY         0.00000   0.00000   0.00000   0.00000   0.00000
  18        5XZ         0.00000   0.00000   0.00000   0.00000   0.00000
  19        5YZ         0.00000   0.00000   0.00000   0.00000   0.00000
  20 2   O  1S          0.00000  -0.00042   0.00000   0.00000  -0.00449
  21        2S         -0.00030   0.00411   0.00000   0.00000   0.05605
  22        2PX         0.00000   0.00000   0.04323   0.00000   0.00000
  23        2PY         0.00000   0.00000   0.00000   0.04323   0.00000
  24        2PZ        -0.00316   0.05284   0.00000   0.00000   0.13714
  25        3S          0.00269  -0.04841   0.00000   0.00000   0.02542
  26        3PX         0.00000   0.00000   0.06742   0.00000   0.00000
  27        3PY         0.00000   0.00000   0.00000   0.06742   0.00000
  28        3PZ        -0.00573   0.04130   0.00000   0.00000   0.03508
  29        4S          0.00231  -0.01487   0.00000   0.00000  -0.01135
  30        4PX         0.00000   0.00000   0.00468   0.00000   0.00000
  31        4PY         0.00000   0.00000   0.00000   0.00468   0.00000
  32        4PZ         0.00101  -0.00302   0.00000   0.00000  -0.00131
  33        5XX         0.00001  -0.00075   0.00000   0.00000  -0.00201
  34        5YY         0.00001  -0.00075   0.00000   0.00000  -0.00201
  35        5ZZ        -0.00162   0.00986   0.00000   0.00000   0.00422
  36        5XY         0.00000   0.00000   0.00000   0.00000   0.00000
  37        5XZ         0.00000   0.00000   0.00679   0.00000   0.00000
  38        5YZ         0.00000   0.00000   0.00000   0.00679   0.00000
                           6         7         8         9        10
   6        3S          0.69160
   7        3PX         0.00000   0.02089
   8        3PY         0.00000   0.00000   0.02089
   9        3PZ         0.00000   0.00000   0.00000   0.04332
  10        4S          0.06526   0.00000   0.00000   0.00000   0.01480
  11        4PX         0.00000   0.00168   0.00000   0.00000   0.00000
  12        4PY         0.00000   0.00000   0.00168   0.00000   0.00000
  13        4PZ         0.00000   0.00000   0.00000   0.00439   0.00000
  14        5XX        -0.00081   0.00000   0.00000   0.00000   0.00025
  15        5YY        -0.00081   0.00000   0.00000   0.00000   0.00025
  16        5ZZ        -0.02566   0.00000   0.00000   0.00000  -0.00194
  17        5XY         0.00000   0.00000   0.00000   0.00000   0.00000
  18        5XZ         0.00000   0.00000   0.00000   0.00000   0.00000
  19        5YZ         0.00000   0.00000   0.00000   0.00000   0.00000
  20 2   O  1S          0.00276   0.00000   0.00000   0.00031  -0.00003
  21        2S         -0.04038   0.00000   0.00000  -0.00484   0.00204
  22        2PX         0.00000   0.02002   0.00000   0.00000   0.00000
  23        2PY         0.00000   0.00000   0.02002   0.00000   0.00000
  24        2PZ         0.00474   0.00000   0.00000   0.00566  -0.00107
  25        3S         -0.13357   0.00000   0.00000  -0.01547   0.00437
  26        3PX         0.00000   0.03868   0.00000   0.00000   0.00000
  27        3PY         0.00000   0.00000   0.03868   0.00000   0.00000
  28        3PZ         0.00417   0.00000   0.00000  -0.00129  -0.00231
  29        4S          0.00135   0.00000   0.00000  -0.00634   0.00424
  30        4PX         0.00000   0.00434   0.00000   0.00000   0.00000
  31        4PY         0.00000   0.00000   0.00434   0.00000   0.00000
  32        4PZ        -0.00888   0.00000   0.00000  -0.00178  -0.00103
  33        5XX         0.00007   0.00000   0.00000  -0.00062   0.00009
  34        5YY         0.00007   0.00000   0.00000  -0.00062   0.00009
  35        5ZZ         0.00804   0.00000   0.00000   0.00032   0.00019
  36        5XY         0.00000   0.00000   0.00000   0.00000   0.00000
  37        5XZ         0.00000   0.00124   0.00000   0.00000   0.00000
  38        5YZ         0.00000   0.00000   0.00124   0.00000   0.00000
                          11        12        13        14        15
  11        4PX         0.00039
  12        4PY         0.00000   0.00039
  13        4PZ         0.00000   0.00000   0.00235
  14        5XX         0.00000   0.00000   0.00000   0.00204
  15        5YY         0.00000   0.00000   0.00000   0.00068   0.00204
  16        5ZZ         0.00000   0.00000   0.00000  -0.00072  -0.00072
  17        5XY         0.00000   0.00000   0.00000   0.00000   0.00000
  18        5XZ         0.00000   0.00000   0.00000   0.00000   0.00000
  19        5YZ         0.00000   0.00000   0.00000   0.00000   0.00000
  20 2   O  1S          0.00000   0.00000  -0.00024   0.00001   0.00001
  21        2S          0.00000   0.00000   0.00412  -0.00105  -0.00105
  22        2PX         0.00105   0.00000   0.00000   0.00000   0.00000
  23        2PY         0.00000   0.00105   0.00000   0.00000   0.00000
  24        2PZ         0.00000   0.00000  -0.00067  -0.00280  -0.00280
  25        3S          0.00000   0.00000   0.00755  -0.00122  -0.00122
  26        3PX         0.00305   0.00000   0.00000   0.00000   0.00000
  27        3PY         0.00000   0.00305   0.00000   0.00000   0.00000
  28        3PZ         0.00000   0.00000  -0.00104  -0.00440  -0.00440
  29        4S          0.00000   0.00000  -0.00179   0.00178   0.00178
  30        4PX         0.00068   0.00000   0.00000   0.00000   0.00000
  31        4PY         0.00000   0.00068   0.00000   0.00000   0.00000
  32        4PZ         0.00000   0.00000  -0.00053  -0.00023  -0.00023
  33        5XX         0.00000   0.00000  -0.00012   0.00011   0.00004
  34        5YY         0.00000   0.00000  -0.00012   0.00004   0.00011
  35        5ZZ         0.00000   0.00000  -0.00003  -0.00030  -0.00030
  36        5XY         0.00000   0.00000   0.00000   0.00000   0.00000
  37        5XZ         0.00002   0.00000   0.00000   0.00000   0.00000
  38        5YZ         0.00000   0.00002   0.00000   0.00000   0.00000
                          16        17        18        19        20
  16        5ZZ         0.00573
  17        5XY         0.00000  -0.00000
  18        5XZ         0.00000   0.00000   0.00323
  19        5YZ         0.00000   0.00000   0.00000   0.00323
  20 2   O  1S         -0.00142   0.00000   0.00000   0.00000   2.07967
  21        2S          0.01349   0.00000   0.00000   0.00000  -0.04461
  22        2PX         0.00000   0.00000   0.01043   0.00000   0.00000
  23        2PY         0.00000   0.00000   0.00000   0.01043   0.00000
  24        2PZ         0.01280   0.00000   0.00000   0.00000   0.00000
  25        3S          0.01204   0.00000   0.00000   0.00000  -0.03746
  26        3PX         0.00000   0.00000   0.00706   0.00000   0.00000
  27        3PY         0.00000   0.00000   0.00000   0.00706   0.00000
  28        3PZ         0.00432   0.00000   0.00000   0.00000   0.00000
  29        4S         -0.00246   0.00000   0.00000   0.00000  -0.00020
  30        4PX         0.00000   0.00000   0.00017   0.00000   0.00000
  31        4PY         0.00000   0.00000   0.00000   0.00017   0.00000
  32        4PZ         0.00047   0.00000   0.00000   0.00000   0.00000
  33        5XX        -0.00021   0.00000   0.00000   0.00000  -0.00049
  34        5YY        -0.00021   0.00000   0.00000   0.00000  -0.00049
  35        5ZZ         0.00012   0.00000   0.00000   0.00000  -0.00043
  36        5XY         0.00000   0.00000   0.00000   0.00000   0.00000
  37        5XZ         0.00000   0.00000   0.00118   0.00000   0.00000
  38        5YZ         0.00000   0.00000   0.00000   0.00118   0.00000
                          21        22        23        24        25
  21        2S          0.53593
  22        2PX         0.00000   0.64225
  23        2PY         0.00000   0.00000   0.64225
  24        2PZ         0.00000   0.00000   0.00000   0.70975
  25        3S          0.43421   0.00000   0.00000   0.00000   0.68565
  26        3PX         0.00000   0.18462   0.00000   0.00000   0.00000
  27        3PY         0.00000   0.00000   0.18462   0.00000   0.00000
  28        3PZ         0.00000   0.00000   0.00000   0.13151   0.00000
  29        4S         -0.00639   0.00000   0.00000   0.00000   0.01489
  30        4PX         0.00000   0.00605   0.00000   0.00000   0.00000
  31        4PY         0.00000   0.00000   0.00605   0.00000   0.00000
  32        4PZ         0.00000   0.00000   0.00000   0.00258   0.00000
  33        5XX        -0.00307   0.00000   0.00000   0.00000  -0.00143
  34        5YY        -0.00307   0.00000   0.00000   0.00000  -0.00143
  35        5ZZ        -0.00474   0.00000   0.00000   0.00000  -0.01433
  36        5XY         0.00000   0.00000   0.00000   0.00000   0.00000
  37        5XZ         0.00000   0.00000   0.00000   0.00000   0.00000
  38        5YZ         0.00000   0.00000   0.00000   0.00000   0.00000
                          26        27        28        29        30
  26        3PX         0.21099
  27        3PY         0.00000   0.21099
  28        3PZ         0.00000   0.00000   0.10000
  29        4S          0.00000   0.00000   0.00000   0.01827
  30        4PX         0.01382   0.00000   0.00000   0.00000   0.00202
  31        4PY         0.00000   0.01382   0.00000   0.00000   0.00000
  32        4PZ         0.00000   0.00000   0.00399   0.00000   0.00000
  33        5XX         0.00000   0.00000   0.00000   0.00096   0.00000
  34        5YY         0.00000   0.00000   0.00000   0.00096   0.00000
  35        5ZZ         0.00000   0.00000   0.00000  -0.00205   0.00000
  36        5XY         0.00000   0.00000   0.00000   0.00000   0.00000
  37        5XZ         0.00000   0.00000   0.00000   0.00000   0.00000
  38        5YZ         0.00000   0.00000   0.00000   0.00000   0.00000
                          31        32        33        34        35
  31        4PY         0.00202
  32        4PZ         0.00000   0.00073
  33        5XX         0.00000   0.00000   0.00038
  34        5YY         0.00000   0.00000   0.00013   0.00038
  35        5ZZ         0.00000   0.00000  -0.00009  -0.00009   0.00191
  36        5XY         0.00000   0.00000   0.00000   0.00000   0.00000
  37        5XZ         0.00000   0.00000   0.00000   0.00000   0.00000
  38        5YZ         0.00000   0.00000   0.00000   0.00000   0.00000
                          36        37        38
  36        5XY         0.00000
  37        5XZ         0.00000   0.00236
  38        5YZ         0.00000   0.00000   0.00236
     Gross orbital populations:
                           1
   1 1   C  1S          1.99374
   2        2S          0.85265
   3        2PX         0.36853
   4        2PY         0.36853
   5        2PZ         0.84906
   6        3S          0.91965
   7        3PX         0.12436
   8        3PY         0.12436
   9        3PZ         0.09786
  10        4S          0.10631
  11        4PX         0.00836
  12        4PY         0.00836
  13        4PZ         0.01915
  14        5XX        -0.01813
  15        5YY        -0.01813
  16        5ZZ         0.00543
  17        5XY        -0.00000
  18        5XZ         0.02209
  19        5YZ         0.02209
  20 2   O  1S          1.99247
  21        2S          0.94044
  22        2PX         0.90766
  23        2PY         0.90766
  24        2PZ         1.04652
  25        3S          0.93228
  26        3PX         0.52565
  27        3PY         0.52565
  28        3PZ         0.30119
  29        4S          0.00109
  30        4PX         0.03176
  31        4PY         0.03176
  32        4PZ        -0.00821
  33        5XX        -0.00701
  34        5YY        -0.00701
  35        5ZZ         0.00066
  36        5XY         0.00000
  37        5XZ         0.01160
  38        5YZ         0.01160
          Condensed to atoms (all electrons):
              1          2
     1  C    5.312091   0.542177
     2  O    0.542177   7.603555
 Mulliken atomic charges:
              1
     1  C    0.145732
     2  O   -0.145732
 Sum of Mulliken atomic charges =   0.00000
 Mulliken charges with hydrogens summed into heavy atoms:
              1
     1  C    0.145732
     2  O   -0.145732
 Sum of Mulliken charges with hydrogens summed into heavy atoms =   0.00000
 Electronic spatial extent (au):  <R**2>=             40.1724
 Charge=              0.0000 electrons
 Dipole moment (field-independent basis, Debye):
    X=              0.0000    Y=              0.0000    Z=              0.0623  Tot=              0.0623
 Quadrupole moment (field-independent basis, Debye-Ang):
   XX=            -10.2983   YY=            -10.2983   ZZ=            -12.4830
   XY=              0.0000   XZ=              0.0000   YZ=              0.0000
 Traceless Quadrupole moment (field-independent basis, Debye-Ang):
   XX=              0.7282   YY=              0.7282   ZZ=             -1.4565
   XY=              0.0000   XZ=              0.0000   YZ=              0.0000
 Octapole moment (field-independent basis, Debye-Ang**2):
  XXX=              0.0000  YYY=              0.0000  ZZZ=              6.4326  XYY=              0.0000
  XXY=              0.0000  XXZ=              1.2046  XZZ=              0.0000  YZZ=              0.0000
  YYZ=              1.2046  XYZ=              0.0000
 Hexadecapole moment (field-independent basis, Debye-Ang**3):
 XXXX=             -9.7670 YYYY=             -9.7670 ZZZZ=            -38.4032 XXXY=              0.0000
 XXXZ=              0.0000 YYYX=              0.0000 YYYZ=              0.0000 ZZZX=              0.0000
 ZZZY=              0.0000 XXYY=             -3.2557 XXZZ=             -7.4784 YYZZ=             -7.4784
 XXYZ=              0.0000 YYXZ=              0.0000 ZZXY=              0.0000
 N-N= 2.251817908894D+01 E-N=-3.105055405927D+02  KE= 1.123275715622D+02
 Symmetry A1   KE= 1.041950977579D+02
 Symmetry A2   KE=-1.057701001815D-50
 Symmetry B1   KE= 4.066236902111D+00
 Symmetry B2   KE= 4.066236902111D+00
 Orbital energies and kinetic energies (alpha):
                                 1                 2
   1         O               -19.274504         29.022204
   2         O               -10.318456         15.886868
   3         O                -1.179452          2.914394
   4         O                -0.584497          2.666018
   5         O                -0.485457          2.033118
   6         O                -0.485457          2.033118
   7         O                -0.386361          1.608066
   8         V                -0.040692          1.602860
   9         V                -0.040692          1.602860
  10         V                 0.028316          0.275750
  11         V                 0.059504          0.262215
  12         V                 0.071959          0.410216
  13         V                 0.071959          0.410216
  14         V                 0.179479          0.445632
  15         V                 0.208767          0.602048
  16         V                 0.208767          0.602048
  17         V                 0.260854          0.878423
  18         V                 0.426377          1.581455
  19         V                 0.633416          2.043560
  20         V                 0.633416          2.043560
  21         V                 0.744763          3.059970
  22         V                 1.035520          2.159042
  23         V                 1.134188          3.545556
  24         V                 1.134188          3.545556
  25         V                 1.150337          3.369247
  26         V                 1.461603          2.598332
  27         V                 1.461607          2.598331
  28         V                 1.477128          2.696463
  29         V                 1.534498          2.897625
  30         V                 1.534498          2.897625
  31         V                 1.934159          3.080471
  32         V                 1.934164          3.080471
  33         V                 2.481187          4.675775
  34         V                 2.608906          3.899990
  35         V                 2.608906          3.899990
  36         V                 3.050621          5.492738
  37         V                 3.998022         10.780659
  38         V                 4.151056         10.446588
 Total kinetic energy from orbitals= 1.123275715622D+02
 No NMR shielding tensors so no spin-rotation constants.
 Leave Link  601 at Tue Aug 13 22:04:12 2024, MaxMem=   33554432 cpu:       0.2
 (Enter /programs/64bit/g09/g09-gfortran/bin/l701.exe)
 Compute integral first derivatives.
 ... and contract with generalized density number  0.
 Leave Link  701 at Tue Aug 13 22:04:12 2024, MaxMem=   33554432 cpu:       0.1
 (Enter /programs/64bit/g09/g09-gfortran/bin/l702.exe)
 L702 exits ... SP integral derivatives will be done elsewhere.
 Leave Link  702 at Tue Aug 13 22:04:12 2024, MaxMem=   33554432 cpu:       0.0
 (Enter /programs/64bit/g09/g09-gfortran/bin/l703.exe)
 Compute integral first derivatives, UseDBF=F ICtDFT=           0.
 Integral derivatives from FoFDir, PRISM(SPDF).
 Calling FoFJK, ICntrl=      2127 FMM=F ISym2X=1 I1Cent= 0 IOpClX= 0 NMat=1 NMatS=1 NMatT=0.
 FoFCou: FMM=F IPFlag=           0 FMFlag=      100000 FMFlg1=         800
         NFxFlg=           0 DoJE=F BraDBF=F KetDBF=F FulRan=T
         Omega=  0.000000  0.000000  1.000000  0.000000  0.000000 ICntrl=    2127 IOpCl=  0
         NMat0=    1 NMatS0=    1 NMatT0=    0 NMatD0=    1 NMtDS0=    0 NMtDT0=    0
         I1Cent=           0 NGrid=           0.
 Petite list used in FoFCou.
 Leave Link  703 at Tue Aug 13 22:04:13 2024, MaxMem=   33554432 cpu:       0.6
 (Enter /programs/64bit/g09/g09-gfortran/bin/l716.exe)
 Dipole        = 0.00000000D+00 0.00000000D+00 2.45240164D-02
 ***** Axes restored to original set *****
 -------------------------------------------------------------------
 Center     Atomic                   Forces (Hartrees/Bohr)
 Number     Number              X              Y              Z
 -------------------------------------------------------------------
      1        6          -0.000000000   -0.000000000   -0.022760425
      2        8          -0.000000000   -0.000000000    0.022760425
 -------------------------------------------------------------------
 Cartesian Forces:  Max     0.022760425 RMS     0.013140737
 Leave Link  716 at Tue Aug 13 22:04:13 2024, MaxMem=   33554432 cpu:       0.0
 (Enter /programs/64bit/g09/g09-gfortran/bin/l103.exe)

 GradGradGradGradGradGradGradGradGradGradGradGradGradGradGradGradGradGrad
 Berny optimization.
 Internal  Forces:  Max     0.022760425 RMS     0.022760425
 Search for a local minimum.
 Step number   1 out of a maximum of   20
 All quantities printed in internal units (Hartrees-Bohrs-Radians)
 RMS Force = .22760D-01 SwitMx=.10000D-02 MixMth= 1
 Mixed Optimization -- RFO/linear search
 Second derivative matrix not updated -- first step.
 The second derivative matrix:
                          R1
           R1           1.51249
     Eigenvalues ---    1.51249
 RFO step:  Lambda=-3.42428022D-04 EMin= 1.51249209D+00
 Linear search not attempted -- first point.
 Iteration  1 RMS(Cart)=  0.01063834 RMS(Int)=  0.00000000
 Iteration  2 RMS(Cart)=  0.00000000 RMS(Int)=  0.00000000
 ClnCor:  largest displacement from symmetrization is 0.00D+00 for atom     0.
 Variable       Old X    -DE/DX   Delta X   Delta X   Delta X     New X
                                 (Linear)    (Quad)   (Total)
    R1        2.13161   0.02276   0.00000   0.01504   0.01504   2.14666
         Item               Value     Threshold  Converged?
 Maximum Force            0.022760     0.000450     NO 
 RMS     Force            0.022760     0.000300     NO 
 Maximum Displacement     0.007522     0.001800     NO 
 RMS     Displacement     0.010638     0.001200     NO 
 Predicted change in Energy=-1.712528D-04
 GradGradGradGradGradGradGradGradGradGradGradGradGradGradGradGradGradGrad

 Leave Link  103 at Tue Aug 13 22:04:13 2024, MaxMem=   33554432 cpu:       0.0
 (Enter /programs/64bit/g09/g09-gfortran/bin/l202.exe)
                          Input orientation:                          
 ---------------------------------------------------------------------
 Center     Atomic      Atomic             Coordinates (Angstroms)
 Number     Number       Type             X           Y           Z
 ---------------------------------------------------------------------
      1          6           0        0.000000    0.000000   -0.003981
      2          8           0        0.000000    0.000000    1.131981
 ---------------------------------------------------------------------
 Stoichiometry    CO
 Framework group  C*V[C*(CO)]
 Deg. of freedom     1
 Full point group                 C*V     NOp   4
 Largest Abelian subgroup         C2V     NOp   4
 Largest concise Abelian subgroup C1      NOp   1
                         Standard orientation:                         
 ---------------------------------------------------------------------
 Center     Atomic      Atomic             Coordinates (Angstroms)
 Number     Number       Type             X           Y           Z
 ---------------------------------------------------------------------
      1          6           0        0.000000    0.000000   -0.649121
      2          8           0        0.000000    0.000000    0.486841
 ---------------------------------------------------------------------
 Rotational constants (GHZ):      0.0000000     57.1223431     57.1223431
 Leave Link  202 at Tue Aug 13 22:04:13 2024, MaxMem=   33554432 cpu:       0.0
 (Enter /programs/64bit/g09/g09-gfortran/bin/l301.exe)
 Standard basis: 6-31+G(d,p) (6D, 7F)
 Ernie: Thresh=  0.10000D-02 Tol=  0.10000D-05 Strict=F.
 There are    20 symmetry adapted basis functions of A1  symmetry.
 There are     2 symmetry adapted basis functions of A2  symmetry.
 There are     8 symmetry adapted basis functions of B1  symmetry.
 There are     8 symmetry adapted basis functions of B2  symmetry.
 Integral buffers will be    131072 words long.
 Raffenetti 2 integral format.
 Two-electron integral symmetry is turned on.
    38 basis functions,    64 primitive gaussians,    38 cartesian basis functions
     7 alpha electrons        7 beta electrons
       nuclear repulsion energy        22.3603599181 Hartrees.
 IExCor=  402 DFT=T Ex+Corr=B3LYP ExCW=0 ScaHFX=  0.200000
 ScaDFX=  0.800000  0.720000  1.000000  0.810000 ScalE2=  1.000000  1.000000
 IRadAn=      0 IRanWt=     -1 IRanGd=            0 ICorTp=0
 NAtoms=    2 NActive=    2 NUniq=    2 SFac= 7.50D-01 NAtFMM=   80 NAOKFM=F Big=F
 Leave Link  301 at Tue Aug 13 22:04:13 2024, MaxMem=   33554432 cpu:       0.1
 (Enter /programs/64bit/g09/g09-gfortran/bin/l302.exe)
 NPDir=0 NMtPBC=     1 NCelOv=     1 NCel=       1 NClECP=     1 NCelD=      1
         NCelK=      1 NCelE2=     1 NClLst=     1 CellRange=     0.0.
 One-electron integrals computed using PRISM.
 NBasis=    38 RedAO= T  NBF=    20     2     8     8
 NBsUse=    38 1.00D-06 NBFU=    20     2     8     8
 Precomputing XC quadrature grid using
 IXCGrd= 2 IRadAn=           0 IRanWt=          -1 IRanGd=           0 AccXCQ= 1.00D-10.
 NRdTot=     128 NPtTot=       16092 NUsed=       17027 NTot=       17059
 NSgBfM=    38    38    38    38    38 NAtAll=     2     2.
 Leave Link  302 at Tue Aug 13 22:04:14 2024, MaxMem=   33554432 cpu:       0.2
 (Enter /programs/64bit/g09/g09-gfortran/bin/l303.exe)
 DipDrv:  MaxL=1.
 Leave Link  303 at Tue Aug 13 22:04:14 2024, MaxMem=   33554432 cpu:       0.0
 (Enter /programs/64bit/g09/g09-gfortran/bin/l401.exe)
 Initial guess read from the read-write file.
 B after Tr=     0.000000    0.000000    0.000000
         Rot=    1.000000    0.000000    0.000000    0.000000 Ang=   0.00 deg.
 Guess basis will be translated and rotated to current coordinates.
 Initial guess orbital symmetries:
       Occupied  (SG) (SG) (SG) (SG) (PI) (PI) (SG)
       Virtual   (PI) (PI) (SG) (SG) (PI) (PI) (SG) (PI) (PI) (SG)
                 (SG) (PI) (PI) (SG) (SG) (PI) (PI) (SG) (DLTA)
                 (DLTA) (SG) (PI) (PI) (DLTA) (DLTA) (SG) (PI)
                 (PI) (SG) (SG) (SG)
 The electronic state of the initial guess is 1-SG.
 Leave Link  401 at Tue Aug 13 22:04:14 2024, MaxMem=   33554432 cpu:       0.1
 (Enter /programs/64bit/g09/g09-gfortran/bin/l502.exe)
 Closed shell SCF:
 Requested convergence on RMS density matrix=1.00D-08 within 128 cycles.
 Requested convergence on MAX density matrix=1.00D-06.
 Requested convergence on             energy=1.00D-06.
 No special actions if energy rises.
 Using DIIS extrapolation, IDIIS=  1040.
 Integral symmetry usage will be decided dynamically.
        16996 words used for storage of precomputed grid.
 Keep R1 ints in memory in canonical form, NReq=1173967.
 IEnd=       40012 IEndB=       40012 NGot=    33554432 MDV=    33257604
[...]
  36        5XY         0.00000   0.00000   0.00000   0.00000   0.00000
  37        5XZ         0.00002   0.00000   0.00000   0.00000   0.00000
  38        5YZ         0.00000   0.00002   0.00000   0.00000   0.00000
                          16        17        18        19        20
  16        5ZZ         0.00576
  17        5XY         0.00000   0.00000
  18        5XZ         0.00000   0.00000   0.00317
  19        5YZ         0.00000   0.00000   0.00000   0.00317
  20 2   O  1S         -0.00135   0.00000   0.00000   0.00000   2.07958
  21        2S          0.01320   0.00000   0.00000   0.00000  -0.04468
  22        2PX         0.00000   0.00000   0.01006   0.00000   0.00000
  23        2PY         0.00000   0.00000   0.00000   0.01006   0.00000
  24        2PZ         0.01288   0.00000   0.00000   0.00000   0.00000
  25        3S          0.01198   0.00000   0.00000   0.00000  -0.03766
  26        3PX         0.00000   0.00000   0.00698   0.00000   0.00000
  27        3PY         0.00000   0.00000   0.00000   0.00698   0.00000
  28        3PZ         0.00456   0.00000   0.00000   0.00000   0.00000
  29        4S         -0.00238   0.00000   0.00000   0.00000  -0.00021
  30        4PX         0.00000   0.00000   0.00018   0.00000   0.00000
  31        4PY         0.00000   0.00000   0.00000   0.00018   0.00000
  32        4PZ         0.00049   0.00000   0.00000   0.00000   0.00000
  33        5XX        -0.00021   0.00000   0.00000   0.00000  -0.00049
  34        5YY        -0.00021   0.00000   0.00000   0.00000  -0.00049
  35        5ZZ         0.00011   0.00000   0.00000   0.00000  -0.00043
  36        5XY         0.00000   0.00000   0.00000   0.00000   0.00000
  37        5XZ         0.00000   0.00000   0.00116   0.00000   0.00000
  38        5YZ         0.00000   0.00000   0.00000   0.00116   0.00000
                          21        22        23        24        25
  21        2S          0.53749
  22        2PX         0.00000   0.64234
  23        2PY         0.00000   0.00000   0.64234
  24        2PZ         0.00000   0.00000   0.00000   0.70608
  25        3S          0.43642   0.00000   0.00000   0.00000   0.68656
  26        3PX         0.00000   0.18539   0.00000   0.00000   0.00000
  27        3PY         0.00000   0.00000   0.18539   0.00000   0.00000
  28        3PZ         0.00000   0.00000   0.00000   0.13261   0.00000
  29        4S         -0.00631   0.00000   0.00000   0.00000   0.01396
  30        4PX         0.00000   0.00615   0.00000   0.00000   0.00000
  31        4PY         0.00000   0.00000   0.00615   0.00000   0.00000
  32        4PZ         0.00000   0.00000   0.00000   0.00267   0.00000
  33        5XX        -0.00304   0.00000   0.00000   0.00000  -0.00151
  34        5YY        -0.00304   0.00000   0.00000   0.00000  -0.00151
  35        5ZZ        -0.00473   0.00000   0.00000   0.00000  -0.01410
  36        5XY         0.00000   0.00000   0.00000   0.00000   0.00000
  37        5XZ         0.00000   0.00000   0.00000   0.00000   0.00000
  38        5YZ         0.00000   0.00000   0.00000   0.00000   0.00000
                          26        27        28        29        30
  26        3PX         0.21273
  27        3PY         0.00000   0.21273
  28        3PZ         0.00000   0.00000   0.10188
  29        4S          0.00000   0.00000   0.00000   0.01746
  30        4PX         0.01413   0.00000   0.00000   0.00000   0.00209
  31        4PY         0.00000   0.01413   0.00000   0.00000   0.00000
  32        4PZ         0.00000   0.00000   0.00422   0.00000   0.00000
  33        5XX         0.00000   0.00000   0.00000   0.00092   0.00000
  34        5YY         0.00000   0.00000   0.00000   0.00092   0.00000
  35        5ZZ         0.00000   0.00000   0.00000  -0.00200   0.00000
  36        5XY         0.00000   0.00000   0.00000   0.00000   0.00000
  37        5XZ         0.00000   0.00000   0.00000   0.00000   0.00000
  38        5YZ         0.00000   0.00000   0.00000   0.00000   0.00000
                          31        32        33        34        35
  31        4PY         0.00209
  32        4PZ         0.00000   0.00081
  33        5XX         0.00000   0.00000   0.00037
  34        5YY         0.00000   0.00000   0.00012   0.00037
  35        5ZZ         0.00000   0.00000  -0.00009  -0.00009   0.00188
  36        5XY         0.00000   0.00000   0.00000   0.00000   0.00000
  37        5XZ         0.00000   0.00000   0.00000   0.00000   0.00000
  38        5YZ         0.00000   0.00000   0.00000   0.00000   0.00000
                          36        37        38
  36        5XY         0.00000
  37        5XZ         0.00000   0.00235
  38        5YZ         0.00000   0.00000   0.00235
     Gross orbital populations:
                           1
   1 1   C  1S          1.99373
   2        2S          0.85545
   3        2PX         0.36504
   4        2PY         0.36504
   5        2PZ         0.84411
   6        3S          0.92292
   7        3PX         0.12623
   8        3PY         0.12623
   9        3PZ         0.09741
  10        4S          0.10629
  11        4PX         0.00844
  12        4PY         0.00844
  13        4PZ         0.01902
  14        5XX        -0.01827
  15        5YY        -0.01827
  16        5ZZ         0.00524
  17        5XY         0.00000
  18        5XZ         0.02155
  19        5YZ         0.02155
  20 2   O  1S          1.99247
  21        2S          0.94165
  22        2PX         0.90695
  23        2PY         0.90695
  24        2PZ         1.04127
  25        3S          0.93617
  26        3PX         0.52797
  27        3PY         0.52797
  28        3PZ         0.30457
  29        4S         -0.00160
  30        4PX         0.03243
  31        4PY         0.03243
  32        4PZ        -0.00894
  33        5XX        -0.00698
  34        5YY        -0.00698
  35        5ZZ         0.00075
  36        5XY         0.00000
  37        5XZ         0.01140
  38        5YZ         0.01140
          Condensed to atoms (all electrons):
              1          2
     1  C    5.317417   0.532731
     2  O    0.532731   7.617121
 Mulliken atomic charges:
              1
     1  C    0.149852
     2  O   -0.149852
 Sum of Mulliken atomic charges =  -0.00000
 Mulliken charges with hydrogens summed into heavy atoms:
              1
     1  C    0.149852
     2  O   -0.149852
 Sum of Mulliken charges with hydrogens summed into heavy atoms =  -0.00000
 APT atomic charges:
              1
     1  C    0.256553
     2  O   -0.256553
 Sum of APT charges=  -0.00000
 APT Atomic charges with hydrogens summed into heavy atoms:
              1
     1  C    0.256553
     2  O   -0.256553
 Sum of APT charges=  -0.00000
 Electronic spatial extent (au):  <R**2>=             40.4639
 Charge=             -0.0000 electrons
 Dipole moment (field-independent basis, Debye):
    X=              0.0000    Y=              0.0000    Z=              0.0277  Tot=              0.0277
 Quadrupole moment (field-independent basis, Debye-Ang):
   XX=            -10.3200   YY=            -10.3200   ZZ=            -12.4859
   XY=              0.0000   XZ=              0.0000   YZ=              0.0000
 Traceless Quadrupole moment (field-independent basis, Debye-Ang):
   XX=              0.7220   YY=              0.7220   ZZ=             -1.4439
   XY=              0.0000   XZ=              0.0000   YZ=              0.0000
 Octapole moment (field-independent basis, Debye-Ang**2):
  XXX=              0.0000  YYY=              0.0000  ZZZ=              6.4264  XYY=              0.0000
  XXY=              0.0000  XXZ=              1.1973  XZZ=              0.0000  YZZ=              0.0000
  YYZ=              1.1973  XYZ=              0.0000
 Hexadecapole moment (field-independent basis, Debye-Ang**3):
 XXXX=             -9.8006 YYYY=             -9.8006 ZZZZ=            -38.7682 XXXY=              0.0000
 XXXZ=              0.0000 YYYX=              0.0000 YYYZ=              0.0000 ZZZX=              0.0000
 ZZZY=              0.0000 XXYY=             -3.2669 XXZZ=             -7.5401 YYZZ=             -7.5401
 XXYZ=              0.0000 YYXZ=              0.0000 ZZXY=              0.0000
 N-N= 2.233476269527D+01 E-N=-3.101144137145D+02  KE= 1.122826674734D+02
 Symmetry A1   KE= 1.041627273784D+02
 Symmetry A2   KE= 1.829552481102D-50
 Symmetry B1   KE= 4.059970047479D+00
 Symmetry B2   KE= 4.059970047479D+00
 Orbital energies and kinetic energies (alpha):
                                 1                 2
   1         O               -19.274774         29.022702
   2         O               -10.321356         15.887731
   3         O                -1.174201          2.898701
   4         O                -0.584497          2.656080
   5         O                -0.482309          2.029985
   6         O                -0.482309          2.029985
   7         O                -0.387247          1.616150
   8         V                -0.043975          1.616100
   9         V                -0.043975          1.616100
  10         V                 0.028329          0.276301
  11         V                 0.059172          0.263407
  12         V                 0.071625          0.400119
  13         V                 0.071625          0.400119
  14         V                 0.179263          0.444758
  15         V                 0.208618          0.600554
  16         V                 0.208618          0.600554
  17         V                 0.260739          0.883622
  18         V                 0.422433          1.623449
  19         V                 0.632878          2.040917
  20         V                 0.632878          2.040917
  21         V                 0.735144          3.040732
  22         V                 1.033434          2.153653
  23         V                 1.134550          3.554773
  24         V                 1.134550          3.554773
  25         V                 1.147300          3.347578
  26         V                 1.464739          2.600423
  27         V                 1.464744          2.600422
  28         V                 1.474767          2.688219
  29         V                 1.527606          2.878694
  30         V                 1.527606          2.878694
  31         V                 1.929090          3.074900
  32         V                 1.929094          3.074900
  33         V                 2.462990          4.631495
  34         V                 2.598647          3.885246
  35         V                 2.598647          3.885246
  36         V                 3.032003          5.432960
  37         V                 3.992097         10.746737
  38         V                 4.148849         10.462195
 Total kinetic energy from orbitals= 1.122826674734D+02
  Exact polarizability:  10.052  -0.000  10.052   0.000  -0.000  15.671
 Approx polarizability:  12.953  -0.000  12.953  -0.000  -0.000  25.478
 No NMR shielding tensors so no spin-rotation constants.
 Leave Link  601 at Tue Aug 13 22:04:25 2024, MaxMem=   33554432 cpu:       0.1
 (Enter /programs/64bit/g09/g09-gfortran/bin/l701.exe)
 Compute integral second derivatives.
 ... and contract with generalized density number  0.
 Leave Link  701 at Tue Aug 13 22:04:25 2024, MaxMem=   33554432 cpu:       0.2
 (Enter /programs/64bit/g09/g09-gfortran/bin/l702.exe)
 L702 exits ... SP integral derivatives will be done elsewhere.
 Leave Link  702 at Tue Aug 13 22:04:25 2024, MaxMem=   33554432 cpu:       0.0
 (Enter /programs/64bit/g09/g09-gfortran/bin/l703.exe)
 Compute integral second derivatives, UseDBF=F ICtDFT=           0.
 Integral derivatives from FoFDir, PRISM(SPDF).
 Calling FoFJK, ICntrl=    100127 FMM=F ISym2X=1 I1Cent= 0 IOpClX= 0 NMat=1 NMatS=1 NMatT=0.
 FoFCou: FMM=F IPFlag=           0 FMFlag=      100000 FMFlg1=         800
         NFxFlg=           0 DoJE=F BraDBF=F KetDBF=F FulRan=T
         Omega=  0.000000  0.000000  1.000000  0.000000  0.000000 ICntrl=  100127 IOpCl=  0
         NMat0=    1 NMatS0=    1 NMatT0=    0 NMatD0=    1 NMtDS0=    0 NMtDT0=    0
         I1Cent=           0 NGrid=           0.
 Petite list used in FoFCou.
 Leave Link  703 at Tue Aug 13 22:04:27 2024, MaxMem=   33554432 cpu:       1.8
 (Enter /programs/64bit/g09/g09-gfortran/bin/l716.exe)
 Dipole        = 0.00000000D+00 0.00000000D+00 1.08967455D-02
 Polarizability= 1.00523306D+01-2.98867550D-10 1.00523306D+01
                 7.92083896D-10-3.38735150D-10 1.56712298D+01
 Full mass-weighted force constant matrix:
 Low frequencies ---    0.0014    0.0014    0.0015   17.9504   17.9504 2202.3117
 Diagonal vibrational polarizability:
        0.0000000       0.0000000       0.4796711
 Harmonic frequencies (cm**-1), IR intensities (KM/Mole), Raman scattering
 activities (A**4/AMU), depolarization ratios for plane and unpolarized
 incident light, reduced masses (AMU), force constants (mDyne/A),
 and normal coordinates:
                     1
                    SG
 Frequencies --  2202.3117
 Red. masses --    13.4388
 Frc consts  --    38.4031
 IR Inten    --    86.4506
  Atom  AN      X      Y      Z
     1   6     0.00   0.00   0.80
     2   8     0.00   0.00  -0.60

 -------------------
 - Thermochemistry -
 -------------------
 Temperature   298.150 Kelvin.  Pressure   1.00000 Atm.
 Atom     1 has atomic number  6 and mass  12.00000
 Atom     2 has atomic number  8 and mass  15.99491
 Molecular mass:    27.99491 amu.
 Principal axes and moments of inertia in atomic units:
                           1         2         3
     Eigenvalues --     0.00000  31.66677  31.66677
           X            0.00000  -0.00000   1.00000
           Y            0.00000   1.00000   0.00000
           Z            1.00000   0.00000   0.00000
 This molecule is a prolate symmetric top.
 Rotational symmetry number  1.
 Rotational temperature (Kelvin)      2.73516
 Rotational constant (GHZ):          56.991635
 Zero-point vibrational energy      13172.7 (Joules/Mol)
                                    3.14836 (Kcal/Mol)
 Vibrational temperatures:   3168.63
          (Kelvin)
 
 Zero-point correction=                           0.005017 (Hartree/Particle)
 Thermal correction to Energy=                    0.007378
 Thermal correction to Enthalpy=                  0.008322
 Thermal correction to Gibbs Free Energy=        -0.014120
 Sum of electronic and zero-point Energies=           -113.312306
 Sum of electronic and thermal Energies=              -113.309945
 Sum of electronic and thermal Enthalpies=            -113.309001
 Sum of electronic and thermal Free Energies=         -113.331443
 
                     E (Thermal)             CV                S
                      KCal/Mol        Cal/Mol-Kelvin    Cal/Mol-Kelvin
 Total                    4.630              4.973             47.234
 Electronic               0.000              0.000              0.000
 Translational            0.889              2.981             35.923
 Rotational               0.592              1.987             11.310
 Vibrational              3.149              0.005              0.001
                       Q            Log10(Q)             Ln(Q)
 Total Bot       0.312444D+07          6.494773         14.954767
 Total V=0       0.634652D+09          8.802536         20.268588
 Vib (Bot)       0.492320D-02         -2.307753         -5.313797
 Vib (V=0)       0.100002D+01          0.000011          0.000024
 Electronic      0.100000D+01          0.000000          0.000000
 Translational   0.582202D+07          6.765074         15.577158
 Rotational      0.109006D+03          2.037451          4.691405
 ***** Axes restored to original set *****
 -------------------------------------------------------------------
 Center     Atomic                   Forces (Hartrees/Bohr)
 Number     Number              X              Y              Z
 -------------------------------------------------------------------
      1        6          -0.000000000   -0.000000000    0.000000448
      2        8          -0.000000000   -0.000000000   -0.000000448
 -------------------------------------------------------------------
 Cartesian Forces:  Max     0.000000448 RMS     0.000000259
 Force constants in Cartesian coordinates: 
                1             2             3             4             5 
      1  0.836030D-04
      2  0.000000D+00  0.836030D-04
      3  0.000000D+00  0.000000D+00  0.125844D+01
      4 -0.836030D-04  0.000000D+00  0.000000D+00  0.836030D-04
      5  0.000000D+00 -0.836030D-04  0.000000D+00  0.000000D+00  0.836030D-04
      6  0.000000D+00  0.000000D+00 -0.125844D+01  0.000000D+00  0.000000D+00
                6 
      6  0.125844D+01
 Force constants in internal coordinates: 
                1 
      1  0.125844D+01
 Leave Link  716 at Tue Aug 13 22:04:27 2024, MaxMem=   33554432 cpu:       0.0
 (Enter /programs/64bit/g09/g09-gfortran/bin/l103.exe)

 GradGradGradGradGradGradGradGradGradGradGradGradGradGradGradGradGradGrad
 Berny optimization.
 Internal  Forces:  Max     0.000000448 RMS     0.000000448
 Search for a local minimum.
 Step number   1 out of a maximum of    2
 All quantities printed in internal units (Hartrees-Bohrs-Radians)
 Second derivative matrix not updated -- analytic derivatives used.
 The second derivative matrix:
                          R1
           R1           1.25844
     Eigenvalues ---    1.25844
 Angle between quadratic step and forces=  90.00 degrees.
 Linear search not attempted -- first point.
 Iteration  1 RMS(Cart)=  0.00000025 RMS(Int)=  0.00000000
 ClnCor:  largest displacement from symmetrization is 0.00D+00 for atom     0.
 Variable       Old X    -DE/DX   Delta X   Delta X   Delta X     New X
                                 (Linear)    (Quad)   (Total)
    R1        2.14912  -0.00000   0.00000  -0.00000  -0.00000   2.14912
         Item               Value     Threshold  Converged?
 Maximum Force            0.000000     0.000450     YES
 RMS     Force            0.000000     0.000300     YES
 Maximum Displacement     0.000000     0.001800     YES
 RMS     Displacement     0.000000     0.001200     YES
 Predicted change in Energy=-7.981501D-14
 Optimization completed.
    -- Stationary point found.
                           ----------------------------
                           !   Optimized Parameters   !
                           ! (Angstroms and Degrees)  !
 --------------------------                            --------------------------
 ! Name  Definition              Value          Derivative Info.                !
 --------------------------------------------------------------------------------
 ! R1    R(1,2)                  1.1373         -DE/DX =    0.0                 !
 --------------------------------------------------------------------------------
 GradGradGradGradGradGradGradGradGradGradGradGradGradGradGradGradGradGrad

 Leave Link  103 at Tue Aug 13 22:04:27 2024, MaxMem=   33554432 cpu:       0.0
 (Enter /programs/64bit/g09/g09-gfortran/bin/l9999.exe)
 1\1\GINC-MOLMOD\Freq\RB3LYP\6-31+G(d,p)\C1O1\OSPITE\13-Aug-2024\0\\#P 
 Geom=AllCheck Guess=TCheck SCRF=Check GenChk RB3LYP/6-31+G(d,p) Freq\\
 carbon_monoxide\\0,1\C,0.,0.,-0.0046316519\O,0.,0.,1.1326316519\\Versi
 on=EM64L-G09RevA.02\State=1-SG\HF=-113.3173231\RMSD=2.383e-10\RMSF=2.5
 88e-07\ZeroPoint=0.0050172\Thermal=0.0073779\Dipole=0.,0.,0.0108967\Di
 poleDeriv=-0.0050412,0.,0.,0.,-0.0050412,0.,0.,0.,0.7797411,0.0050412,
 0.,0.,0.,0.0050412,0.,0.,0.,-0.7797411\Polar=10.0523306,0.,10.0523306,
 0.,0.,15.6712298\PG=C*V [C*(C1O1)]\NImag=0\\0.00008360,0.,0.00008360,0
 .,0.,1.25844154,-0.00008360,0.,0.,0.00008360,0.,-0.00008360,0.,0.,0.00
 008360,0.,0.,-1.25844154,0.,0.,1.25844154\\0.,0.,-0.00000045,0.,0.,0.0
 0000045\\\@


 E PUR SI MUOVE    -- GALILEO GALILEI
 Job cpu time:  0 days  0 hours  0 minutes  7.1 seconds.
 File lengths (MBytes):  RWF=      5 Int=      0 D2E=      0 Chk=      1 Scr=      1
 Normal termination of Gaussian 09 at Tue Aug 13 22:04:27 2024.
