
 Primary working directories    : /data/scratch
 Secondary working directories  : /data/scratch
 Wavefunction directory         : /home/ospite/wfu/
 Main file repository           : /data/scratch/

 ARCHNAME  : Linux/x86_64
 FC        : /usr/bin/gfortran
 FCVERSION : 4.8.5
 BLASLIB   : 
 id        : polimi

 Nodes     nprocs
 molmod       1

 Using default tuning parameters: mindgm=1; mindgv=20; mindgc=4; mindgr=1; noblas=0; mincuda=1000; minvec=7
 default implementation of scratch files=df  

 ***,methyl with imposed symmetry and 6-31G basis set
 memory,100,m
 
 basis=6-31G
 symmetry,y
 
 geometry={angstrom
 C
 H1, C, d
 H2, C, d, H1, a
 H3, C, d, H1, -a, H2, t
 }
 
 d=1.09 Ang
 a=120. Deg
 t=0.0 Deg
 
 hf
 rmp2
 optg
 put,molden,ch4_6-31G.molpro

 Variables initialized (661), CPU time= 0.01 sec
 Commands  initialized (458), CPU time= 0.05 sec, 486 directives.
 Default parameters read. Elapsed time= 0.21 sec

 Checking input...
 Passed
1


                                         ***  PROGRAM SYSTEM MOLPRO  ***
                         Copyright, University College Cardiff Consultants Limited, 2008

                                    Version 2010.1 linked Mar  6 2018 16:01:50


 **********************************************************************************************************************************
 LABEL *   methyl with imposed symmetry and 6-31G basis set                              
 Linux-3.10.0-1160.108.1.el7.x86_64/molmod(x86_64) 64 bit serial version                 DATE: 17-Aug-24          TIME: 19:01:29  
 **********************************************************************************************************************************

 SHA1:             d90fb18d49a3be29a79769f900c595ef3b8176e2
 **********************************************************************************************************************************

 Variable memory set to  100000000 words,  buffer space   230000 words

 SETTING BASIS          =    6-31G
 ZSYMEL=Y  

 SETTING D              =         1.09000000  ANG                             
 SETTING A              =       120.00000000  DEG                             
 SETTING T              =         0.00000000  DEG                             


 Recomputing integrals since basis changed


 Using spherical harmonics

 Library entry C      S 6-31G                selected for orbital group  1
 Library entry C      P 6-31G                selected for orbital group  1
 Library entry H      S 6-31G                selected for orbital group  2

1PROGRAM * SEWARD (Integral evaluation for generally contracted gaussian basis sets)     Author: Roland Lindh, 1990

 Geometry written to block  1 of record 700

 Orientation using atomic masses  
 Molecule type: Symmetric top,     Order of principal axis = 3
 User-specified symmetry elements: Y
 Symmetry elements: Y
 Rotational constants:     281.3443841    281.3443841    140.6721920 GHz  (calculated with average atomic masses)

 Point group  Cs  



 ATOMIC COORDINATES

 NR  ATOM    CHARGE       X              Y              Z

   1  C       6.00   -0.000000000    0.000000000    0.000000000
   2  H1      1.00    2.059801483    0.000000000    0.000000000
   3  H2      1.00   -1.029900742   -1.783840411    0.000000000
   4  H3      1.00   -1.029900742    1.783840411    0.000000000

 Bond lengths in Bohr (Angstrom)

 1-2  2.059801483  1-3  2.059801483  1-4  2.059801483
     ( 1.090000000)     ( 1.090000000)     ( 1.090000000)

 Bond angles

  2-1-3  120.00000000   2-1-4  120.00000000   3-1-4  120.00000000

 NUCLEAR CHARGE:                    9
 NUMBER OF PRIMITIVE AOS:          34
 NUMBER OF SYMMETRY AOS:           34
 NUMBER OF CONTRACTIONS:           15   (  11A'  +   4A"  )
 NUMBER OF CORE ORBITALS:           1   (   1A'  +   0A"  )
 NUMBER OF VALENCE ORBITALS:        7   (   5A'  +   2A"  )


 NUCLEAR REPULSION ENERGY    9.57958860

 EXTRA SYMMETRY OF AOS IN SYMMETRY 1:   1 1 1 1 2 1 2 1 1 1   1

 Eigenvalues of metric

         1 0.331E-01 0.668E-01 0.377E+00 0.400E+00 0.430E+00 0.536E+00 0.613E+00 0.100E+01
         2 0.668E-01 0.400E+00 0.613E+00 0.255E+01


 Contracted 2-electron integrals neglected if value below      1.0D-11
 AO integral compression algorithm  1   Integral accuracy      1.0D-11

     0.262 MB (compressed) written to integral file (100.0%)


 NUMBER OF SORTED TWO-ELECTRON INTEGRALS:       4246.     BUFFER LENGTH:  32768
 NUMBER OF SEGMENTS:   1  SEGMENT LENGTH:       4246      RECORD LENGTH: 524288

 Memory used in sort:       0.56 MW

 SORT1 READ        6613. AND WROTE        2692. INTEGRALS IN      1 RECORDS. CPU TIME:     0.01 SEC, REAL TIME:     0.01 SEC
 SORT2 READ        2692. AND WROTE        4246. INTEGRALS IN      1 RECORDS. CPU TIME:     0.01 SEC, REAL TIME:     0.03 SEC

 FILE SIZES:   FILE 1:     2.8 MBYTE,  FILE 4:     4.2 MBYTE,   TOTAL:      7.1 MBYTE

 OPERATOR DM      FOR CENTER  0  COORDINATES:    0.000000    0.000000    0.000000


 **********************************************************************************************************************************
 DATASETS  * FILE   NREC   LENGTH (MB)   RECORD NAMES
              1      19        2.59       500      610      700      900      950      970     1000      129      960     1100   
                                          VAR    BASINP    GEOM    SYMINP    ZMAT    AOBASIS   BASIS     P2S    ABASIS      S 
                                         1400     1410     1200     1210     1080     1600     1650     1300     1700   
                                           T        V       H0       H01     AOSYM     SMH    MOLCAS    ERIS     OPER   

 PROGRAMS   *        TOTAL       INT
 CPU TIMES  *         0.60      0.12
 REAL TIME  *         0.84 SEC
 DISK USED  *         7.56 MB      
 **********************************************************************************************************************************

1PROGRAM * RHF-SCF (OPEN SHELL)       Authors: W. Meyer, H.-J. Werner


 NUMBER OF ELECTRONS:       5+    4-
 CONVERGENCE THRESHOLDS:    1.00E-06 (Density)    1.00E-07 (Energy)
 MAX. NUMBER OF ITERATIONS:       60
 INTERPOLATION TYPE:            DIIS
 INTERPOLATION STEPS:              2 (START)      1 (STEP)
 LEVEL SHIFTS:                 -0.30 (CLOSED) -0.00 (OPEN) 



 Orbital guess generated from atomic densities. Full valence occupancy:    6   2

 Molecular orbital dump at record        2100.2

 Initial alpha occupancy:   4   1
 Initial beta  occupancy:   3   1
 Wave function symmetry:    1

 ITERATION    DDIFF          GRAD             ENERGY        2-EL.EN.            DIPOLE MOMENTS         DIIS
    1      0.000D+00      0.000D+00       -39.53753991     44.635295   -0.00000    0.00000   -0.00000    0
    2      0.000D+00      0.130D-01       -39.54199745     44.460983   -0.00000    0.00000   -0.00000    1
    3      0.920D-02      0.414D-02       -39.54264596     44.510614   -0.00000    0.00000   -0.00000    2
    4      0.516D-02      0.988D-03       -39.54269402     44.496394   -0.00000    0.00000   -0.00000    3
    5      0.183D-02      0.296D-03       -39.54269921     44.493705   -0.00000    0.00000   -0.00000    4
    6      0.918D-03      0.209D-04       -39.54269924     44.493508   -0.00000    0.00000   -0.00000    5
    7      0.451D-04      0.590D-05       -39.54269924     44.493465   -0.00000    0.00000   -0.00000    6
    8      0.139D-04      0.605D-06       -39.54269924     44.493459   -0.00000    0.00000   -0.00000    5
    9      0.981D-06      0.994D-07       -39.54269924     44.493460   -0.00000    0.00000   -0.00000    0

 Final alpha occupancy:   4   1
 Final beta  occupancy:   3   1

 !RHF STATE 1.1 Energy                -39.542699242740
 Nuclear energy                         9.57958860
 One-electron energy                  -71.36901769
 Two-electron energy                   22.24672985
 Virial quotient                       -1.00034952
 !RHF STATE 1.1 Dipole moment          -0.00000000     0.00000000    -0.00000000
 Dipole moment /Debye                  -0.00000000     0.00000000    -0.00000000

 Orbital energies:

         1.1          2.1          3.1          4.1          5.1          6.1
    -11.223860    -0.894299    -0.565318    -0.377969     0.248213     0.325157

         1.2          2.2          3.2
     -0.565318     0.325157     0.758939


 **********************************************************************************************************************************
 DATASETS  * FILE   NREC   LENGTH (MB)   RECORD NAMES
              1      19        2.59       500      610      700      900      950      970     1000      129      960     1100   
                                          VAR    BASINP    GEOM    SYMINP    ZMAT    AOBASIS   BASIS     P2S    ABASIS      S 
                                         1400     1410     1200     1210     1080     1600     1650     1300     1700   
                                           T        V       H0       H01     AOSYM     SMH    MOLCAS    ERIS     OPER   

              2       3        0.29       700     1000     2100   
                                         GEOM     BASIS     RHF  

 PROGRAMS   *        TOTAL        HF       INT
 CPU TIMES  *         0.66      0.06      0.12
 REAL TIME  *         0.92 SEC
 DISK USED  *         7.56 MB      
 **********************************************************************************************************************************


1PROGRAM * RMP2 (Restricted open-shell)     Authors: U. Schumann, H.-J. Werner, 2001


 Convergence thresholds:  THRVAR = 1.00D-12  THRDEN = 1.00D-08

 Number of core orbitals:           1 (   1   0 )
 Number of closed-shell orbitals:   3 (   2   1 )
 Number of active  orbitals:        1 (   1   0 )
 Number of external orbitals:      10 (   7   3 )

 Reading UHF information from record   2100.2

                               TOTAL       A-A         B-B         A-B
 Pair energies:            -0.07690271 -0.00888153 -0.00387651 -0.06414467
 Singles energies:         -0.00151929 -0.00075037 -0.00076892

 Reference energy                     -39.542699242740
 Correlation energy                    -0.078422001738
 !RMP2 STATE 1.1 Energy               -39.621121244479


 **********************************************************************************************************************************
 DATASETS  * FILE   NREC   LENGTH (MB)   RECORD NAMES
              1      19        2.59       500      610      700      900      950      970     1000      129      960     1100   
                                          VAR    BASINP    GEOM    SYMINP    ZMAT    AOBASIS   BASIS     P2S    ABASIS      S 
                                         1400     1410     1200     1210     1080     1600     1650     1300     1700   
                                           T        V       H0       H01     AOSYM     SMH    MOLCAS    ERIS     OPER   

              2       3        0.29       700     1000     2100   
                                         GEOM     BASIS     RHF  

 PROGRAMS   *        TOTAL      RMP2        HF       INT
 CPU TIMES  *         0.84      0.17      0.06      0.12
 REAL TIME  *         1.12 SEC
 DISK USED  *         7.56 MB      
 **********************************************************************************************************************************


 PROGRAM * OPT (Geometry optimization)     Authors: F. Eckert and H.-J. Werner


 BFGS update of hessian

 *** Long output written to logfile /home/ospite/Desktop/MMfP/Project6/CH3/molpro/MP2/ch3_Pople631.log ***


 Geometry optimization using default procedure for command RMP2

 Geometry written to block  1 of record 700
 Starting numerical gradient for RMP2
 Numerical gradient completed. CPU-time:     1.84 sec, Elapsed:     2.14 sec

 Making model hessian for Z-matrix coordinates

 Quadratic Steepest Descent - Minimum Search

 Optimization point 1

 Variable                      Last           Current        Next           Gradient       Hessian

 E(RMP2) / Hartree           0.00000000   -39.62112124     0.00000000
 D / ANG                     0.00000000     1.09000000     1.08442745     0.02869878     5.15003108
 A / DEG                     0.00000000   120.00000000   119.99682691     0.00000066     0.00020858
 T / DEG                     0.00000000     0.00000000     0.00000000    -0.00000000     0.00000000
 Convergence:                0.00000000  (line search)     0.01053073     0.01518679  (total)
 Starting numerical gradient for RMP2
 Numerical gradient completed. CPU-time:     1.86 sec, Elapsed:     2.16 sec

 Optimization point 2

 Variable                      Last           Current        Next           Gradient       Hessian

 E(RMP2) / Hartree         -39.62112124   -39.62121968     0.00000000
 D / ANG                     1.09000000     1.08442745     1.08286102     0.00629708     4.02001952
 A / DEG                   120.00000000   119.99682691   119.99654626     0.00000004     0.00021583
 T / DEG                     0.00000000     0.00000000     0.00000000     0.00000000     0.00000000
 Convergence:                0.00000000  (line search)     0.00296013     0.00333227  (total)
 Starting numerical gradient for RMP2
 Numerical gradient completed. CPU-time:     1.86 sec, Elapsed:     2.12 sec

 Optimization point 3

 Variable                      Last           Current        Next           Gradient       Hessian

 E(RMP2) / Hartree         -39.62121968   -39.62122469     0.00000000
 D / ANG                     1.08442745     1.08286102     1.08289269    -0.00012993     4.10296274
 A / DEG                   119.99682691   119.99654626   119.99660673    -0.00000001     0.00021790
 T / DEG                     0.00000000     0.00000000     0.00000000    -0.00000000     0.00000000
 Convergence:                0.00000000  (line search)     0.00005985     0.00006876  (total)

 END OF GEOMETRY OPTIMIZATION.    TOTAL CPU:         6.1 SEC

 ITER.   ENERGY(OLD)    ENERGY(NEW)      DE          GRADMAX     GRADNORM    GRADRMS     STEPMAX     STEPLEN     STEPRMS
   1   -39.62112124   -39.62121968    -0.00009844  0.01518674  0.01518679  0.00506226  0.01053058  0.01053073  0.00351024
   2   -39.62121968   -39.62122469    -0.00000501  0.00333227  0.00333227  0.00111076  0.00296012  0.00296013  0.00098671
   3   -39.62122469   -39.62122469     0.00000000  0.00006875  0.00006876  0.00002292  0.00005984  0.00005985  0.00001995

 Geometry written to block  1 of record 700


 **********************************************************************************************************************************
 DATASETS  * FILE   NREC   LENGTH (MB)   RECORD NAMES
              1      19        2.59       500      610      700      900      950      970     1000      129      960     1100   
                                          VAR    BASINP    GEOM    SYMINP    ZMAT    AOBASIS   BASIS     P2S    ABASIS      S 
                                         1400     1410     1200     1210     1080     1600     1650     1300     1700   
                                           T        V       H0       H01     AOSYM     SMH    MOLCAS    ERIS     OPER   

              2       4        0.29       700     1000     2100     5600   
                                         GEOM     BASIS     RHF     GINFO   

 PROGRAMS   *        TOTAL      OPTG      RMP2        HF       INT
 CPU TIMES  *         6.93      6.09      0.17      0.06      0.12
 REAL TIME  *         8.64 SEC
 DISK USED  *         7.60 MB      
 **********************************************************************************************************************************

 Dump information in style MOLDEN to ch4_6-31g.molpro                                                                

 Molecular orbitals read from record     2100.2  Type=RHF/CANONICAL (state 1.1)
 Occupation numbers read from record     2100.2  Type=RHF/RHF (state 1.1)
 Orbital energies read from record       2100.2  Type=RHF/CANONICAL (state 1.1)
 Redundancy group numbers read from rec  2100.2  Type=RHF/RHF (state 1.1)

 DUMP ORBITAL  1.1 AS ORBITAL    1  occ=    2.0000  eig=  -11.2215  GROUP=   2
 DUMP ORBITAL  2.1 AS ORBITAL    2  occ=    2.0000  eig=   -0.8969  GROUP=   2
 DUMP ORBITAL  1.2 AS ORBITAL    3  occ=    2.0000  eig=   -0.5675  GROUP=   2
 DUMP ORBITAL  3.1 AS ORBITAL    4  occ=    2.0000  eig=   -0.5675  GROUP=   2
 DUMP ORBITAL  4.1 AS ORBITAL    5  occ=    1.0000  eig=   -0.3778  GROUP=   1

 Total charge:       9.000000

 **********************************************************************************************************************************

      OPTG(RMP2)        RMP2            HF-SCF  
    -39.62122469    -39.62112124    -39.54269924
 **********************************************************************************************************************************
 Variable memory released
