
 Primary working directories    : /data/scratch
 Secondary working directories  : /data/scratch
 Wavefunction directory         : /home/ospite/wfu/
 Main file repository           : /data/scratch/

 ARCHNAME  : Linux/x86_64
 FC        : /usr/bin/gfortran
 FCVERSION : 4.8.5
 BLASLIB   : 
 id        : polimi

 Nodes     nprocs
 molmod       1

 Using default tuning parameters: mindgm=1; mindgv=20; mindgc=4; mindgr=1; noblas=0; mincuda=1000; minvec=7
 default implementation of scratch files=df  

 ***,methyl with imposed symmetry and 6-31+G basis set
 memory,100,m
 
 basis=6-31+G
 symmetry,y
 mult=2
 
 geometry={angstrom
 C
 H1, C, d
 H2, C, d, H1, a
 H3, C, d, H1, -a, H2, t
 }
 
 d=1.09 Ang
 a=120. Deg
 t=0.0 Deg
 
 hf
 rmp2
 optg
 put,molden,ch4_6-31+G.molpro

 Variables initialized (661), CPU time= 0.02 sec
 Commands  initialized (458), CPU time= 0.05 sec, 486 directives.
 Default parameters read. Elapsed time= 0.23 sec

 Checking input...
 Passed
1


                                         ***  PROGRAM SYSTEM MOLPRO  ***
                         Copyright, University College Cardiff Consultants Limited, 2008

                                    Version 2010.1 linked Mar  6 2018 16:01:50


 **********************************************************************************************************************************
 LABEL *   methyl with imposed symmetry and 6-31+G basis set                             
 Linux-3.10.0-1160.108.1.el7.x86_64/molmod(x86_64) 64 bit serial version                 DATE: 17-Aug-24          TIME: 18:57:08  
 **********************************************************************************************************************************

 SHA1:             d90fb18d49a3be29a79769f900c595ef3b8176e2
 **********************************************************************************************************************************

 Variable memory set to  100000000 words,  buffer space   230000 words

 SETTING BASIS          =    6-31+G
 SETTING MULT           =         2.00000000                                  
 ZSYMEL=Y  

 SETTING D              =         1.09000000  ANG                             
 SETTING A              =       120.00000000  DEG                             
 SETTING T              =         0.00000000  DEG                             


 Recomputing integrals since basis changed


 Using spherical harmonics

 Library entry C      S 6-31G                selected for orbital group  1
 Library entry C      S 6-31++G              selected for orbital group  1
 Library entry C      P 6-31G                selected for orbital group  1
 Library entry C      P 6-31++G              selected for orbital group  1
 Library entry H      S 6-31G                selected for orbital group  2

1PROGRAM * SEWARD (Integral evaluation for generally contracted gaussian basis sets)     Author: Roland Lindh, 1990

 Geometry written to block  1 of record 700

 Orientation using atomic masses  
 Molecule type: Symmetric top,     Order of principal axis = 3
 User-specified symmetry elements: Y
 Symmetry elements: Y
 Rotational constants:     281.3443841    281.3443841    140.6721920 GHz  (calculated with average atomic masses)

 Point group  Cs  



 ATOMIC COORDINATES

 NR  ATOM    CHARGE       X              Y              Z

   1  C       6.00   -0.000000000    0.000000000    0.000000000
   2  H1      1.00    2.059801483    0.000000000    0.000000000
   3  H2      1.00   -1.029900742   -1.783840411    0.000000000
   4  H3      1.00   -1.029900742    1.783840411    0.000000000

 Bond lengths in Bohr (Angstrom)

 1-2  2.059801483  1-3  2.059801483  1-4  2.059801483
     ( 1.090000000)     ( 1.090000000)     ( 1.090000000)

 Bond angles

  2-1-3  120.00000000   2-1-4  120.00000000   3-1-4  120.00000000

 NUCLEAR CHARGE:                    9
 NUMBER OF PRIMITIVE AOS:          38
 NUMBER OF SYMMETRY AOS:           38
 NUMBER OF CONTRACTIONS:           19   (  14A'  +   5A"  )
 NUMBER OF CORE ORBITALS:           1   (   1A'  +   0A"  )
 NUMBER OF VALENCE ORBITALS:        7   (   5A'  +   2A"  )


 NUCLEAR REPULSION ENERGY    9.57958860

 EXTRA SYMMETRY OF AOS IN SYMMETRY 1:   1 1 1 1 1 2 1 2 1 2   1 1 1 1

 Eigenvalues of metric

         1 0.302E-01 0.614E-01 0.120E+00 0.234E+00 0.259E+00 0.534E+00 0.544E+00 0.638E+00
         2 0.614E-01 0.234E+00 0.544E+00 0.908E+00 0.288E+01


 Contracted 2-electron integrals neglected if value below      1.0D-11
 AO integral compression algorithm  1   Integral accuracy      1.0D-11

     0.262 MB (compressed) written to integral file (100.0%)


 NUMBER OF SORTED TWO-ELECTRON INTEGRALS:      10410.     BUFFER LENGTH:  32768
 NUMBER OF SEGMENTS:   1  SEGMENT LENGTH:      10410      RECORD LENGTH: 524288

 Memory used in sort:       0.57 MW

 SORT1 READ       17039. AND WROTE        5961. INTEGRALS IN      1 RECORDS. CPU TIME:     0.00 SEC, REAL TIME:     0.01 SEC
 SORT2 READ        5961. AND WROTE       10410. INTEGRALS IN      1 RECORDS. CPU TIME:     0.02 SEC, REAL TIME:     0.03 SEC

 FILE SIZES:   FILE 1:     2.8 MBYTE,  FILE 4:     4.2 MBYTE,   TOTAL:      7.1 MBYTE

 OPERATOR DM      FOR CENTER  0  COORDINATES:    0.000000    0.000000    0.000000


 **********************************************************************************************************************************
 DATASETS  * FILE   NREC   LENGTH (MB)   RECORD NAMES
              1      19        2.62       500      610      700      900      950      970     1000      129      960     1100   
                                          VAR    BASINP    GEOM    SYMINP    ZMAT    AOBASIS   BASIS     P2S    ABASIS      S 
                                         1400     1410     1200     1210     1080     1600     1650     1300     1700   
                                           T        V       H0       H01     AOSYM     SMH    MOLCAS    ERIS     OPER   

 PROGRAMS   *        TOTAL       INT
 CPU TIMES  *         0.63      0.12
 REAL TIME  *         0.88 SEC
 DISK USED  *         7.57 MB      
 **********************************************************************************************************************************

1PROGRAM * RHF-SCF (OPEN SHELL)       Authors: W. Meyer, H.-J. Werner


 NUMBER OF ELECTRONS:       5+    4-
 CONVERGENCE THRESHOLDS:    1.00E-06 (Density)    1.00E-07 (Energy)
 MAX. NUMBER OF ITERATIONS:       60
 INTERPOLATION TYPE:            DIIS
 INTERPOLATION STEPS:              2 (START)      1 (STEP)
 LEVEL SHIFTS:                 -0.30 (CLOSED) -0.00 (OPEN) 



 Orbital guess generated from atomic densities. Full valence occupancy:    6   2

 Molecular orbital dump at record        2100.2

 Initial alpha occupancy:   4   1
 Initial beta  occupancy:   3   1
 Wave function symmetry:    1

 ITERATION    DDIFF          GRAD             ENERGY        2-EL.EN.            DIPOLE MOMENTS         DIIS
    1      0.000D+00      0.000D+00       -39.53988870     44.397690   -0.00000    0.00000   -0.00000    0
    2      0.000D+00      0.100D-01       -39.54423285     44.342541   -0.00000    0.00000   -0.00000    1
    3      0.706D-02      0.330D-02       -39.54493173     44.398327   -0.00000    0.00000   -0.00000    2
    4      0.418D-02      0.706D-03       -39.54497393     44.389940   -0.00000    0.00000   -0.00000    3
    5      0.143D-02      0.230D-03       -39.54497923     44.391432   -0.00000    0.00000   -0.00000    4
    6      0.757D-03      0.246D-04       -39.54497933     44.391261   -0.00000    0.00000   -0.00000    5
    7      0.580D-04      0.520D-05       -39.54497933     44.391279   -0.00000    0.00000   -0.00000    6
    8      0.102D-04      0.133D-05       -39.54497933     44.391270   -0.00000    0.00000   -0.00000    6
    9      0.240D-05      0.224D-06       -39.54497933     44.391271   -0.00000    0.00000   -0.00000    6
   10      0.369D-06      0.342D-07       -39.54497933     44.391270   -0.00000    0.00000   -0.00000    0

 Final alpha occupancy:   4   1
 Final beta  occupancy:   3   1

 !RHF STATE 1.1 Energy                -39.544979333307
 Nuclear energy                         9.57958860
 One-electron energy                  -71.32020314
 Two-electron energy                   22.19563520
 Virial quotient                       -1.00087494
 !RHF STATE 1.1 Dipole moment          -0.00000000     0.00000000    -0.00000000
 Dipole moment /Debye                  -0.00000000     0.00000000    -0.00000000

 Orbital energies:

         1.1          2.1          3.1          4.1          5.1          6.1
    -11.232325    -0.900512    -0.571248    -0.378269     0.097139     0.119385

         1.2          2.2          3.2
     -0.571248     0.119385     0.338369


 **********************************************************************************************************************************
 DATASETS  * FILE   NREC   LENGTH (MB)   RECORD NAMES
              1      19        2.62       500      610      700      900      950      970     1000      129      960     1100   
                                          VAR    BASINP    GEOM    SYMINP    ZMAT    AOBASIS   BASIS     P2S    ABASIS      S 
                                         1400     1410     1200     1210     1080     1600     1650     1300     1700   
                                           T        V       H0       H01     AOSYM     SMH    MOLCAS    ERIS     OPER   

              2       3        0.29       700     1000     2100   
                                         GEOM     BASIS     RHF  

 PROGRAMS   *        TOTAL        HF       INT
 CPU TIMES  *         0.71      0.08      0.12
 REAL TIME  *         0.97 SEC
 DISK USED  *         7.57 MB      
 **********************************************************************************************************************************


1PROGRAM * RMP2 (Restricted open-shell)     Authors: U. Schumann, H.-J. Werner, 2001


 Convergence thresholds:  THRVAR = 1.00D-12  THRDEN = 1.00D-08

 Number of core orbitals:           1 (   1   0 )
 Number of closed-shell orbitals:   3 (   2   1 )
 Number of active  orbitals:        1 (   1   0 )
 Number of external orbitals:      14 (  10   4 )

 Reading UHF information from record   2100.2

                               TOTAL       A-A         B-B         A-B
 Pair energies:            -0.07853700 -0.00935175 -0.00395030 -0.06523495
 Singles energies:         -0.00146712 -0.00072493 -0.00074219

 Reference energy                     -39.544979333307
 Correlation energy                    -0.080004119157
 !RMP2 STATE 1.1 Energy               -39.624983452464


 **********************************************************************************************************************************
 DATASETS  * FILE   NREC   LENGTH (MB)   RECORD NAMES
              1      19        2.62       500      610      700      900      950      970     1000      129      960     1100   
                                          VAR    BASINP    GEOM    SYMINP    ZMAT    AOBASIS   BASIS     P2S    ABASIS      S 
                                         1400     1410     1200     1210     1080     1600     1650     1300     1700   
                                           T        V       H0       H01     AOSYM     SMH    MOLCAS    ERIS     OPER   

              2       3        0.29       700     1000     2100   
                                         GEOM     BASIS     RHF  

 PROGRAMS   *        TOTAL      RMP2        HF       INT
 CPU TIMES  *         0.91      0.19      0.08      0.12
 REAL TIME  *         1.27 SEC
 DISK USED  *         7.57 MB      
 **********************************************************************************************************************************


 PROGRAM * OPT (Geometry optimization)     Authors: F. Eckert and H.-J. Werner


 BFGS update of hessian

 *** Long output written to logfile /home/ospite/Desktop/MMfP/Project6/CH3/molpro/MP2/ch3_+.log ***


 Geometry optimization using default procedure for command RMP2

 Geometry written to block  1 of record 700
 Starting numerical gradient for RMP2
 Numerical gradient completed. CPU-time:     2.10 sec, Elapsed:     2.85 sec

 Making model hessian for Z-matrix coordinates

 Quadratic Steepest Descent - Minimum Search

 Optimization point 1

 Variable                      Last           Current        Next           Gradient       Hessian

 E(RMP2) / Hartree           0.00000000   -39.62498345     0.00000000
 D / ANG                     0.00000000     1.09000000     1.08509481     0.02526188     5.15003108
 A / DEG                     0.00000000   120.00000000   119.99681871     0.00000066     0.00020858
 T / DEG                     0.00000000     0.00000000     0.00000000     0.00000000     0.00000000
 Convergence:                0.00000000  (line search)     0.00926963     0.01336807  (total)
 Starting numerical gradient for RMP2
 Numerical gradient completed. CPU-time:     1.95 sec, Elapsed:     2.15 sec

 Optimization point 2

 Variable                      Last           Current        Next           Gradient       Hessian

 E(RMP2) / Hartree         -39.62498345   -39.62505997     0.00000000
 D / ANG                     1.09000000     1.08509481     1.08368797     0.00563045     4.00218574
 A / DEG                   120.00000000   119.99681871   119.99648127     0.00000005     0.00021495
 T / DEG                     0.00000000     0.00000000    -0.00000000     0.00000000     0.00000000
 Convergence:                0.00000000  (line search)     0.00265856     0.00297951  (total)
 Starting numerical gradient for RMP2
 Numerical gradient completed. CPU-time:     1.93 sec, Elapsed:     2.13 sec

 Optimization point 3

 Variable                      Last           Current        Next           Gradient       Hessian

 E(RMP2) / Hartree         -39.62505997   -39.62506402     0.00000000
 D / ANG                     1.08509481     1.08368797     1.08371323    -0.00010296     4.07536510
 A / DEG                   119.99681871   119.99648127   119.99654438    -0.00000001     0.00021681
 T / DEG                     0.00000000    -0.00000000    -0.00000000    -0.00000000     0.00000000
 Convergence:                0.00000000  (line search)     0.00004775     0.00005449  (total)

 END OF GEOMETRY OPTIMIZATION.    TOTAL CPU:         6.6 SEC

 ITER.   ENERGY(OLD)    ENERGY(NEW)      DE          GRADMAX     GRADNORM    GRADRMS     STEPMAX     STEPLEN     STEPRMS
   1   -39.62498345   -39.62505997    -0.00007652  0.01336801  0.01336807  0.00445602  0.00926947  0.00926963  0.00308988
   2   -39.62505997   -39.62506402    -0.00000405  0.00297950  0.00297951  0.00099317  0.00265855  0.00265856  0.00088619
   3   -39.62506402   -39.62506402     0.00000000  0.00005448  0.00005449  0.00001816  0.00004774  0.00004775  0.00001592

 Geometry written to block  1 of record 700


 **********************************************************************************************************************************
 DATASETS  * FILE   NREC   LENGTH (MB)   RECORD NAMES
              1      19        2.62       500      610      700      900      950      970     1000      129      960     1100   
                                          VAR    BASINP    GEOM    SYMINP    ZMAT    AOBASIS   BASIS     P2S    ABASIS      S 
                                         1400     1410     1200     1210     1080     1600     1650     1300     1700   
                                           T        V       H0       H01     AOSYM     SMH    MOLCAS    ERIS     OPER   

              2       4        0.29       700     1000     2100     5600   
                                         GEOM     BASIS     RHF     GINFO   

 PROGRAMS   *        TOTAL      OPTG      RMP2        HF       INT
 CPU TIMES  *         7.51      6.59      0.19      0.08      0.12
 REAL TIME  *         9.61 SEC
 DISK USED  *         7.61 MB      
 **********************************************************************************************************************************

 Dump information in style MOLDEN to ch4_6-31+g.molpro                                                               

 Molecular orbitals read from record     2100.2  Type=RHF/CANONICAL (state 1.1)
 Occupation numbers read from record     2100.2  Type=RHF/RHF (state 1.1)
 Orbital energies read from record       2100.2  Type=RHF/CANONICAL (state 1.1)
 Redundancy group numbers read from rec  2100.2  Type=RHF/RHF (state 1.1)

 DUMP ORBITAL  1.1 AS ORBITAL    1  occ=    2.0000  eig=  -11.2303  GROUP=   2
 DUMP ORBITAL  2.1 AS ORBITAL    2  occ=    2.0000  eig=   -0.9028  GROUP=   2
 DUMP ORBITAL  1.2 AS ORBITAL    3  occ=    2.0000  eig=   -0.5732  GROUP=   2
 DUMP ORBITAL  3.1 AS ORBITAL    4  occ=    2.0000  eig=   -0.5732  GROUP=   2
 DUMP ORBITAL  4.1 AS ORBITAL    5  occ=    1.0000  eig=   -0.3781  GROUP=   1

 Total charge:       9.000000

 **********************************************************************************************************************************

      OPTG(RMP2)        RMP2            HF-SCF  
    -39.62506402    -39.62498345    -39.54497933
 **********************************************************************************************************************************
 Variable memory released
