
 Primary working directories    : /data/scratch
 Secondary working directories  : /data/scratch
 Wavefunction directory         : /home/ospite/wfu/
 Main file repository           : /data/scratch/

 ARCHNAME  : Linux/x86_64
 FC        : /usr/bin/gfortran
 FCVERSION : 4.8.5
 BLASLIB   : 
 id        : polimi

 Nodes     nprocs
 molmod       1

 Using default tuning parameters: mindgm=1; mindgv=20; mindgc=4; mindgr=1; noblas=0; mincuda=1000; minvec=7
 default implementation of scratch files=df  

 ***,methyl with imposed symmetry and 6-31++G basis set
 memory,100,m
 
 basis=6-31++G
 symmetry,y
 
 geometry={angstrom
 C
 H1, C, d
 H2, C, d, H1, a
 H3, C, d, H1, -a, H2, t
 }
 
 d=1.09 Ang
 a=120. Deg
 t=0.0 Deg
 
 hf
 rmp2
 optg
 put,molden,ch4_6-31++G.molpro

 Variables initialized (661), CPU time= 0.01 sec
 Commands  initialized (458), CPU time= 0.05 sec, 486 directives.
 Default parameters read. Elapsed time= 0.20 sec

 Checking input...
 Passed
1


                                         ***  PROGRAM SYSTEM MOLPRO  ***
                         Copyright, University College Cardiff Consultants Limited, 2008

                                    Version 2010.1 linked Mar  6 2018 16:01:50


 **********************************************************************************************************************************
 LABEL *   methyl with imposed symmetry and 6-31++G basis set                            
 Linux-3.10.0-1160.108.1.el7.x86_64/molmod(x86_64) 64 bit serial version                 DATE: 17-Aug-24          TIME: 19:00:58  
 **********************************************************************************************************************************

 SHA1:             d90fb18d49a3be29a79769f900c595ef3b8176e2
 **********************************************************************************************************************************

 Variable memory set to  100000000 words,  buffer space   230000 words

 SETTING BASIS          =    6-31++G
 ZSYMEL=Y  

 SETTING D              =         1.09000000  ANG                             
 SETTING A              =       120.00000000  DEG                             
 SETTING T              =         0.00000000  DEG                             


 Recomputing integrals since basis changed


 Using spherical harmonics

 Library entry C      S 6-31G                selected for orbital group  1
 Library entry C      S 6-31++G              selected for orbital group  1
 Library entry C      P 6-31G                selected for orbital group  1
 Library entry C      P 6-31++G              selected for orbital group  1
 Library entry H      S 6-31G                selected for orbital group  2
 Library entry H      S 6-31++G              selected for orbital group  2

1PROGRAM * SEWARD (Integral evaluation for generally contracted gaussian basis sets)     Author: Roland Lindh, 1990

 Geometry written to block  1 of record 700

 Orientation using atomic masses  
 Molecule type: Symmetric top,     Order of principal axis = 3
 User-specified symmetry elements: Y
 Symmetry elements: Y
 Rotational constants:     281.3443841    281.3443841    140.6721920 GHz  (calculated with average atomic masses)

 Point group  Cs  



 ATOMIC COORDINATES

 NR  ATOM    CHARGE       X              Y              Z

   1  C       6.00   -0.000000000    0.000000000    0.000000000
   2  H1      1.00    2.059801483    0.000000000    0.000000000
   3  H2      1.00   -1.029900742   -1.783840411    0.000000000
   4  H3      1.00   -1.029900742    1.783840411    0.000000000

 Bond lengths in Bohr (Angstrom)

 1-2  2.059801483  1-3  2.059801483  1-4  2.059801483
     ( 1.090000000)     ( 1.090000000)     ( 1.090000000)

 Bond angles

  2-1-3  120.00000000   2-1-4  120.00000000   3-1-4  120.00000000

 NUCLEAR CHARGE:                    9
 NUMBER OF PRIMITIVE AOS:          41
 NUMBER OF SYMMETRY AOS:           41
 NUMBER OF CONTRACTIONS:           22   (  16A'  +   6A"  )
 NUMBER OF CORE ORBITALS:           1   (   1A'  +   0A"  )
 NUMBER OF VALENCE ORBITALS:        7   (   5A'  +   2A"  )


 NUCLEAR REPULSION ENERGY    9.57958860

 EXTRA SYMMETRY OF AOS IN SYMMETRY 1:   1 1 1 1 1 2 1 2 1 2   1 1 1 1 1 1

 Eigenvalues of metric

         1 0.771E-02 0.951E-02 0.302E-01 0.617E-01 0.208E+00 0.254E+00 0.259E+00 0.535E+00
         2 0.951E-02 0.617E-01 0.254E+00 0.550E+00 0.100E+01 0.296E+01


 Contracted 2-electron integrals neglected if value below      1.0D-11
 AO integral compression algorithm  1   Integral accuracy      1.0D-11

     0.262 MB (compressed) written to integral file (100.0%)


 NUMBER OF SORTED TWO-ELECTRON INTEGRALS:      18115.     BUFFER LENGTH:  32768
 NUMBER OF SEGMENTS:   1  SEGMENT LENGTH:      18115      RECORD LENGTH: 524288

 Memory used in sort:       0.58 MW

 SORT1 READ       31024. AND WROTE       11287. INTEGRALS IN      1 RECORDS. CPU TIME:     0.01 SEC, REAL TIME:     0.00 SEC
 SORT2 READ       11287. AND WROTE       18115. INTEGRALS IN      1 RECORDS. CPU TIME:     0.03 SEC, REAL TIME:     0.03 SEC

 FILE SIZES:   FILE 1:     2.8 MBYTE,  FILE 4:     4.2 MBYTE,   TOTAL:      7.1 MBYTE

 OPERATOR DM      FOR CENTER  0  COORDINATES:    0.000000    0.000000    0.000000


 **********************************************************************************************************************************
 DATASETS  * FILE   NREC   LENGTH (MB)   RECORD NAMES
              1      19        2.66       500      610      700      900      950      970     1000      129      960     1100   
                                          VAR    BASINP    GEOM    SYMINP    ZMAT    AOBASIS   BASIS     P2S    ABASIS      S 
                                         1400     1410     1200     1210     1080     1600     1650     1300     1700   
                                           T        V       H0       H01     AOSYM     SMH    MOLCAS    ERIS     OPER   

 PROGRAMS   *        TOTAL       INT
 CPU TIMES  *         0.63      0.16
 REAL TIME  *         0.86 SEC
 DISK USED  *         7.57 MB      
 **********************************************************************************************************************************

1PROGRAM * RHF-SCF (OPEN SHELL)       Authors: W. Meyer, H.-J. Werner


 NUMBER OF ELECTRONS:       5+    4-
 CONVERGENCE THRESHOLDS:    1.00E-06 (Density)    1.00E-07 (Energy)
 MAX. NUMBER OF ITERATIONS:       60
 INTERPOLATION TYPE:            DIIS
 INTERPOLATION STEPS:              2 (START)      1 (STEP)
 LEVEL SHIFTS:                 -0.30 (CLOSED) -0.00 (OPEN) 



 Orbital guess generated from atomic densities. Full valence occupancy:    6   2

 Molecular orbital dump at record        2100.2

 Initial alpha occupancy:   4   1
 Initial beta  occupancy:   3   1
 Wave function symmetry:    1

 ITERATION    DDIFF          GRAD             ENERGY        2-EL.EN.            DIPOLE MOMENTS         DIIS
    1      0.000D+00      0.000D+00       -39.53949340     44.399055   -0.00000    0.00000   -0.00000    0
    2      0.000D+00      0.891D-02       -39.54418052     44.339199   -0.00000    0.00000   -0.00000    1
    3      0.647D-02      0.303D-02       -39.54499380     44.399555   -0.00000    0.00000   -0.00000    2
    4      0.418D-02      0.670D-03       -39.54504428     44.391058   -0.00000    0.00000   -0.00000    3
    5      0.155D-02      0.210D-03       -39.54505000     44.392564   -0.00000    0.00000   -0.00000    4
    6      0.788D-03      0.256D-04       -39.54505013     44.392270   -0.00000    0.00000   -0.00000    5
    7      0.104D-03      0.456D-05       -39.54505013     44.392309   -0.00000    0.00000   -0.00000    6
    8      0.118D-04      0.141D-05       -39.54505013     44.392293   -0.00000    0.00000   -0.00000    6
    9      0.320D-05      0.271D-06       -39.54505013     44.392294   -0.00000    0.00000   -0.00000    6
   10      0.930D-06      0.491D-07       -39.54505013     44.392293   -0.00000    0.00000   -0.00000    0

 Final alpha occupancy:   4   1
 Final beta  occupancy:   3   1

 !RHF STATE 1.1 Energy                -39.545050133625
 Nuclear energy                         9.57958860
 One-electron energy                  -71.32078532
 Two-electron energy                   22.19614659
 Virial quotient                       -1.00089562
 !RHF STATE 1.1 Dipole moment          -0.00000000     0.00000000    -0.00000000
 Dipole moment /Debye                  -0.00000000     0.00000000    -0.00000000

 Orbital energies:

         1.1          2.1          3.1          4.1          5.1          6.1
    -11.232390    -0.900456    -0.571162    -0.378152     0.045812     0.077473

         1.2          2.2          3.2
     -0.571162     0.077473     0.174150


 **********************************************************************************************************************************
 DATASETS  * FILE   NREC   LENGTH (MB)   RECORD NAMES
              1      19        2.66       500      610      700      900      950      970     1000      129      960     1100   
                                          VAR    BASINP    GEOM    SYMINP    ZMAT    AOBASIS   BASIS     P2S    ABASIS      S 
                                         1400     1410     1200     1210     1080     1600     1650     1300     1700   
                                           T        V       H0       H01     AOSYM     SMH    MOLCAS    ERIS     OPER   

              2       3        0.29       700     1000     2100   
                                         GEOM     BASIS     RHF  

 PROGRAMS   *        TOTAL        HF       INT
 CPU TIMES  *         0.71      0.07      0.16
 REAL TIME  *         0.95 SEC
 DISK USED  *         7.57 MB      
 **********************************************************************************************************************************


1PROGRAM * RMP2 (Restricted open-shell)     Authors: U. Schumann, H.-J. Werner, 2001


 Convergence thresholds:  THRVAR = 1.00D-12  THRDEN = 1.00D-08

 Number of core orbitals:           1 (   1   0 )
 Number of closed-shell orbitals:   3 (   2   1 )
 Number of active  orbitals:        1 (   1   0 )
 Number of external orbitals:      17 (  12   5 )

 Reading UHF information from record   2100.2

                               TOTAL       A-A         B-B         A-B
 Pair energies:            -0.07863611 -0.00935832 -0.00395379 -0.06532400
 Singles energies:         -0.00148138 -0.00073190 -0.00074948

 Reference energy                     -39.545050133625
 Correlation energy                    -0.080117488127
 !RMP2 STATE 1.1 Energy               -39.625167621752


 **********************************************************************************************************************************
 DATASETS  * FILE   NREC   LENGTH (MB)   RECORD NAMES
              1      19        2.66       500      610      700      900      950      970     1000      129      960     1100   
                                          VAR    BASINP    GEOM    SYMINP    ZMAT    AOBASIS   BASIS     P2S    ABASIS      S 
                                         1400     1410     1200     1210     1080     1600     1650     1300     1700   
                                           T        V       H0       H01     AOSYM     SMH    MOLCAS    ERIS     OPER   

              2       3        0.29       700     1000     2100   
                                         GEOM     BASIS     RHF  

 PROGRAMS   *        TOTAL      RMP2        HF       INT
 CPU TIMES  *         0.89      0.18      0.07      0.16
 REAL TIME  *         1.16 SEC
 DISK USED  *         7.57 MB      
 **********************************************************************************************************************************


 PROGRAM * OPT (Geometry optimization)     Authors: F. Eckert and H.-J. Werner


 BFGS update of hessian

 *** Long output written to logfile /home/ospite/Desktop/MMfP/Project6/CH3/molpro/MP2/ch3_++.log ***


 Geometry optimization using default procedure for command RMP2

 Geometry written to block  1 of record 700
 Starting numerical gradient for RMP2
 Numerical gradient completed. CPU-time:     2.13 sec, Elapsed:     2.62 sec

 Making model hessian for Z-matrix coordinates

 Quadratic Steepest Descent - Minimum Search

 Optimization point 1

 Variable                      Last           Current        Next           Gradient       Hessian

 E(RMP2) / Hartree           0.00000000   -39.62516762     0.00000000
 D / ANG                     0.00000000     1.09000000     1.08504554     0.02551562     5.15003108
 A / DEG                     0.00000000   120.00000000   119.99682252     0.00000066     0.00020858
 T / DEG                     0.00000000     0.00000000     0.00000000    -0.00000000     0.00000000
 Convergence:                0.00000000  (line search)     0.00936274     0.01350234  (total)
 Starting numerical gradient for RMP2
 Numerical gradient completed. CPU-time:     2.04 sec, Elapsed:     2.34 sec

 Optimization point 2

 Variable                      Last           Current        Next           Gradient       Hessian

 E(RMP2) / Hartree         -39.62516762   -39.62524574     0.00000000
 D / ANG                     1.09000000     1.08504554     1.08361612     0.00571323     3.99689053
 A / DEG                   120.00000000   119.99682252   119.99648283     0.00000005     0.00021501
 T / DEG                     0.00000000     0.00000000     0.00000000     0.00000000     0.00000000
 Convergence:                0.00000000  (line search)     0.00270122     0.00302332  (total)
 Starting numerical gradient for RMP2
 Numerical gradient completed. CPU-time:     2.05 sec, Elapsed:     2.34 sec

 Optimization point 3

 Variable                      Last           Current        Next           Gradient       Hessian

 E(RMP2) / Hartree         -39.62524574   -39.62524991     0.00000000
 D / ANG                     1.08504554     1.08361612     1.08364208    -0.00010566     4.07080959
 A / DEG                   119.99682252   119.99648283   119.99654684    -0.00000001     0.00021690
 T / DEG                     0.00000000     0.00000000     0.00000000    -0.00000000     0.00000000
 Convergence:                0.00000000  (line search)     0.00004906     0.00005592  (total)

 END OF GEOMETRY OPTIMIZATION.    TOTAL CPU:         6.9 SEC

 ITER.   ENERGY(OLD)    ENERGY(NEW)      DE          GRADMAX     GRADNORM    GRADRMS     STEPMAX     STEPLEN     STEPRMS
   1   -39.62516762   -39.62524574    -0.00007812  0.01350229  0.01350234  0.00450078  0.00936257  0.00936274  0.00312091
   2   -39.62524574   -39.62524991    -0.00000417  0.00302331  0.00302332  0.00100777  0.00270121  0.00270122  0.00090041
   3   -39.62524991   -39.62524991     0.00000000  0.00005592  0.00005592  0.00001864  0.00004905  0.00004906  0.00001635

 Geometry written to block  1 of record 700


 **********************************************************************************************************************************
 DATASETS  * FILE   NREC   LENGTH (MB)   RECORD NAMES
              1      19        2.66       500      610      700      900      950      970     1000      129      960     1100   
                                          VAR    BASINP    GEOM    SYMINP    ZMAT    AOBASIS   BASIS     P2S    ABASIS      S 
                                         1400     1410     1200     1210     1080     1600     1650     1300     1700   
                                           T        V       H0       H01     AOSYM     SMH    MOLCAS    ERIS     OPER   

              2       4        0.30       700     1000     2100     5600   
                                         GEOM     BASIS     RHF     GINFO   

 PROGRAMS   *        TOTAL      OPTG      RMP2        HF       INT
 CPU TIMES  *         7.75      6.86      0.18      0.07      0.16
 REAL TIME  *        10.06 SEC
 DISK USED  *         7.62 MB      
 **********************************************************************************************************************************

 Dump information in style MOLDEN to ch4_6-31++g.molpro                                                              

 Molecular orbitals read from record     2100.2  Type=RHF/CANONICAL (state 1.1)
 Occupation numbers read from record     2100.2  Type=RHF/RHF (state 1.1)
 Orbital energies read from record       2100.2  Type=RHF/CANONICAL (state 1.1)
 Redundancy group numbers read from rec  2100.2  Type=RHF/RHF (state 1.1)

 DUMP ORBITAL  1.1 AS ORBITAL    1  occ=    2.0000  eig=  -11.2303  GROUP=   2
 DUMP ORBITAL  2.1 AS ORBITAL    2  occ=    2.0000  eig=   -0.9028  GROUP=   2
 DUMP ORBITAL  1.2 AS ORBITAL    3  occ=    2.0000  eig=   -0.5732  GROUP=   2
 DUMP ORBITAL  3.1 AS ORBITAL    4  occ=    2.0000  eig=   -0.5732  GROUP=   2
 DUMP ORBITAL  4.1 AS ORBITAL    5  occ=    1.0000  eig=   -0.3780  GROUP=   1

 Total charge:       9.000000

 **********************************************************************************************************************************

      OPTG(RMP2)        RMP2            HF-SCF  
    -39.62524991    -39.62516762    -39.54505013
 **********************************************************************************************************************************
 Variable memory released
