
 Primary working directories    : /data/scratch
 Secondary working directories  : /data/scratch
 Wavefunction directory         : /home/ospite/wfu/
 Main file repository           : /data/scratch/

 ARCHNAME  : Linux/x86_64
 FC        : /usr/bin/gfortran
 FCVERSION : 4.8.5
 BLASLIB   : 
 id        : polimi

 Nodes     nprocs
 molmod       1

 Using default tuning parameters: mindgm=1; mindgv=20; mindgc=4; mindgr=1; noblas=0; mincuda=1000; minvec=7
 default implementation of scratch files=df  

 ***,methyl with imposed symmetry and sto-g3 basis set
 memory,100,m
 
 basis=sto-3g
 symmetry,y
 
 geometry={angstrom
 C
 H1, C, d
 H2, C, d, H1, a
 H3, C, d, H1, -a, H2, t
 }
 
 d=1.09 Ang
 a=120. Deg
 t=0.0 Deg
 
 hf
 rmp2
 optg
 put,molden,ch4_sto-3g.molpro

 Variables initialized (661), CPU time= 0.01 sec
 Commands  initialized (458), CPU time= 0.05 sec, 486 directives.
 Default parameters read. Elapsed time= 0.18 sec

 Checking input...
 Passed
1


                                         ***  PROGRAM SYSTEM MOLPRO  ***
                         Copyright, University College Cardiff Consultants Limited, 2008

                                    Version 2010.1 linked Mar  6 2018 16:01:50


 **********************************************************************************************************************************
 LABEL *   methyl with imposed symmetry and sto-g3 basis set                             
 Linux-3.10.0-1160.108.1.el7.x86_64/molmod(x86_64) 64 bit serial version                 DATE: 17-Aug-24          TIME: 19:01:12  
 **********************************************************************************************************************************

 SHA1:             d90fb18d49a3be29a79769f900c595ef3b8176e2
 **********************************************************************************************************************************

 Variable memory set to  100000000 words,  buffer space   230000 words

 SETTING BASIS          =    STO-3G
 ZSYMEL=Y  

 SETTING D              =         1.09000000  ANG                             
 SETTING A              =       120.00000000  DEG                             
 SETTING T              =         0.00000000  DEG                             


 Recomputing integrals since basis changed


 Using spherical harmonics

 Library entry C      S STO-3G               selected for orbital group  1
 Library entry C      P STO-3G               selected for orbital group  1
 Library entry H      S STO-3G               selected for orbital group  2

1PROGRAM * SEWARD (Integral evaluation for generally contracted gaussian basis sets)     Author: Roland Lindh, 1990

 Geometry written to block  1 of record 700

 Orientation using atomic masses  
 Molecule type: Symmetric top,     Order of principal axis = 3
 User-specified symmetry elements: Y
 Symmetry elements: Y
 Rotational constants:     281.3443841    281.3443841    140.6721920 GHz  (calculated with average atomic masses)

 Point group  Cs  



 ATOMIC COORDINATES

 NR  ATOM    CHARGE       X              Y              Z

   1  C       6.00   -0.000000000    0.000000000    0.000000000
   2  H1      1.00    2.059801483    0.000000000    0.000000000
   3  H2      1.00   -1.029900742   -1.783840411    0.000000000
   4  H3      1.00   -1.029900742    1.783840411    0.000000000

 Bond lengths in Bohr (Angstrom)

 1-2  2.059801483  1-3  2.059801483  1-4  2.059801483
     ( 1.090000000)     ( 1.090000000)     ( 1.090000000)

 Bond angles

  2-1-3  120.00000000   2-1-4  120.00000000   3-1-4  120.00000000

 NUCLEAR CHARGE:                    9
 NUMBER OF PRIMITIVE AOS:          24
 NUMBER OF SYMMETRY AOS:           24
 NUMBER OF CONTRACTIONS:            8   (   6A'  +   2A"  )
 NUMBER OF CORE ORBITALS:           1   (   1A'  +   0A"  )
 NUMBER OF VALENCE ORBITALS:        7   (   5A'  +   2A"  )


 NUCLEAR REPULSION ENERGY    9.57958860

 EXTRA SYMMETRY OF AOS IN SYMMETRY 1:   1 1 1 2 1 1

 Eigenvalues of metric

         1 0.261E+00 0.352E+00 0.964E+00 0.100E+01 0.151E+01 0.206E+01
         2 0.352E+00 0.151E+01


 Contracted 2-electron integrals neglected if value below      1.0D-11
 AO integral compression algorithm  1   Integral accuracy      1.0D-11

     0.262 MB (compressed) written to integral file (100.0%)


 NUMBER OF SORTED TWO-ELECTRON INTEGRALS:        426.     BUFFER LENGTH:  32768
 NUMBER OF SEGMENTS:   1  SEGMENT LENGTH:        426      RECORD LENGTH: 524288

 Memory used in sort:       0.56 MW

 SORT1 READ         522. AND WROTE         283. INTEGRALS IN      1 RECORDS. CPU TIME:     0.00 SEC, REAL TIME:     0.01 SEC
 SORT2 READ         283. AND WROTE         426. INTEGRALS IN      1 RECORDS. CPU TIME:     0.00 SEC, REAL TIME:     0.00 SEC

 FILE SIZES:   FILE 1:     2.8 MBYTE,  FILE 4:     4.2 MBYTE,   TOTAL:      7.1 MBYTE

 OPERATOR DM      FOR CENTER  0  COORDINATES:    0.000000    0.000000    0.000000


 **********************************************************************************************************************************
 DATASETS  * FILE   NREC   LENGTH (MB)   RECORD NAMES
              1      19        2.57       500      610      700      900      950      970     1000      129      960     1100   
                                          VAR    BASINP    GEOM    SYMINP    ZMAT    AOBASIS   BASIS     P2S    ABASIS      S 
                                         1400     1410     1200     1210     1080     1600     1650     1300     1700   
                                           T        V       H0       H01     AOSYM     SMH    MOLCAS    ERIS     OPER   

 PROGRAMS   *        TOTAL       INT
 CPU TIMES  *         0.68      0.21
 REAL TIME  *         0.92 SEC
 DISK USED  *         7.55 MB      
 **********************************************************************************************************************************

1PROGRAM * RHF-SCF (OPEN SHELL)       Authors: W. Meyer, H.-J. Werner


 NUMBER OF ELECTRONS:       5+    4-
 CONVERGENCE THRESHOLDS:    1.00E-06 (Density)    1.00E-07 (Energy)
 MAX. NUMBER OF ITERATIONS:       60
 INTERPOLATION TYPE:            DIIS
 INTERPOLATION STEPS:              2 (START)      1 (STEP)
 LEVEL SHIFTS:                 -0.30 (CLOSED) -0.00 (OPEN) 



 Orbital guess generated from atomic densities. Full valence occupancy:    6   2

 Molecular orbital dump at record        2100.2

 Initial alpha occupancy:   4   1
 Initial beta  occupancy:   3   1
 Wave function symmetry:    1

 ITERATION    DDIFF          GRAD             ENERGY        2-EL.EN.            DIPOLE MOMENTS         DIIS
    1      0.000D+00      0.000D+00       -39.06999949     45.324987    0.00000    0.00000    0.00000    0
    2      0.000D+00      0.130D-01       -39.07154585     45.114044    0.00000    0.00000   -0.00000    1
    3      0.153D-01      0.346D-02       -39.07167509     45.079254    0.00000    0.00000   -0.00000    2
    4      0.500D-02      0.787D-03       -39.07168206     45.079902    0.00000    0.00000    0.00000    3
    5      0.145D-02      0.316D-04       -39.07168207     45.080071    0.00000    0.00000    0.00000    4
    6      0.508D-04      0.434D-07       -39.07168207     45.080071    0.00000    0.00000    0.00000    4
    7      0.545D-07      0.128D-10       -39.07168207     45.080071    0.00000    0.00000   -0.00000    0

 Final alpha occupancy:   4   1
 Final beta  occupancy:   3   1

 !RHF STATE 1.1 Energy                -39.071682072972
 Nuclear energy                         9.57958860
 One-electron energy                  -71.19130596
 Two-electron energy                   22.54003529
 Virial quotient                       -1.00239082
 !RHF STATE 1.1 Dipole moment           0.00000000     0.00000000    -0.00000000
 Dipole moment /Debye                   0.00000000     0.00000000    -0.00000000

 Orbital energies:

         1.1          2.1          3.1          4.1          5.1          6.1
    -10.989298    -0.843757    -0.524816    -0.345860     0.613148     0.760940

         1.2          2.2
     -0.524816     0.760940


 **********************************************************************************************************************************
 DATASETS  * FILE   NREC   LENGTH (MB)   RECORD NAMES
              1      19        2.57       500      610      700      900      950      970     1000      129      960     1100   
                                          VAR    BASINP    GEOM    SYMINP    ZMAT    AOBASIS   BASIS     P2S    ABASIS      S 
                                         1400     1410     1200     1210     1080     1600     1650     1300     1700   
                                           T        V       H0       H01     AOSYM     SMH    MOLCAS    ERIS     OPER   

              2       3        0.28       700     1000     2100   
                                         GEOM     BASIS     RHF  

 PROGRAMS   *        TOTAL        HF       INT
 CPU TIMES  *         0.74      0.05      0.21
 REAL TIME  *         0.98 SEC
 DISK USED  *         7.55 MB      
 **********************************************************************************************************************************


1PROGRAM * RMP2 (Restricted open-shell)     Authors: U. Schumann, H.-J. Werner, 2001


 Convergence thresholds:  THRVAR = 1.00D-12  THRDEN = 1.00D-08

 Number of core orbitals:           1 (   1   0 )
 Number of closed-shell orbitals:   3 (   2   1 )
 Number of active  orbitals:        1 (   1   0 )
 Number of external orbitals:       3 (   2   1 )

 Reading UHF information from record   2100.2

                               TOTAL       A-A         B-B         A-B
 Pair energies:            -0.03967451 -0.00080742 -0.00081456 -0.03805253
 Singles energies:         -0.00208778 -0.00103553 -0.00105225

 Reference energy                     -39.071682072972
 Correlation energy                    -0.041762287788
 !RMP2 STATE 1.1 Energy               -39.113444360760


 **********************************************************************************************************************************
 DATASETS  * FILE   NREC   LENGTH (MB)   RECORD NAMES
              1      19        2.57       500      610      700      900      950      970     1000      129      960     1100   
                                          VAR    BASINP    GEOM    SYMINP    ZMAT    AOBASIS   BASIS     P2S    ABASIS      S 
                                         1400     1410     1200     1210     1080     1600     1650     1300     1700   
                                           T        V       H0       H01     AOSYM     SMH    MOLCAS    ERIS     OPER   

              2       3        0.28       700     1000     2100   
                                         GEOM     BASIS     RHF  

 PROGRAMS   *        TOTAL      RMP2        HF       INT
 CPU TIMES  *         0.94      0.20      0.05      0.21
 REAL TIME  *         1.22 SEC
 DISK USED  *         7.55 MB      
 **********************************************************************************************************************************


 PROGRAM * OPT (Geometry optimization)     Authors: F. Eckert and H.-J. Werner


 BFGS update of hessian

 *** Long output written to logfile /home/ospite/Desktop/MMfP/Project6/CH3/molpro/MP2/ch3_sto-3g.log ***


 Geometry optimization using default procedure for command RMP2

 Geometry written to block  1 of record 700
 Starting numerical gradient for RMP2
 Numerical gradient completed. CPU-time:     2.08 sec, Elapsed:     2.42 sec

 Making model hessian for Z-matrix coordinates

 Quadratic Steepest Descent - Minimum Search

 Optimization point 1

 Variable                      Last           Current        Next           Gradient       Hessian

 E(RMP2) / Hartree           0.00000000   -39.11344436     0.00000000
 D / ANG                     0.00000000     1.09000000     1.09018747    -0.00096546     5.15003108
 A / DEG                     0.00000000   120.00000000   119.99596567     0.00000084     0.00020858
 T / DEG                     0.00000000     0.00000000     0.00000000    -0.00000000     0.00000000
 Convergence:                0.00000000  (line search)     0.00036119     0.00051317  (total)
 Starting numerical gradient for RMP2
 Numerical gradient completed. CPU-time:     2.11 sec, Elapsed:     2.39 sec

 Optimization point 2

 Variable                      Last           Current        Next           Gradient       Hessian

 E(RMP2) / Hartree         -39.11344436   -39.11344443     0.00000000
 D / ANG                     1.09000000     1.09018747     1.09020146    -0.00006682     4.78513478
 A / DEG                   120.00000000   119.99596567   119.99635897    -0.00000008     0.00020940
 T / DEG                     0.00000000     0.00000000     0.00000000    -0.00000000     0.00000000
 Convergence:                0.00000000  (line search)     0.00002733     0.00003563  (total)

 END OF GEOMETRY OPTIMIZATION.    TOTAL CPU:         4.6 SEC

 ITER.   ENERGY(OLD)    ENERGY(NEW)      DE          GRADMAX     GRADNORM    GRADRMS     STEPMAX     STEPLEN     STEPRMS
   1   -39.11344436   -39.11344443    -0.00000007  0.00051090  0.00051317  0.00017106  0.00035426  0.00036119  0.00012040
   2   -39.11344443   -39.11344443     0.00000000  0.00003536  0.00003563  0.00001188  0.00002645  0.00002733  0.00000911

 Geometry written to block  1 of record 700


 **********************************************************************************************************************************
 DATASETS  * FILE   NREC   LENGTH (MB)   RECORD NAMES
              1      19        2.57       500      610      700      900      950      970     1000      129      960     1100   
                                          VAR    BASINP    GEOM    SYMINP    ZMAT    AOBASIS   BASIS     P2S    ABASIS      S 
                                         1400     1410     1200     1210     1080     1600     1650     1300     1700   
                                           T        V       H0       H01     AOSYM     SMH    MOLCAS    ERIS     OPER   

              2       4        0.29       700     1000     2100     5600   
                                         GEOM     BASIS     RHF     GINFO   

 PROGRAMS   *        TOTAL      OPTG      RMP2        HF       INT
 CPU TIMES  *         5.57      4.63      0.20      0.05      0.21
 REAL TIME  *         6.82 SEC
 DISK USED  *         7.59 MB      
 **********************************************************************************************************************************

 Dump information in style MOLDEN to ch4_sto-3g.molpro                                                               

 Molecular orbitals read from record     2100.2  Type=RHF/CANONICAL (state 1.1)
 Occupation numbers read from record     2100.2  Type=RHF/RHF (state 1.1)
 Orbital energies read from record       2100.2  Type=RHF/CANONICAL (state 1.1)
 Redundancy group numbers read from rec  2100.2  Type=RHF/RHF (state 1.1)

 DUMP ORBITAL  1.1 AS ORBITAL    1  occ=    2.0000  eig=  -10.9893  GROUP=   2
 DUMP ORBITAL  2.1 AS ORBITAL    2  occ=    2.0000  eig=   -0.8437  GROUP=   2
 DUMP ORBITAL  1.2 AS ORBITAL    3  occ=    2.0000  eig=   -0.5247  GROUP=   2
 DUMP ORBITAL  3.1 AS ORBITAL    4  occ=    2.0000  eig=   -0.5247  GROUP=   2
 DUMP ORBITAL  4.1 AS ORBITAL    5  occ=    1.0000  eig=   -0.3458  GROUP=   1

 Total charge:       9.000000

 **********************************************************************************************************************************

      OPTG(RMP2)        RMP2            HF-SCF  
    -39.11344443    -39.11344436    -39.07168207
 **********************************************************************************************************************************
 Variable memory released
