[Molden Format]
[Molpro variables]
_NUMVAR=  675.0000000000000    
_EV2006= 0.3674930886769165E-01
_EV= 0.3674932534394180E-01
_KJOULE= 0.3808798324128737E-03
_KJOULE/MOL= 0.3808798324128737E-03
_CM= 0.4556335267302901E-05
_CM-1= 0.4556335267302901E-05
_KCAL= 0.1593601117815568E-02
_KCAL/MOL= 0.1593601117815568E-02
_KELVIN2006= 0.3166828861084835E-05
_KELVIN= 0.3166814820820034E-05
_HERTZ2006= 0.1519829850815779E-15
_HERTZ= 0.1519829846011223E-15
_HZ2006= 0.1519829850815779E-15
_HZ= 0.1519829846011223E-15
_TOA2006= 0.5291772490000000    
_TOA= 0.5291772090000000    
_TOANG2006= 0.5291772490000000    
_TOANG= 0.5291772090000000    
_TORAD= 0.1745329251994330E-01
_TOCM=  219474.6306700000    
_TODEBYE=  2.541580000000000    
_TOEV2006=  27.21139610000000    
_TOEV=  27.21138390000000    
_TOHERTZ2006=  6579683899900000.    
_TOHERTZ=  6579683920700000.    
_TOHZ2006=  6579683899900000.    
_TOHZ=  6579683920700000.    
_TOK2006=  315773.3000000000    
_TOK=  315774.7000000000    
_TOKCAL=  627.5096000000000    
_TOKELVIN2006=  315773.3000000000    
_TOKELVIN=  315774.7000000000    
_TOKJ=  2625.500000000000    
_TOKJOULE=  2625.500000000000    
_ANG2006=  1.889725988578923    
_ANG=  1.889726131421507    
_ANGSTROM2006=  1.889725988578923    
_ANGSTROM=  1.889726131421507    
_IGNORE_UNDEF=  2.000000000000000    
_STRICTCHECK=  0.000000000000000    
_SEW_ONEEL=  0.000000000000000    
_CPPDONE=FALSE
_DKROLL_DONE=  0.000000000000000    
_FOCKDONE=TRUE
_GRADONE=FALSE
_HESSDONE=FALSE
_INTDONE=TRUE
_SCFDONE=TRUE
_MODUL_CUDA=FALSE
_MODUL_SLATER=FALSE
_MODUL_MRCC=FALSE
_MRCC_EXEC=
_FITC_AO_SAVED=FALSE
_FITC_MO_SAVED=FALSE
_SHARED_FS=TRUE
_LSTYP=SEWARD
_INTYP=INTS
_GEOMTYP=ZMAT
_GRADTYP=ALASKA
_DIRECT=FALSE
_SYNCM=  0.000000000000000    
_BASIS=AUG-CC-PVDZ
_ZORIENT=  1.000000000000000    
_NELEC=  9.000000000000000    
!SPIN=  1.000000000000000    
_OPTCONV= 0.4992874490242913E-05
_QSDSTEP=  0.000000000000000    
_QSDIRC=  0.000000000000000    
_PROGRAM=OPTG
_CPUSTEP= 0.9999999999998010E-02
_SYSSTEP=  0.000000000000000    
_WALLSTEP= 0.1000000000000000E-01
!DFMP2=  0.000000000000000    
!DFSCF=  0.000000000000000    
!SCSGRD=  0.000000000000000    
_BASINP=  610.0000000000000    
_CPUTOT=  17.68000000000000    
_CPUCCSD=  0.000000000000000    
_SYSCCSD=  0.000000000000000    
_WALLCCSD=  0.000000000000000    
_CPUF12=  0.000000000000000    
_SYSF12=  0.000000000000000    
_WALLF12=  0.000000000000000    
_CPUF12B=  0.000000000000000    
_SYSF12B=  0.000000000000000    
_WALLF12B=  0.000000000000000    
_CPUTRANS=  0.000000000000000    
_SYSTRANS=  0.000000000000000    
_WALLTRANS=  0.000000000000000    
_DFTEXFAC=  1.000000000000000    
_DMX=  0.000000000000000    
_DMY=  0.000000000000000    
_DMZ=  0.000000000000000    
_EMP2= -39.69844129936322    
_EMP2_SINGLES=-0.2415589335430621E-02
_ENERGR= -39.56145562990802    
_ENERGY= -39.69844129936322    
_ENUC=  9.597966105734644    
_GRADEXFAC=  9999.000000000000    
_GRADMETHOD=  0.000000000000000    
!GRID_FREEZE= -1.000000000000000    
_ITERATIONS=  0.000000000000000    
_LASTNELEC=  9.000000000000000    
_LASTSPIN=  1.000000000000000    
_LASTSYM=  1.000000000000000    
_MPP_PROG=  0.000000000000000    
_NPROC_MPP=  1.000000000000000    
_NPROC_SMP=  1.000000000000000    
_NUMSTEP=  0.000000000000000    
_OPTCONVMX= 0.4952034279999892E-05
_OPTCONVRMS= 0.1664291496747638E-05
_OPTGRAD= 0.5675652069723699E-05
_OPTGRADMX= 0.5658821677911873E-05
_OPTGRADRMS= 0.1891884023241233E-05
_OPTSTEP=  3.000000000000000    
_ORBITAL=  2100.200000000000    
_PI=  3.141592653589793    
_SEIG_MIN= 0.9595594236029750E-03
_SEWPROP=TRUE
_STATUS= -1.000000000000000    
_SYSTOT= 0.9100000000000000    
_VERSION=  2010001.000000000    
_WALLTOT=  25.24000000000000    
_DATE=17-Aug-24
_LASTORB=RHF
_MACHINE=Linux-3.10.0-1160.108.1.el7.x86_64/molmod(x86_64) 64 bit serial version
_OUTPUT=/home/ospite/Desktop/MMfP/Project6/CH3/molpro/MP2/ch3_aug-ccpVDZ.xml
_PGROUP=Cs
_TIME=19:01:59
_LIBMOL=/usr/local/molpro/molpros_2010_1_Linux_x86_64_i8/lib/
!SURFREC=  0.000000000000000    
!POLYREC=  0.000000000000000    
!DIPREC=  0.000000000000000    
!VSCFREC=  0.000000000000000    
!VCIREC=  0.000000000000000    
!PVCIREC=  0.000000000000000    
!VMP2REC=  0.000000000000000    
!VMCSCFREC=  0.000000000000000    
!GAREC=  0.000000000000000    
!SCFORB=  21002.00000000000    
!CIOCC=  4.000000000000000    
!CICORE=  1.000000000000000    
!CICLOS=  3.000000000000000    
!CIISTSYM=  1.000000000000000    
!CIISTMS2=  1.000000000000000    
!CIISTNEL=  7.000000000000000    
!NEWMOL=  0.000000000000000    
!NEWSYM=  0.000000000000000    
_SLFILES=slscratch
_NGSSTO=  9.000000000000000    
_SIN=SIN
_COS=COS
_TAN=TAN
_ACOS=ACOS
_ASIN=ASIN
_ATAN=ATAN
_COSH=COSH
_SINH=SINH
_TANH=TANH
_ABS=ABS
_MOD=MOD
_ERF=ERF
_REFC=REFC
_ERFC=ERFC
_HYPOT=HYPOT
_J0=J0
_J1=J1
_JN=JN
_GAMMA=GAMMA
_LGAMMA=LGAMMA
_Y0=Y0
_Y1=Y1
_YN=YN
_EXP=EXP
_LOG=LOG
_LOG10=LOG10
_SQRT=SQRT
_INT=INT
_NINT=NINT
_MAX=MAX
_MIN=MIN
_COSMO=  0.000000000000000    
_COSMOIT=  0.000000000000000    
_COSMOES=  0.000000000000000    
_COSMOEDS=  0.000000000000000    
_COSMOEC=  0.000000000000000    
_COSMOEDCORR=  0.000000000000000    
_FEPSI=  1.000000000000000    
_SL_IsMM=  0.000000000000000    
_SL_NSYM=  0.000000000000000    
_SL_System_BitSw=  0.000000000000000    
_SL_Unique_atoms=  0.000000000000000    
_SL_GRAD=  0.000000000000000    
_SL_MAXUPD_Hess=  5.000000000000000    
_SL_N_PRINT_COD=  5.000000000000000    
_SL_PRINT_CODES=  0.000000000000000    
_SL_BasType=  0.000000000000000    
_SL_Energy_Pred=  0.000000000000000    
_SL_New_Coords=  0.000000000000000    
_SL_Total_Nuclea=  0.000000000000000    
_SL_Highest_Mltp=  0.000000000000000    
_SL_Ref_Geom=  0.000000000000000    
!LATTICE= -1.000000000000000    
!NEWLATTICE=  0.000000000000000    
!LATGRAD_VAR=FALSE
!SEW_LATTICE=  1.000000000000000    
!LOCAL=  0.000000000000000    
!SAVEDOM= -1.000000000000000    
!RESTDOM= -1.000000000000000    
!SAVEDOM_HF= -1.000000000000000    
!RESTDOM_HF= -1.000000000000000    
!HESSREC=  0.000000000000000    
!FREQREC=  0.000000000000000    
!NMODREC=  0.000000000000000    
!GTASKS=  0.000000000000000    
!HTASKS=  0.000000000000000    
!THRCHG= 0.1000000000000000    
!DEBUG= -1.000000000000000    
!CFIT_CPHF=  0.000000000000000    
!RDOMAUX_CPHF=  5.000000000000000    
!THRAO_CPHF= 0.9999999999999999E-11
!THRMO_CPHF= 0.9999999999999999E-11
!THROV_CPHF= 0.1000000000000000E-11
!THRSW_CPHF= 0.1000000000000000E-09
!THRPROD_CPHF= 0.9999999999999999E-11
!THRAOPR_CPHF= 0.1000000000000000E-11
!CFIT_SCFGRD=  0.000000000000000    
!RDOMAUX_SCFGRD=  7.000000000000000    
!THRAO_SCFGRD= 0.9999999999999999E-11
!THRMO_SCFGRD= 0.9999999999999999E-11
!THROV_SCFGRD= 0.1000000000000000E-11
!THRSW_SCFGRD= 0.1000000000000000E-09
!THRPROD_SCFGRD= 0.9999999999999999E-11
!THRAOPR_SCFGRD= 0.1000000000000000E-11
!LOCFIT_SCF=  0.000000000000000    
!LOCFIT_MP2= -1.000000000000000    
_RIDOM=  0.000000000000000    
!CC2_METHOD=  0.000000000000000    
_BASIS2006=FALSE
_SVDDEL= -1.000000000000000    
_SVDDELA= -1.000000000000000    
_SVDDELP= -1.000000000000000    
_SVDDELF= -1.000000000000000    
_SVDDELS= -1.000000000000000    
_SVDDEL_ABS= -1.000000000000000    
_SVDDELA_ABS= -1.000000000000000    
_SVDDELP_ABS= -1.000000000000000    
_SVDDELF_ABS= -1.000000000000000    
_SVDDELS_ABS= -1.000000000000000    
_MAXBASIS=  0.000000000000000    
!OPT_CONICAL=  0.000000000000000    
!CLEARSP_JGRID=  0.000000000000000    
D=  1.087912945336394    
A=  119.9968789647745    
T= 0.1731851140569014E-10
GX1=-0.1300388005101571E-04
GY1=-0.5452800509290531E-26
GZ1= 0.3608073164347417E-13
GX2=  2.055844517633870    
GY2=-0.5452800509290531E-26
GZ2=-0.1433082683864005E-12
GX3= -1.027844779203420    
GY3= -1.780480831236601    
GZ3=-0.1433217908468657E-12
GX4= -1.027844779203420    
GY4=  1.780480831236601    
GZ4=-0.1433217908468658E-12
[Atoms] Angs
C     1    6        -0.0000068814        0.0000000000        0.0000000000
H     2    1         1.0879060640        0.0000000000        0.0000000000
H     3    1        -0.5439120315       -0.9421898770        0.0000000000
H     4    1        -0.5439120315        0.9421898770        0.0000000000
[GTO]
  1 0
 s    9  1.00
  0.6665000000D+04  0.6920001793D-03
  0.1000000000D+04  0.5329001381D-02
  0.2280000000D+03  0.2707700701D-01
  0.6471000000D+02  0.1017180264D+00
  0.2106000000D+02  0.2747400712D+00
  0.7495000000D+01  0.4485641162D+00
  0.2797000000D+01  0.2850740738D+00
  0.5215000000D+00  0.1520400394D-01
  0.1596000000D+00 -0.3191000827D-02
 s    9  1.00
  0.6665000000D+04 -0.1460000642D-03
  0.1000000000D+04 -0.1154000508D-02
  0.2280000000D+03 -0.5725002519D-02
  0.6471000000D+02 -0.2331201026D-01
  0.2106000000D+02 -0.6395502813D-01
  0.7495000000D+01 -0.1499810660D+00
  0.2797000000D+01 -0.1272620560D+00
  0.5215000000D+00  0.5445292395D+00
  0.1596000000D+00  0.5804962554D+00
 s    9  1.00
  0.6665000000D+04  0.0000000000D+00
  0.1000000000D+04  0.0000000000D+00
  0.2280000000D+03  0.0000000000D+00
  0.6471000000D+02  0.0000000000D+00
  0.2106000000D+02  0.0000000000D+00
  0.7495000000D+01  0.0000000000D+00
  0.2797000000D+01  0.0000000000D+00
  0.5215000000D+00  0.0000000000D+00
  0.1596000000D+00  0.1000000000D+01
 s    1  1.00
  0.4690000000D-01  0.1000000000D+01
 p    4  1.00
  0.9439000000D+01  0.3810902127D-01
  0.2002000000D+01  0.2094801169D+00
  0.5456000000D+00  0.5085572839D+00
  0.1517000000D+00  0.4688422617D+00
 p    4  1.00
  0.9439000000D+01  0.0000000000D+00
  0.2002000000D+01  0.0000000000D+00
  0.5456000000D+00  0.0000000000D+00
  0.1517000000D+00  0.1000000000D+01
 p    1  1.00
  0.4041000000D-01  0.1000000000D+01
 d    1  1.00
  0.5500000000D+00  0.1000000000D+01
 d    1  1.00
  0.1510000000D+00  0.1000000000D+01
  
  2 0
 s    4  1.00
  0.1301000000D+02  0.1968498999D-01
  0.1962000000D+01  0.1379769298D+00
  0.4446000000D+00  0.4781477569D+00
  0.1220000000D+00  0.5012397451D+00
 s    4  1.00
  0.1301000000D+02  0.0000000000D+00
  0.1962000000D+01  0.0000000000D+00
  0.4446000000D+00  0.0000000000D+00
  0.1220000000D+00  0.1000000000D+01
 s    1  1.00
  0.2974000000D-01  0.1000000000D+01
 p    1  1.00
  0.7270000000D+00  0.1000000000D+01
 p    1  1.00
  0.1410000000D+00  0.1000000000D+01
  
  3 0
 s    4  1.00
  0.1301000000D+02  0.1968498999D-01
  0.1962000000D+01  0.1379769298D+00
  0.4446000000D+00  0.4781477569D+00
  0.1220000000D+00  0.5012397451D+00
 s    4  1.00
  0.1301000000D+02  0.0000000000D+00
  0.1962000000D+01  0.0000000000D+00
  0.4446000000D+00  0.0000000000D+00
  0.1220000000D+00  0.1000000000D+01
 s    1  1.00
  0.2974000000D-01  0.1000000000D+01
 p    1  1.00
  0.7270000000D+00  0.1000000000D+01
 p    1  1.00
  0.1410000000D+00  0.1000000000D+01
  
  4 0
 s    4  1.00
  0.1301000000D+02  0.1968498999D-01
  0.1962000000D+01  0.1379769298D+00
  0.4446000000D+00  0.4781477569D+00
  0.1220000000D+00  0.5012397451D+00
 s    4  1.00
  0.1301000000D+02  0.0000000000D+00
  0.1962000000D+01  0.0000000000D+00
  0.4446000000D+00  0.0000000000D+00
  0.1220000000D+00  0.1000000000D+01
 s    1  1.00
  0.2974000000D-01  0.1000000000D+01
 p    1  1.00
  0.7270000000D+00  0.1000000000D+01
 p    1  1.00
  0.1410000000D+00  0.1000000000D+01


[MO]
 Sym=      1.1
 Ene=     -11.2358
 Spin= Alpha
 Occup=    2.000000
1 1.00275820006892
2 0.012941458167865
3 -0.032356777889742
4 -0.007956297171683
5 0.000000015350286
6 0.0
7 -0.000000000000000
8 -0.000000171247744
9 0.0
10 0.000000000000000
11 -0.000000113889553
12 0.0
13 -0.000000000000000
14 0.000349056181094
15 0.000349263355179
16 -0.000698319536273
17 0.0
18 0.000000000000000
19 0.0
20 -0.000804693903795
21 -0.000804985947405
22 0.001609679851201
23 0.0
24 -0.000000000000000
25 0.0
26 0.000499447100936
27 0.009083542154659
28 0.000974253170490
29 0.000419385586052
30 0.0
31 0.000000000000000
32 -0.002815404168446
33 0.0
34 -0.000000000000000
35 0.000499294729709
36 0.009084108208881
37 0.000974113471928
38 -0.000209729701634
39 -0.000363242925004
40 0.000000000000000
41 0.001407648827379
42 0.002438452564951
43 -0.000000000000000
44 0.000499294729709
45 0.009084108208881
46 0.000974113471928
47 -0.000209729701634
48 0.000363242925004
49 0.000000000000000
50 0.001407648827379
51 -0.002438452564951
52 -0.000000000000000
 Sym=      2.1
 Ene=      -0.8991
 Spin= Alpha
 Occup=    2.000000
1 -0.022237212474463
2 0.77492761984452
3 -0.22409281500489
4 -0.013965573160805
5 0.000011152896853
6 0.0
7 0.000000000000000
8 -0.000020087955819
9 0.0
10 0.000000000000000
11 -0.000004641252278
12 0.0
13 0.000000000000000
14 0.002229686343562
15 0.002230652064492
16 -0.004460338408055
17 0.0
18 0.000000000000000
19 0.0
20 -0.003623628619831
21 -0.003633870961548
22 0.007257499581379
23 0.0
24 0.000000000000000
25 0.0
26 0.35201928440129
27 -0.12519534896349
28 0.004067880441137
29 -0.027852380270288
30 0.0
31 0.000000000000000
32 -0.011320151266003
33 0.0
34 -0.000000000000000
35 0.35201310285610
36 -0.12521386871899
37 0.004059716083904
38 0.013925326176794
39 0.024120949075131
40 -0.000000000000000
41 0.005659550043149
42 0.009793319864176
43 -0.000000000000000
44 0.35201310285610
45 -0.12521386871899
46 0.004059716083904
47 0.013925326176794
48 -0.024120949075131
49 -0.000000000000000
50 0.005659550043149
51 -0.009793319864176
52 -0.000000000000000
 Sym=      1.2
 Ene=      -0.5711
 Spin= Alpha
 Occup=    2.000000
1 0.0
2 0.0
3 0.0
4 0.0
5 0.0
6 0.64396641843941
7 0.0
8 0.0
9 -0.19525303757374
10 0.0
11 0.0
12 -0.003540372428690
13 0.0
14 0.0
15 0.0
16 0.0
17 -0.026719137652262
18 0.0
19 -0.000000000000000
20 0.0
21 0.0
22 0.0
23 0.056187890512021
24 0.0
25 -0.000000000000000
26 0.0
27 0.0
28 0.0
29 0.0
30 0.011809925911727
31 0.0
32 0.0
33 -0.032205098554428
34 0.0
35 -0.56512601313266
36 0.030337820545271
37 -0.008163036087570
38 -0.014023266973095
39 -0.012482622288081
40 -0.000000000000000
41 -0.006176514984716
42 -0.042912896614631
43 -0.000000000000000
44 0.56512601313266
45 -0.030337820545271
46 0.008163036087570
47 0.014023266973095
48 -0.012482622288081
49 0.000000000000000
50 0.006176514984716
51 -0.042912896614631
52 0.000000000000000
 Sym=      3.1
 Ene=      -0.5711
 Spin= Alpha
 Occup=    2.000000
1 0.000000433686370
2 -0.000016533049295
3 -0.000018430431695
4 0.000001578091214
5 0.64396795440710
6 0.0
7 0.000000000000000
8 -0.19521899331308
9 0.0
10 0.000000000000000
11 -0.003535571838807
12 0.0
13 -0.000000000000001
14 0.023143105405641
15 -0.023143194336901
16 0.000000088931261
17 0.0
18 -0.000000000000000
19 0.0
20 -0.048656796569100
21 0.048658921853684
22 -0.000002125284584
23 0.0
24 0.000000000000000
25 0.0
26 0.65254720073808
27 -0.035041004365384
28 0.009422947155598
29 -0.020577372936791
30 0.0
31 -0.000000000000000
32 -0.046473008647700
33 0.0
34 0.000000000000000
35 -0.32627152530368
36 0.017524388791995
37 -0.004711610050409
38 0.003714634553053
39 -0.014023958961597
40 -0.000000000000000
41 -0.035769349240755
42 -0.006174375549307
43 0.000000000000000
44 -0.32627152530368
45 0.017524388791995
46 -0.004711610050409
47 0.003714634553053
48 0.014023958961597
49 -0.000000000000000
50 -0.035769349240755
51 0.006174375549307
52 0.000000000000000
 Sym=      4.1
 Ene=      -0.3737
 Spin= Alpha
 Occup=    1.000000
1 -0.000000000000000
2 0.000000000000000
3 0.000000000000005
4 0.000000000000003
5 -0.000000000000000
6 0.0
7 0.89185144636085
8 -0.000000000000000
9 0.0
10 0.064770925340021
11 -0.000000000000001
12 0.0
13 0.065979964682732
14 0.000000000000000
15 -0.000000000000000
16 -0.000000000000000
17 0.0
18 0.000000541302978
19 0.0
20 -0.000000000000001
21 0.000000000000001
22 0.000000000000000
23 0.0
24 0.000002824984602
25 0.0
26 -0.000000000000000
27 0.000000000000002
28 0.000000000000001
29 0.000000000000000
30 0.0
31 0.020272185212091
32 -0.000000000000001
33 0.0
34 0.004252423559488
35 -0.000000000000000
36 -0.000000000000003
37 -0.000000000000002
38 0.000000000000000
39 -0.000000000000000
40 0.020272940600820
41 -0.000000000000002
42 -0.000000000000001
43 0.004255769326366
44 -0.000000000000000
45 -0.000000000000003
46 -0.000000000000002
47 0.000000000000000
48 0.000000000000000
49 0.020272940600820
50 -0.000000000000002
51 0.000000000000001
52 0.004255769326366
 Sym=      5.1
 Ene=       0.0374
 Spin= Alpha
 Occup=    0.000000
1 0.022148306276100
2 -0.079513287887609
3 -0.92925263739547
4 -3.13942687846908
5 -0.000001106941920
6 0.0
7 0.000000000000001
8 -0.000016342309032
9 0.0
10 -0.000000000000000
11 -0.000052048239318
12 0.0
13 0.000000000000001
14 0.002408165852653
15 0.002408060523668
16 -0.004816226376321
17 0.0
18 0.000000000000000
19 0.0
20 -0.046007978001118
21 -0.046023611068446
22 0.092031589069565
23 0.0
24 -0.000000000000000
25 0.0
26 -0.000415997568559
27 0.60427344088711
28 1.11295952145311
29 0.004381939225407
30 0.0
31 0.000000000000000
32 -0.14581271393212
33 0.0
34 -0.000000000000000
35 -0.000414712222309
36 0.60427930007662
37 1.11289437792963
38 -0.002190626896288
39 -0.003795576711206
40 0.000000000000000
41 0.072903077676107
42 0.12628623825594
43 -0.000000000000000
44 -0.000414712222309
45 0.60427930007662
46 1.11289437792963
47 -0.002190626896288
48 0.003795576711206
49 0.000000000000000
50 0.072903077676107
51 -0.12628623825594
52 -0.000000000000000
 Sym=      2.2
 Ene=       0.0600
 Spin= Alpha
 Occup=    0.000000
1 0.0
2 0.0
3 0.0
4 0.0
5 0.0
6 0.10167043859781
7 0.0
8 0.0
9 0.28947345875013
10 0.0
11 0.0
12 1.71398342364304
13 0.0
14 0.0
15 0.0
16 0.0
17 -0.008042319017925
18 0.0
19 0.000000000000000
20 0.0
21 0.0
22 0.0
23 0.094084737909063
24 0.0
25 -0.000000000000000
26 0.0
27 0.0
28 0.0
29 0.0
30 0.004323460396233
31 0.0
32 0.0
33 -0.18141149993250
34 0.0
35 -0.043843951189850
36 0.33279031282185
37 4.15130571327674
38 -0.003808972817937
39 -0.002274024917268
40 0.000000000000000
41 0.14845649136216
42 0.075721515217727
43 -0.000000000000000
44 0.043843951189850
45 -0.33279031282185
46 -4.15130571327674
47 0.003808972817937
48 -0.002274024917268
49 -0.000000000000000
50 -0.14845649136216
51 0.075721515217727
52 0.000000000000000
 Sym=      6.1
 Ene=       0.0600
 Spin= Alpha
 Occup=    0.000000
1 0.000000387373982
2 0.000005146919721
3 0.000034288116976
4 -0.000042492898156
5 -0.10167665809366
6 0.0
7 0.000000000000000
8 -0.28937009292810
9 0.0
10 0.000000000000001
11 -1.71376453982954
12 0.0
13 -0.000000000000002
14 -0.006963105294019
15 0.006964004685003
16 -0.000000899390984
17 0.0
18 0.000000000000000
19 0.0
20 0.081468066958909
21 -0.081478651633509
22 0.000010584674600
23 0.0
24 0.000000000000000
25 0.0
26 -0.050630556304990
27 0.38410582752732
28 4.79346717235708
29 0.004475356945510
30 0.0
31 0.000000000000000
32 -0.16139015158129
33 0.0
34 0.000000000000000
35 0.025316788607544
36 -0.19204159191871
37 -2.39673485059970
38 -0.002124783703218
39 0.003810183690077
40 -0.000000000000000
41 0.095698626547316
42 -0.14844329449055
43 0.000000000000000
44 0.025316788607544
45 -0.19204159191871
46 -2.39673485059970
47 -0.002124783703218
48 -0.003810183690077
49 -0.000000000000000
50 0.095698626547316
51 0.14844329449055
52 0.000000000000000
 Sym=      7.1
 Ene=       0.1170
 Spin= Alpha
 Occup=    0.000000
1 0.000000000000000
2 0.000000000000002
3 -0.000000000000011
4 -0.000000000000027
5 0.000000000000000
6 0.0
7 -0.26644331925305
8 0.000000000000001
9 0.0
10 -0.054898139973504
11 0.000000000000000
12 0.0
13 1.25902648609216
14 0.000000000000000
15 0.000000000000000
16 -0.000000000000000
17 0.0
18 -0.000001470254976
19 0.0
20 0.000000000000000
21 -0.000000000000001
22 0.000000000000001
23 0.0
24 0.000014480753271
25 0.0
26 0.000000000000000
27 0.000000000000006
28 0.000000000000009
29 -0.000000000000000
30 0.0
31 0.008641699082003
32 -0.000000000000002
33 0.0
34 -0.15356976805301
35 0.000000000000000
36 0.000000000000010
37 0.000000000000002
38 0.000000000000000
39 0.000000000000000
40 0.008641769590766
41 0.000000000000001
42 0.000000000000002
43 -0.15355435473389
44 0.000000000000000
45 0.000000000000010
46 0.000000000000002
47 0.000000000000000
48 -0.000000000000000
49 0.008641769590766
50 0.000000000000001
51 -0.000000000000002
52 -0.15355435473389
 Sym=      8.1
 Ene=       0.1507
 Spin= Alpha
 Occup=    0.000000
1 0.000001323300354
2 -0.000003655195510
3 -0.000056870874663
4 0.000005965552845
5 -0.14103776256256
6 0.0
7 0.000000000000001
8 1.70574650592238
9 0.0
10 -0.000000000000000
11 4.24836402558876
12 0.0
13 -0.000000000000001
14 -0.007566557045485
15 0.007566680021164
16 -0.000000122975679
17 0.0
18 0.000000000000000
19 0.0
20 0.29719749950893
21 -0.29719107015418
22 -0.000006429354755
23 0.0
24 -0.000000000000000
25 0.0
26 -0.18509749418846
27 -3.43140987485995
28 -5.59823567710730
29 0.021176547036079
30 0.0
31 -0.000000000000000
32 0.79720658459001
33 0.0
34 0.000000000000001
35 0.092559013858600
36 1.71572636253873
37 2.79910676685418
38 0.013767237269411
39 0.004277107972769
40 0.000000000000000
41 0.13318527800389
42 0.38338613549353
43 -0.000000000000000
44 0.092559013858600
45 1.71572636253873
46 2.79910676685418
47 0.013767237269411
48 -0.004277107972769
49 0.000000000000000
50 0.13318527800389
51 -0.38338613549353
52 -0.000000000000000
 Sym=      3.2
 Ene=       0.1507
 Spin= Alpha
 Occup=    0.000000
1 0.0
2 0.0
3 0.0
4 0.0
5 0.0
6 -0.14106253844378
7 0.0
8 0.0
9 1.70580808077657
10 0.0
11 0.0
12 4.24875857340139
13 0.0
14 0.0
15 0.0
16 0.0
17 0.008734464023746
18 0.0
19 0.000000000000000
20 0.0
21 0.0
22 0.0
23 -0.34312051913316
24 0.0
25 -0.000000000000000
26 0.0
27 0.0
28 0.0
29 0.0
30 0.011296648375140
31 0.0
32 0.0
33 -0.088133946688980
34 0.0
35 0.16029621179769
36 2.97168191933877
37 4.84848466239944
38 0.004277369207710
39 0.018710877385850
40 0.000000000000000
41 0.38331309978532
42 0.57588488780437
43 -0.000000000000000
44 -0.16029621179769
45 -2.97168191933877
46 -4.84848466239944
47 -0.004277369207710
48 0.018710877385850
49 -0.000000000000000
50 -0.38331309978532
51 0.57588488780437
52 0.000000000000000
 Sym=      9.1
 Ene=       0.1739
 Spin= Alpha
 Occup=    0.000000
1 -0.085061615343857
2 -0.58164278507344
3 2.83541822884525
4 7.83052709190784
5 -0.000006190522607
6 0.0
7 -0.000000000000000
8 0.000038790684463
9 0.0
10 0.000000000000001
11 0.000118130445828
12 0.0
13 0.000000000000004
14 -0.002475132527921
15 -0.002478179394175
16 0.004953311922096
17 0.0
18 -0.000000000000000
19 0.0
20 0.14428079258992
21 0.14437904063786
22 -0.28865983322778
23 0.0
24 0.000000000000000
25 0.0
26 -0.024793423659684
27 -2.07506768153190
28 -1.52799633861402
29 0.023082220916894
30 0.0
31 0.000000000000000
32 0.53487275755285
33 0.0
34 -0.000000000000001
35 -0.024798080928073
36 -2.07517733161269
37 -1.52787706094498
38 -0.011540476602748
39 -0.019986999439535
40 0.000000000000000
41 -0.26744338096376
42 -0.46325090870198
43 -0.000000000000001
44 -0.024798080928073
45 -2.07517733161269
46 -1.52787706094498
47 -0.011540476602748
48 0.019986999439535
49 0.000000000000000
50 -0.26744338096376
51 0.46325090870198
52 -0.000000000000001
 Sym=      4.2
 Ene=       0.2839
 Spin= Alpha
 Occup=    0.000000
1 0.0
2 0.0
3 0.0
4 0.0
5 0.0
6 0.37641322800350
7 0.0
8 0.0
9 0.017226445706394
10 0.0
11 0.0
12 -1.18608280249928
13 0.0
14 0.0
15 0.0
16 0.0
17 0.062074477189881
18 0.0
19 0.000000000000000
20 0.0
21 0.0
22 0.0
23 -0.75426638106753
24 0.0
25 -0.000000000000001
26 0.0
27 0.0
28 0.0
29 0.0
30 0.010527738298293
31 0.0
32 0.0
33 1.00392702863842
34 0.0
35 0.15020140602234
36 1.03812938636369
37 -2.13675208186564
38 -0.010685374112802
39 -0.007978430962490
40 0.000000000000000
41 -0.62793398693996
42 -0.083592966348737
43 -0.000000000000003
44 -0.15020140602234
45 -1.03812938636369
46 2.13675208186564
47 0.010685374112802
48 -0.007978430962490
49 -0.000000000000000
50 0.62793398693996
51 -0.083592966348737
52 0.000000000000003
 Sym=     10.1
 Ene=       0.2839
 Spin= Alpha
 Occup=    0.000000
1 -0.000443546798647
2 0.006076317094747
3 0.007164195687699
4 0.054406924468150
5 -0.37636111924989
6 0.0
7 0.000000000000001
8 -0.017211824708118
9 0.0
10 -0.000000000000001
11 1.18593449980340
12 0.0
13 0.000000000000001
14 0.053441581439422
15 -0.054037020038725
16 0.000595438599303
17 0.0
18 0.000000000000000
19 0.0
20 -0.65417489494948
21 0.65165137800395
22 0.002523516945527
23 0.0
24 -0.000000000000000
25 0.0
26 0.16916968741202
27 1.17646777514804
28 -2.47200893037453
29 0.014460543780679
30 0.0
31 0.000000000000000
32 0.43940475438153
33 0.0
34 0.000000000000001
35 -0.090961493501493
36 -0.62096816025167
37 1.22857049805457
38 -0.004516331033789
39 0.010404230270421
40 -0.000000000000000
41 -0.63786220707399
42 0.63345022142750
43 -0.000000000000001
44 -0.090961493501493
45 -0.62096816025167
46 1.22857049805457
47 -0.004516331033789
48 -0.010404230270421
49 -0.000000000000000
50 -0.63786220707399
51 -0.63345022142750
52 -0.000000000000001
 Sym=     11.1
 Ene=       0.2843
 Spin= Alpha
 Occup=    0.000000
1 -0.020825899690167
2 0.28375539758777
3 0.34633492909638
4 2.55115465040801
5 0.008048267266197
6 0.0
7 0.000000000000000
8 0.000535191819142
9 0.0
10 0.000000000000001
11 -0.025043848918593
12 0.0
13 0.000000000000002
14 -0.014962574823878
15 -0.012678991515235
16 0.027641566339113
17 0.0
18 -0.000000000000000
19 0.0
20 -0.046171372894427
21 -0.073982534531312
22 0.12015390742574
23 0.0
24 0.000000000000000
25 0.0
26 -0.20191031279743
27 -1.05104173283581
28 -0.18079380772360
29 0.014758622516809
30 0.0
31 0.000000000000000
32 -0.31859775838417
33 0.0
34 -0.000000000000002
35 -0.19637157367778
36 -1.01232204189471
37 -0.25935098729571
38 -0.007434800073140
39 -0.013263862509079
40 0.000000000000000
41 0.16819917052156
42 0.25432985777918
43 -0.000000000000001
44 -0.19637157367778
45 -1.01232204189471
46 -0.25935098729571
47 -0.007434800073140
48 0.013263862509079
49 0.000000000000000
50 0.16819917052156
51 -0.25432985777918
52 -0.000000000000001
 Sym=      5.2
 Ene=       0.3608
 Spin= Alpha
 Occup=    0.000000
1 0.0
2 0.0
3 0.0
4 0.0
5 0.0
6 0.000000000000001
7 0.0
8 0.0
9 -0.000000000000002
10 0.0
11 0.0
12 -0.000000000000004
13 0.0
14 0.0
15 0.0
16 0.0
17 0.000000000000000
18 0.0
19 -0.044421131859193
20 0.0
21 0.0
22 0.0
23 -0.000000000000002
24 0.0
25 0.14919657090007
26 0.0
27 0.0
28 0.0
29 0.0
30 -0.000000000000000
31 0.0
32 0.0
33 0.000000000000004
34 0.0
35 0.000000000000000
36 0.000000000000000
37 -0.000000000000004
38 0.000000000000000
39 0.000000000000000
40 -0.018377574101798
41 -0.000000000000001
42 -0.000000000000000
43 1.03856050609641
44 -0.000000000000000
45 -0.000000000000000
46 0.000000000000004
47 -0.000000000000000
48 0.000000000000000
49 0.018377574101798
50 0.000000000000001
51 -0.000000000000000
52 -1.03856050609641
 Sym=     12.1
 Ene=       0.3608
 Spin= Alpha
 Occup=    0.000000
1 -0.000000000000000
2 0.000000000000000
3 0.000000000000002
4 0.000000000000004
5 0.000000000000001
6 0.0
7 -0.000008485636477
8 0.000000000000010
9 0.0
10 -0.000075997587435
11 0.000000000000005
12 0.0
13 -0.000023136060530
14 0.000000000000000
15 -0.000000000000000
16 -0.000000000000000
17 0.0
18 0.044413621518901
19 0.0
20 0.000000000000002
21 -0.000000000000002
22 -0.000000000000000
23 0.0
24 -0.14906282350859
25 0.0
26 -0.000000000000000
27 -0.000000000000019
28 -0.000000000000004
29 0.000000000000000
30 0.0
31 -0.021223362116798
32 0.000000000000004
33 0.0
34 1.19919590096729
35 -0.000000000000000
36 0.000000000000007
37 0.000000000000002
38 0.000000000000000
39 -0.000000000000000
40 0.010610907038808
41 0.000000000000000
42 0.000000000000002
43 -0.59952701016574
44 -0.000000000000000
45 0.000000000000007
46 0.000000000000002
47 0.000000000000000
48 0.000000000000000
49 0.010610907038808
50 0.000000000000000
51 -0.000000000000002
52 -0.59952701016574
 Sym=     13.1
 Ene=       0.4450
 Spin= Alpha
 Occup=    0.000000
1 -0.000002441933344
2 -0.000002180897919
3 0.000136002324560
4 0.000069404183798
5 -0.22506488114536
6 0.0
7 0.000000000000002
8 -4.57531414182362
9 0.0
10 0.000000000000003
11 -3.32939882157377
12 0.0
13 0.000000000000002
14 -0.071648739700200
15 0.071649981404810
16 -0.000001241704610
17 0.0
18 -0.000000000000000
19 0.0
20 -0.56689074730654
21 0.56688646649723
22 0.000004280809307
23 0.0
24 -0.000000000000001
25 0.0
26 -0.11071982561149
27 7.59567331748150
28 3.24383613263848
29 -0.040185550416101
30 0.0
31 0.000000000000000
32 -1.69116355442102
33 0.0
34 0.000000000000000
35 0.055375638563413
36 -3.79795619322704
37 -1.62192153024963
38 -0.012934656315046
39 -0.015736754193932
40 0.000000000000000
41 0.36765316676182
42 -1.18863102102545
43 -0.000000000000004
44 0.055375638563413
45 -3.79795619322704
46 -1.62192153024963
47 -0.012934656315046
48 0.015736754193932
49 0.000000000000000
50 0.36765316676182
51 1.18863102102545
52 -0.000000000000004
 Sym=      6.2
 Ene=       0.4450
 Spin= Alpha
 Occup=    0.000000
1 0.0
2 0.0
3 0.0
4 0.0
5 0.0
6 0.22512502923756
7 0.0
8 0.0
9 4.57512444821307
10 0.0
11 0.0
12 3.32990565568763
13 0.0
14 0.0
15 0.0
16 0.0
17 -0.082733441355785
18 0.0
19 -0.000000000000000
20 0.0
21 0.0
22 0.0
23 -0.65416877213211
24 0.0
25 -0.000000000000000
26 0.0
27 0.0
28 0.0
29 0.0
30 0.003847499214926
31 0.0
32 0.0
33 -1.05401750649041
34 0.0
35 -0.095865287353941
36 6.57736002440998
37 2.80972120151397
38 0.015731060958259
39 0.031108485925783
40 -0.000000000000000
41 1.18852379718966
42 1.00462537491763
43 0.000000000000000
44 0.095865287353941
45 -6.57736002440998
46 -2.80972120151397
47 -0.015731060958259
48 0.031108485925783
49 0.000000000000000
50 -1.18852379718966
51 1.00462537491763
52 -0.000000000000000
 Sym=     14.1
 Ene=       0.4848
 Spin= Alpha
 Occup=    0.000000
1 -0.000000000000000
2 -0.000000000000000
3 0.000000000000013
4 0.000000000000009
5 -0.000000000000000
6 0.0
7 -0.45160538020615
8 -0.000000000000012
9 0.0
10 -1.73681315016166
11 -0.000000000000008
12 0.0
13 -0.81334014617600
14 -0.000000000000000
15 0.000000000000000
16 -0.000000000000000
17 0.0
18 0.000000176988192
19 0.0
20 -0.000000000000001
21 0.000000000000001
22 0.000000000000001
23 0.0