[Molden Format]
[Molpro variables]
_NUMVAR=  675.0000000000000    
_EV2006= 0.3674930886769165E-01
_EV= 0.3674932534394180E-01
_KJOULE= 0.3808798324128737E-03
_KJOULE/MOL= 0.3808798324128737E-03
_CM= 0.4556335267302901E-05
_CM-1= 0.4556335267302901E-05
_KCAL= 0.1593601117815568E-02
_KCAL/MOL= 0.1593601117815568E-02
_KELVIN2006= 0.3166828861084835E-05
_KELVIN= 0.3166814820820034E-05
_HERTZ2006= 0.1519829850815779E-15
_HERTZ= 0.1519829846011223E-15
_HZ2006= 0.1519829850815779E-15
_HZ= 0.1519829846011223E-15
_TOA2006= 0.5291772490000000    
_TOA= 0.5291772090000000    
_TOANG2006= 0.5291772490000000    
_TOANG= 0.5291772090000000    
_TORAD= 0.1745329251994330E-01
_TOCM=  219474.6306700000    
_TODEBYE=  2.541580000000000    
_TOEV2006=  27.21139610000000    
_TOEV=  27.21138390000000    
_TOHERTZ2006=  6579683899900000.    
_TOHERTZ=  6579683920700000.    
_TOHZ2006=  6579683899900000.    
_TOHZ=  6579683920700000.    
_TOK2006=  315773.3000000000    
_TOK=  315774.7000000000    
_TOKCAL=  627.5096000000000    
_TOKELVIN2006=  315773.3000000000    
_TOKELVIN=  315774.7000000000    
_TOKJ=  2625.500000000000    
_TOKJOULE=  2625.500000000000    
_ANG2006=  1.889725988578923    
_ANG=  1.889726131421507    
_ANGSTROM2006=  1.889725988578923    
_ANGSTROM=  1.889726131421507    
_IGNORE_UNDEF=  2.000000000000000    
_STRICTCHECK=  0.000000000000000    
_SEW_ONEEL=  0.000000000000000    
_CPPDONE=FALSE
_DKROLL_DONE=  0.000000000000000    
_FOCKDONE=TRUE
_GRADONE=FALSE
_HESSDONE=FALSE
_INTDONE=TRUE
_SCFDONE=TRUE
_MODUL_CUDA=FALSE
_MODUL_SLATER=FALSE
_MODUL_MRCC=FALSE
_MRCC_EXEC=
_FITC_AO_SAVED=FALSE
_FITC_MO_SAVED=FALSE
_SHARED_FS=TRUE
_LSTYP=SEWARD
_INTYP=INTS
_GEOMTYP=ZMAT
_GRADTYP=ALASKA
_DIRECT=FALSE
_SYNCM=  0.000000000000000    
_BASIS=6-31++G
_ZORIENT=  1.000000000000000    
_NELEC=  9.000000000000000    
!SPIN=  1.000000000000000    
_OPTCONV= 0.4906384368479178E-04
_QSDSTEP=  0.000000000000000    
_QSDIRC=  0.000000000000000    
_PROGRAM=OPTG
_CPUSTEP=  0.000000000000000    
_SYSSTEP=  0.000000000000000    
_WALLSTEP= 0.1000000000000000E-01
!DFMP2=  0.000000000000000    
!DFSCF=  0.000000000000000    
!SCSGRD=  0.000000000000000    
_BASINP=  610.0000000000000    
_CPUTOT=  7.750000000000000    
_CPUCCSD=  0.000000000000000    
_SYSCCSD=  0.000000000000000    
_WALLCCSD=  0.000000000000000    
_CPUF12=  0.000000000000000    
_SYSF12=  0.000000000000000    
_WALLF12=  0.000000000000000    
_CPUF12B=  0.000000000000000    
_SYSF12B=  0.000000000000000    
_WALLF12B=  0.000000000000000    
_CPUTRANS=  0.000000000000000    
_SYSTRANS=  0.000000000000000    
_WALLTRANS=  0.000000000000000    
_DFTEXFAC=  1.000000000000000    
_DMX=  0.000000000000000    
_DMY=  0.000000000000000    
_DMZ=  0.000000000000000    
_EMP2= -39.62524991328589    
_EMP2_SINGLES=-0.1477451439254764E-02
_ENERGR= -39.54548268409966    
_ENERGY= -39.62524991328589    
_ENUC=  9.635793780769674    
_GRADEXFAC=  9999.000000000000    
_GRADMETHOD=  0.000000000000000    
!GRID_FREEZE= -1.000000000000000    
_ITERATIONS=  0.000000000000000    
_LASTNELEC=  9.000000000000000    
_LASTSPIN=  1.000000000000000    
_LASTSYM=  1.000000000000000    
_MPP_PROG=  0.000000000000000    
_NPROC_MPP=  1.000000000000000    
_NPROC_SMP=  1.000000000000000    
_NUMSTEP=  0.000000000000000    
_OPTCONVMX= 0.4905112383533500E-04
_OPTCONVRMS= 0.1635461456159726E-04
_OPTGRAD= 0.5592083118104948E-04
_OPTGRADMX= 0.5591528875470431E-04
_OPTGRADRMS= 0.1864027706034983E-04
_OPTSTEP=  3.000000000000000    
_ORBITAL=  2100.200000000000    
_PI=  3.141592653589793    
_SEIG_MIN= 0.7635302061489183E-02
_SEWPROP=TRUE
_STATUS= -1.000000000000000    
_SYSTOT= 0.5400000000000000    
_VERSION=  2010001.000000000    
_WALLTOT=  10.06000000000000    
_DATE=17-Aug-24
_LASTORB=RHF
_MACHINE=Linux-3.10.0-1160.108.1.el7.x86_64/molmod(x86_64) 64 bit serial version
_OUTPUT=/home/ospite/Desktop/MMfP/Project6/CH3/molpro/MP2/ch3_++.xml
_PGROUP=Cs
_TIME=19:00:58
_LIBMOL=/usr/local/molpro/molpros_2010_1_Linux_x86_64_i8/lib/
!SURFREC=  0.000000000000000    
!POLYREC=  0.000000000000000    
!DIPREC=  0.000000000000000    
!VSCFREC=  0.000000000000000    
!VCIREC=  0.000000000000000    
!PVCIREC=  0.000000000000000    
!VMP2REC=  0.000000000000000    
!VMCSCFREC=  0.000000000000000    
!GAREC=  0.000000000000000    
!SCFORB=  21002.00000000000    
!CIOCC=  4.000000000000000    
!CICORE=  1.000000000000000    
!CICLOS=  3.000000000000000    
!CIISTSYM=  1.000000000000000    
!CIISTMS2=  1.000000000000000    
!CIISTNEL=  7.000000000000000    
!NEWMOL=  0.000000000000000    
!NEWSYM=  0.000000000000000    
_SLFILES=slscratch
_NGSSTO=  9.000000000000000    
_SIN=SIN
_COS=COS
_TAN=TAN
_ACOS=ACOS
_ASIN=ASIN
_ATAN=ATAN
_COSH=COSH
_SINH=SINH
_TANH=TANH
_ABS=ABS
_MOD=MOD
_ERF=ERF
_REFC=REFC
_ERFC=ERFC
_HYPOT=HYPOT
_J0=J0
_J1=J1
_JN=JN
_GAMMA=GAMMA
_LGAMMA=LGAMMA
_Y0=Y0
_Y1=Y1
_YN=YN
_EXP=EXP
_LOG=LOG
_LOG10=LOG10
_SQRT=SQRT
_INT=INT
_NINT=NINT
_MAX=MAX
_MIN=MIN
_COSMO=  0.000000000000000    
_COSMOIT=  0.000000000000000    
_COSMOES=  0.000000000000000    
_COSMOEDS=  0.000000000000000    
_COSMOEC=  0.000000000000000    
_COSMOEDCORR=  0.000000000000000    
_FEPSI=  1.000000000000000    
_SL_IsMM=  0.000000000000000    
_SL_NSYM=  0.000000000000000    
_SL_System_BitSw=  0.000000000000000    
_SL_Unique_atoms=  0.000000000000000    
_SL_GRAD=  0.000000000000000    
_SL_MAXUPD_Hess=  5.000000000000000    
_SL_N_PRINT_COD=  5.000000000000000    
_SL_PRINT_CODES=  0.000000000000000    
_SL_BasType=  0.000000000000000    
_SL_Energy_Pred=  0.000000000000000    
_SL_New_Coords=  0.000000000000000    
_SL_Total_Nuclea=  0.000000000000000    
_SL_Highest_Mltp=  0.000000000000000    
_SL_Ref_Geom=  0.000000000000000    
!LATTICE= -1.000000000000000    
!NEWLATTICE=  0.000000000000000    
!LATGRAD_VAR=FALSE
!SEW_LATTICE=  1.000000000000000    
!LOCAL=  0.000000000000000    
!SAVEDOM= -1.000000000000000    
!RESTDOM= -1.000000000000000    
!SAVEDOM_HF= -1.000000000000000    
!RESTDOM_HF= -1.000000000000000    
!HESSREC=  0.000000000000000    
!FREQREC=  0.000000000000000    
!NMODREC=  0.000000000000000    
!GTASKS=  0.000000000000000    
!HTASKS=  0.000000000000000    
!THRCHG= 0.1000000000000000    
!DEBUG= -1.000000000000000    
!CFIT_CPHF=  0.000000000000000    
!RDOMAUX_CPHF=  5.000000000000000    
!THRAO_CPHF= 0.9999999999999999E-11
!THRMO_CPHF= 0.9999999999999999E-11
!THROV_CPHF= 0.1000000000000000E-11
!THRSW_CPHF= 0.1000000000000000E-09
!THRPROD_CPHF= 0.9999999999999999E-11
!THRAOPR_CPHF= 0.1000000000000000E-11
!CFIT_SCFGRD=  0.000000000000000    
!RDOMAUX_SCFGRD=  7.000000000000000    
!THRAO_SCFGRD= 0.9999999999999999E-11
!THRMO_SCFGRD= 0.9999999999999999E-11
!THROV_SCFGRD= 0.1000000000000000E-11
!THRSW_SCFGRD= 0.1000000000000000E-09
!THRPROD_SCFGRD= 0.9999999999999999E-11
!THRAOPR_SCFGRD= 0.1000000000000000E-11
!LOCFIT_SCF=  0.000000000000000    
!LOCFIT_MP2= -1.000000000000000    
_RIDOM=  0.000000000000000    
!CC2_METHOD=  0.000000000000000    
_BASIS2006=FALSE
_SVDDEL= -1.000000000000000    
_SVDDELA= -1.000000000000000    
_SVDDELP= -1.000000000000000    
_SVDDELF= -1.000000000000000    
_SVDDELS= -1.000000000000000    
_SVDDEL_ABS= -1.000000000000000    
_SVDDELA_ABS= -1.000000000000000    
_SVDDELP_ABS= -1.000000000000000    
_SVDDELF_ABS= -1.000000000000000    
_SVDDELS_ABS= -1.000000000000000    
_MAXBASIS=  0.000000000000000    
!OPT_CONICAL=  0.000000000000000    
!CLEARSP_JGRID=  0.000000000000000    
D=  1.083642075904680    
A=  119.9965468393985    
T= 0.2702366125862124E-10
GX1=-0.1433123123534275E-04
GY1=-0.1322452355321242E-25
GZ1= 0.5607942934448366E-13
GX2=  2.047772416713687    
GY2=-0.1322452355321242E-25
GZ2=-0.2227391669715153E-12
GX3= -1.023800820130180    
GY3= -1.773497051084893    
GZ3=-0.2227624213243465E-12
GX4= -1.023800820130180    
GY4=  1.773497051084893    
GZ4=-0.2227624213243467E-12
[Atoms] Angs
C     1    6        -0.0000075838        0.0000000000        0.0000000000
H     2    1         1.0836344921        0.0000000000        0.0000000000
H     3    1        -0.5417720606       -0.9384942197        0.0000000000
H     4    1        -0.5417720606        0.9384942197        0.0000000000
[GTO]
  1 0
 s    6  1.00
  0.3047524900D+04  0.1834737091D-02
  0.4573695200D+03  0.1403732293D-01
  0.1039486800D+03  0.6884262165D-01
  0.2921015500D+02  0.2321844388D+00
  0.9286663000D+01  0.4679413476D+00
  0.3163927000D+01  0.3623119882D+00
 s    3  1.00
  0.7868272300D+01 -0.1193324245D+00
  0.1881288500D+01 -0.1608541561D+00
  0.5442492600D+00  0.1143456443D+01
 s    1  1.00
  0.1687144800D+00  0.1000000000D+01
 s    1  1.00
  0.4380000000D-01  0.1000000000D+01
 p    3  1.00
  0.7868272300D+01  0.6899906693D-01
  0.1881288500D+01  0.3164239597D+00
  0.5442492600D+00  0.7443082892D+00
 p    1  1.00
  0.1687144800D+00  0.1000000000D+01
 p    1  1.00
  0.4380000000D-01  0.1000000000D+01
  
  2 0
 s    3  1.00
  0.1873113700D+02  0.3349460400D-01
  0.2825394400D+01  0.2347269500D+00
  0.6401216900D+00  0.8137573301D+00
 s    1  1.00
  0.1612777600D+00  0.1000000000D+01
 s    1  1.00
  0.3600000000D-01  0.1000000000D+01
  
  3 0
 s    3  1.00
  0.1873113700D+02  0.3349460400D-01
  0.2825394400D+01  0.2347269500D+00
  0.6401216900D+00  0.8137573301D+00
 s    1  1.00
  0.1612777600D+00  0.1000000000D+01
 s    1  1.00
  0.3600000000D-01  0.1000000000D+01
  
  4 0
 s    3  1.00
  0.1873113700D+02  0.3349460400D-01
  0.2825394400D+01  0.2347269500D+00
  0.6401216900D+00  0.8137573301D+00
 s    1  1.00
  0.1612777600D+00  0.1000000000D+01
 s    1  1.00
  0.3600000000D-01  0.1000000000D+01


[MO]
 Sym=      1.1
 Ene=     -11.2303
 Spin= Alpha
 Occup=    2.000000
1 0.99621026166367
2 0.024508486763171
3 -0.013504977679827
4 0.008712848187520
5 0.000000074881850
6 0.0
7 -0.000000000000000
8 -0.000000189643734
9 0.0
10 0.000000000000000
11 0.000000001941903
12 0.0
13 -0.000000000000000
14 -0.000077777375468
15 0.001895667907226
16 -0.002384248805202
17 -0.000077786384170
18 0.001895524564703
19 -0.002384387345130
20 -0.000077786384170
21 0.001895524564703
22 -0.002384387345130
 Sym=      2.1
 Ene=      -0.9028
 Spin= Alpha
 Occup=    2.000000
1 -0.19801138421512
2 0.39138281700939
3 0.36816515773142
4 -0.038276038363339
5 0.000010950882141
6 0.0
7 0.000000000000000
8 0.000004789177439
9 0.0
10 0.000000000000000
11 -0.000002203671676
12 0.0
13 0.000000000000000
14 0.15624034651241
15 0.055640309957929
16 0.012716312028563
17 0.15623740825688
18 0.055640240842229
19 0.012712269292016
20 0.15623740825688
21 0.055640240842229
22 0.012712269292016
 Sym=      1.2
 Ene=      -0.5732
 Spin= Alpha
 Occup=    2.000000
1 0.0
2 0.0
3 0.0
4 0.0
5 0.0
6 0.44295843295342
7 0.0
8 0.0
9 0.20261828613622
10 0.0
11 0.0
12 0.002250343836470
13 0.0
14 0.0
15 0.0
16 0.0
17 -0.25172157002918
18 -0.18322867034904
19 -0.016877688955946
20 0.25172157002918
21 0.18322867034904
22 0.016877688955946
 Sym=      3.1
 Ene=      -0.5732
 Spin= Alpha
 Occup=    2.000000
1 0.000004948993065
2 -0.000010767795934
3 -0.000010065370247
4 -0.000004062965989
5 0.44295757037384
6 0.0
7 -0.000000000000000
8 0.20261881396738
9 0.0
10 0.000000000000000
11 0.002259143093997
12 0.0
13 -0.000000000000001
14 0.29066460249859
15 0.21159177965081
16 0.019481186566536
17 -0.14533297251446
18 -0.10579724908774
19 -0.009739245208034
20 -0.14533297251446
21 -0.10579724908774
22 -0.009739245208034
 Sym=      4.1
 Ene=      -0.3780
 Spin= Alpha
 Occup=    1.000000
1 0.000000000000000
2 -0.000000000000000
3 -0.000000000000002
4 -0.000000000000001
5 0.000000000000000
6 0.0
7 0.58503430250851
8 0.000000000000000
9 0.0
10 0.49429101977395
11 0.000000000000001
12 0.0
13 0.096319129838838
14 0.000000000000000
15 0.000000000000000
16 -0.000000000000001
17 -0.000000000000000
18 0.000000000000001
19 0.000000000000002
20 -0.000000000000000
21 0.000000000000001
22 0.000000000000002
 Sym=      5.1
 Ene=       0.0459
 Spin= Alpha
 Occup=    0.000000
1 0.036517240854513
2 -0.12462243273174
3 -0.054822811920202
4 -3.58633645233008
5 -0.000002218135906
6 0.0
7 -0.000000000000001
8 -0.000003719959226
9 0.0
10 -0.000000000000000
11 -0.000076898594368
12 0.0
13 -0.000000000000001
14 -0.004038663723678
15 0.063523353160443
16 1.51322438822434
17 -0.004037207959383
18 0.063514234378621
19 1.51312140206258
20 -0.004037207959383
21 0.063514234378621
22 1.51312140206258
 Sym=      2.2
 Ene=       0.0774
 Spin= Alpha
 Occup=    0.000000
1 0.0
2 0.0
3 0.0
4 0.0
5 0.0
6 0.10377537790772
7 0.0
8 0.0
9 -0.028037192234366
10 0.0
11 0.0
12 1.67105116271673
13 0.0
14 0.0
15 0.0
16 0.0
17 -0.016705798239320
18 -0.11159245607658
19 3.96924316009847
20 0.016705798239320
21 0.11159245607658
22 -3.96924316009847
 Sym=      6.1
 Ene=       0.0774
 Spin= Alpha
 Occup=    0.000000
1 -0.000001549979045
2 0.000003005193924
3 0.000005216003206
4 0.000000381310612
5 -0.10377809756101
6 0.0
7 -0.000000000000000
8 0.028029138174889
9 0.0
10 -0.000000000000000
11 -1.67085302046306
12 0.0
13 0.000000000000000
14 -0.019288665348915
15 -0.12888348156212
16 4.58322793292704
17 0.009642111136457
18 0.064448962733254
19 -2.29162710384074
20 0.009642111136457
21 0.064448962733254
22 -2.29162710384074
 Sym=      7.1
 Ene=       0.1346
 Spin= Alpha
 Occup=    0.000000
1 0.000000000000000
2 -0.000000000000000
3 0.000000000000000
4 -0.000000000000002
5 0.000000000000000
6 0.0
7 -0.18451015149660
8 0.000000000000000
9 0.0
10 -0.45316893775407
11 0.000000000000004
12 0.0
13 1.16527348702206
14 0.000000000000000
15 -0.000000000000001
16 -0.000000000000005
17 -0.000000000000000
18 0.000000000000000
19 0.000000000000004
20 -0.000000000000000
21 0.000000000000000
22 0.000000000000004
 Sym=      8.1
 Ene=       0.1743
 Spin= Alpha
 Occup=    0.000000
1 0.000000892810345
2 -0.000005478248583
3 -0.000000275162155
4 -0.000124351972535
5 -0.060915451169404
6 0.0
7 -0.000000000000000
8 -0.037393452722671
9 0.0
10 0.000000000000000
11 3.73429893792200
12 0.0
13 -0.000000000000001
14 -0.041276962023861
15 -0.60776363083047
16 -5.12154335756746
17 0.020646524009059
18 0.30390809880969
19 2.56080697497848
20 0.020646524009059
21 0.30390809880969
22 2.56080697497848
 Sym=      3.2
 Ene=       0.1743
 Spin= Alpha
 Occup=    0.000000
1 0.0
2 0.0
3 0.0
4 0.0
5 0.0
6 -0.060937795660837
7 0.0
8 0.0
9 -0.037361431224772
10 0.0
11 0.0
12 3.73479405092356
13 0.0
14 0.0
15 0.0
16 0.0
17 0.035743828409540
18 0.52641593470238
19 4.43584350385615
20 -0.035743828409540
21 -0.52641593470238
22 -4.43584350385615
 Sym=      9.1
 Ene=       0.2125
 Spin= Alpha
 Occup=    0.000000
1 0.082590159539365
2 -0.064466499500873
3 -0.92342989448730
4 8.01875531573836
5 -0.000010349143086
6 0.0
7 -0.000000000000000
8 0.000015518761228
9 0.0
10 -0.000000000000001
11 0.000279262708418
12 0.0
13 -0.000000000000000
14 0.002676357587346
15 -0.37922587691045
16 -2.23668120536232
17 0.002675285516410
18 -0.37916816031653
19 -2.23627889019961
20 0.002675285516410
21 -0.37916816031653
22 -2.23627889019961
 Sym=     10.1
 Ene=       0.3257
 Spin= Alpha
 Occup=    0.000000
1 0.12959248317789
2 -0.067622397927665
3 -2.49682213007469
4 -1.89270014510110
5 0.000072074052162
6 0.0
7 -0.000000000000000
8 0.000290072106290
9 0.0
10 -0.000000000000000
11 -0.000497666676203
12 0.0
13 0.000000000000000
14 0.10637522855979
15 1.56049793114896
16 0.23544310183821
17 0.10641439748357
18 1.56108056330734
19 0.23415912361949
20 0.10641439748357
21 1.56108056330734
22 0.23415912361949
 Sym=     11.1
 Ene=       0.3609
 Spin= Alpha
 Occup=    0.000000
1 0.000028133153813
2 -0.000005733138576
3 -0.000633483130273
4 -0.000706170944306
5 -0.31949935551924
6 0.0
7 -0.000000000000000
8 -1.71797494122098
9 0.0
10 0.000000000000000
11 0.94532291975085
12 0.0
13 -0.000000000000000
14 0.083511358848857
15 2.12559641373623
16 -2.17652062084792
17 -0.041726583488667
18 -1.06215611708575
19 1.08844191195720
20 -0.041726583488667
21 -1.06215611708575
22 1.08844191195720
 Sym=      4.2
 Ene=       0.3609
 Spin= Alpha
 Occup=    0.000000
1 0.0
2 0.0
3 0.0
4 0.0
5 0.0
6 0.31948945938718
7 0.0
8 0.0
9 1.71815624323015
10 0.0
11 0.0
12 -0.94503562809844
13 0.0
14 0.0
15 0.0
16 0.0
17 0.072290881312055
18 1.84063839055945
19 -1.88463410777062
20 -0.072290881312055
21 -1.84063839055945
22 1.88463410777062
 Sym=     12.1
 Ene=       0.8666
 Spin= Alpha
 Occup=    0.000000
1 0.000000000000000
2 0.000000000000001
3 -0.000000000000002
4 0.000000000000003
5 -0.000000000000000
6 0.0
7 -1.09956786212769
8 0.000000000000001
9 0.0
10 1.38227270914429
11 -0.000000000000000
12 0.0
13 -0.52099850930217
14 -0.000000000000000
15 0.000000000000000
16 -0.000000000000000
17 0.000000000000000
18 0.000000000000001
19 -0.000000000000001
20 0.000000000000000
21 0.000000000000001
22 -0.000000000000001
 Sym=     13.1
 Ene=       0.9282
 Spin= Alpha
 Occup=    0.000000
1 -0.000000616627030
2 0.000031140911504
3 0.000029212468980
4 0.000159749266470
5 -0.95661089003621
6 0.0
7 0.000000000000000
8 2.09043785605373
9 0.0
10 -0.000000000000000
11 -1.81309589896318
12 0.0
13 0.000000000000000
14 -0.41498065933900
15 -0.36553097220469
16 2.26086130401156
17 0.20751810497598
18 0.18265548444669
19 -1.13047189125902
20 0.20751810497598
21 0.18265548444669
22 -1.13047189125902
 Sym=      5.2
 Ene=       0.9282
 Spin= Alpha
 Occup=    0.000000
1 0.0
2 0.0
3 0.0
4 0.0
5 0.0
6 -0.95666284638843
7 0.0
8 0.0
9 2.09071238088332
10 0.0
11 0.0
12 -1.81333048861929
13 0.0
14 0.0
15 0.0
16 0.0
17 0.35935502215219
18 0.31674360337784
19 -1.95828125174524
20 -0.35935502215219
21 -0.31674360337784
22 1.95828125174524
 Sym=     14.1
 Ene=       1.2093
 Spin= Alpha
 Occup=    0.000000
1 -0.040681305234761
2 -1.95957656373458
3 3.54779697747822
4 -4.36934850355143
5 -0.000137454836712
6 0.0
7 -0.000000000000000
8 0.000254538206044
9 0.0
10 0.000000000000000
11 -0.000108342138033
12 0.0
13 -0.000000000000000
14 -0.40573943108708
15 -0.017373899981858
16 1.10950442574533
17 -0.40595066084713
18 -0.016923504144078
19 1.10923883580614
20 -0.40595066084713
21 -0.016923504144078
22 1.10923883580614
 Sym=     15.1
 Ene=       1.2637
 Spin= Alpha
 Occup=    0.000000
1 0.073488877215840
2 -1.07512881335360
3 2.23705763364792
4 1.10018934894337
5 0.000318788291492
6 0.0
7 -0.000000000000000
8 -0.000358865347197
9 0.0
10 0.000000000000000
11 0.000074941174409
12 0.0
13 -0.000000000000000
14 0.73479515738404
15 -1.34715328147972
16 -0.12708208340109
17 0.73548492429585
18 -1.34824053669744
19 -0.12659462587541
20 0.73548492429585
21 -1.34824053669744
22 -0.12659462587541
 Sym=     16.1
 Ene=       1.3028
 Spin= Alpha
 Occup=    0.000000
1 0.000037885546947
2 -0.000167720826485
3 0.000422062918840
4 0.001191853072048
5 -0.74479747567771
6 0.0
7 -0.000000000000000
8 0.78686225240213
9 0.0
10 0.000000000000000
11 0.21294824727411
12 0.0
13 -0.000000000000000
14 1.10096479561588
15 -1.68009989083513
16 0.25442898706849
17 -0.54991081928083
18 0.83918125566177
19 -0.12757609226698
20 -0.54991081928083
21 0.83918125566177
22 -0.12757609226698
 Sym=      6.2
 Ene=       1.3028
 Spin= Alpha
 Occup=    0.000000
1 0.0
2 0.0
3 0.0
4 0.0
5 0.0
6 0.74475201057207
7 0.0
8 0.0
9 -0.78667148238385
10 0.0
11 0.0
12 -0.21331078500960
13 0.0
14 0.0
15 0.0
16 0.0
17 0.95317616741004
18 -1.45444764140270
19 0.22008869452167
20 -0.95317616741004
21 1.45444764140270
22 -0.22008869452167
