[Molden Format]
[Molpro variables]
_NUMVAR=  675.0000000000000    
_EV2006= 0.3674930886769165E-01
_EV= 0.3674932534394180E-01
_KJOULE= 0.3808798324128737E-03
_KJOULE/MOL= 0.3808798324128737E-03
_CM= 0.4556335267302901E-05
_CM-1= 0.4556335267302901E-05
_KCAL= 0.1593601117815568E-02
_KCAL/MOL= 0.1593601117815568E-02
_KELVIN2006= 0.3166828861084835E-05
_KELVIN= 0.3166814820820034E-05
_HERTZ2006= 0.1519829850815779E-15
_HERTZ= 0.1519829846011223E-15
_HZ2006= 0.1519829850815779E-15
_HZ= 0.1519829846011223E-15
_TOA2006= 0.5291772490000000    
_TOA= 0.5291772090000000    
_TOANG2006= 0.5291772490000000    
_TOANG= 0.5291772090000000    
_TORAD= 0.1745329251994330E-01
_TOCM=  219474.6306700000    
_TODEBYE=  2.541580000000000    
_TOEV2006=  27.21139610000000    
_TOEV=  27.21138390000000    
_TOHERTZ2006=  6579683899900000.    
_TOHERTZ=  6579683920700000.    
_TOHZ2006=  6579683899900000.    
_TOHZ=  6579683920700000.    
_TOK2006=  315773.3000000000    
_TOK=  315774.7000000000    
_TOKCAL=  627.5096000000000    
_TOKELVIN2006=  315773.3000000000    
_TOKELVIN=  315774.7000000000    
_TOKJ=  2625.500000000000    
_TOKJOULE=  2625.500000000000    
_ANG2006=  1.889725988578923    
_ANG=  1.889726131421507    
_ANGSTROM2006=  1.889725988578923    
_ANGSTROM=  1.889726131421507    
_IGNORE_UNDEF=  2.000000000000000    
_STRICTCHECK=  0.000000000000000    
_SEW_ONEEL=  0.000000000000000    
_CPPDONE=FALSE
_DKROLL_DONE=  0.000000000000000    
_FOCKDONE=TRUE
_GRADONE=FALSE
_HESSDONE=FALSE
_INTDONE=TRUE
_SCFDONE=TRUE
_MODUL_CUDA=FALSE
_MODUL_SLATER=FALSE
_MODUL_MRCC=FALSE
_MRCC_EXEC=
_FITC_AO_SAVED=FALSE
_FITC_MO_SAVED=FALSE
_SHARED_FS=TRUE
_LSTYP=SEWARD
_INTYP=INTS
_GEOMTYP=ZMAT
_GRADTYP=ALASKA
_DIRECT=FALSE
_SYNCM=  0.000000000000000    
_BASIS=STO-3G
_ZORIENT=  1.000000000000000    
_NELEC=  9.000000000000000    
!SPIN=  1.000000000000000    
_OPTCONV= 0.2732672992200154E-04
_QSDSTEP=  0.000000000000000    
_QSDIRC=  0.000000000000000    
_PROGRAM=OPTG
_CPUSTEP=  0.000000000000000    
_SYSSTEP=  0.000000000000000    
_WALLSTEP=  0.000000000000000    
!DFMP2=  0.000000000000000    
!DFSCF=  0.000000000000000    
!SCSGRD=  0.000000000000000    
_BASINP=  610.0000000000000    
_CPUTOT=  5.570000000000000    
_CPUCCSD=  0.000000000000000    
_SYSCCSD=  0.000000000000000    
_WALLCCSD=  0.000000000000000    
_CPUF12=  0.000000000000000    
_SYSF12=  0.000000000000000    
_WALLF12=  0.000000000000000    
_CPUF12B=  0.000000000000000    
_SYSF12B=  0.000000000000000    
_WALLF12B=  0.000000000000000    
_CPUTRANS=  0.000000000000000    
_SYSTRANS=  0.000000000000000    
_WALLTRANS=  0.000000000000000    
_DFTEXFAC=  1.000000000000000    
_DMX=  0.000000000000000    
_DMY=  0.000000000000000    
_DMZ=  0.000000000000000    
_EMP2= -39.11344443368232    
_EMP2_SINGLES=-0.2088017071749802E-02
_ENERGR= -39.07166818755483    
_ENERGY= -39.11344443368232    
_ENUC=  9.577818340617508    
_GRADEXFAC=  9999.000000000000    
_GRADMETHOD=  0.000000000000000    
!GRID_FREEZE= -1.000000000000000    
_ITERATIONS=  0.000000000000000    
_LASTNELEC=  9.000000000000000    
_LASTSPIN=  1.000000000000000    
_LASTSYM=  1.000000000000000    
_MPP_PROG=  0.000000000000000    
_NPROC_MPP=  1.000000000000000    
_NPROC_SMP=  1.000000000000000    
_NUMSTEP=  0.000000000000000    
_OPTCONVMX= 0.2645055024012924E-04
_OPTCONVRMS= 0.9108909974000513E-05
_OPTGRAD= 0.3563460642797178E-04
_OPTGRADMX= 0.3536141299775863E-04
_OPTGRADRMS= 0.1187820214265726E-04
_OPTSTEP=  2.000000000000000    
_ORBITAL=  2100.200000000000    
_PI=  3.141592653589793    
_SEIG_MIN= 0.2606818975012893    
_SEWPROP=TRUE
_STATUS= -1.000000000000000    
_SYSTOT= 0.3700000000000000    
_VERSION=  2010001.000000000    
_WALLTOT=  6.820000000000000    
_DATE=17-Aug-24
_LASTORB=RHF
_MACHINE=Linux-3.10.0-1160.108.1.el7.x86_64/molmod(x86_64) 64 bit serial version
_OUTPUT=/home/ospite/Desktop/MMfP/Project6/CH3/molpro/MP2/ch3_sto-3g.xml
_PGROUP=Cs
_TIME=19:01:12
_LIBMOL=/usr/local/molpro/molpros_2010_1_Linux_x86_64_i8/lib/
!SURFREC=  0.000000000000000    
!POLYREC=  0.000000000000000    
!DIPREC=  0.000000000000000    
!VSCFREC=  0.000000000000000    
!VCIREC=  0.000000000000000    
!PVCIREC=  0.000000000000000    
!VMP2REC=  0.000000000000000    
!VMCSCFREC=  0.000000000000000    
!GAREC=  0.000000000000000    
!SCFORB=  21002.00000000000    
!CIOCC=  4.000000000000000    
!CICORE=  1.000000000000000    
!CICLOS=  3.000000000000000    
!CIISTSYM=  1.000000000000000    
!CIISTMS2=  1.000000000000000    
!CIISTNEL=  7.000000000000000    
!NEWMOL=  0.000000000000000    
!NEWSYM=  0.000000000000000    
_SLFILES=slscratch
_NGSSTO=  9.000000000000000    
_SIN=SIN
_COS=COS
_TAN=TAN
_ACOS=ACOS
_ASIN=ASIN
_ATAN=ATAN
_COSH=COSH
_SINH=SINH
_TANH=TANH
_ABS=ABS
_MOD=MOD
_ERF=ERF
_REFC=REFC
_ERFC=ERFC
_HYPOT=HYPOT
_J0=J0
_J1=J1
_JN=JN
_GAMMA=GAMMA
_LGAMMA=LGAMMA
_Y0=Y0
_Y1=Y1
_YN=YN
_EXP=EXP
_LOG=LOG
_LOG10=LOG10
_SQRT=SQRT
_INT=INT
_NINT=NINT
_MAX=MAX
_MIN=MIN
_COSMO=  0.000000000000000    
_COSMOIT=  0.000000000000000    
_COSMOES=  0.000000000000000    
_COSMOEDS=  0.000000000000000    
_COSMOEC=  0.000000000000000    
_COSMOEDCORR=  0.000000000000000    
_FEPSI=  1.000000000000000    
_SL_IsMM=  0.000000000000000    
_SL_NSYM=  0.000000000000000    
_SL_System_BitSw=  0.000000000000000    
_SL_Unique_atoms=  0.000000000000000    
_SL_GRAD=  0.000000000000000    
_SL_MAXUPD_Hess=  5.000000000000000    
_SL_N_PRINT_COD=  5.000000000000000    
_SL_PRINT_CODES=  0.000000000000000    
_SL_BasType=  0.000000000000000    
_SL_Energy_Pred=  0.000000000000000    
_SL_New_Coords=  0.000000000000000    
_SL_Total_Nuclea=  0.000000000000000    
_SL_Highest_Mltp=  0.000000000000000    
_SL_Ref_Geom=  0.000000000000000    
!LATTICE= -1.000000000000000    
!NEWLATTICE=  0.000000000000000    
!LATGRAD_VAR=FALSE
!SEW_LATTICE=  1.000000000000000    
!LOCAL=  0.000000000000000    
!SAVEDOM= -1.000000000000000    
!RESTDOM= -1.000000000000000    
!SAVEDOM_HF= -1.000000000000000    
!RESTDOM_HF= -1.000000000000000    
!HESSREC=  0.000000000000000    
!FREQREC=  0.000000000000000    
!NMODREC=  0.000000000000000    
!GTASKS=  0.000000000000000    
!HTASKS=  0.000000000000000    
!THRCHG= 0.1000000000000000    
!DEBUG= -1.000000000000000    
!CFIT_CPHF=  0.000000000000000    
!RDOMAUX_CPHF=  5.000000000000000    
!THRAO_CPHF= 0.9999999999999999E-11
!THRMO_CPHF= 0.9999999999999999E-11
!THROV_CPHF= 0.1000000000000000E-11
!THRSW_CPHF= 0.1000000000000000E-09
!THRPROD_CPHF= 0.9999999999999999E-11
!THRAOPR_CPHF= 0.1000000000000000E-11
!CFIT_SCFGRD=  0.000000000000000    
!RDOMAUX_SCFGRD=  7.000000000000000    
!THRAO_SCFGRD= 0.9999999999999999E-11
!THRMO_SCFGRD= 0.9999999999999999E-11
!THROV_SCFGRD= 0.1000000000000000E-11
!THRSW_SCFGRD= 0.1000000000000000E-09
!THRPROD_SCFGRD= 0.9999999999999999E-11
!THRAOPR_SCFGRD= 0.1000000000000000E-11
!LOCFIT_SCF=  0.000000000000000    
!LOCFIT_MP2= -1.000000000000000    
_RIDOM=  0.000000000000000    
!CC2_METHOD=  0.000000000000000    
_BASIS2006=FALSE
_SVDDEL= -1.000000000000000    
_SVDDELA= -1.000000000000000    
_SVDDELP= -1.000000000000000    
_SVDDELF= -1.000000000000000    
_SVDDELS= -1.000000000000000    
_SVDDEL_ABS= -1.000000000000000    
_SVDDELA_ABS= -1.000000000000000    
_SVDDELP_ABS= -1.000000000000000    
_SVDDELF_ABS= -1.000000000000000    
_SVDDELS_ABS= -1.000000000000000    
_MAXBASIS=  0.000000000000000    
!OPT_CONICAL=  0.000000000000000    
!CLEARSP_JGRID=  0.000000000000000    
D=  1.090201463882065    
A=  119.9963589682287    
T= 0.1204031725891011E-11
GX1=-0.1520241231237063E-04
GY1=-0.2641126739822213E-28
GZ1= 0.2513644982884071E-14
GX2=  2.060166992399606    
GY2=-0.2641126739822213E-28
GZ2= 0.2513644982884071E-14
GX3= -1.029992917309054    
GY3= -1.784235573750322    
GZ3=-0.1623360180837586E-13
GX4= -1.029992917309054    
GY4=  1.784235573750322    
GZ4=-0.1623360180837587E-13
[Atoms] Angs
C     1    6        -0.0000080448        0.0000000000        0.0000000000
H     2    1         1.0901934191        0.0000000000        0.0000000000
H     3    1        -0.5450487773       -0.9441768011        0.0000000000
H     4    1        -0.5450487773        0.9441768011        0.0000000000
[GTO]
  1 0
 s    3  1.00
  0.7161683700D+02  0.1543289700D+00
  0.1304509600D+02  0.5353281400D+00
  0.3530512200D+01  0.4446345400D+00
 s    3  1.00
  0.2941249400D+01 -0.9996723008D-01
  0.6834831000D+00  0.3995128303D+00
  0.2222899000D+00  0.7001154705D+00
 p    3  1.00
  0.2941249400D+01  0.1559162721D+00
  0.6834831000D+00  0.6076837282D+00
  0.2222899000D+00  0.3919573953D+00
  
  2 0
 s    3  1.00
  0.3425250900D+01  0.1543289707D+00
  0.6239137300D+00  0.5353281424D+00
  0.1688554000D+00  0.4446345420D+00
  
  3 0
 s    3  1.00
  0.3425250900D+01  0.1543289707D+00
  0.6239137300D+00  0.5353281424D+00
  0.1688554000D+00  0.4446345420D+00
  
  4 0
 s    3  1.00
  0.3425250900D+01  0.1543289707D+00
  0.6239137300D+00  0.5353281424D+00
  0.1688554000D+00  0.4446345420D+00


[MO]
 Sym=      1.1
 Ene=     -10.9893
 Spin= Alpha
 Occup=    2.000000
1 0.99246319158747
2 0.034170789109594
3 0.000000466245998
4 0.0
5 0.000000000000000
6 -0.006728968324115
7 -0.006728809795215
8 -0.006728809795215
 Sym=      2.1
 Ene=      -0.8437
 Spin= Alpha
 Occup=    2.000000
1 -0.22266163302173
2 0.64908863854880
3 0.000010853769788
4 0.0
5 0.000000000000000
6 0.22343259076415
7 0.22343110722819
8 0.22343110722819
 Sym=      1.2
 Ene=      -0.5247
 Spin= Alpha
 Occup=    2.000000
1 0.0
2 0.0
3 0.0
4 0.54757973392193
5 0.0
6 0.0
7 -0.43087636374384
8 0.43087636374384
 Sym=      3.1
 Ene=      -0.5247
 Spin= Alpha
 Occup=    2.000000
1 0.000005537461240
2 -0.000020199743284
3 0.54758727670059
4 0.0
5 -0.000000000000000
6 0.49754545374682
7 -0.24877349709862
8 -0.24877349709862
 Sym=      4.1
 Ene=      -0.3458
 Spin= Alpha
 Occup=    1.000000
1 0.000000000000000
2 -0.000000000000000
3 0.000000000000000
4 0.0
5 1.00000000000000
6 0.000000000000000
7 -0.000000000000000
8 -0.000000000000000
 Sym=      5.1
 Ene=       0.6129
 Spin= Alpha
 Occup=    0.000000
1 -0.23045231596765
2 1.42717526933817
3 -0.000143485040023
4 0.0
5 0.000000000000000
6 -0.74401998468207
7 -0.74425963593183
8 -0.74425963593183
 Sym=      6.1
 Ene=       0.7607
 Spin= Alpha
 Occup=    0.000000
1 -0.000035991174527
2 0.000231676588027
3 1.14810412207430
4 0.0
5 -0.000000000000000
6 -1.00553607928931
7 0.50257653726734
8 0.50257653726734
 Sym=      2.2
 Ene=       0.7608
 Spin= Alpha
 Occup=    0.000000
1 0.0
2 0.0
3 0.0
4 1.14815563439274
5 0.0
6 0.0
7 0.87073164923144
8 -0.87073164923144
