[Molden Format]
[Molpro variables]
_NUMVAR=  676.0000000000000    
_EV2006= 0.3674930886769165E-01
_EV= 0.3674932534394180E-01
_KJOULE= 0.3808798324128737E-03
_KJOULE/MOL= 0.3808798324128737E-03
_CM= 0.4556335267302901E-05
_CM-1= 0.4556335267302901E-05
_KCAL= 0.1593601117815568E-02
_KCAL/MOL= 0.1593601117815568E-02
_KELVIN2006= 0.3166828861084835E-05
_KELVIN= 0.3166814820820034E-05
_HERTZ2006= 0.1519829850815779E-15
_HERTZ= 0.1519829846011223E-15
_HZ2006= 0.1519829850815779E-15
_HZ= 0.1519829846011223E-15
_TOA2006= 0.5291772490000000    
_TOA= 0.5291772090000000    
_TOANG2006= 0.5291772490000000    
_TOANG= 0.5291772090000000    
_TORAD= 0.1745329251994330E-01
_TOCM=  219474.6306700000    
_TODEBYE=  2.541580000000000    
_TOEV2006=  27.21139610000000    
_TOEV=  27.21138390000000    
_TOHERTZ2006=  6579683899900000.    
_TOHERTZ=  6579683920700000.    
_TOHZ2006=  6579683899900000.    
_TOHZ=  6579683920700000.    
_TOK2006=  315773.3000000000    
_TOK=  315774.7000000000    
_TOKCAL=  627.5096000000000    
_TOKELVIN2006=  315773.3000000000    
_TOKELVIN=  315774.7000000000    
_TOKJ=  2625.500000000000    
_TOKJOULE=  2625.500000000000    
_ANG2006=  1.889725988578923    
_ANG=  1.889726131421507    
_ANGSTROM2006=  1.889725988578923    
_ANGSTROM=  1.889726131421507    
_IGNORE_UNDEF=  2.000000000000000    
_STRICTCHECK=  0.000000000000000    
_SEW_ONEEL=  0.000000000000000    
_CPPDONE=FALSE
_DKROLL_DONE=  0.000000000000000    
_FOCKDONE=TRUE
_GRADONE=FALSE
_HESSDONE=FALSE
_INTDONE=TRUE
_SCFDONE=TRUE
_MODUL_CUDA=FALSE
_MODUL_SLATER=FALSE
_MODUL_MRCC=FALSE
_MRCC_EXEC=
_FITC_AO_SAVED=FALSE
_FITC_MO_SAVED=FALSE
_SHARED_FS=TRUE
_LSTYP=SEWARD
_INTYP=INTS
_GEOMTYP=ZMAT
_GRADTYP=ALASKA
_DIRECT=FALSE
_SYNCM=  0.000000000000000    
_BASIS=6-31+G
_ZORIENT=  1.000000000000000    
_NELEC=  9.000000000000000    
!SPIN=  1.000000000000000    
_OPTCONV= 0.4775260797384601E-04
_QSDSTEP=  0.000000000000000    
_QSDIRC=  0.000000000000000    
_PROGRAM=OPTG
_CPUSTEP= 0.9999999999999787E-02
_SYSSTEP=  0.000000000000000    
_WALLSTEP=  0.000000000000000    
!DFMP2=  0.000000000000000    
!DFSCF=  0.000000000000000    
!SCSGRD=  0.000000000000000    
_BASINP=  610.0000000000000    
_CPUTOT=  7.510000000000000    
_CPUCCSD=  0.000000000000000    
_SYSCCSD=  0.000000000000000    
_WALLCCSD=  0.000000000000000    
_CPUF12=  0.000000000000000    
_SYSF12=  0.000000000000000    
_WALLF12=  0.000000000000000    
_CPUF12B=  0.000000000000000    
_SYSF12B=  0.000000000000000    
_WALLF12B=  0.000000000000000    
_CPUTRANS=  0.000000000000000    
_SYSTRANS=  0.000000000000000    
_WALLTRANS=  0.000000000000000    
_DFTEXFAC=  1.000000000000000    
_DMX=  0.000000000000000    
_DMY=  0.000000000000000    
_DMZ=  0.000000000000000    
_EMP2= -39.62506401915434    
_EMP2_SINGLES=-0.1463244833133077E-02
_ENERGR= -39.54541130170922    
_ENERGY= -39.62506401915434    
_ENUC=  9.635161127899693    
_GRADEXFAC=  9999.000000000000    
_GRADMETHOD=  0.000000000000000    
!GRID_FREEZE= -1.000000000000000    
_ITERATIONS=  0.000000000000000    
_LASTNELEC=  9.000000000000000    
_LASTSPIN=  1.000000000000000    
_LASTSYM=  1.000000000000000    
_MPP_PROG=  0.000000000000000    
_NPROC_MPP=  1.000000000000000    
_NPROC_SMP=  1.000000000000000    
_NUMSTEP=  0.000000000000000    
_OPTCONVMX= 0.4773989994571165E-04
_OPTCONVRMS= 0.1591753599128200E-04
_OPTGRAD= 0.5448699721353518E-04
_OPTGRADMX= 0.5448147035735929E-04
_OPTGRADRMS= 0.1816233240451173E-04
_OPTSTEP=  3.000000000000000    
_ORBITAL=  2100.200000000000    
_PI=  3.141592653589793    
_SEIG_MIN= 0.2962554772901555E-01
_SEWPROP=TRUE
_STATUS= -1.000000000000000    
_SYSTOT= 0.5500000000000000    
_VERSION=  2010001.000000000    
_WALLTOT=  9.609999999999999    
_DATE=17-Aug-24
_LASTORB=RHF
_MACHINE=Linux-3.10.0-1160.108.1.el7.x86_64/molmod(x86_64) 64 bit serial version
_OUTPUT=/home/ospite/Desktop/MMfP/Project6/CH3/molpro/MP2/ch3_+.xml
_PGROUP=Cs
_TIME=18:57:08
_LIBMOL=/usr/local/molpro/molpros_2010_1_Linux_x86_64_i8/lib/
!SURFREC=  0.000000000000000    
!POLYREC=  0.000000000000000    
!DIPREC=  0.000000000000000    
!VSCFREC=  0.000000000000000    
!VCIREC=  0.000000000000000    
!PVCIREC=  0.000000000000000    
!VMP2REC=  0.000000000000000    
!VMCSCFREC=  0.000000000000000    
!GAREC=  0.000000000000000    
!SCFORB=  21002.00000000000    
!CIOCC=  4.000000000000000    
!CICORE=  1.000000000000000    
!CICLOS=  3.000000000000000    
!CIISTSYM=  1.000000000000000    
!CIISTMS2=  1.000000000000000    
!CIISTNEL=  7.000000000000000    
!NEWMOL=  0.000000000000000    
!NEWSYM=  0.000000000000000    
_SLFILES=slscratch
_NGSSTO=  9.000000000000000    
_SIN=SIN
_COS=COS
_TAN=TAN
_ACOS=ACOS
_ASIN=ASIN
_ATAN=ATAN
_COSH=COSH
_SINH=SINH
_TANH=TANH
_ABS=ABS
_MOD=MOD
_ERF=ERF
_REFC=REFC
_ERFC=ERFC
_HYPOT=HYPOT
_J0=J0
_J1=J1
_JN=JN
_GAMMA=GAMMA
_LGAMMA=LGAMMA
_Y0=Y0
_Y1=Y1
_YN=YN
_EXP=EXP
_LOG=LOG
_LOG10=LOG10
_SQRT=SQRT
_INT=INT
_NINT=NINT
_MAX=MAX
_MIN=MIN
_COSMO=  0.000000000000000    
_COSMOIT=  0.000000000000000    
_COSMOES=  0.000000000000000    
_COSMOEDS=  0.000000000000000    
_COSMOEC=  0.000000000000000    
_COSMOEDCORR=  0.000000000000000    
_FEPSI=  1.000000000000000    
_SL_IsMM=  0.000000000000000    
_SL_NSYM=  0.000000000000000    
_SL_System_BitSw=  0.000000000000000    
_SL_Unique_atoms=  0.000000000000000    
_SL_GRAD=  0.000000000000000    
_SL_MAXUPD_Hess=  5.000000000000000    
_SL_N_PRINT_COD=  5.000000000000000    
_SL_PRINT_CODES=  0.000000000000000    
_SL_BasType=  0.000000000000000    
_SL_Energy_Pred=  0.000000000000000    
_SL_New_Coords=  0.000000000000000    
_SL_Total_Nuclea=  0.000000000000000    
_SL_Highest_Mltp=  0.000000000000000    
_SL_Ref_Geom=  0.000000000000000    
!LATTICE= -1.000000000000000    
!NEWLATTICE=  0.000000000000000    
!LATGRAD_VAR=FALSE
!SEW_LATTICE=  1.000000000000000    
!LOCAL=  0.000000000000000    
!SAVEDOM= -1.000000000000000    
!RESTDOM= -1.000000000000000    
!SAVEDOM_HF= -1.000000000000000    
!RESTDOM_HF= -1.000000000000000    
!HESSREC=  0.000000000000000    
!FREQREC=  0.000000000000000    
!NMODREC=  0.000000000000000    
!GTASKS=  0.000000000000000    
!HTASKS=  0.000000000000000    
!THRCHG= 0.1000000000000000    
!DEBUG= -1.000000000000000    
!CFIT_CPHF=  0.000000000000000    
!RDOMAUX_CPHF=  5.000000000000000    
!THRAO_CPHF= 0.9999999999999999E-11
!THRMO_CPHF= 0.9999999999999999E-11
!THROV_CPHF= 0.1000000000000000E-11
!THRSW_CPHF= 0.1000000000000000E-09
!THRPROD_CPHF= 0.9999999999999999E-11
!THRAOPR_CPHF= 0.1000000000000000E-11
!CFIT_SCFGRD=  0.000000000000000    
!RDOMAUX_SCFGRD=  7.000000000000000    
!THRAO_SCFGRD= 0.9999999999999999E-11
!THRMO_SCFGRD= 0.9999999999999999E-11
!THROV_SCFGRD= 0.1000000000000000E-11
!THRSW_SCFGRD= 0.1000000000000000E-09
!THRPROD_SCFGRD= 0.9999999999999999E-11
!THRAOPR_SCFGRD= 0.1000000000000000E-11
!LOCFIT_SCF=  0.000000000000000    
!LOCFIT_MP2= -1.000000000000000    
_RIDOM=  0.000000000000000    
!CC2_METHOD=  0.000000000000000    
_BASIS2006=FALSE
_SVDDEL= -1.000000000000000    
_SVDDELA= -1.000000000000000    
_SVDDELP= -1.000000000000000    
_SVDDELF= -1.000000000000000    
_SVDDELS= -1.000000000000000    
_SVDDEL_ABS= -1.000000000000000    
_SVDDELA_ABS= -1.000000000000000    
_SVDDELP_ABS= -1.000000000000000    
_SVDDELF_ABS= -1.000000000000000    
_SVDDELS_ABS= -1.000000000000000    
_MAXBASIS=  0.000000000000000    
!OPT_CONICAL=  0.000000000000000    
!CLEARSP_JGRID=  0.000000000000000    
MULT=  2.000000000000000    
D=  1.083713228764734    
A=  119.9965443847417    
T=-0.4868179130866471E-11
GX1=-0.1434236034505987E-04
GY1=-0.4291936463328620E-27
GZ1=-0.1010309610600622E-13
GX2=  2.047906865003546    
GY2=-0.4291936463328620E-27
GZ2= 0.4012799569193592E-13
GX3= -1.023867977965737    
GY3= -1.773613544272934    
GZ3= 0.4013218810222373E-13
GX4= -1.023867977965737    
GY4=  1.773613544272934    
GZ4= 0.4013218810222374E-13
[Atoms] Angs
C     1    6        -0.0000075897        0.0000000000        0.0000000000
H     2    1         1.0837056391        0.0000000000        0.0000000000
H     3    1        -0.5418075990       -0.9385558652        0.0000000000
H     4    1        -0.5418075990        0.9385558652        0.0000000000
[GTO]
  1 0
 s    6  1.00
  0.3047524900D+04  0.1834737091D-02
  0.4573695200D+03  0.1403732293D-01
  0.1039486800D+03  0.6884262165D-01
  0.2921015500D+02  0.2321844388D+00
  0.9286663000D+01  0.4679413476D+00
  0.3163927000D+01  0.3623119882D+00
 s    3  1.00
  0.7868272300D+01 -0.1193324245D+00
  0.1881288500D+01 -0.1608541561D+00
  0.5442492600D+00  0.1143456443D+01
 s    1  1.00
  0.1687144800D+00  0.1000000000D+01
 s    1  1.00
  0.4380000000D-01  0.1000000000D+01
 p    3  1.00
  0.7868272300D+01  0.6899906693D-01
  0.1881288500D+01  0.3164239597D+00
  0.5442492600D+00  0.7443082892D+00
 p    1  1.00
  0.1687144800D+00  0.1000000000D+01
 p    1  1.00
  0.4380000000D-01  0.1000000000D+01
  
  2 0
 s    3  1.00
  0.1873113700D+02  0.3349460400D-01
  0.2825394400D+01  0.2347269500D+00
  0.6401216900D+00  0.8137573301D+00
 s    1  1.00
  0.1612777600D+00  0.1000000000D+01
  
  3 0
 s    3  1.00
  0.1873113700D+02  0.3349460400D-01
  0.2825394400D+01  0.2347269500D+00
  0.6401216900D+00  0.8137573301D+00
 s    1  1.00
  0.1612777600D+00  0.1000000000D+01
  
  4 0
 s    3  1.00
  0.1873113700D+02  0.3349460400D-01
  0.2825394400D+01  0.2347269500D+00
  0.6401216900D+00  0.8137573301D+00
 s    1  1.00
  0.1612777600D+00  0.1000000000D+01


[MO]
 Sym=      1.1
 Ene=     -11.2303
 Spin= Alpha
 Occup=    2.000000
1 0.99616747658511
2 0.023964164243487
3 -0.012166394241946
4 0.000746740446847
5 0.000000085427513
6 0.0
7 0.000000000000000
8 -0.000000258492976
9 0.0
10 0.000000000000000
11 -0.000000063943461
12 0.0
13 0.000000000000000
14 -0.000214501828574
15 0.002302593554896
16 -0.000214501028859
17 0.002302329531818
18 -0.000214501028859
19 0.002302329531818
 Sym=      2.1
 Ene=      -0.9028
 Spin= Alpha
 Occup=    2.000000
1 -0.19782876678326
2 0.39302675036121
3 0.36339880136695
4 0.003240568117639
5 0.000010964160688
6 0.0
7 -0.000000000000000
8 0.000004796440426
9 0.0
10 -0.000000000000000
11 -0.000000049570511
12 0.0
13 0.000000000000000
14 0.15662650188266
15 0.053446201079033
16 0.15662352001383
17 0.053446567064449
18 0.15662352001383
19 0.053446567064449
 Sym=      1.2
 Ene=      -0.5732
 Spin= Alpha
 Occup=    2.000000
1 0.0
2 0.0
3 0.0
4 0.0
5 0.0
6 0.44320101988730
7 0.0
8 0.0
9 0.20091821612291
10 0.0
11 0.0
12 0.013052619188790
13 0.0
14 0.0
15 0.0
16 -0.25182443557840
17 -0.18359212584594
18 0.25182443557840
19 0.18359212584594
 Sym=      3.1
 Ene=      -0.5732
 Spin= Alpha
 Occup=    2.000000
1 0.000004954846583
2 -0.000010701275007
3 -0.000010153081327
4 -0.000001060947802
5 0.44320006426757
6 0.0
7 0.000000000000000
8 0.20091938196506
9 0.0
10 0.000000000000001
11 0.013055821022121
12 0.0
13 -0.000000000000002
14 0.29078331083247
15 0.21201144218959
16 -0.14539226898036
17 -0.10600749817369
18 -0.14539226898036
19 -0.10600749817369
 Sym=      4.1
 Ene=      -0.3781
 Spin= Alpha
 Occup=    1.000000
1 -0.000000000000000
2 -0.000000000000000
3 0.000000000000001
4 0.000000000000001
5 -0.000000000000000
6 0.0
7 0.58498479776546
8 -0.000000000000000
9 0.0
10 0.49432996261816
11 0.000000000000000
12 0.0
13 0.096338254780677
14 0.000000000000000
15 -0.000000000000001
16 0.000000000000000
17 -0.000000000000001
18 0.000000000000000
19 -0.000000000000001
 Sym=      5.1
 Ene=       0.0971
 Spin= Alpha
 Occup=    0.000000
1 0.073335216464887
2 -0.085448771358175
3 -0.57270491855059
4 1.57998519830390
5 -0.000007905632023
6 0.0
7 -0.000000000000000
8 0.000015147387686
9 0.0
10 -0.000000000000001
11 0.000063545559974
12 0.0
13 0.000000000000001
14 0.008751765901254
15 -0.20360282635348
16 0.008752515510654
17 -0.20355481130926
18 0.008752515510654
19 -0.20355481130926
 Sym=      2.2
 Ene=       0.1193
 Spin= Alpha
 Occup=    0.000000
1 0.0
2 0.0
3 0.0
4 0.0
5 0.0
6 -0.11846783709238
7 0.0
8 0.0
9 -0.15162006313439
10 0.0
11 0.0
12 1.23381694459050
13 0.0
14 0.0
15 0.0
16 0.025693582609402
17 0.30160046452081
18 -0.025693582609402
19 -0.30160046452081
 Sym=      6.1
 Ene=       0.1193
 Spin= Alpha
 Occup=    0.000000
1 -0.000003395143349
2 0.000000305521312
3 0.000042251264556
4 -0.000067059963842
5 -0.11846113473719
6 0.0
7 -0.000000000000001
8 -0.15164892582249
9 0.0
10 -0.000000000000001
11 1.23380565224138
12 0.0
13 0.000000000000003
14 -0.029673006602591
15 -0.34823855163340
16 0.014838174435918
17 0.17411911512119
18 0.014838174435918
19 0.17411911512119
 Sym=      7.1
 Ene=       0.1346
 Spin= Alpha
 Occup=    0.000000
1 -0.000000000000000
2 0.000000000000000
3 0.000000000000001
4 -0.000000000000000
5 0.000000000000001
6 0.0
7 -0.18455332266666
8 0.000000000000001
9 0.0
10 -0.45315646824933
11 -0.000000000000003
12 0.0
13 1.16525917922162
14 0.000000000000001
15 0.000000000000001
16 -0.000000000000000
17 -0.000000000000001
18 -0.000000000000000
19 -0.000000000000001
 Sym=      8.1
 Ene=       0.3246
 Spin= Alpha
 Occup=    0.000000
1 0.13531817331363
2 -0.080716567789087
3 -2.54847362167928
4 -1.09497598539799
5 0.000167557471673
6 0.0
7 0.000000000000000
8 0.000992061833293
9 0.0
10 -0.000000000000000
11 0.000171309411387
12 0.0
13 0.000000000000000
14 0.10346661972907
15 1.51719992896257
16 0.10357688567363
17 1.51921016281119
18 0.10357688567363
19 1.51921016281119
 Sym=      9.1
 Ene=       0.3401
 Spin= Alpha
 Occup=    0.000000
1 0.000088736849917
2 -0.000048778199313
3 -0.001748780356483
4 -0.000767602772377
5 -0.26707997731806
6 0.0
7 0.000000000000000
8 -1.68636953347485
9 0.0
10 -0.000000000000001
11 -0.34084753799866
12 0.0
13 0.000000000000000
14 0.099426311162380
15 2.17879707788657
16 -0.049620229969246
17 -1.08781119820400
18 -0.049620229969246
19 -1.08781119820400
 Sym=      3.2
 Ene=       0.3401
 Spin= Alpha
 Occup=    0.000000
1 0.0
2 0.0
3 0.0
4 0.0
5 0.0
6 0.26707617123046
7 0.0
8 0.0
9 1.68659342920266
10 0.0
11 0.0
12 0.34096526860250
13 0.0
14 0.0
15 0.0
16 0.086038116565492
17 1.88619880144875
18 -0.086038116565492
19 -1.88619880144875
 Sym=     10.1
 Ene=       0.8595
 Spin= Alpha
 Occup=    0.000000
1 -0.000003401980550
2 0.000048728163551
3 0.000021703034457
4 0.000068596736601
5 -0.96028357511173
6 0.0
7 -0.000000000000002
8 1.77557772460911
9 0.0
10 0.000000000000003
11 -0.51452139041612
12 0.0
13 -0.000000000000001
14 -0.37238565891502
15 -0.21768492919263
16 0.18620272306013
17 0.10875095293646
18 0.18620272306013
19 0.10875095293646
 Sym=      4.2
 Ene=       0.8595
 Spin= Alpha
 Occup=    0.000000
1 0.0
2 0.0
3 0.0
4 0.0
5 0.0
6 -0.96029842694381
7 0.0
8 0.0
9 1.77579887874048
10 0.0
11 0.0
12 -0.51447329342767
13 0.0
14 0.0
15 0.0
16 0.32249000888298
17 0.18869243702878
18 -0.32249000888298
19 -0.18869243702878
 Sym=     11.1
 Ene=       0.8665
 Spin= Alpha
 Occup=    0.000000
1 0.000000000000000
2 0.000000000000000
3 -0.000000000000001
4 0.000000000000000
5 0.000000000000002
6 0.0
7 -1.09958695518680
8 -0.000000000000005
9 0.0
10 1.38226287086109
11 0.000000000000001
12 0.0
13 -0.52102697332297
14 0.000000000000001
15 0.000000000000002
16 -0.000000000000000
17 -0.000000000000001
18 -0.000000000000000
19 -0.000000000000001
 Sym=     12.1
 Ene=       1.0586
 Spin= Alpha
 Occup=    0.000000
1 -0.027660802290447
2 -1.71735936539833
3 2.89909777886064
4 -0.71239686186581
5 -0.000060325431124
6 0.0
7 -0.000000000000000
8 0.000188205629072
9 0.0
10 0.000000000000000
11 0.000011341765117
12 0.0
13 -0.000000000000000
14 -0.43335942254186
15 -0.11141754212061
16 -0.43340624552465
17 -0.11117061770872
18 -0.43340624552465
19 -0.11117061770872
 Sym=     13.1
 Ene=       1.2630
 Spin= Alpha
 Occup=    0.000000
1 0.069191415108136
2 -1.24331686360805
3 2.54568584439123
4 0.61743114083339
5 0.000281428653579
6 0.0
7 -0.000000000000000
8 -0.000249436646869
9 0.0
10 0.000000000000000
11 -0.000128931889031
12 0.0
13 -0.000000000000000
14 0.69623863069666
15 -1.33796266185217
16 0.69693813318331
17 -1.33898411318542
18 0.69693813318331
19 -1.33898411318542
 Sym=     14.1
 Ene=       1.3015
 Spin= Alpha
 Occup=    0.000000
1 0.000030342507843
2 -0.000444652843757
3 0.000936571222933
4 0.000291430381225
5 -0.72190812938691
6 0.0
7 0.000000000000000
8 0.71341815975722
9 0.0
10 0.000000000000000
11 0.36943078280618
12 0.0
13 -0.000000000000000
14 1.11125176900346
15 -1.65803666020199
16 -0.55514852093841
17 0.82818074722769
18 -0.55514852093841
19 0.82818074722769
 Sym=      5.2
 Ene=       1.3015
 Spin= Alpha
 Occup=    0.000000
1 0.0
2 0.0
3 0.0
4 0.0
5 0.0
6 0.72190918250626
7 0.0
8 0.0
9 -0.71337837381607
10 0.0
11 0.0
12 -0.36947640303417
13 0.0
14 0.0
15 0.0
16 0.96212078147174
17 -1.43539968848598
18 -0.96212078147174
19 1.43539968848598
