[Molden Format]
[Molpro variables]
_NUMVAR=  675.0000000000000    
_EV2006= 0.3674930886769165E-01
_EV= 0.3674932534394180E-01
_KJOULE= 0.3808798324128737E-03
_KJOULE/MOL= 0.3808798324128737E-03
_CM= 0.4556335267302901E-05
_CM-1= 0.4556335267302901E-05
_KCAL= 0.1593601117815568E-02
_KCAL/MOL= 0.1593601117815568E-02
_KELVIN2006= 0.3166828861084835E-05
_KELVIN= 0.3166814820820034E-05
_HERTZ2006= 0.1519829850815779E-15
_HERTZ= 0.1519829846011223E-15
_HZ2006= 0.1519829850815779E-15
_HZ= 0.1519829846011223E-15
_TOA2006= 0.5291772490000000    
_TOA= 0.5291772090000000    
_TOANG2006= 0.5291772490000000    
_TOANG= 0.5291772090000000    
_TORAD= 0.1745329251994330E-01
_TOCM=  219474.6306700000    
_TODEBYE=  2.541580000000000    
_TOEV2006=  27.21139610000000    
_TOEV=  27.21138390000000    
_TOHERTZ2006=  6579683899900000.    
_TOHERTZ=  6579683920700000.    
_TOHZ2006=  6579683899900000.    
_TOHZ=  6579683920700000.    
_TOK2006=  315773.3000000000    
_TOK=  315774.7000000000    
_TOKCAL=  627.5096000000000    
_TOKELVIN2006=  315773.3000000000    
_TOKELVIN=  315774.7000000000    
_TOKJ=  2625.500000000000    
_TOKJOULE=  2625.500000000000    
_ANG2006=  1.889725988578923    
_ANG=  1.889726131421507    
_ANGSTROM2006=  1.889725988578923    
_ANGSTROM=  1.889726131421507    
_IGNORE_UNDEF=  2.000000000000000    
_STRICTCHECK=  0.000000000000000    
_SEW_ONEEL=  0.000000000000000    
_CPPDONE=FALSE
_DKROLL_DONE=  0.000000000000000    
_FOCKDONE=TRUE
_GRADONE=FALSE
_HESSDONE=FALSE
_INTDONE=TRUE
_SCFDONE=TRUE
_MODUL_CUDA=FALSE
_MODUL_SLATER=FALSE
_MODUL_MRCC=FALSE
_MRCC_EXEC=
_FITC_AO_SAVED=FALSE
_FITC_MO_SAVED=FALSE
_SHARED_FS=TRUE
_LSTYP=SEWARD
_INTYP=INTS
_GEOMTYP=ZMAT
_GRADTYP=ALASKA
_DIRECT=FALSE
_SYNCM=  0.000000000000000    
_BASIS=6-31G
_ZORIENT=  1.000000000000000    
_NELEC=  9.000000000000000    
!SPIN=  1.000000000000000    
_OPTCONV= 0.5985068002200384E-04
_QSDSTEP=  0.000000000000000    
_QSDIRC=  0.000000000000000    
_PROGRAM=OPTG
_CPUSTEP=  0.000000000000000    
_SYSSTEP=  0.000000000000000    
_WALLSTEP=  0.000000000000000    
!DFMP2=  0.000000000000000    
!DFSCF=  0.000000000000000    
!SCSGRD=  0.000000000000000    
_BASINP=  610.0000000000000    
_CPUTOT=  6.930000000000001    
_CPUCCSD=  0.000000000000000    
_SYSCCSD=  0.000000000000000    
_WALLCCSD=  0.000000000000000    
_CPUF12=  0.000000000000000    
_SYSF12=  0.000000000000000    
_WALLF12=  0.000000000000000    
_CPUF12B=  0.000000000000000    
_SYSF12B=  0.000000000000000    
_WALLF12B=  0.000000000000000    
_CPUTRANS=  0.000000000000000    
_SYSTRANS=  0.000000000000000    
_WALLTRANS=  0.000000000000000    
_DFTEXFAC=  1.000000000000000    
_DMX=  0.000000000000000    
_DMY=  0.000000000000000    
_DMZ=  0.000000000000000    
_EMP2= -39.62122468819224    
_EMP2_SINGLES=-0.1514366429507290E-02
_ENERGR= -39.54318193142721    
_ENERGY= -39.62122468819224    
_ENUC=  9.642461957966290    
_GRADEXFAC=  9999.000000000000    
_GRADMETHOD=  0.000000000000000    
!GRID_FREEZE= -1.000000000000000    
_ITERATIONS=  0.000000000000000    
_LASTNELEC=  9.000000000000000    
_LASTSPIN=  1.000000000000000    
_LASTSYM=  1.000000000000000    
_MPP_PROG=  0.000000000000000    
_NPROC_MPP=  1.000000000000000    
_NPROC_SMP=  1.000000000000000    
_NUMSTEP=  0.000000000000000    
_OPTCONVMX= 0.5984137327246900E-04
_OPTCONVRMS= 0.1995022667400128E-04
_OPTGRAD= 0.6875849206370264E-04
_OPTGRADMX= 0.6875442117859620E-04
_OPTGRADRMS= 0.2291949735456755E-04
_OPTSTEP=  3.000000000000000    
_ORBITAL=  2100.200000000000    
_PI=  3.141592653589793    
_SEIG_MIN= 0.3244798869737334E-01
_SEWPROP=TRUE
_STATUS= -1.000000000000000    
_SYSTOT= 0.5400000000000000    
_VERSION=  2010001.000000000    
_WALLTOT=  8.640000000000001    
_DATE=17-Aug-24
_LASTORB=RHF
_MACHINE=Linux-3.10.0-1160.108.1.el7.x86_64/molmod(x86_64) 64 bit serial version
_OUTPUT=/home/ospite/Desktop/MMfP/Project6/CH3/molpro/MP2/ch3_Pople631.xml
_PGROUP=Cs
_TIME=19:01:29
_LIBMOL=/usr/local/molpro/molpros_2010_1_Linux_x86_64_i8/lib/
!SURFREC=  0.000000000000000    
!POLYREC=  0.000000000000000    
!DIPREC=  0.000000000000000    
!VSCFREC=  0.000000000000000    
!VCIREC=  0.000000000000000    
!PVCIREC=  0.000000000000000    
!VMP2REC=  0.000000000000000    
!VMCSCFREC=  0.000000000000000    
!GAREC=  0.000000000000000    
!SCFORB=  21002.00000000000    
!CIOCC=  4.000000000000000    
!CICORE=  1.000000000000000    
!CICLOS=  3.000000000000000    
!CIISTSYM=  1.000000000000000    
!CIISTMS2=  1.000000000000000    
!CIISTNEL=  7.000000000000000    
!NEWMOL=  0.000000000000000    
!NEWSYM=  0.000000000000000    
_SLFILES=slscratch
_NGSSTO=  9.000000000000000    
_SIN=SIN
_COS=COS
_TAN=TAN
_ACOS=ACOS
_ASIN=ASIN
_ATAN=ATAN
_COSH=COSH
_SINH=SINH
_TANH=TANH
_ABS=ABS
_MOD=MOD
_ERF=ERF
_REFC=REFC
_ERFC=ERFC
_HYPOT=HYPOT
_J0=J0
_J1=J1
_JN=JN
_GAMMA=GAMMA
_LGAMMA=LGAMMA
_Y0=Y0
_Y1=Y1
_YN=YN
_EXP=EXP
_LOG=LOG
_LOG10=LOG10
_SQRT=SQRT
_INT=INT
_NINT=NINT
_MAX=MAX
_MIN=MIN
_COSMO=  0.000000000000000    
_COSMOIT=  0.000000000000000    
_COSMOES=  0.000000000000000    
_COSMOEDS=  0.000000000000000    
_COSMOEC=  0.000000000000000    
_COSMOEDCORR=  0.000000000000000    
_FEPSI=  1.000000000000000    
_SL_IsMM=  0.000000000000000    
_SL_NSYM=  0.000000000000000    
_SL_System_BitSw=  0.000000000000000    
_SL_Unique_atoms=  0.000000000000000    
_SL_GRAD=  0.000000000000000    
_SL_MAXUPD_Hess=  5.000000000000000    
_SL_N_PRINT_COD=  5.000000000000000    
_SL_PRINT_CODES=  0.000000000000000    
_SL_BasType=  0.000000000000000    
_SL_Energy_Pred=  0.000000000000000    
_SL_New_Coords=  0.000000000000000    
_SL_Total_Nuclea=  0.000000000000000    
_SL_Highest_Mltp=  0.000000000000000    
_SL_Ref_Geom=  0.000000000000000    
!LATTICE= -1.000000000000000    
!NEWLATTICE=  0.000000000000000    
!LATGRAD_VAR=FALSE
!SEW_LATTICE=  1.000000000000000    
!LOCAL=  0.000000000000000    
!SAVEDOM= -1.000000000000000    
!RESTDOM= -1.000000000000000    
!SAVEDOM_HF= -1.000000000000000    
!RESTDOM_HF= -1.000000000000000    
!HESSREC=  0.000000000000000    
!FREQREC=  0.000000000000000    
!NMODREC=  0.000000000000000    
!GTASKS=  0.000000000000000    
!HTASKS=  0.000000000000000    
!THRCHG= 0.1000000000000000    
!DEBUG= -1.000000000000000    
!CFIT_CPHF=  0.000000000000000    
!RDOMAUX_CPHF=  5.000000000000000    
!THRAO_CPHF= 0.9999999999999999E-11
!THRMO_CPHF= 0.9999999999999999E-11
!THROV_CPHF= 0.1000000000000000E-11
!THRSW_CPHF= 0.1000000000000000E-09
!THRPROD_CPHF= 0.9999999999999999E-11
!THRAOPR_CPHF= 0.1000000000000000E-11
!CFIT_SCFGRD=  0.000000000000000    
!RDOMAUX_SCFGRD=  7.000000000000000    
!THRAO_SCFGRD= 0.9999999999999999E-11
!THRMO_SCFGRD= 0.9999999999999999E-11
!THROV_SCFGRD= 0.1000000000000000E-11
!THRSW_SCFGRD= 0.1000000000000000E-09
!THRPROD_SCFGRD= 0.9999999999999999E-11
!THRAOPR_SCFGRD= 0.1000000000000000E-11
!LOCFIT_SCF=  0.000000000000000    
!LOCFIT_MP2= -1.000000000000000    
_RIDOM=  0.000000000000000    
!CC2_METHOD=  0.000000000000000    
_BASIS2006=FALSE
_SVDDEL= -1.000000000000000    
_SVDDELA= -1.000000000000000    
_SVDDELP= -1.000000000000000    
_SVDDELF= -1.000000000000000    
_SVDDELS= -1.000000000000000    
_SVDDEL_ABS= -1.000000000000000    
_SVDDELA_ABS= -1.000000000000000    
_SVDDELP_ABS= -1.000000000000000    
_SVDDELF_ABS= -1.000000000000000    
_SVDDELS_ABS= -1.000000000000000    
_MAXBASIS=  0.000000000000000    
!OPT_CONICAL=  0.000000000000000    
!CLEARSP_JGRID=  0.000000000000000    
D=  1.082892690793384    
A=  119.9966067284042    
T= 0.1411158183087168E-10
GX1=-0.1407293817409783E-04
GY1=-0.3603647937030486E-26
GZ1= 0.2926403007447179E-13
GX2=  2.046356542379434    
GY2=-0.3603647937030486E-26
GZ2=-0.1162325227958018E-12
GX3= -1.023094421922692    
GY3= -1.772269532197933    
GZ3=-0.1162444471881661E-12
GX4= -1.023094421922692    
GY4=  1.772269532197933    
GZ4=-0.1162444471881661E-12
[Atoms] Angs
C     1    6        -0.0000074471        0.0000000000        0.0000000000
H     2    1         1.0828852437        0.0000000000        0.0000000000
H     3    1        -0.5413982507       -0.9378446446        0.0000000000
H     4    1        -0.5413982507        0.9378446446        0.0000000000
[GTO]
  1 0
 s    6  1.00
  0.3047524900D+04  0.1834737091D-02
  0.4573695200D+03  0.1403732293D-01
  0.1039486800D+03  0.6884262165D-01
  0.2921015500D+02  0.2321844388D+00
  0.9286663000D+01  0.4679413476D+00
  0.3163927000D+01  0.3623119882D+00
 s    3  1.00
  0.7868272300D+01 -0.1193324245D+00
  0.1881288500D+01 -0.1608541561D+00
  0.5442492600D+00  0.1143456443D+01
 s    1  1.00
  0.1687144800D+00  0.1000000000D+01
 p    3  1.00
  0.7868272300D+01  0.6899906693D-01
  0.1881288500D+01  0.3164239597D+00
  0.5442492600D+00  0.7443082892D+00
 p    1  1.00
  0.1687144800D+00  0.1000000000D+01
  
  2 0
 s    3  1.00
  0.1873113700D+02  0.3349460400D-01
  0.2825394400D+01  0.2347269500D+00
  0.6401216900D+00  0.8137573301D+00
 s    1  1.00
  0.1612777600D+00  0.1000000000D+01
  
  3 0
 s    3  1.00
  0.1873113700D+02  0.3349460400D-01
  0.2825394400D+01  0.2347269500D+00
  0.6401216900D+00  0.8137573301D+00
 s    1  1.00
  0.1612777600D+00  0.1000000000D+01
  
  4 0
 s    3  1.00
  0.1873113700D+02  0.3349460400D-01
  0.2825394400D+01  0.2347269500D+00
  0.6401216900D+00  0.8137573301D+00
 s    1  1.00
  0.1612777600D+00  0.1000000000D+01


[MO]
 Sym=      1.1
 Ene=     -11.2215
 Spin= Alpha
 Occup=    2.000000
1 0.99615885748517
2 0.023912464851201
3 -0.012385001193434
4 0.000000095922031
5 0.0
6 0.000000000000000
7 -0.000000306311768
8 0.0
9 -0.000000000000000
10 -0.000314710907683
11 0.002738867007114
12 -0.000314739254009
13 0.002738653198489
14 -0.000314739254009
15 0.002738653198489
 Sym=      2.1
 Ene=      -0.8969
 Spin= Alpha
 Occup=    2.000000
1 -0.19767663988995
2 0.39098134422167
3 0.36239839478112
4 0.000010671084631
5 0.0
6 -0.000000000000000
7 0.000004484532022
8 0.0
9 -0.000000000000000
10 0.15662573975832
11 0.055725331875178
12 0.15662284697283
13 0.055725627872287
14 0.15662284697283
15 0.055725627872287
 Sym=      1.2
 Ene=      -0.5675
 Spin= Alpha
 Occup=    2.000000
1 0.0
2 0.0
3 0.0
4 0.0
5 0.44060690185565
6 0.0
7 0.0
8 0.20010413284031
9 0.0
10 0.0
11 0.0
12 -0.25104003370007
13 -0.19370221086349
14 0.25104003370007
15 0.19370221086349
 Sym=      3.1
 Ene=      -0.5675
 Spin= Alpha
 Occup=    2.000000
1 0.000004855775776
2 -0.000010167183338
3 -0.000010526133836
4 0.44060574393528
5 0.0
6 -0.000000000000000
7 0.20010724041379
8 0.0
9 -0.000000000000000
10 0.28987731784607
11 0.22368561671917
12 -0.14493920025783
13 -0.11184477196225
14 -0.14493920025783
15 -0.11184477196225
 Sym=      4.1
 Ene=      -0.3778
 Spin= Alpha
 Occup=    1.000000
1 -0.000000000000000
2 0.000000000000001
3 0.000000000000003
4 0.000000000000001
5 0.0
6 0.58939035697878
7 0.000000000000001
8 0.0
9 0.53905562273724
10 0.000000000000000
11 -0.000000000000002
12 -0.000000000000000
13 -0.000000000000001
14 -0.000000000000000
15 -0.000000000000001
 Sym=      5.1
 Ene=       0.2507
 Spin= Alpha
 Occup=    0.000000
1 0.14857761599795
2 -0.15444353282768
3 -2.34154934820581
4 0.000007993913358
5 0.0
6 0.000000000000000
7 0.000003818349261
8 0.0
9 0.000000000000001
10 0.042385660609716
11 1.14283043433192
12 0.042400876105159
13 1.14291891360245
14 0.042400876105159
15 1.14291891360245
 Sym=      6.1
 Ene=       0.3270
 Spin= Alpha
 Occup=    0.000000
1 0.000005477121182
2 -0.000004739806113
3 -0.000142064452317
4 -0.31860250558623
5 0.0
6 -0.000000000000001
7 -1.59351307802865
8 0.0
9 0.000000000000001
10 0.047495251916030
11 2.00731832409330
12 -0.023760913405660
13 -1.00353624940070
14 -0.023760913405660
15 -1.00353624940070
 Sym=      2.2
 Ene=       0.3270
 Spin= Alpha
 Occup=    0.000000
1 0.0
2 0.0
3 0.0
4 0.0
5 0.31860955087004
6 0.0
7 0.0
8 1.59365910431428
9 0.0
10 0.0
11 0.0
12 0.041113090961367
13 1.73844353846727
14 -0.041113090961367
15 -1.73844353846727
 Sym=      7.1
 Ene=       0.7481
 Spin= Alpha
 Occup=    0.000000
1 -0.000000000000000
2 -0.000000000000001
3 0.000000000000002
4 -0.000000000000081
5 0.0
6 -1.06455006385375
7 0.000000000000181
8 0.0
9 1.09090185944747
10 -0.000000000000053
11 -0.000000000000050
12 0.000000000000027
13 0.000000000000024
14 0.000000000000027
15 0.000000000000024
 Sym=      8.1
 Ene=       0.7557
 Spin= Alpha
 Occup=    0.000000
1 0.000000583288541
2 0.000110543739483
3 -0.000120311877330
4 -0.77702482848881
5 0.0
6 0.000000000000111
7 1.72446919457535
8 0.0
9 -0.000000000000114
10 -0.50728683715873
11 -0.45550421679367
12 0.25371766756610
13 0.22770867644737
14 0.25371766756610
15 0.22770867644737
 Sym=      3.2
 Ene=       0.7557
 Spin= Alpha
 Occup=    0.000000
1 0.0
2 0.0
3 0.0
4 0.0
5 -0.77704128987861
6 0.0
7 0.0
8 1.72480920193146
9 0.0
10 0.0
11 0.0
12 0.43936135696859
13 0.39474897648809
14 -0.43936135696859
15 -0.39474897648809
 Sym=      9.1
 Ene=       0.9323
 Spin= Alpha
 Occup=    0.000000
1 0.060775999989643
2 1.11798656298403
3 -2.31676463090570
4 0.000110460991093
5 0.0
6 -0.000000000000000
7 -0.000360094126367
8 0.0
9 0.000000000000000
10 0.60326804437042
11 0.20574000280548
12 0.60324289400560
13 0.20540748567856
14 0.60324289400560
15 0.20540748567856
 Sym=     10.1
 Ene=       1.2143
 Spin= Alpha
 Occup=    0.000000
1 -0.057993601852083
2 1.78939610958957
3 -3.23834731673856
4 -0.000165761181579
5 0.0
6 -0.000000000000000
7 0.000145331225635
8 0.0
9 0.000000000000000
10 -0.47865419611775
11 1.08635163376711
12 -0.47898216575835
13 1.08679834963471
14 -0.47898216575835
15 1.08679834963471
 Sym=     11.1
 Ene=       1.2456
 Spin= Alpha
 Occup=    0.000000
1 0.000014984180134
2 -0.000327485227456
3 0.000575317911320
4 -0.90048822505550
5 0.0
6 -0.000000000000000
7 0.99584832376494
8 0.0
9 0.000000000000000
10 0.99235593329742
11 -1.43711503086957
12 -0.49598052320766
13 0.71822949650792
14 -0.49598052320766
15 0.71822949650792
 Sym=      4.2
 Ene=       1.2456
 Spin= Alpha
 Occup=    0.000000
1 0.0
2 0.0
3 0.0
4 0.0
5 0.90049297242400
6 0.0
7 0.0
8 -0.99579260713105
9 0.0
10 0.0
11 0.0
12 0.85931063647388
13 -1.24433030630441
14 -0.85931063647388
15 1.24433030630441
