
 Primary working directories    : /data/scratch
 Secondary working directories  : /data/scratch
 Wavefunction directory         : /home/ospite/wfu/
 Main file repository           : /data/scratch/

 ARCHNAME  : Linux/x86_64
 FC        : /usr/bin/gfortran
 FCVERSION : 4.8.5
 BLASLIB   : 
 id        : polimi

 Nodes     nprocs
 molmod       1

 Using default tuning parameters: mindgm=1; mindgv=20; mindgc=4; mindgr=1; noblas=0; mincuda=1000; minvec=7
 default implementation of scratch files=df  

 ***,methane with imposed symmetry and aug-cc-pVDZ basis set
 memory,100,m
 
 basis=aug-cc-pVDZ
 symmetry,y
 
 geometry={angstrom
 C
 H1, C, d
 H2, C, d, H1, a
 H3, C, d, H1, a, H2, t
 H4, C, d, H1, a, H2, -t
 }
 
 d=1.09 Ang
 a=109.47 Deg
 t=120.0 Deg
 
 hf
 mp2
 optg
 frequencies
 put,molden,ch4_aug-ccpVDZ.molpro

 Variables initialized (661), CPU time= 0.01 sec
 Commands  initialized (458), CPU time= 0.05 sec, 486 directives.
 Default parameters read. Elapsed time= 0.18 sec

 Checking input...
 Passed
1


                                         ***  PROGRAM SYSTEM MOLPRO  ***
                         Copyright, University College Cardiff Consultants Limited, 2008

                                    Version 2010.1 linked Mar  6 2018 16:01:50


 **********************************************************************************************************************************
 LABEL *   methane with imposed symmetry and aug-cc-pVDZ basis set                       
 Linux-3.10.0-1160.108.1.el7.x86_64/molmod(x86_64) 64 bit serial version                 DATE: 17-Aug-24          TIME: 17:25:31  
 **********************************************************************************************************************************

 SHA1:             d90fb18d49a3be29a79769f900c595ef3b8176e2
 **********************************************************************************************************************************

 Variable memory set to  100000000 words,  buffer space   230000 words

 SETTING BASIS          =    AUG-CC-PVDZ
 ZSYMEL=Y  

 SETTING D              =         1.09000000  ANG                             
 SETTING A              =       109.47000000  DEG                             
 SETTING T              =       120.00000000  DEG                             


 Recomputing integrals since basis changed


 Using spherical harmonics

 Library entry C      S aug-cc-pVDZ          selected for orbital group  1
 Library entry C      P aug-cc-pVDZ          selected for orbital group  1
 Library entry C      D aug-cc-pVDZ          selected for orbital group  1
 Library entry H      S aug-cc-pVDZ          selected for orbital group  2
 Library entry H      P aug-cc-pVDZ          selected for orbital group  2

1PROGRAM * SEWARD (Integral evaluation for generally contracted gaussian basis sets)     Author: Roland Lindh, 1990

 Geometry written to block  1 of record 700

 Orientation using atomic masses  
 Molecule type: Symmetric top,     Order of principal axis = 3
 User-specified symmetry elements: Y
 Symmetry elements: Y
 Rotational constants:     158.2574080    158.2574080    158.2538321 GHz  (calculated with average atomic masses)

 Point group  Cs  



 ATOMIC COORDINATES

 NR  ATOM    CHARGE       X              Y              Z

   1  C       6.00   -0.000000000    0.000000000   -0.000007798
   2  H1      1.00   -0.000000000    0.000000000    2.059793685
   3  H2      1.00    1.942014089    0.000000000   -0.686566920
   4  H3      1.00   -0.971007045   -1.681833536   -0.686566920
   5  H4      1.00   -0.971007045    1.681833536   -0.686566920

 Bond lengths in Bohr (Angstrom)

 1-2  2.059801483  1-3  2.059801483  1-4  2.059801483  1-5  2.059801483
     ( 1.090000000)     ( 1.090000000)     ( 1.090000000)     ( 1.090000000)

 Bond angles

  2-1-3  109.47000000   2-1-4  109.47000000   2-1-5  109.47000000   3-1-4  109.47244124

  3-1-5  109.47244124   4-1-5  109.47244124

 NUCLEAR CHARGE:                   10
 NUMBER OF PRIMITIVE AOS:          81
 NUMBER OF SYMMETRY AOS:           79
 NUMBER OF CONTRACTIONS:           59   (  39A'  +  20A"  )
 NUMBER OF CORE ORBITALS:           1   (   1A'  +   0A"  )
 NUMBER OF VALENCE ORBITALS:        8   (   6A'  +   2A"  )


 NUCLEAR REPULSION ENERGY   13.43538921


 Eigenvalues of metric

         1 0.834E-03 0.834E-03 0.985E-03 0.744E-02 0.755E-02 0.755E-02 0.191E-01 0.201E-01
         2 0.834E-03 0.755E-02 0.191E-01 0.201E-01 0.497E-01 0.823E-01 0.147E+00 0.148E+00


 Contracted 2-electron integrals neglected if value below      1.0D-11
 AO integral compression algorithm  1   Integral accuracy      1.0D-11

     5.505 MB (compressed) written to integral file ( 57.4%)


 NUMBER OF SORTED TWO-ELECTRON INTEGRALS:     818145.     BUFFER LENGTH:  32768
 NUMBER OF SEGMENTS:   1  SEGMENT LENGTH:     818145      RECORD LENGTH: 524288

 Memory used in sort:       1.38 MW

 SORT1 READ     1152246. AND WROTE      754747. INTEGRALS IN      3 RECORDS. CPU TIME:     0.04 SEC, REAL TIME:     0.05 SEC
 SORT2 READ      754747. AND WROTE      818145. INTEGRALS IN     21 RECORDS. CPU TIME:     0.23 SEC, REAL TIME:     0.25 SEC

 FILE SIZES:   FILE 1:     8.2 MBYTE,  FILE 4:    12.6 MBYTE,   TOTAL:     20.8 MBYTE

 OPERATOR DM      FOR CENTER  0  COORDINATES:    0.000000    0.000000    0.000000


 **********************************************************************************************************************************
 DATASETS  * FILE   NREC   LENGTH (MB)   RECORD NAMES
              1      19        6.51       500      610      700      900      950      970     1000      129      960     1100   
                                          VAR    BASINP    GEOM    SYMINP    ZMAT    AOBASIS   BASIS     P2S    ABASIS      S 
                                         1400     1410     1200     1210     1080     1600     1650     1300     1700   
                                           T        V       H0       H01     AOSYM     SMH    MOLCAS    ERIS     OPER   

 PROGRAMS   *        TOTAL       INT
 CPU TIMES  *         1.08      0.60
 REAL TIME  *         1.32 SEC
 DISK USED  *        21.33 MB      
 **********************************************************************************************************************************

1PROGRAM * RHF-SCF (CLOSED SHELL)       Authors: W. Meyer, H.-J. Werner


 NUMBER OF ELECTRONS:       5+    5-
 CONVERGENCE THRESHOLDS:    1.00E-06 (Density)    1.00E-07 (Energy)
 MAX. NUMBER OF ITERATIONS:       60
 INTERPOLATION TYPE:            DIIS
 INTERPOLATION STEPS:              2 (START)      1 (STEP)
 LEVEL SHIFTS:                  0.00 (CLOSED)  0.00 (OPEN) 



 Orbital guess generated from atomic densities. Full valence occupancy:    7   2

 Molecular orbital dump at record        2100.2

 Initial alpha occupancy:   4   1
 Initial beta  occupancy:   4   1
 Wave function symmetry:    1

 ITERATION    DDIFF          GRAD             ENERGY        2-EL.EN.            DIPOLE MOMENTS         DIIS
    1      0.000D+00      0.000D+00       -40.18162425     52.892907   -0.00000    0.00000    0.00002    0
    2      0.000D+00      0.690D-02       -40.19736807     51.759752    0.00000    0.00000    0.00001    1
    3      0.150D-01      0.257D-02       -40.19933726     52.169028    0.00000    0.00000    0.00001    2
    4      0.474D-02      0.695D-03       -40.19962769     52.105840    0.00000    0.00000    0.00001    3
    5      0.159D-02      0.864D-04       -40.19963214     52.109272    0.00000    0.00000    0.00001    4
    6      0.152D-03      0.561D-05       -40.19963217     52.109172    0.00000    0.00000    0.00001    5
    7      0.193D-04      0.388D-06       -40.19963217     52.109162    0.00000    0.00000    0.00001    5
    8      0.248D-05      0.539D-07       -40.19963217     52.109162    0.00000    0.00000    0.00001    4
    9      0.504D-06      0.844D-08       -40.19963217     52.109162    0.00000    0.00000    0.00001    0

 Final occupancy:   4   1

 !RHF STATE 1.1 Energy                -40.199632167381
 Nuclear energy                        13.43538921
 One-electron energy                  -79.68960241
 Two-electron energy                   26.05458104
 Virial quotient                       -1.00209497
 !RHF STATE 1.1 Dipole moment           0.00000000     0.00000000     0.00000710
 Dipole moment /Debye                   0.00000000     0.00000000     0.00001804

 Orbital energies:

         1.1          2.1          3.1          4.1          5.1          6.1
    -11.215827    -0.943321    -0.543693    -0.543686     0.036980     0.063705

         1.2          2.2          3.2
     -0.543693     0.063705     0.146187


 **********************************************************************************************************************************
 DATASETS  * FILE   NREC   LENGTH (MB)   RECORD NAMES
              1      19        6.51       500      610      700      900      950      970     1000      129      960     1100   
                                          VAR    BASINP    GEOM    SYMINP    ZMAT    AOBASIS   BASIS     P2S    ABASIS      S 
                                         1400     1410     1200     1210     1080     1600     1650     1300     1700   
                                           T        V       H0       H01     AOSYM     SMH    MOLCAS    ERIS     OPER   

              2       3        0.33       700     1000     2100   
                                         GEOM     BASIS     RHF  

 PROGRAMS   *        TOTAL        HF       INT
 CPU TIMES  *         1.31      0.23      0.60
 REAL TIME  *         1.59 SEC
 DISK USED  *        21.33 MB      
 **********************************************************************************************************************************


1PROGRAM * MP2 (Closed-shell)     Authors: C. Hampel, H.-J. Werner, 1991, M. Deegan, P.J. Knowles, 1992


 Convergence thresholds:  THRVAR = 1.00D-12  THRDEN = 1.00D-08

 Number of core orbitals:           1 (   1   0 )
 Number of closed-shell orbitals:   4 (   3   1 )
 Number of external orbitals:      54 (  35  19 )

 Molecular orbitals read from record     2100.2  Type=RHF/CANONICAL (state 1.1)

 Number of N-1 electron functions:               4
 Number of N-2 electron functions:              10
 Number of singly external CSFs:               124
 Number of doubly external CSFs:             12028
 Total number of CSFs:                       12153

 Length of J-op  integral file:               0.00 MB
 Length of K-op  integral file:               0.16 MB

 Integral transformation finished. Total CPU:   0.03 sec, npass=  1  Memory used:   0.10 MW

 Memory needed for MP2:                      0.01 MW

 SCS-MP2 correlation energy:           -0.173887787228   (PS=  1.200000  PT=  0.333333)
 SCS-MP2 total energy:                -40.373519954609


  Reference energy                    -40.199632167381
  MP2 singlet pair energy              -0.120121357447
  MP2 triplet pair energy              -0.047799897255
  MP2 correlation energy               -0.167921254701

 !MP2 total energy                    -40.367553422082

 KEXT needed  1 integral passes. Memory used:   0.11 MW  CPU time:      0.07 sec


 Starting Coupled-perturbed Hartree-Fock, convergence threshold= 1.0D-06

 ITER   MIC  DIIS      VAR         VARC       CPU
   1     0     1    0.21D-01    0.91D-03     0.02
   2     4     2    0.28D-03    0.64D-04     0.04
   3     3     3    0.18D-05    0.56D-06     0.06
   4     1     4    0.35D-06    0.17D-07     0.08

 CPHF convergence reached in  4 macroiterations and    8 microiterations.   Accuracy: 3.4633D-07

 CPHF solution written to record  4101.2

 Dipole moments (unrelaxed):            0.00000000     0.00000000     0.00000712
 Orbital relaxation contribution:      -0.00000000    -0.00000000     0.00000021
 !MP2 dipole moments:                   0.00000000     0.00000000     0.00000733

 CPU-time for density and lagrangian:                  0.03 sec
 CPU-time for coupled-perturbed hartree-fock:          0.08 sec

 MP2 Gradient info saved on record         5200.1


 **********************************************************************************************************************************
 DATASETS  * FILE   NREC   LENGTH (MB)   RECORD NAMES
              1      21        6.93       500      610      700      900      950      970     1000      129      960     1100   
                                          VAR    BASINP    GEOM    SYMINP    ZMAT    AOBASIS   BASIS     P2S    ABASIS      S 
                                         1400     1410     1200     1210     1080     1600     1650     1300     1700     1380   
                                           T        V       H0       H01     AOSYM     SMH    MOLCAS    ERIS     OPER     JKOP   
                                         5200   
                                          MP2  

              2       5        0.42       700     1000     2100     4100     4101   
                                         GEOM     BASIS     RHF     CPHF     CPHF   

 PROGRAMS   *        TOTAL       MP2        HF       INT
 CPU TIMES  *         1.73      0.41      0.23      0.60
 REAL TIME  *         2.06 SEC
 DISK USED  *        21.33 MB      
 **********************************************************************************************************************************


 PROGRAM * OPT (Geometry optimization)     Authors: F. Eckert and H.-J. Werner


 BFGS update of hessian

 *** Long output written to logfile /home/ospite/Desktop/MMfP/Project6/CH4/molpro/MP2/ch4_aug-ccpVDZ.log ***


 Geometry optimization using default procedure for command MP2

 Geometry written to block  1 of record 700

 Making model hessian for Z-matrix coordinates

 Quadratic Steepest Descent - Minimum Search

 Optimization point 1

 Variable                      Last           Current        Next           Gradient       Hessian

 E(MP2) / Hartree            0.00000000   -40.36755342     0.00000000
 D / ANG                     0.00000000     1.09000000     1.09621547    -0.04271534     6.87242182
 A / DEG                     0.00000000   109.47000000   109.47116351    -0.00000027     0.00023257
 T / DEG                     0.00000000   120.00000000   119.99999998     0.00000000     0.00014996
 Convergence:                0.00000000  (line search)     0.01174556     0.02260399  (total)

 Optimization point 2

 Variable                      Last           Current        Next           Gradient       Hessian

 E(MP2) / Hartree          -40.36755342   -40.36771673     0.00000000
 D / ANG                     1.09000000     1.09621547     1.09812218    -0.01002759     5.25909539
 A / DEG                   109.47000000   109.47116351   109.47122414    -0.00000001     0.00022473
 T / DEG                   120.00000000   119.99999998   120.00000007    -0.00000000     0.00014473
 Convergence:                0.00000000  (line search)     0.00360317     0.00530637  (total)

 Optimization point 3

 Variable                      Last           Current        Next           Gradient       Hessian

 E(MP2) / Hartree          -40.36771673   -40.36772650     0.00000000
 D / ANG                     1.09621547     1.09812218     1.09816617    -0.00022613     5.14049796
 A / DEG                   109.47116351   109.47122414   109.47122136     0.00000000     0.00022238
 T / DEG                   119.99999998   120.00000007   120.00000116    -0.00000000     0.00014316
 Convergence:                0.00000000  (line search)     0.00008313     0.00011966  (total)

 END OF GEOMETRY OPTIMIZATION.    TOTAL CPU:         8.4 SEC

 ITER.   ENERGY(OLD)    ENERGY(NEW)      DE          GRADMAX     GRADNORM    GRADRMS     STEPMAX     STEPLEN     STEPRMS
   1   -40.36755342   -40.36771673    -0.00016331  0.02260399  0.02260399  0.00753466  0.01174554  0.01174556  0.00391519
   2   -40.36771673   -40.36772650    -0.00000977  0.00530637  0.00530637  0.00176879  0.00360317  0.00360317  0.00120106
   3   -40.36772650   -40.36772651    -0.00000000  0.00011966  0.00011966  0.00003989  0.00008313  0.00008313  0.00002771

 Geometry written to block  1 of record 700


 **********************************************************************************************************************************
 DATASETS  * FILE   NREC   LENGTH (MB)   RECORD NAMES
              1      21        6.84       500      610      700      900      950      970     1000      129      960     1100   
                                          VAR    BASINP    GEOM    SYMINP    ZMAT    AOBASIS   BASIS     P2S    ABASIS      S 
                                         1400     1410     1200     1210     1080     1600     1650     1300     1700     1380   
                                           T        V       H0       H01     AOSYM     SMH    MOLCAS    ERIS     OPER     JKOP   
                                         5200   
                                          MP2  

              2       6        0.43       700     1000     2100     4100     4101     9001   
                                         GEOM     BASIS     RHF     CPHF     CPHF    DEN_MP2    

 PROGRAMS   *        TOTAL      OPTG       MP2        HF       INT
 CPU TIMES  *        10.16      8.41      0.41      0.23      0.60
 REAL TIME  *        11.58 SEC
 DISK USED  *        21.50 MB      
 **********************************************************************************************************************************


 PROGRAM * HESSIAN

 Computing numerical hessian using default procedure for command MP2

 Symmetry elements for unique displacements: Y  Z  

 Using no symmetry in wavefunction calculations

 Running default procedure: HF-SCF000  MP2


 Numerically approximating hessian using central gradient differences

 Task list generated. Total number of displacements:     14

    5 tasks completed, CPU=    20.07 sec, Elapsed=    20.98 sec
   10 tasks completed, CPU=    39.94 sec, Elapsed=    41.86 sec

 Numerical MP2 hessian completed. CPU-time:    55.67 sec, Elapsed:    58.25 sec

 MP2 hessian saved to record  5300.2

 FREQUENCIES * CALCULATION OF HARMONIC VIBRATIONAL SPECTRA FOR MP2


 Permanent Dipole Moment [debye]
   1-  3   -0.000000    0.000000   -0.000000

 Dipole Moment Norm    0.0000000 [debye]

 Dipole Moment Derivatives [debye/ang]
                   1             2             3             4             5             6             7             8
         1     0.0715340     0.0000000     0.0000000    -0.0179263     0.0000000    -0.4139095    -0.0179263     0.0000000
         2    -0.0000000     0.0714768     0.0000000    -0.0000000     0.2747837     0.0000000    -0.0000000     0.2747837
         3    -0.0000001     0.0000000     0.0714763    -0.4139669     0.0000000    -0.3106199     0.4139669    -0.0000000
                   9            10            11            12            13            14            15
         1     0.4139095    -0.0179258    -0.4139096     0.0000000    -0.0179258     0.4139096     0.0000000
         2    -0.0000000    -0.4139661    -0.3106201     0.0000000     0.4139661    -0.3106201    -0.0000000
         3    -0.3106199     0.0000001     0.0000000     0.2747829     0.0000001    -0.0000000     0.2747829

 Projecting out rotations and translations

   Low Vibration      Wavenumber
        Nr             [1/cm] 
        1                0.00
        2                0.00
        3                0.00
        4                0.00
        5                0.00
        6                0.00

     Vibration        Wavenumber
        Nr             [1/cm] 
        1             1323.51
        2             1323.64
        3             1323.64
        4             1550.56
        5             1550.68
        6             3063.01
        7             3206.53
        8             3206.53
        9             3206.54

 FREQUENCIES * CALCULATION OF NORMAL MODES FOR MP2


 Atomic Coordinates

  Nr  Atom  Charge       X              Y              Z

   1   C     6.00    0.000000006    0.000000000    0.000000001
   2   H1    1.00    1.198136511    0.000000000    1.694420915
   3   H2    1.00    1.198136508    0.000000000   -1.694420915
   4   H3    1.00   -1.198136547   -1.694420880   -0.000000008
   5   H4    1.00   -1.198136547    1.694420880   -0.000000008

 Frequencies dumped to record   5400.2

 Gradient norm at reference geometry: 0.22613D-03

 Normal Modes

                              1 A`        2 A`        3 A``       4 A`        5 A``
 Wavenumbers [cm-1]         1323.51     1323.64     1323.64     1550.56     1550.68
 Intensities [km/mol]          9.24        9.24        9.24        0.00        0.00
 Intensities [relative]       47.20       47.22       47.22        0.00        0.00
           CX1              0.11498     0.00001    -0.00000     0.00000     0.00000
           CY1             -0.00000    -0.00000    -0.11498    -0.00000    -0.00000
           CZ1              0.00001    -0.11498     0.00000    -0.00000     0.00000
           H1X2            -0.34252    -0.30222     0.00000     0.40664     0.00000
           H1Y2             0.00000     0.00000     0.55621     0.00000     0.49803
           H1Z2             0.30218     0.12886    -0.00000    -0.28753    -0.00000
           H2X3            -0.34255     0.30218     0.00000     0.40664    -0.00000
           H2Y3             0.00000     0.00000     0.55621     0.00000    -0.49803
           H2Z3            -0.30219     0.12882     0.00000     0.28753    -0.00000
           H3X4            -0.34254    -0.00002    -0.30219    -0.40664    -0.00000
           H3Y4             0.30219     0.00002     0.12884     0.28753     0.00000
           H3Z4            -0.00003     0.55621    -0.00000     0.00000    -0.49803
           H4X5            -0.34253    -0.00002     0.30220    -0.40664     0.00000
           H4Y5            -0.30218    -0.00002     0.12884    -0.28753     0.00000
           H4Z5            -0.00003     0.55621    -0.00000     0.00000     0.49803

                              6 A`        7 A``       8 A`        9 A` 
 Wavenumbers [cm-1]         3063.01     3206.53     3206.53     3206.54
 Intensities [km/mol]          0.00       19.57       19.57       19.57
 Intensities [relative]        0.00      100.00      100.00       99.99
           CX1              0.00000     0.00001    -0.00003     0.08777
           CY1              0.00000    -0.08777    -0.00000     0.00001
           CZ1              0.00000     0.00000    -0.08777    -0.00003
           H1X2             0.28753    -0.00004     0.39596    -0.26133
           H1Y2             0.00000    -0.01844    -0.00000     0.00000
           H1Z2             0.40664    -0.00005     0.54154    -0.39567
           H2X3             0.28753    -0.00001    -0.39577    -0.26162
           H2Y3             0.00000    -0.01844    -0.00000     0.00000
           H2Z3            -0.40664     0.00002     0.54125     0.39607
           H3X4            -0.28753     0.39584     0.00011    -0.26151
           H3Y4            -0.40664     0.54136     0.00016    -0.39592
           H3Z4            -0.00000     0.00000    -0.01844    -0.00001
           H4X5            -0.28753    -0.39589     0.00009    -0.26143
           H4Y5             0.40664     0.54144    -0.00013     0.39582
           H4Z5            -0.00000     0.00000    -0.01844    -0.00001


 Normal Modes of low/zero frequencies

                                  1           2           3           4           5
 Wavenumbers [cm-1]            0.00        0.00        0.00        0.00        0.00
 Intensities [km/mol]          0.00        0.00        0.00        0.00        0.00
 Intensities [relative]        0.00        0.00        0.00        0.00        0.00
           CX1              0.24911     0.01047     0.00184    -0.00423    -0.00911
           CY1              0.01341    -0.05663    -0.07182     0.07620     0.06536
           CZ1              0.00493    -0.06255     0.20897    -0.06362     0.09083
           H1X2             0.26036     0.01497    -0.10490     0.09440     0.42008
           H1Y2             0.00270     0.34365     0.16155     0.46941     0.05307
           H1Z2            -0.00302    -0.06573     0.28445    -0.13336    -0.21266
           H2X3             0.23786     0.00597     0.10859    -0.10285    -0.43830
           H2Y3             0.00553     0.19712    -0.23931    -0.41254     0.20397
           H2Z3            -0.00302    -0.06573     0.28445    -0.13336    -0.21266
           H3X4             0.23596     0.47294     0.04843    -0.07178     0.08021
           H3Y4             0.02270    -0.38364    -0.10476     0.12397     0.00219
           H3Z4             0.01147     0.01390     0.33391     0.44709     0.31886
           H4X5             0.26225    -0.45200    -0.04474     0.06333    -0.09844
           H4Y5             0.02270    -0.38364    -0.10476     0.12397     0.00219
           H4Z5             0.01431    -0.13263    -0.06695    -0.43486     0.46976

                                  6
 Wavenumbers [cm-1]            0.00
 Intensities [km/mol]          0.00
 Intensities [relative]        0.00
           CX1             -0.00812
           CY1              0.20907
           CZ1              0.04932
           H1X2            -0.21441
           H1Y2             0.25888
           H1Z2             0.19519
           H2X3             0.19817
           H2Y3             0.35557
           H2Z3             0.19519
           H3X4             0.13069
           H3Y4             0.11092
           H3Z4            -0.14489
           H4X5            -0.14693
           H4Y5             0.11092
           H4Z5            -0.04820


 Zero point energy:  0.04500440 [H]     9877.32 [1/CM]      118.16 [KJ/MOL]
 Frequency information read from record  5400.2

 Dump information in style MOLDEN to ch4_aug-ccpvdz.molpro                                                           

 Molecular orbitals read from record     2101.2  Type=RHF/CANONICAL (state 1.1)
 Occupation numbers read from record     2101.2  Type=RHF/RHF (state 1.1)
 Orbital energies read from record       2101.2  Type=RHF/CANONICAL (state 1.1)
 Redundancy group numbers read from rec  2101.2  Type=RHF/RHF (state 1.1)

 DUMP ORBITAL  1.1 AS ORBITAL    1  occ=    2.0000  eig=  -11.2197  GROUP=   2
 DUMP ORBITAL  2.1 AS ORBITAL    2  occ=    2.0000  eig=   -0.9399  GROUP=   2
 DUMP ORBITAL  3.1 AS ORBITAL    3  occ=    2.0000  eig=   -0.5416  GROUP=   2
 DUMP ORBITAL  4.1 AS ORBITAL    4  occ=    2.0000  eig=   -0.5416  GROUP=   2
 DUMP ORBITAL  5.1 AS ORBITAL    5  occ=    2.0000  eig=   -0.5416  GROUP=   2

 Total charge:      10.000000
 Frequency information read from record  5400.2

 **********************************************************************************************************************************

       OPTG(MP2)        MP2             HF-SCF  
    -40.36772651    -40.36755342    -40.19963217
 **********************************************************************************************************************************
 Variable memory released
