
 Primary working directories    : /data/scratch
 Secondary working directories  : /data/scratch
 Wavefunction directory         : /home/ospite/wfu/
 Main file repository           : /data/scratch/

 ARCHNAME  : Linux/x86_64
 FC        : /usr/bin/gfortran
 FCVERSION : 4.8.5
 BLASLIB   : 
 id        : polimi

 Nodes     nprocs
 molmod       1

 Using default tuning parameters: mindgm=1; mindgv=20; mindgc=4; mindgr=1; noblas=0; mincuda=1000; minvec=7
 default implementation of scratch files=df  

 ***,methane with imposed symmetry and 6-31+G basis set
 memory,100,m
 
 basis=6-31+G
 symmetry,y
 
 geometry={angstrom
 C
 H1, C, d
 H2, C, d, H1, a
 H3, C, d, H1, a, H2, t
 H4, C, d, H1, a, H2, -t
 }
 
 d=1.09 Ang
 a=109.47 Deg
 t=120.0 Deg
 
 hf
 mp2
 optg
 frequencies
 put,molden,ch4_6-31+G.molpro

 Variables initialized (661), CPU time= 0.01 sec
 Commands  initialized (458), CPU time= 0.05 sec, 486 directives.
 Default parameters read. Elapsed time= 0.17 sec

 Checking input...
 Passed
1


                                         ***  PROGRAM SYSTEM MOLPRO  ***
                         Copyright, University College Cardiff Consultants Limited, 2008

                                    Version 2010.1 linked Mar  6 2018 16:01:50


 **********************************************************************************************************************************
 LABEL *   methane with imposed symmetry and 6-31+G basis set                            
 Linux-3.10.0-1160.108.1.el7.x86_64/molmod(x86_64) 64 bit serial version                 DATE: 17-Aug-24          TIME: 17:19:23  
 **********************************************************************************************************************************

 SHA1:             d90fb18d49a3be29a79769f900c595ef3b8176e2
 **********************************************************************************************************************************

 Variable memory set to  100000000 words,  buffer space   230000 words

 SETTING BASIS          =    6-31+G
 ZSYMEL=Y  

 SETTING D              =         1.09000000  ANG                             
 SETTING A              =       109.47000000  DEG                             
 SETTING T              =       120.00000000  DEG                             


 Recomputing integrals since basis changed


 Using spherical harmonics

 Library entry C      S 6-31G                selected for orbital group  1
 Library entry C      S 6-31++G              selected for orbital group  1
 Library entry C      P 6-31G                selected for orbital group  1
 Library entry C      P 6-31++G              selected for orbital group  1
 Library entry H      S 6-31G                selected for orbital group  2

1PROGRAM * SEWARD (Integral evaluation for generally contracted gaussian basis sets)     Author: Roland Lindh, 1990

 Geometry written to block  1 of record 700

 Orientation using atomic masses  
 Molecule type: Symmetric top,     Order of principal axis = 3
 User-specified symmetry elements: Y
 Symmetry elements: Y
 Rotational constants:     158.2574080    158.2574080    158.2538321 GHz  (calculated with average atomic masses)

 Point group  Cs  



 ATOMIC COORDINATES

 NR  ATOM    CHARGE       X              Y              Z

   1  C       6.00   -0.000000000    0.000000000   -0.000007798
   2  H1      1.00   -0.000000000    0.000000000    2.059793685
   3  H2      1.00    1.942014089    0.000000000   -0.686566920
   4  H3      1.00   -0.971007045   -1.681833536   -0.686566920
   5  H4      1.00   -0.971007045    1.681833536   -0.686566920

 Bond lengths in Bohr (Angstrom)

 1-2  2.059801483  1-3  2.059801483  1-4  2.059801483  1-5  2.059801483
     ( 1.090000000)     ( 1.090000000)     ( 1.090000000)     ( 1.090000000)

 Bond angles

  2-1-3  109.47000000   2-1-4  109.47000000   2-1-5  109.47000000   3-1-4  109.47244124

  3-1-5  109.47244124   4-1-5  109.47244124

 NUCLEAR CHARGE:                   10
 NUMBER OF PRIMITIVE AOS:          42
 NUMBER OF SYMMETRY AOS:           42
 NUMBER OF CONTRACTIONS:           21   (  16A'  +   5A"  )
 NUMBER OF CORE ORBITALS:           1   (   1A'  +   0A"  )
 NUMBER OF VALENCE ORBITALS:        8   (   6A'  +   2A"  )


 NUCLEAR REPULSION ENERGY   13.43538921


 Eigenvalues of metric

         1 0.140E-01 0.696E-01 0.696E-01 0.117E+00 0.239E+00 0.239E+00 0.454E+00 0.573E+00
         2 0.696E-01 0.239E+00 0.573E+00 0.903E+00 0.280E+01


 Contracted 2-electron integrals neglected if value below      1.0D-11
 AO integral compression algorithm  1   Integral accuracy      1.0D-11

     0.262 MB (compressed) written to integral file (100.0%)


 NUMBER OF SORTED TWO-ELECTRON INTEGRALS:      15556.     BUFFER LENGTH:  32768
 NUMBER OF SEGMENTS:   1  SEGMENT LENGTH:      15556      RECORD LENGTH: 524288

 Memory used in sort:       0.57 MW

 SORT1 READ       23955. AND WROTE       13105. INTEGRALS IN      1 RECORDS. CPU TIME:     0.00 SEC, REAL TIME:     0.01 SEC
 SORT2 READ       13105. AND WROTE       15556. INTEGRALS IN      1 RECORDS. CPU TIME:     0.03 SEC, REAL TIME:     0.04 SEC

 FILE SIZES:   FILE 1:     2.9 MBYTE,  FILE 4:     4.2 MBYTE,   TOTAL:      7.1 MBYTE

 OPERATOR DM      FOR CENTER  0  COORDINATES:    0.000000    0.000000    0.000000


 **********************************************************************************************************************************
 DATASETS  * FILE   NREC   LENGTH (MB)   RECORD NAMES
              1      19        2.68       500      610      700      900      950      970     1000      129      960     1100   
                                          VAR    BASINP    GEOM    SYMINP    ZMAT    AOBASIS   BASIS     P2S    ABASIS      S 
                                         1400     1410     1200     1210     1080     1600     1650     1300     1700   
                                           T        V       H0       H01     AOSYM     SMH    MOLCAS    ERIS     OPER   

 PROGRAMS   *        TOTAL       INT
 CPU TIMES  *         0.64      0.16
 REAL TIME  *         0.84 SEC
 DISK USED  *         7.60 MB      
 **********************************************************************************************************************************

1PROGRAM * RHF-SCF (CLOSED SHELL)       Authors: W. Meyer, H.-J. Werner


 NUMBER OF ELECTRONS:       5+    5-
 CONVERGENCE THRESHOLDS:    1.00E-06 (Density)    1.00E-07 (Energy)
 MAX. NUMBER OF ITERATIONS:       60
 INTERPOLATION TYPE:            DIIS
 INTERPOLATION STEPS:              2 (START)      1 (STEP)
 LEVEL SHIFTS:                  0.00 (CLOSED)  0.00 (OPEN) 



 Orbital guess generated from atomic densities. Full valence occupancy:    7   2

 Molecular orbital dump at record        2100.2

 Initial alpha occupancy:   4   1
 Initial beta  occupancy:   4   1
 Wave function symmetry:    1

 ITERATION    DDIFF          GRAD             ENERGY        2-EL.EN.            DIPOLE MOMENTS         DIIS
    1      0.000D+00      0.000D+00       -40.16568985     52.929831   -0.00000    0.00000    0.00003    0
    2      0.000D+00      0.172D-01       -40.17912176     51.669631   -0.00000    0.00000    0.00001    1
    3      0.158D-01      0.643D-02       -40.18087288     52.106290   -0.00000    0.00000    0.00001    2
    4      0.458D-02      0.133D-02       -40.18103037     52.058036   -0.00000    0.00000    0.00001    3
    5      0.252D-02      0.165D-03       -40.18103264     52.060614   -0.00000    0.00000    0.00001    4
    6      0.487D-03      0.367D-05       -40.18103264     52.060584   -0.00000    0.00000    0.00001    5
    7      0.958D-05      0.658D-06       -40.18103264     52.060584   -0.00000    0.00000    0.00001    4
    8      0.117D-05      0.427D-07       -40.18103264     52.060586   -0.00000    0.00000    0.00001    4
    9      0.899D-07      0.449D-08       -40.18103264     52.060586   -0.00000    0.00000    0.00001    0

 Final occupancy:   4   1

 !RHF STATE 1.1 Energy                -40.181032642324
 Nuclear energy                        13.43538921
 One-electron energy                  -79.64671463
 Two-electron energy                   26.03029278
 Virial quotient                       -0.99942879
 !RHF STATE 1.1 Dipole moment          -0.00000000     0.00000000     0.00001128
 Dipole moment /Debye                  -0.00000000     0.00000000     0.00002866

 Orbital energies:

         1.1          2.1          3.1          4.1          5.1          6.1
    -11.209784    -0.948222    -0.545022    -0.545015     0.093102     0.122811

         1.2          2.2          3.2
     -0.545022     0.122811     0.330033


 **********************************************************************************************************************************
 DATASETS  * FILE   NREC   LENGTH (MB)   RECORD NAMES
              1      19        2.68       500      610      700      900      950      970     1000      129      960     1100   
                                          VAR    BASINP    GEOM    SYMINP    ZMAT    AOBASIS   BASIS     P2S    ABASIS      S 
                                         1400     1410     1200     1210     1080     1600     1650     1300     1700   
                                           T        V       H0       H01     AOSYM     SMH    MOLCAS    ERIS     OPER   

              2       3        0.30       700     1000     2100   
                                         GEOM     BASIS     RHF  

 PROGRAMS   *        TOTAL        HF       INT
 CPU TIMES  *         0.71      0.07      0.16
 REAL TIME  *         0.92 SEC
 DISK USED  *         7.60 MB      
 **********************************************************************************************************************************


1PROGRAM * MP2 (Closed-shell)     Authors: C. Hampel, H.-J. Werner, 1991, M. Deegan, P.J. Knowles, 1992


 Convergence thresholds:  THRVAR = 1.00D-12  THRDEN = 1.00D-08

 Number of core orbitals:           1 (   1   0 )
 Number of closed-shell orbitals:   4 (   3   1 )
 Number of external orbitals:      16 (  12   4 )

 Molecular orbitals read from record     2100.2  Type=RHF/CANONICAL (state 1.1)

 Number of N-1 electron functions:               4
 Number of N-2 electron functions:              10
 Number of singly external CSFs:                40
 Number of doubly external CSFs:              1120
 Total number of CSFs:                        1161

 Length of J-op  integral file:               0.00 MB
 Length of K-op  integral file:               0.05 MB

 Integral transformation finished. Total CPU:   0.00 sec, npass=  1  Memory used:   0.07 MW

 Memory needed for MP2:                      0.00 MW

 SCS-MP2 correlation energy:           -0.105352398188   (PS=  1.200000  PT=  0.333333)
 SCS-MP2 total energy:                -40.286385040512


  Reference energy                    -40.181032642324
  MP2 singlet pair energy              -0.075003084969
  MP2 triplet pair energy              -0.024667547506
  MP2 correlation energy               -0.099670632474

 !MP2 total energy                    -40.280703274799

 KEXT needed  1 integral passes. Memory used:   0.04 MW  CPU time:      0.00 sec


 Starting Coupled-perturbed Hartree-Fock, convergence threshold= 1.0D-06

 ITER   MIC  DIIS      VAR         VARC       CPU
   1     0     1    0.16D-01    0.95D-03     0.00
   2     3     2    0.36D-03    0.29D-04     0.00
   3     3     3    0.69D-06    0.15D-06     0.00

 CPHF convergence reached in  3 macroiterations and    6 microiterations.   Accuracy: 6.8641D-07

 CPHF solution written to record  4101.2

 Dipole moments (unrelaxed):           -0.00000000     0.00000000     0.00001127
 Orbital relaxation contribution:      -0.00000000    -0.00000000     0.00000004
 !MP2 dipole moments:                  -0.00000000     0.00000000     0.00001131

 CPU-time for density and lagrangian:                  0.01 sec
 CPU-time for coupled-perturbed hartree-fock:          0.00 sec

 MP2 Gradient info saved on record         5200.1


 **********************************************************************************************************************************
 DATASETS  * FILE   NREC   LENGTH (MB)   RECORD NAMES
              1      21        2.74       500      610      700      900      950      970     1000      129      960     1100   
                                          VAR    BASINP    GEOM    SYMINP    ZMAT    AOBASIS   BASIS     P2S    ABASIS      S 
                                         1400     1410     1200     1210     1080     1600     1650     1300     1700     1380   
                                           T        V       H0       H01     AOSYM     SMH    MOLCAS    ERIS     OPER     JKOP   
                                         5200   
                                          MP2  

              2       5        0.32       700     1000     2100     4100     4101   
                                         GEOM     BASIS     RHF     CPHF     CPHF   

 PROGRAMS   *        TOTAL       MP2        HF       INT
 CPU TIMES  *         0.94      0.22      0.07      0.16
 REAL TIME  *         1.38 SEC
 DISK USED  *         7.60 MB      
 **********************************************************************************************************************************


 PROGRAM * OPT (Geometry optimization)     Authors: F. Eckert and H.-J. Werner


 BFGS update of hessian

 *** Long output written to logfile /home/ospite/Desktop/MMfP/Project6/CH4/molpro/MP2/ch4_+.log ***


 Geometry optimization using default procedure for command MP2

 Geometry written to block  1 of record 700

 Making model hessian for Z-matrix coordinates

 Quadratic Steepest Descent - Minimum Search

 Optimization point 1

 Variable                      Last           Current        Next           Gradient       Hessian

 E(MP2) / Hartree            0.00000000   -40.28070327     0.00000000
 D / ANG                     0.00000000     1.09000000     1.09460001    -0.03161319     6.87242182
 A / DEG                     0.00000000   109.47000000   109.47135906    -0.00000032     0.00023257
 T / DEG                     0.00000000   120.00000000   120.00000000     0.00000000     0.00014996
 Convergence:                0.00000000  (line search)     0.00869279     0.01672899  (total)

 Optimization point 2

 Variable                      Last           Current        Next           Gradient       Hessian

 E(MP2) / Hartree          -40.28070327   -40.28079362     0.00000000
 D / ANG                     1.09000000     1.09460001     1.09609920    -0.00777058     5.18316551
 A / DEG                   109.47000000   109.47135906   109.47113904     0.00000004     0.00022675
 T / DEG                   120.00000000   120.00000000   120.00000000    -0.00000000     0.00014607
 Convergence:                0.00000000  (line search)     0.00283307     0.00411201  (total)

 Optimization point 3

 Variable                      Last           Current        Next           Gradient       Hessian

 E(MP2) / Hartree          -40.28079362   -40.28079954     0.00000000
 D / ANG                     1.09460001     1.09609920     1.09612492    -0.00013105     5.09574807
 A / DEG                   109.47135906   109.47113904   109.47123296    -0.00000002     0.00022488
 T / DEG                   120.00000000   120.00000000   120.00000000    -0.00000000     0.00014482
 Convergence:                0.00000000  (line search)     0.00004863     0.00006936  (total)

 END OF GEOMETRY OPTIMIZATION.    TOTAL CPU:         4.6 SEC

 ITER.   ENERGY(OLD)    ENERGY(NEW)      DE          GRADMAX     GRADNORM    GRADRMS     STEPMAX     STEPLEN     STEPRMS
   1   -40.28070327   -40.28079362    -0.00009035  0.01672898  0.01672899  0.00557633  0.00869275  0.00869279  0.00289760
   2   -40.28079362   -40.28079954    -0.00000592  0.00411201  0.00411201  0.00137067  0.00283307  0.00283307  0.00094436
   3   -40.28079954   -40.28079954    -0.00000000  0.00006935  0.00006936  0.00002312  0.00004860  0.00004863  0.00001621

 Geometry written to block  1 of record 700


 **********************************************************************************************************************************
 DATASETS  * FILE   NREC   LENGTH (MB)   RECORD NAMES
              1      21        2.74       500      610      700      900      950      970     1000      129      960     1100   
                                          VAR    BASINP    GEOM    SYMINP    ZMAT    AOBASIS   BASIS     P2S    ABASIS      S 
                                         1400     1410     1200     1210     1080     1600     1650     1300     1700     1380   
                                           T        V       H0       H01     AOSYM     SMH    MOLCAS    ERIS     OPER     JKOP   
                                         5200   
                                          MP2  

              2       6        0.32       700     1000     2100     4100     4101     9001   
                                         GEOM     BASIS     RHF     CPHF     CPHF    DEN_MP2    

 PROGRAMS   *        TOTAL      OPTG       MP2        HF       INT
 CPU TIMES  *         5.52      4.58      0.22      0.07      0.16
 REAL TIME  *         7.36 SEC
 DISK USED  *         7.66 MB      
 **********************************************************************************************************************************


 PROGRAM * HESSIAN

 Computing numerical hessian using default procedure for command MP2

 Symmetry elements for unique displacements: Y  

 Using no symmetry in wavefunction calculations

 Running default procedure: HF-SCF000  MP2


 Numerically approximating hessian using central gradient differences

 Task list generated. Total number of displacements:     21

    5 tasks completed, CPU=     7.89 sec, Elapsed=     9.67 sec
   10 tasks completed, CPU=    15.82 sec, Elapsed=    21.84 sec
   15 tasks completed, CPU=    23.57 sec, Elapsed=    32.20 sec
   20 tasks completed, CPU=    31.17 sec, Elapsed=    42.37 sec

 Numerical MP2 hessian completed. CPU-time:    32.74 sec, Elapsed:    44.07 sec

 MP2 hessian saved to record  5300.2

 FREQUENCIES * CALCULATION OF HARMONIC VIBRATIONAL SPECTRA FOR MP2


 Permanent Dipole Moment [debye]
   1-  3   -0.000000    0.000000   -0.000000

 Dipole Moment Norm    0.0000003 [debye]

 Dipole Moment Derivatives [debye/ang]
                   1             2             3             4             5             6             7             8
         1    -0.1311665     0.0000000    -0.0000009     0.4288445     0.0000000     0.0000541    -0.6273816     0.0000000
         2     0.0000000    -0.1311568     0.0000000     0.0000000     0.4288450    -0.0000000    -0.0000000     0.4288453
         3     0.0000260     0.0000000    -0.1311749     0.0000501     0.0000000    -0.7593879     0.3733750     0.0000000
                   9            10            11            12            13            14            15
         1     0.3733715     0.1648032    -0.4573102    -0.1867122     0.1648032     0.4573102    -0.1867122
         2     0.0000000    -0.4573248    -0.3633027    -0.3234072     0.4573248    -0.3633027     0.3234072
         3     0.2968472    -0.1867170    -0.3234058     0.2967969    -0.1867170     0.3234058     0.2967969

 Projecting out rotations and translations

   Low Vibration      Wavenumber
        Nr             [1/cm] 
        1                0.00
        2                0.00
        3                0.00
        4                0.00
        5                0.00
        6                0.00

     Vibration        Wavenumber
        Nr             [1/cm] 
        1             1431.93
        2             1431.96
        3             1431.98
        4             1595.58
        5             1595.62
        6             3051.65
        7             3180.43
        8             3180.49
        9             3180.58

 FREQUENCIES * CALCULATION OF NORMAL MODES FOR MP2


 Atomic Coordinates

  Nr  Atom  Charge       X              Y              Z

   1   C     6.00    0.000000000    0.000000000    0.000000079
   2   H1    1.00   -0.000093105    0.000000000    2.071375983
   3   H2    1.00    1.952942817    0.000000000   -0.690371195
   4   H3    1.00   -0.976424856   -1.691271216   -0.690502866
   5   H4    1.00   -0.976424856    1.691271216   -0.690502866

 Frequencies dumped to record   5400.2

 Gradient norm at reference geometry: 0.13105D-03

 Normal Modes

                              1 A`        2 A`        3 A``       4 A`        5 A``
 Wavenumbers [cm-1]         1431.93     1431.96     1431.98     1595.58     1595.62
 Intensities [km/mol]         22.34       22.35       22.35        0.00        0.00
 Intensities [relative]       73.22       73.22       73.23        0.00        0.00
           CX1             -0.08418     0.07981    -0.00000    -0.00003    -0.00000
           CY1             -0.00000    -0.00000    -0.11600     0.00000    -0.00000
           CZ1             -0.07981    -0.08418     0.00000    -0.00000    -0.00000
           H1X2             0.40334    -0.38243     0.00000     0.49818     0.00000
           H1Y2             0.00000     0.00000     0.55594    -0.00000     0.49804
           H1Z2            -0.05173    -0.05459     0.00000     0.00002     0.00000
           H2X3             0.13272     0.14745    -0.00000     0.16598     0.00000
           H2Y3             0.00000     0.00000     0.55597     0.00000    -0.49801
           H2Z3             0.47811     0.21617    -0.00000     0.46963     0.00000
           H3X4             0.23350    -0.35805    -0.24294    -0.33190     0.28755
           H3Y4            -0.29454     0.04253     0.13518     0.28745     0.00000
           H3Z4             0.26236     0.42074    -0.17178    -0.23480    -0.40663
           H4X5             0.23350    -0.35805     0.24294    -0.33190    -0.28755
           H4Y5             0.29454    -0.04253     0.13518    -0.28745     0.00000
           H4Z5             0.26236     0.42074     0.17178    -0.23480     0.40663

                              6 A`        7 A``       8 A`        9 A` 
 Wavenumbers [cm-1]         3051.65     3180.43     3180.49     3180.58
 Intensities [km/mol]          0.00       30.52       30.51       30.52
 Intensities [relative]        0.00      100.00       99.99      100.00
           CX1              0.00003    -0.00000    -0.08218     0.02672
           CY1             -0.00000    -0.08642     0.00000    -0.00000
           CZ1              0.00004    -0.00000    -0.02672    -0.08218
           H1X2            -0.00001    -0.00000    -0.02374     0.00768
           H1Y2            -0.00000    -0.02495     0.00000    -0.00000
           H1Z2             0.49764     0.00000     0.25444     0.78215
           H2X3             0.46943     0.00000     0.61037    -0.47816
           H2Y3            -0.00000    -0.02496     0.00000    -0.00000
           H2Z3            -0.16592    -0.00000    -0.23187     0.14802
           H3X4            -0.23488     0.32608     0.19634     0.07603
           H3Y4            -0.40687     0.53985     0.38122     0.11834
           H3Z4            -0.16609     0.23059     0.14792     0.02457
           H4X5            -0.23488    -0.32608     0.19634     0.07603
           H4Y5             0.40687     0.53985    -0.38122    -0.11834
           H4Z5            -0.16609    -0.23059     0.14792     0.02457


 Normal Modes of low/zero frequencies

                                  1           2           3           4           5
 Wavenumbers [cm-1]            0.00        0.00        0.00        0.00        0.00
 Intensities [km/mol]          0.00        0.00        0.00        0.00        0.00
 Intensities [relative]        0.00        0.00        0.00        0.00        0.00
           CX1             -0.11024     0.11124    -0.08295     0.16144     0.06396
           CY1              0.12315    -0.03202     0.05435     0.05155     0.15007
           CZ1             -0.03952     0.16836     0.10670    -0.11855     0.08250
           H1X2             0.12468     0.39078    -0.37447     0.02317    -0.16932
           H1Y2            -0.05433    -0.20765    -0.29874    -0.25615     0.44630
           H1Z2            -0.03951     0.16837     0.10668    -0.11855     0.08249
           H2X3            -0.18854     0.01808     0.01421     0.20752     0.14171
           H2Y3             0.49921     0.13763    -0.00618     0.20529     0.21574
           H2Z3            -0.26101    -0.09519     0.38155     0.01182     0.30244
           H3X4             0.08590     0.11429    -0.14011     0.25186     0.28410
           H3Y4             0.02385    -0.02903     0.26117     0.12853    -0.03088
           H3Z4            -0.07368     0.15673    -0.31903    -0.43496     0.21441
           H4X5            -0.46301    -0.07817     0.16857     0.16321    -0.00065
           H4Y5             0.02385    -0.02903     0.26117     0.12853    -0.03088
           H4Z5             0.21611     0.44353     0.25759     0.06751    -0.26935

                                  6
 Wavenumbers [cm-1]            0.00
 Intensities [km/mol]          0.00
 Intensities [relative]        0.00
           CX1              0.02777
           CY1              0.13420
           CZ1             -0.01349
           H1X2             0.31095
           H1Y2             0.18509
           H1Z2            -0.01348
           H2X3            -0.06662
           H2Y3            -0.27839
           H2Z3            -0.28049
           H3X4            -0.40926
           H3Y4             0.31505
           H3Z4             0.16154
           H4X5             0.27598
           H4Y5             0.31505
           H4Z5             0.07847


 Zero point energy:  0.04574613 [H]    10040.11 [1/CM]      120.11 [KJ/MOL]
 Frequency information read from record  5400.2

 Dump information in style MOLDEN to ch4_6-31+g.molpro                                                               

 Molecular orbitals read from record     2101.2  Type=RHF/CANONICAL (state 1.1)
 Occupation numbers read from record     2101.2  Type=RHF/RHF (state 1.1)
 Orbital energies read from record       2101.2  Type=RHF/CANONICAL (state 1.1)
 Redundancy group numbers read from rec  2101.2  Type=RHF/RHF (state 1.1)

 DUMP ORBITAL  1.1 AS ORBITAL    1  occ=    2.0000  eig=  -11.2127  GROUP=   2
 DUMP ORBITAL  2.1 AS ORBITAL    2  occ=    2.0000  eig=   -0.9458  GROUP=   2
 DUMP ORBITAL  3.1 AS ORBITAL    3  occ=    2.0000  eig=   -0.5435  GROUP=   2
 DUMP ORBITAL  4.1 AS ORBITAL    4  occ=    2.0000  eig=   -0.5435  GROUP=   2
 DUMP ORBITAL  5.1 AS ORBITAL    5  occ=    2.0000  eig=   -0.5435  GROUP=   2

 Total charge:      10.000000
 Frequency information read from record  5400.2

 **********************************************************************************************************************************

       OPTG(MP2)        MP2             HF-SCF  
    -40.28079954    -40.28070327    -40.18103264
 **********************************************************************************************************************************
 Variable memory released
