
 Primary working directories    : /data/scratch
 Secondary working directories  : /data/scratch
 Wavefunction directory         : /home/ospite/wfu/
 Main file repository           : /data/scratch/

 ARCHNAME  : Linux/x86_64
 FC        : /usr/bin/gfortran
 FCVERSION : 4.8.5
 BLASLIB   : 
 id        : polimi

 Nodes     nprocs
 molmod       1

 Using default tuning parameters: mindgm=1; mindgv=20; mindgc=4; mindgr=1; noblas=0; mincuda=1000; minvec=7
 default implementation of scratch files=df  

 ***,methane with imposed symmetry and sto-g3 basis set
 memory,100,m
 
 basis=sto-3g
 symmetry,y
 
 geometry={angstrom
 C
 H1, C, d
 H2, C, d, H1, a
 H3, C, d, H1, a, H2, t
 H4, C, d, H1, a, H2, -t
 }
 
 d=1.09 Ang
 a=109.47 Deg
 t=120.0 Deg
 
 hf
 mp2
 optg
 frequencies
 put,molden,ch4_sto-3g.molpro

 Variables initialized (661), CPU time= 0.01 sec
 Commands  initialized (458), CPU time= 0.06 sec, 486 directives.
 Default parameters read. Elapsed time= 0.19 sec

 Checking input...
 Passed
1


                                         ***  PROGRAM SYSTEM MOLPRO  ***
                         Copyright, University College Cardiff Consultants Limited, 2008

                                    Version 2010.1 linked Mar  6 2018 16:01:50


 **********************************************************************************************************************************
 LABEL *   methane with imposed symmetry and sto-g3 basis set                            
 Linux-3.10.0-1160.108.1.el7.x86_64/molmod(x86_64) 64 bit serial version                 DATE: 17-Aug-24          TIME: 17:23:10  
 **********************************************************************************************************************************

 SHA1:             d90fb18d49a3be29a79769f900c595ef3b8176e2
 **********************************************************************************************************************************

 Variable memory set to  100000000 words,  buffer space   230000 words

 SETTING BASIS          =    STO-3G
 ZSYMEL=Y  

 SETTING D              =         1.09000000  ANG                             
 SETTING A              =       109.47000000  DEG                             
 SETTING T              =       120.00000000  DEG                             


 Recomputing integrals since basis changed


 Using spherical harmonics

 Library entry C      S STO-3G               selected for orbital group  1
 Library entry C      P STO-3G               selected for orbital group  1
 Library entry H      S STO-3G               selected for orbital group  2

1PROGRAM * SEWARD (Integral evaluation for generally contracted gaussian basis sets)     Author: Roland Lindh, 1990

 Geometry written to block  1 of record 700

 Orientation using atomic masses  
 Molecule type: Symmetric top,     Order of principal axis = 3
 User-specified symmetry elements: Y
 Symmetry elements: Y
 Rotational constants:     158.2574080    158.2574080    158.2538321 GHz  (calculated with average atomic masses)

 Point group  Cs  



 ATOMIC COORDINATES

 NR  ATOM    CHARGE       X              Y              Z

   1  C       6.00   -0.000000000    0.000000000   -0.000007798
   2  H1      1.00   -0.000000000    0.000000000    2.059793685
   3  H2      1.00    1.942014089    0.000000000   -0.686566920
   4  H3      1.00   -0.971007045   -1.681833536   -0.686566920
   5  H4      1.00   -0.971007045    1.681833536   -0.686566920

 Bond lengths in Bohr (Angstrom)

 1-2  2.059801483  1-3  2.059801483  1-4  2.059801483  1-5  2.059801483
     ( 1.090000000)     ( 1.090000000)     ( 1.090000000)     ( 1.090000000)

 Bond angles

  2-1-3  109.47000000   2-1-4  109.47000000   2-1-5  109.47000000   3-1-4  109.47244124

  3-1-5  109.47244124   4-1-5  109.47244124

 NUCLEAR CHARGE:                   10
 NUMBER OF PRIMITIVE AOS:          27
 NUMBER OF SYMMETRY AOS:           27
 NUMBER OF CONTRACTIONS:            9   (   7A'  +   2A"  )
 NUMBER OF CORE ORBITALS:           1   (   1A'  +   0A"  )
 NUMBER OF VALENCE ORBITALS:        8   (   6A'  +   2A"  )


 NUCLEAR REPULSION ENERGY   13.43538921


 Eigenvalues of metric

         1 0.221E+00 0.369E+00 0.369E+00 0.971E+00 0.146E+01 0.146E+01 0.232E+01
         2 0.369E+00 0.146E+01


 Contracted 2-electron integrals neglected if value below      1.0D-11
 AO integral compression algorithm  1   Integral accuracy      1.0D-11

     0.262 MB (compressed) written to integral file (100.0%)


 NUMBER OF SORTED TWO-ELECTRON INTEGRALS:        664.     BUFFER LENGTH:  32768
 NUMBER OF SEGMENTS:   1  SEGMENT LENGTH:        664      RECORD LENGTH: 524288

 Memory used in sort:       0.56 MW

 SORT1 READ         796. AND WROTE         590. INTEGRALS IN      1 RECORDS. CPU TIME:     0.00 SEC, REAL TIME:     0.00 SEC
 SORT2 READ         590. AND WROTE         664. INTEGRALS IN      1 RECORDS. CPU TIME:     0.01 SEC, REAL TIME:     0.01 SEC

 FILE SIZES:   FILE 1:     2.8 MBYTE,  FILE 4:     4.2 MBYTE,   TOTAL:      7.1 MBYTE

 OPERATOR DM      FOR CENTER  0  COORDINATES:    0.000000    0.000000    0.000000


 **********************************************************************************************************************************
 DATASETS  * FILE   NREC   LENGTH (MB)   RECORD NAMES
              1      19        2.58       500      610      700      900      950      970     1000      129      960     1100   
                                          VAR    BASINP    GEOM    SYMINP    ZMAT    AOBASIS   BASIS     P2S    ABASIS      S 
                                         1400     1410     1200     1210     1080     1600     1650     1300     1700   
                                           T        V       H0       H01     AOSYM     SMH    MOLCAS    ERIS     OPER   

 PROGRAMS   *        TOTAL       INT
 CPU TIMES  *         0.70      0.20
 REAL TIME  *         0.95 SEC
 DISK USED  *         7.58 MB      
 **********************************************************************************************************************************

1PROGRAM * RHF-SCF (CLOSED SHELL)       Authors: W. Meyer, H.-J. Werner


 NUMBER OF ELECTRONS:       5+    5-
 CONVERGENCE THRESHOLDS:    1.00E-06 (Density)    1.00E-07 (Energy)
 MAX. NUMBER OF ITERATIONS:       60
 INTERPOLATION TYPE:            DIIS
 INTERPOLATION STEPS:              2 (START)      1 (STEP)
 LEVEL SHIFTS:                  0.00 (CLOSED)  0.00 (OPEN) 



 Orbital guess generated from atomic densities. Full valence occupancy:    7   2

 Molecular orbital dump at record        2100.2

 Initial alpha occupancy:   4   1
 Initial beta  occupancy:   4   1
 Wave function symmetry:    1

 ITERATION    DDIFF          GRAD             ENERGY        2-EL.EN.            DIPOLE MOMENTS         DIIS
    1      0.000D+00      0.000D+00       -39.72422948     52.722520   -0.00000    0.00000    0.00001    0
    2      0.000D+00      0.142D-01       -39.72659258     52.292233   -0.00000    0.00000    0.00000    1
    3      0.215D-01      0.336D-02       -39.72669391     52.360755   -0.00000    0.00000    0.00001    2
    4      0.413D-02      0.668D-03       -39.72670005     52.356285   -0.00000    0.00000    0.00001    3
    5      0.120D-02      0.129D-04       -39.72670005     52.356197   -0.00000    0.00000    0.00001    4
    6      0.192D-04      0.265D-07       -39.72670005     52.356197   -0.00000    0.00000    0.00001    4
    7      0.293D-07      0.396D-10       -39.72670005     52.356197   -0.00000    0.00000    0.00001    0

 Final occupancy:   4   1

 !RHF STATE 1.1 Energy                -39.726700051459
 Nuclear energy                        13.43538921
 One-electron energy                  -79.34018783
 Two-electron energy                   26.17809858
 Virial quotient                       -1.00716499
 !RHF STATE 1.1 Dipole moment          -0.00000000     0.00000000     0.00000539
 Dipole moment /Debye                  -0.00000000     0.00000000     0.00001371

 Orbital energies:

         1.1          2.1          3.1          4.1          5.1          6.1
    -11.030296    -0.908485    -0.517740    -0.517733     0.713011     0.713024

         1.2          2.2
     -0.517740     0.713024


 **********************************************************************************************************************************
 DATASETS  * FILE   NREC   LENGTH (MB)   RECORD NAMES
              1      19        2.58       500      610      700      900      950      970     1000      129      960     1100   
                                          VAR    BASINP    GEOM    SYMINP    ZMAT    AOBASIS   BASIS     P2S    ABASIS      S 
                                         1400     1410     1200     1210     1080     1600     1650     1300     1700   
                                           T        V       H0       H01     AOSYM     SMH    MOLCAS    ERIS     OPER   

              2       3        0.29       700     1000     2100   
                                         GEOM     BASIS     RHF  

 PROGRAMS   *        TOTAL        HF       INT
 CPU TIMES  *         0.76      0.06      0.20
 REAL TIME  *         1.01 SEC
 DISK USED  *         7.58 MB      
 **********************************************************************************************************************************


1PROGRAM * MP2 (Closed-shell)     Authors: C. Hampel, H.-J. Werner, 1991, M. Deegan, P.J. Knowles, 1992


 Convergence thresholds:  THRVAR = 1.00D-12  THRDEN = 1.00D-08

 Number of core orbitals:           1 (   1   0 )
 Number of closed-shell orbitals:   4 (   3   1 )
 Number of external orbitals:       4 (   3   1 )

 Molecular orbitals read from record     2100.2  Type=RHF/CANONICAL (state 1.1)

 Number of N-1 electron functions:               4
 Number of N-2 electron functions:              10
 Number of singly external CSFs:                10
 Number of doubly external CSFs:                76
 Total number of CSFs:                          87

 Length of J-op  integral file:               0.00 MB
 Length of K-op  integral file:               0.04 MB

 Integral transformation finished. Total CPU:   0.00 sec, npass=  1  Memory used:   0.07 MW

 Memory needed for MP2:                      0.00 MW

 SCS-MP2 correlation energy:           -0.064798276958   (PS=  1.200000  PT=  0.333333)
 SCS-MP2 total energy:                -39.791498328416


  Reference energy                    -39.726700051459
  MP2 singlet pair energy              -0.051732226490
  MP2 triplet pair energy              -0.004370794022
  MP2 correlation energy               -0.056103020512

 !MP2 total energy                    -39.782803071971

 KEXT needed  1 integral passes. Memory used:   0.03 MW  CPU time:      0.00 sec


 Starting Coupled-perturbed Hartree-Fock, convergence threshold= 1.0D-06

 ITER   MIC  DIIS      VAR         VARC       CPU
   1     0     1    0.32D-03    0.31D-03     0.00
   2     1     2    0.22D-04    0.76D-07     0.00
   3     2     3    0.74D-07    0.29D-10     0.00

 CPHF convergence reached in  3 macroiterations and    3 microiterations.   Accuracy: 7.4339D-08

 CPHF solution written to record  4101.2

 Dipole moments (unrelaxed):           -0.00000000     0.00000000     0.00000530
 Orbital relaxation contribution:      -0.00000000    -0.00000000     0.00000037
 !MP2 dipole moments:                  -0.00000000     0.00000000     0.00000568

 CPU-time for density and lagrangian:                  0.00 sec
 CPU-time for coupled-perturbed hartree-fock:          0.00 sec

 MP2 Gradient info saved on record         5200.1


 **********************************************************************************************************************************
 DATASETS  * FILE   NREC   LENGTH (MB)   RECORD NAMES
              1      21        2.59       500      610      700      900      950      970     1000      129      960     1100   
                                          VAR    BASINP    GEOM    SYMINP    ZMAT    AOBASIS   BASIS     P2S    ABASIS      S 
                                         1400     1410     1200     1210     1080     1600     1650     1300     1700     1380   
                                           T        V       H0       H01     AOSYM     SMH    MOLCAS    ERIS     OPER     JKOP   
                                         5200   
                                          MP2  

              2       5        0.30       700     1000     2100     4100     4101   
                                         GEOM     BASIS     RHF     CPHF     CPHF   

 PROGRAMS   *        TOTAL       MP2        HF       INT
 CPU TIMES  *         0.99      0.22      0.06      0.20
 REAL TIME  *         1.27 SEC
 DISK USED  *         7.58 MB      
 **********************************************************************************************************************************


 PROGRAM * OPT (Geometry optimization)     Authors: F. Eckert and H.-J. Werner


 BFGS update of hessian

 *** Long output written to logfile /home/ospite/Desktop/MMfP/Project6/CH4/molpro/MP2/ch4_sto-3g.log ***


 Geometry optimization using default procedure for command MP2

 Geometry written to block  1 of record 700

 Making model hessian for Z-matrix coordinates

 Quadratic Steepest Descent - Minimum Search

 Optimization point 1

 Variable                      Last           Current        Next           Gradient       Hessian

 E(MP2) / Hartree            0.00000000   -39.78280307     0.00000000
 D / ANG                     0.00000000     1.09000000     1.09840317    -0.05775014     6.87242182
 A / DEG                     0.00000000   109.47000000   109.47164351    -0.00000038     0.00023257
 T / DEG                     0.00000000   120.00000000   119.99999998     0.00000000     0.00014996
 Convergence:                0.00000000  (line search)     0.01587972     0.03056007  (total)

 Optimization point 2

 Variable                      Last           Current        Next           Gradient       Hessian

 E(MP2) / Hartree          -39.78280307   -39.78306635     0.00000000
 D / ANG                     1.09000000     1.09840317     1.09924768    -0.00527382     6.24481994
 A / DEG                   109.47000000   109.47164351   109.47098238     0.00000013     0.00022204
 T / DEG                   120.00000000   119.99999998   119.99999997     0.00000000     0.00014293
 Convergence:                0.00000000  (line search)     0.00159594     0.00279079  (total)

 Optimization point 3

 Variable                      Last           Current        Next           Gradient       Hessian

 E(MP2) / Hartree          -39.78306635   -39.78306863     0.00000000
 D / ANG                     1.09840317     1.09924768     1.09926722    -0.00011923     6.10357342
 A / DEG                   109.47164351   109.47098238   109.47132451    -0.00000007     0.00022101
 T / DEG                   119.99999998   119.99999997   120.00000014    -0.00000000     0.00014224
 Convergence:                0.00000000  (line search)     0.00003740     0.00006323  (total)

 END OF GEOMETRY OPTIMIZATION.    TOTAL CPU:         4.2 SEC

 ITER.   ENERGY(OLD)    ENERGY(NEW)      DE          GRADMAX     GRADNORM    GRADRMS     STEPMAX     STEPLEN     STEPRMS
   1   -39.78280307   -39.78306635    -0.00026328  0.03056006  0.03056007  0.01018669  0.01587969  0.01587972  0.00529324
   2   -39.78306635   -39.78306863    -0.00000228  0.00279078  0.00279079  0.00093026  0.00159590  0.00159594  0.00053198
   3   -39.78306863   -39.78306863    -0.00000000  0.00006309  0.00006323  0.00002108  0.00003692  0.00003740  0.00001247

 Geometry written to block  1 of record 700


 **********************************************************************************************************************************
 DATASETS  * FILE   NREC   LENGTH (MB)   RECORD NAMES
              1      21        2.59       500      610      700      900      950      970     1000      129      960     1100   
                                          VAR    BASINP    GEOM    SYMINP    ZMAT    AOBASIS   BASIS     P2S    ABASIS      S 
                                         1400     1410     1200     1210     1080     1600     1650     1300     1700     1380   
                                           T        V       H0       H01     AOSYM     SMH    MOLCAS    ERIS     OPER     JKOP   
                                         5200   
                                          MP2  

              2       6        0.30       700     1000     2100     4100     4101     9001   
                                         GEOM     BASIS     RHF     CPHF     CPHF    DEN_MP2    

 PROGRAMS   *        TOTAL      OPTG       MP2        HF       INT
 CPU TIMES  *         5.20      4.20      0.22      0.06      0.20
 REAL TIME  *         6.08 SEC
 DISK USED  *         7.62 MB      
 **********************************************************************************************************************************


 PROGRAM * HESSIAN

 Computing numerical hessian using default procedure for command MP2

 Symmetry elements for unique displacements: Y  

 Using no symmetry in wavefunction calculations

 Running default procedure: HF-SCF000  MP2


 Numerically approximating hessian using central gradient differences

 Task list generated. Total number of displacements:     21

    5 tasks completed, CPU=     7.08 sec, Elapsed=     7.49 sec
   10 tasks completed, CPU=    14.03 sec, Elapsed=    14.75 sec
   15 tasks completed, CPU=    21.00 sec, Elapsed=    22.05 sec
   20 tasks completed, CPU=    27.91 sec, Elapsed=    29.27 sec

 Numerical MP2 hessian completed. CPU-time:    29.29 sec, Elapsed:    30.70 sec

 MP2 hessian saved to record  5300.2

 FREQUENCIES * CALCULATION OF HARMONIC VIBRATIONAL SPECTRA FOR MP2


 Permanent Dipole Moment [debye]
   1-  3   -0.000000    0.000000   -0.000001

 Dipole Moment Norm    0.0000011 [debye]

 Dipole Moment Derivatives [debye/ang]
                   1             2             3             4             5             6             7             8
         1    -0.2947619     0.0000000    -0.0000000     0.2024813     0.0000000     0.0000973    -0.1410477     0.0000000
         2     0.0000000    -0.2947642    -0.0000000     0.0000000     0.2024865    -0.0000000    -0.0000000     0.2024884
         3     0.0000405     0.0000000    -0.2947924     0.0000963     0.0000000    -0.1839111     0.1213620     0.0000000
                   9            10            11            12            13            14            15
         1     0.1213659     0.1166423    -0.1486985    -0.0607323     0.1166423     0.1486985    -0.0607323
         2    -0.0000000    -0.1487164    -0.0551276    -0.1052166     0.1487164    -0.0551276     0.1052166
         3     0.1596061    -0.0607392    -0.1052104     0.1595148    -0.0607392     0.1052104     0.1595148

 Projecting out rotations and translations

   Low Vibration      Wavenumber
        Nr             [1/cm] 
        1                0.00
        2                0.00
        3                0.00
        4                0.00
        5                0.00
        6                0.00

     Vibration        Wavenumber
        Nr             [1/cm] 
        1             1576.76
        2             1576.79
        3             1576.81
        4             1809.40
        5             1809.43
        6             3343.39
        7             3600.55
        8             3600.60
        9             3600.69

 FREQUENCIES * CALCULATION OF NORMAL MODES FOR MP2


 Atomic Coordinates

  Nr  Atom  Charge       X              Y              Z

   1   C     6.00    0.000000000    0.000000000    0.000000669
   2   H1    1.00   -0.000523021    0.000000000    2.077314598
   3   H2    1.00    1.958683441    0.000000000   -0.691947749
   4   H3    1.00   -0.979080212   -1.696118685   -0.692687412
   5   H4    1.00   -0.979080212    1.696118685   -0.692687412

 Frequencies dumped to record   5400.2

 Gradient norm at reference geometry: 0.11923D-03

 Normal Modes

                              1 A`        2 A`        3 A``       4 A`        5 A``
 Wavenumbers [cm-1]         1576.76     1576.79     1576.81     1809.40     1809.43
 Intensities [km/mol]          5.44        5.44        5.44        0.00        0.00
 Intensities [relative]       99.99       99.99      100.00        0.00        0.00
           CX1             -0.08445     0.07529    -0.00000    -0.00002    -0.00000
           CY1             -0.00000    -0.00000    -0.11314    -0.00000    -0.00000
           CZ1             -0.07529    -0.08445     0.00000    -0.00000    -0.00000
           H1X2             0.41540    -0.37014     0.00000     0.49813     0.00000
           H1Y2             0.00000     0.00000     0.55647    -0.00000     0.49803
           H1Z2            -0.06760    -0.07607     0.00000     0.00012     0.00000
           H2X3             0.11609     0.17345    -0.00000     0.16588     0.00000
           H2Y3             0.00000     0.00000     0.55648     0.00000    -0.49802
           H2Z3             0.47596     0.22333    -0.00000     0.46964     0.00000
           H3X4             0.23744    -0.35026    -0.25332    -0.33189     0.28763
           H3Y4            -0.30838     0.03483     0.11764     0.28748     0.00000
           H3Z4             0.24443     0.42956    -0.17921    -0.23486    -0.40657
           H4X5             0.23744    -0.35026     0.25332    -0.33189    -0.28763
           H4Y5             0.30838    -0.03483     0.11764    -0.28748     0.00000
           H4Z5             0.24443     0.42956     0.17921    -0.23486     0.40657

                              6 A`        7 A``       8 A`        9 A` 
 Wavenumbers [cm-1]         3343.39     3600.55     3600.60     3600.69
 Intensities [km/mol]          0.00        1.34        1.34        1.34
 Intensities [relative]        0.00       24.65       24.65       24.65
           CX1              0.00001    -0.00000    -0.08589     0.02729
           CY1             -0.00000    -0.09013     0.00000    -0.00000
           CZ1              0.00002    -0.00000    -0.02729    -0.08589
           H1X2            -0.00012    -0.00000    -0.00669     0.00190
           H1Y2             0.00000    -0.00695     0.00000    -0.00000
           H1Z2             0.49784     0.00000     0.24799     0.78108
           H2X3             0.46953     0.00000     0.61508    -0.46760
           H2Y3             0.00000    -0.00696     0.00000    -0.00000
           H2Z3            -0.16586    -0.00000    -0.22173     0.15930
           H3X4            -0.23478     0.31800     0.20758     0.07027
           H3Y4            -0.40674     0.54394     0.37111     0.11808
           H3Z4            -0.16610     0.22498     0.14945     0.04159
           H4X5            -0.23478    -0.31800     0.20758     0.07027
           H4Y5             0.40674     0.54394    -0.37111    -0.11808
           H4Z5            -0.16610    -0.22498     0.14945     0.04159


 Normal Modes of low/zero frequencies

                                  1           2           3           4           5
 Wavenumbers [cm-1]            0.00        0.00        0.00        0.00        0.00
 Intensities [km/mol]          0.00        0.00        0.00        0.00        0.00
 Intensities [relative]        0.00        0.00        0.00        0.00        0.00
           CX1              0.24846     0.01863    -0.00685    -0.00100     0.01398
           CY1             -0.01858     0.20534     0.03906     0.02389     0.09846
           CZ1              0.01524    -0.07046     0.13400     0.10599    -0.06806
           H1X2             0.24717    -0.22404    -0.21002    -0.21600     0.32860
           H1Y2            -0.01451     0.36985    -0.30329    -0.04050    -0.30975
           H1Z2             0.01524    -0.07052     0.13395     0.10593    -0.06798
           H2X3             0.24889     0.09946     0.06082     0.07061    -0.09082
           H2Y3            -0.03033     0.10127    -0.14045     0.51790     0.36706
           H2Z3             0.01646     0.15835     0.32557     0.30871    -0.36471
           H3X4             0.23989     0.05688    -0.19333     0.47995     0.02393
           H3Y4            -0.01475     0.17512     0.30000    -0.19093     0.16826
           H3Z4             0.01796    -0.05052    -0.24135    -0.04781    -0.25304
           H4X5             0.25789     0.14222     0.31512    -0.33857    -0.20579
           H4Y5            -0.01475     0.17512     0.30000    -0.19093     0.16826
           H4Z5             0.01131    -0.31915     0.31784     0.05712     0.41350

                                  6
 Wavenumbers [cm-1]            0.00
 Intensities [km/mol]          0.00
 Intensities [relative]        0.00
           CX1             -0.00327
           CY1              0.08963
           CZ1              0.15269
           H1X2             0.35264
           H1Y2             0.32834
           H1Z2             0.15278
           H2X3            -0.12182
           H2Y3            -0.02286
           H2Z3            -0.18289
           H3X4            -0.15051
           H3Y4             0.02652
           H3Z4             0.51534
           H4X5            -0.09339
           H4Y5             0.02652
           H4Z5             0.12554


 Zero point energy:  0.05124605 [H]    11247.21 [1/CM]      134.55 [KJ/MOL]
 Frequency information read from record  5400.2

 Dump information in style MOLDEN to ch4_sto-3g.molpro                                                               

 Molecular orbitals read from record     2101.2  Type=RHF/CANONICAL (state 1.1)
 Occupation numbers read from record     2101.2  Type=RHF/RHF (state 1.1)
 Orbital energies read from record       2101.2  Type=RHF/CANONICAL (state 1.1)
 Redundancy group numbers read from rec  2101.2  Type=RHF/RHF (state 1.1)

 DUMP ORBITAL  1.1 AS ORBITAL    1  occ=    2.0000  eig=  -11.0311  GROUP=   2
 DUMP ORBITAL  2.1 AS ORBITAL    2  occ=    2.0000  eig=   -0.9038  GROUP=   2
 DUMP ORBITAL  3.1 AS ORBITAL    3  occ=    2.0000  eig=   -0.5141  GROUP=   2
 DUMP ORBITAL  4.1 AS ORBITAL    4  occ=    2.0000  eig=   -0.5141  GROUP=   2
 DUMP ORBITAL  5.1 AS ORBITAL    5  occ=    2.0000  eig=   -0.5141  GROUP=   2

 Total charge:      10.000000
 Frequency information read from record  5400.2

 **********************************************************************************************************************************

       OPTG(MP2)        MP2             HF-SCF  
    -39.78306863    -39.78280307    -39.72670005
 **********************************************************************************************************************************
 Variable memory released
