[Molden Format]
[Molpro variables]
_NUMVAR=  693.0000000000000    
_EV2006= 0.3674930886769165E-01
_EV= 0.3674932534394180E-01
_KJOULE= 0.3808798324128737E-03
_KJOULE/MOL= 0.3808798324128737E-03
_CM= 0.4556335267302901E-05
_CM-1= 0.4556335267302901E-05
_KCAL= 0.1593601117815568E-02
_KCAL/MOL= 0.1593601117815568E-02
_KELVIN2006= 0.3166828861084835E-05
_KELVIN= 0.3166814820820034E-05
_HERTZ2006= 0.1519829850815779E-15
_HERTZ= 0.1519829846011223E-15
_HZ2006= 0.1519829850815779E-15
_HZ= 0.1519829846011223E-15
_TOA2006= 0.5291772490000000    
_TOA= 0.5291772090000000    
_TOANG2006= 0.5291772490000000    
_TOANG= 0.5291772090000000    
_TORAD= 0.1745329251994330E-01
_TOCM=  219474.6306700000    
_TODEBYE=  2.541580000000000    
_TOEV2006=  27.21139610000000    
_TOEV=  27.21138390000000    
_TOHERTZ2006=  6579683899900000.    
_TOHERTZ=  6579683920700000.    
_TOHZ2006=  6579683899900000.    
_TOHZ=  6579683920700000.    
_TOK2006=  315773.3000000000    
_TOK=  315774.7000000000    
_TOKCAL=  627.5096000000000    
_TOKELVIN2006=  315773.3000000000    
_TOKELVIN=  315774.7000000000    
_TOKJ=  2625.500000000000    
_TOKJOULE=  2625.500000000000    
_ANG2006=  1.889725988578923    
_ANG=  1.889726131421507    
_ANGSTROM2006=  1.889725988578923    
_ANGSTROM=  1.889726131421507    
_IGNORE_UNDEF=  2.000000000000000    
_STRICTCHECK=  0.000000000000000    
_SEW_ONEEL=  0.000000000000000    
_CPPDONE=FALSE
_DKROLL_DONE=  0.000000000000000    
_FOCKDONE=TRUE
_GRADONE=FALSE
_HESSDONE=TRUE
_INTDONE=TRUE
_SCFDONE=TRUE
_MODUL_CUDA=FALSE
_MODUL_SLATER=FALSE
_MODUL_MRCC=FALSE
_MRCC_EXEC=
_FITC_AO_SAVED=  0.000000000000000    
_FITC_MO_SAVED=  0.000000000000000    
_SHARED_FS=TRUE
_LSTYP=SEWARD
_INTYP=INTS
_GEOMTYP=ZMAT
_GRADTYP=ALASKA
_DIRECT=FALSE
_SYNCM=  0.000000000000000    
_BASIS=6-31G
_ZSYMEL=
_ZORIENT=  1.000000000000000    
_NELEC=  10.00000000000000    
!SPIN=  0.000000000000000    
_OPTCONV= 0.3754404541687244E-04
_QSDSTEP=  0.000000000000000    
_QSDIRC=  0.000000000000000    
_PROGRAM=FREQ
_CPUSTEP=  0.000000000000000    
_SYSSTEP=  0.000000000000000    
_WALLSTEP=  0.000000000000000    
!DFMP2=  0.000000000000000    
!DFSCF=  0.000000000000000    
!SCSGRD=  0.000000000000000    
_BASINP=  610.0000000000000    
_CPUTOT=  34.70000000000000    
_CPUCCSD= 0.2000000000000313E-01
_SYSCCSD=  0.000000000000000    
_WALLCCSD= 0.9999999776482582E-02
_CPUF12=  0.000000000000000    
_SYSF12=  0.000000000000000    
_WALLF12=  0.000000000000000    
_CPUF12B=  0.000000000000000    
_SYSF12B=  0.000000000000000    
_WALLF12B=  0.000000000000000    
_CPUTRANS=  0.000000000000000    
_SYSTRANS=  0.000000000000000    
_WALLTRANS= 0.1000000070780516E-01
_DFTEXFAC=  1.000000000000000    
_DMX=-0.2790556397069821E-09
_DMY= 0.7374656441072602E-13
_DMZ=-0.1176212557907341E-06
_FREQUENCIES= 0.6271522697671950E-04
_EMP2= -40.27912911490552    
_EMP2_SING=-0.7477972278600646E-01
_EMP2_TRIP=-0.2427372269041805E-01
_EMP2_SCS= -40.28491498644635    
_ECSING=-0.7477972278600646E-01
_ECTRIP=-0.2427372269041805E-01
_ENERGC= -40.27912911490552    
_ENERG_CC=  0.000000000000000    
_ENERG_CV=  0.000000000000000    
_ENERG_VV=-0.9905344547642451E-01
_ENERGR= -40.18007566942910    
_ENERGY= -40.27912911490552    
_ENUC=  13.36870017812283    
_FREQSTEP=  22.00000000000000    
_GRADENERG= -40.27912491269196    
_GRADEXFAC=  9999.000000000000    
_GRADMETHOD=  8.000000000000000    
_GRADRECORD=TRUE
_VIRIAL= 0.2474127723128596E-02
!GRID_FREEZE= -1.000000000000000    
_ITERATIONS=  1.000000000000000    
_LASTNELEC=  10.00000000000000    
_LASTSPIN=  0.000000000000000    
_LASTSYM=  1.000000000000000    
_MPP_PROG=  0.000000000000000    
_NPROC_MPP=  1.000000000000000    
_NPROC_SMP=  1.000000000000000    
_NUMSTEP=  0.000000000000000    
_OPTCONVMX= 0.3750151218491916E-04
_OPTCONVRMS= 0.1251468180562415E-04
_OPTGRAD= 0.5389233506818783E-04
_OPTGRADMX= 0.5387624933083356E-04
_OPTGRADRMS= 0.1796411168939594E-04
_OPTSTEP=  3.000000000000000    
_ORBITAL=  2101.200000000000    
_PI=  3.141592653589793    
_ECDIAG=-0.3943059542418552E-01
_EPDIAG=-0.3943059542418552E-01
_SEIG_MIN= 0.2088469378760236E-01
_SEWPROP=TRUE
_STATUS=  1.000000000000000    
_SYSTOT=  1.040000000000000    
_T1DIAG=  0.000000000000000    
_VERSION=  2010001.000000000    
_WALLTOT=  37.50000000000000    
_ZPE= 0.4603855034379083E-01
_DATE=17-Aug-24
_LASTORB=RHF
_MACHINE=Linux-3.10.0-1160.108.1.el7.x86_64/molmod(x86_64) 64 bit serial version
_METHODC=MP2
_OUTPUT=/home/ospite/Desktop/MMfP/Project6/CH4/molpro/MP2/ch4_Pople631.xml
_PGROUP=C1
_TIME=17:24:45
_ANSATZ=
_LIBMOL=/usr/local/molpro/molpros_2010_1_Linux_x86_64_i8/lib/
!SURFREC=  0.000000000000000    
!POLYREC=  0.000000000000000    
!DIPREC=  0.000000000000000    
!VSCFREC=  0.000000000000000    
!VCIREC=  0.000000000000000    
!PVCIREC=  0.000000000000000    
!VMP2REC=  0.000000000000000    
!VMCSCFREC=  0.000000000000000    
!GAREC=  0.000000000000000    
!SCFORB=  21002.00000000000    
!CIOCC=  4.000000000000000    
!CICORE=  1.000000000000000    
!CICLOS=  4.000000000000000    
!CIISTSYM=  1.000000000000000    
!CIISTMS2=  0.000000000000000    
!CIISTNEL=  8.000000000000000    
!NEWMOL=  0.000000000000000    
!NEWSYM=  0.000000000000000    
_SLFILES=slscratch
_NGSSTO=  9.000000000000000    
_SIN=SIN
_COS=COS
_TAN=TAN
_ACOS=ACOS
_ASIN=ASIN
_ATAN=ATAN
_COSH=COSH
_SINH=SINH
_TANH=TANH
_ABS=ABS
_MOD=MOD
_ERF=ERF
_REFC=REFC
_ERFC=ERFC
_HYPOT=HYPOT
_J0=J0
_J1=J1
_JN=JN
_GAMMA=GAMMA
_LGAMMA=LGAMMA
_Y0=Y0
_Y1=Y1
_YN=YN
_EXP=EXP
_LOG=LOG
_LOG10=LOG10
_SQRT=SQRT
_INT=INT
_NINT=NINT
_MAX=MAX
_MIN=MIN
_COSMO=  0.000000000000000    
_COSMOIT=  0.000000000000000    
_COSMOES=  0.000000000000000    
_COSMOEDS=  0.000000000000000    
_COSMOEC=  0.000000000000000    
_COSMOEDCORR=  0.000000000000000    
_FEPSI=  1.000000000000000    
_SL_IsMM=  0.000000000000000    
_SL_NSYM=  0.000000000000000    
_SL_System_BitSw=  0.000000000000000    
_SL_Unique_atoms=  0.000000000000000    
_SL_GRAD=  0.000000000000000    
_SL_MAXUPD_Hess=  5.000000000000000    
_SL_N_PRINT_COD=  5.000000000000000    
_SL_PRINT_CODES=  0.000000000000000    
_SL_BasType=  0.000000000000000    
_SL_Energy_Pred=  0.000000000000000    
_SL_New_Coords=  0.000000000000000    
_SL_Total_Nuclea=  0.000000000000000    
_SL_Highest_Mltp=  0.000000000000000    
_SL_Ref_Geom=  0.000000000000000    
!LATTICE= -1.000000000000000    
!NEWLATTICE=  0.000000000000000    
!LATGRAD_VAR=FALSE
!SEW_LATTICE=  1.000000000000000    
!LOCAL=  0.000000000000000    
!SAVEDOM= -1.000000000000000    
!RESTDOM= -1.000000000000000    
!SAVEDOM_HF= -1.000000000000000    
!RESTDOM_HF= -1.000000000000000    
!HESSREC=  5300.200000000000    
!FREQREC=  5400.200000000000    
!NMODREC=  5450.200000000000    
!GTASKS=  0.000000000000000    
!HTASKS=  5500.200000000000    
!THRCHG= 0.1000000000000000    
!DEBUG= -1.000000000000000    
!CFIT_CPHF=  0.000000000000000    
!RDOMAUX_CPHF=  5.000000000000000    
!THRAO_CPHF= 0.9999999999999999E-11
!THRMO_CPHF= 0.9999999999999999E-11
!THROV_CPHF= 0.1000000000000000E-11
!THRSW_CPHF= 0.1000000000000000E-09
!THRPROD_CPHF= 0.9999999999999999E-11
!THRAOPR_CPHF= 0.1000000000000000E-11
!CFIT_SCFGRD=  0.000000000000000    
!RDOMAUX_SCFGRD=  7.000000000000000    
!THRAO_SCFGRD= 0.9999999999999999E-11
!THRMO_SCFGRD= 0.9999999999999999E-11
!THROV_SCFGRD= 0.1000000000000000E-11
!THRSW_SCFGRD= 0.1000000000000000E-09
!THRPROD_SCFGRD= 0.9999999999999999E-11
!THRAOPR_SCFGRD= 0.1000000000000000E-11
!LOCFIT_SCF=  0.000000000000000    
!LOCFIT_MP2= -1.000000000000000    
_RIDOM=  0.000000000000000    
!CC2_METHOD=  0.000000000000000    
_BASIS2006=FALSE
_SVDDEL= -1.000000000000000    
_SVDDELA= -1.000000000000000    
_SVDDELP= -1.000000000000000    
_SVDDELF= -1.000000000000000    
_SVDDELS= -1.000000000000000    
_SVDDEL_ABS= -1.000000000000000    
_SVDDELA_ABS= -1.000000000000000    
_SVDDELP_ABS= -1.000000000000000    
_SVDDELF_ABS= -1.000000000000000    
_SVDDELS_ABS= -1.000000000000000    
_MAXBASIS=  0.000000000000000    
!OPT_CONICAL=  0.000000000000000    
!CLEARSP_JGRID=  0.000000000000000    
D=  1.095437405223981    
A=  109.4712347081910    
T=  120.0000000044825    
GX1= 0.1107638734080518E-10
GY1= -0.000000000000000    
GZ1= 0.9035926146438065E-07
GX2=-0.1269098468898850E-03
GY2= -0.000000000000000    
GZ2=  2.070076776457367    
GX3=  1.951729150255285    
GY3= -0.000000000000000    
GZ3=-0.6899062993251713    
GX4=-0.9758011202701929    
GY4= -1.690210392772324    
GZ4=-0.6900857769439230    
GX5=-0.9758011202701929    
GY5=  1.690210392772324    
GZ5=-0.6900857769439230    
CX1= 0.1107638807062994E-10
CY1=  0.000000000000000    
CZ1= 0.9035926146379325E-07
H1X2=-0.1269098468898843E-03
H1Y2=  0.000000000000000    
H1Z2=  2.070076776457367    
H2X3=  1.951729150255285    
H2Y3=  0.000000000000000    
H2Z3=-0.6899062993251713    
H3X4=-0.9758011202701929    
H3Y4= -1.690210392772324    
H3Z4=-0.6900857769439230    
H4X5=-0.9758011202701929    
H4Y5=  1.690210392772324    
H4Z5=-0.6900857769439230    
[Atoms] Angs
C     1    6         0.0000000000       -0.0000000000        0.0000000478
H     2    1        -0.0000671578       -0.0000000000        1.0954374510
H     3    1         1.0328105845       -0.0000000000       -0.3650826899
H     4    1        -0.5163717134       -0.8944208183       -0.3651776654
H     5    1        -0.5163717134        0.8944208183       -0.3651776654
[GTO]
  1 0
 s    6  1.00
  0.3047524900D+04  0.1834737091D-02
  0.4573695200D+03  0.1403732293D-01
  0.1039486800D+03  0.6884262165D-01
  0.2921015500D+02  0.2321844388D+00
  0.9286663000D+01  0.4679413476D+00
  0.3163927000D+01  0.3623119882D+00
 s    3  1.00
  0.7868272300D+01 -0.1193324245D+00
  0.1881288500D+01 -0.1608541561D+00
  0.5442492600D+00  0.1143456443D+01
 s    1  1.00
  0.1687144800D+00  0.1000000000D+01
 p    3  1.00
  0.7868272300D+01  0.6899906693D-01
  0.1881288500D+01  0.3164239597D+00
  0.5442492600D+00  0.7443082892D+00
 p    1  1.00
  0.1687144800D+00  0.1000000000D+01
  
  2 0
 s    3  1.00
  0.1873113700D+02  0.3349460400D-01
  0.2825394400D+01  0.2347269500D+00
  0.6401216900D+00  0.8137573301D+00
 s    1  1.00
  0.1612777600D+00  0.1000000000D+01
  
  3 0
 s    3  1.00
  0.1873113700D+02  0.3349460400D-01
  0.2825394400D+01  0.2347269500D+00
  0.6401216900D+00  0.8137573301D+00
 s    1  1.00
  0.1612777600D+00  0.1000000000D+01
  
  4 0
 s    3  1.00
  0.1873113700D+02  0.3349460400D-01
  0.2825394400D+01  0.2347269500D+00
  0.6401216900D+00  0.8137573301D+00
 s    1  1.00
  0.1612777600D+00  0.1000000000D+01
  
  5 0
 s    3  1.00
  0.1873113700D+02  0.3349460400D-01
  0.2825394400D+01  0.2347269500D+00
  0.6401216900D+00  0.8137573301D+00
 s    1  1.00
  0.1612777600D+00  0.1000000000D+01


[MO]
 Sym=      1.1
 Ene=     -11.2101
 Spin= Alpha
 Occup=    2.000000
1 0.99616453115506
2 0.025348648004583
3 -0.016194521685538
4 -0.000000000001113
5 -0.000000000000000
6 -0.000000000732366
7 -0.000000000013023
8 0.000000000000000
9 0.000000002098270
10 -0.000098891871999
11 0.003056661538338
12 -0.000098891694680
13 0.003056662622102
14 -0.000098891700992
15 0.003056662610257
16 -0.000098891700992
17 0.003056662610257
 Sym=      2.1
 Ene=      -0.9437
 Spin= Alpha
 Occup=    2.000000
1 -0.19664898102865
2 0.37270849184866
3 0.38801717671411
4 -0.000000000033884
5 0.000000000000000
6 -0.000000059957223
7 -0.000000000090298
8 0.000000000000002
9 -0.000000035147966
10 0.13370966948104
11 0.033591858003990
12 0.13370968703570
13 0.033591852474494
14 0.13370968707317
15 0.033591852365903
16 0.13370968707317
17 0.033591852365901
 Sym=      3.1
 Ene=      -0.5416
 Spin= Alpha
 Occup=    2.000000
1 -0.000000028351881
2 0.000000064652187
3 0.000000045167258
4 -0.000098346445485
5 -0.000000001161484
6 0.43497871872340
7 -0.000050540761489
8 -0.000000000596895
9 0.22353805894450
10 0.30003438416021
11 0.24748411294666
12 -0.10005807400254
13 -0.082533139622410
14 -0.099988151752843
15 -0.082475464183187
16 -0.099988153061123
17 -0.082475465262322
 Sym=      4.1
 Ene=      -0.5416
 Spin= Alpha
 Occup=    2.000000
1 -0.000000000012780
2 0.000000000124347
3 -0.000000000261820
4 0.43497871834475
5 -0.000003884063978
6 0.000098346445408
7 0.22353807341881
8 -0.000001996042890
9 0.000050540982617
10 0.000049442070991
11 0.000040782078023
12 0.28285864725577
13 0.23331673189927
14 -0.14145185716974
15 -0.11667695245881
16 -0.14145623212636
17 -0.11668056115379
 Sym=      5.1
 Ene=      -0.5416
 Spin= Alpha
 Occup=    2.000000
1 0.000000000000000
2 0.000000000000001
3 -0.000000000000004
4 0.000003884063616
5 0.43497872945433
6 0.000000002039651
7 0.000001996042704
8 0.22353807910388
9 0.000000001048190
10 0.000000001242638
11 0.000000001024991
12 0.000002525468011
13 0.000002083139225
14 -0.24497831357899
15 -0.20207103449923
16 0.24497578686834
17 0.20206895033502
 Sym=      6.1
 Ene=       0.2535
 Spin= Alpha
 Occup=    0.000000
1 -0.15429378565394
2 0.097367124796314
3 2.72635412871446
4 -0.000000000270658
5 0.000000000000040
6 -0.000000016442734
7 -0.000000001370254
8 0.000000000000247
9 -0.000000311902284
10 0.000846919721546
11 -1.02626228069843
12 0.000846959116121
13 -1.02626231812335
14 0.000846958831149
15 -1.02626232050292
16 0.000846958831147
17 -1.02626232050347
 Sym=      7.1
 Ene=       0.3216
 Spin= Alpha
 Occup=    0.000000
1 0.000000000207744
2 -0.000000001289761
3 0.000000004604412
4 -0.30245773829508
5 0.000001521741857
6 -0.006741636511030
7 -1.48139000832643
8 0.000007453250144
9 -0.033019477192839
10 0.001887247553186
11 0.044098104359369
12 0.079418635641799
13 1.85572310146841
14 -0.040652591217177
15 -0.94990245786571
16 -0.040653288783118
17 -0.94991875743141
 Sym=      8.1
 Ene=       0.3216
 Spin= Alpha
 Occup=    0.000000
1 -0.000000000000024
2 0.000000000000060
3 0.000000000000333
4 -0.000001521969004
5 -0.30253286279536
6 -0.000000006766671
7 -0.000007454362665
8 -1.48175795660510
9 -0.000000033142077
10 0.000000001873288
11 0.000000043771759
12 0.000000402175687
13 0.000009397375093
14 -0.069340682522369
15 -1.62023822160398
16 0.069340278473404
17 1.62022878045655
 Sym=      9.1
 Ene=       0.3216
 Spin= Alpha
 Occup=    0.000000
1 0.000000002392866
2 -0.000000047246615
3 0.000000307310303
4 0.006741636816781
5 -0.000000027150541
6 -0.30245774643058
7 0.033019466518272
8 -0.000000132979039
9 -1.48139045388309
10 0.084903372214307
11 1.98388285845763
12 -0.030080396223481
13 -0.70287056261189
14 -0.027411430140504
15 -0.64050657973997
16 -0.027411417694698
17 -0.64050628892717
 Sym=     10.1
 Ene=       0.7459
 Spin= Alpha
 Occup=    0.000000
1 -0.000000000000000
2 0.000000000000015
3 -0.000000000000002
4 0.000034849094001
5 -0.78197214226711
6 0.000000064050632
7 -0.000065079725898
8 1.46031149773180
9 -0.000000119612853
10 0.000000043376050
11 0.000000015096118
12 0.000023003944485
13 0.000008006019950
14 0.44729534322231
15 0.15567136540874
16 -0.44731839054281
17 -0.15567938652485
 Sym=     11.1
 Ene=       0.7459
 Spin= Alpha
 Occup=    0.000000
1 -0.000000000015131
2 -0.000000000443546
3 0.000000000475491
4 -0.78197074582284
5 -0.000034849152823
6 -0.001477796678636
7 1.46030889035734
8 0.000065079835719
9 0.002759745855648
10 -0.001001734303046
11 -0.000348632568948
12 -0.51617070549088
13 -0.17964192922467
14 0.25860615393112
15 0.090002219026852
16 0.25856628482449
17 0.089988343455901
 Sym=     12.1
 Ene=       0.7459
 Spin= Alpha
 Occup=    0.000000
1 -0.000000004070286
2 0.000000220663820
3 -0.000000078459824
4 -0.001477796495933
5 -0.000000001808446
6 0.78197077068074
7 0.002759745161050
8 0.000000003377215
9 -1.46030965196913
10 0.54783594896118
11 0.19066301129294
12 -0.18355631725751
13 -0.063883180784231
14 -0.18213965028447
15 -0.063390140147186
16 -0.18213965235341
17 -0.063390140867232
 Sym=     13.1
 Ene=       1.2201
 Spin= Alpha
 Occup=    0.000000
1 0.000000000000077
2 -0.000000000001053
3 0.000000000001636
4 0.000017356149887
5 -0.88258040078892
6 0.000000020768078
7 -0.000020131261301
8 1.02369804282230
9 -0.000000024088718
10 -0.000000022992608
11 0.000000034882830
12 -0.000019087307355
13 0.000028957857328
14 -0.84090238198428
15 1.27575517175730
16 0.84092149228610
17 -1.27578416449965
 Sym=     14.1
 Ene=       1.2201
 Spin= Alpha
 Occup=    0.000000
1 0.000000000980912
2 -0.000000005334021
3 0.000000004205341
4 0.88257987731740
5 0.000017356116965
6 -0.000961283736610
7 -1.02369743567130
8 -0.000020131223118
9 0.001114985329136
10 0.001184888876651
11 -0.001797620665074
12 -0.97139577921126
13 1.47373014994231
14 0.48512199338071
15 -0.73599135986381
16 0.48508891998382
17 -0.73594118334150
 Sym=     15.1
 Ene=       1.2201
 Spin= Alpha
 Occup=    0.000000
1 0.000000698563849
2 -0.000005123686573
3 0.000005675601821
4 -0.000961283740115
5 -0.000000039671931
6 -0.88257991412008
7 0.001114985342234
8 0.000000046015160
9 1.02369734900581
10 1.02990607967315
11 -1.56249416514234
12 -0.34217942181869
13 0.51913253670000
14 -0.34385513728231
15 0.52167480877312
16 -0.34385506168443
17 0.52167469408158
 Sym=     16.1
 Ene=       1.2302
 Spin= Alpha
 Occup=    0.000000
1 -0.10366221542157
2 1.01652324140312
3 -1.38013536413847
4 0.000000001424462
5 -0.000000000000808
6 -0.000005587472908
7 -0.000000002024578
8 0.000000000000951
9 0.000006132888529
10 -0.62342251922928
11 0.56903877662880
12 -0.62343124462290
13 0.56905148299278
14 -0.62343124301608
15 0.56905147988996
16 -0.62343124301453
17 0.56905147988759
 Sym=     17.1
 Ene=       1.3257
 Spin= Alpha
 Occup=    0.000000
1 -0.076970938942232
2 -2.16305820775886
3 5.12118120533048
4 0.000000000830049
5 0.000000000000095
6 -0.000000340945579
7 -0.000000001106698
8 -0.000000000000143
9 -0.000000597525064
10 -0.34871072790721
11 -0.93429659235258
12 -0.34871180847700
13 -0.93429602721996
14 -0.34871180740299
15 -0.93429602919110
16 -0.34871180740318
17 -0.93429602919076
 [FREQ]
      0.00
      0.00
      0.00
      0.00
      0.00
      0.00
   1441.20
   1441.24
   1441.26
   1619.81
   1619.85
   3062.88
   3194.04
   3194.11
   3194.20
 [FR-COORD]
C          0.0000000000       -0.0000000000        0.0000000904
H         -0.0001269098       -0.0000000000        2.0700767765
H          1.9517291503       -0.0000000000       -0.6899062993
H         -0.9758011203       -1.6902103928       -0.6900857769
H         -0.9758011203        1.6902103928       -0.6900857769
 [FR-NORM-COORD]
 Vibration                    1
          0.24902310          0.01651308          0.00180202
          0.26469966          0.01582553          0.00180298
          0.24379849          0.01229612         -0.01297830
          0.23994669          0.01896533          0.00863008
          0.24764756          0.01896533          0.00975331
 Vibration                    2
         -0.00505132         -0.00100956          0.15822287
          0.32202388         -0.31947763          0.15824293
         -0.11405755         -0.00666906         -0.15015324
         -0.21090513          0.16105435          0.05236689
         -0.01726670          0.16105435          0.57243491
 Vibration                    3
         -0.00471136          0.02100973          0.05158887
          0.21202571          0.49997690          0.05160216
         -0.07694458         -0.40028081         -0.15275721
         -0.30356965         -0.00782875          0.54481640
          0.14964291         -0.00782875         -0.23730586
 Vibration                    4
          0.00242393         -0.01025894          0.00170972
         -0.31994095         -0.15097991          0.00168996
          0.10986033         -0.43252968          0.30564480
         -0.29642454          0.27123696         -0.26517103
          0.51620110          0.27123696         -0.03532485
 Vibration                    5
          0.00225417          0.00901251          0.18579665
         -0.33473289          0.14554289          0.18577599
          0.11456379          0.13552315          0.50351795
          0.26356055         -0.12250804          0.13843203
         -0.03437453         -0.12250804         -0.08453939
 Vibration                    6
         -0.01619378          0.24785446         -0.01053378
         -0.03536744          0.19521372         -0.01053496
         -0.00980367          0.26174522          0.00754371
         -0.01296570          0.26722947         -0.06255311
         -0.00663831          0.26722947          0.02340923
 Vibration                    7
         -0.08468663         -0.00000002         -0.07916879
          0.40607179          0.00000008         -0.05178705
          0.13138249          0.00000008          0.47669718
          0.23585203         -0.29514659          0.25924777
          0.23585210          0.29514662          0.25924782
 Vibration                    8
          0.07916839         -0.00000001         -0.08468653
         -0.37958193          0.00000003         -0.05545360
          0.14893970          0.00000003          0.21936169
         -0.35637937          0.04048008          0.42262458
         -0.35637935         -0.04048006          0.42262459
 Vibration                    9
          0.00000001         -0.11592768          0.00000002
         -0.00000003          0.55596592          0.00000001
         -0.00000003          0.55599113         -0.00000008
         -0.24319843          0.13474090         -0.17197413
          0.24319840          0.13474083          0.17197402
 Vibration                   10
         -0.00002663          0.00000000         -0.00000397
          0.49816277          0.00000001          0.00002777
          0.16597523         -0.00000001          0.46962459
         -0.33191036          0.28746126         -0.23480251
         -0.33191037         -0.28746126         -0.23480250
 Vibration                   11
          0.00000000         -0.00000277          0.00000000
         -0.00000001          0.49804085         -0.00000000
         -0.00000000         -0.49801255         -0.00000001
          0.28755396          0.00000233         -0.40662440
         -0.28755395          0.00000233          0.40662440
 Vibration                   12
          0.00002743          0.00000000          0.00003868
         -0.00001816          0.00000000          0.49763924
          0.46943903          0.00000000         -0.16591590
         -0.23487385         -0.40686115         -0.16609211
         -0.23487385          0.40686115         -0.16609211
 Vibration                   13
          0.00000001         -0.08651227          0.00000000
          0.00000000         -0.02450275         -0.00000000
         -0.00000005         -0.02450494          0.00000002
          0.32588017          0.53996053          0.23046087
         -0.32588019          0.53996057         -0.23046089
 Vibration                   14
         -0.08231058         -0.00000001         -0.02662851
         -0.02332794         -0.00000000          0.25325340
          0.61112526         -0.00000000         -0.23180018
          0.19652361          0.38081615          0.14793120
          0.19652356         -0.38081608          0.14793117
 Vibration                   15
          0.02662907          0.00000000         -0.08231048
          0.00748961          0.00000000          0.78246407
         -0.47710138          0.00000000          0.14798971
          0.07614479          0.11882858          0.02519472
          0.07614480         -0.11882861          0.02519473
