[Molden Format]
[Molpro variables]
_NUMVAR=  693.0000000000000    
_EV2006= 0.3674930886769165E-01
_EV= 0.3674932534394180E-01
_KJOULE= 0.3808798324128737E-03
_KJOULE/MOL= 0.3808798324128737E-03
_CM= 0.4556335267302901E-05
_CM-1= 0.4556335267302901E-05
_KCAL= 0.1593601117815568E-02
_KCAL/MOL= 0.1593601117815568E-02
_KELVIN2006= 0.3166828861084835E-05
_KELVIN= 0.3166814820820034E-05
_HERTZ2006= 0.1519829850815779E-15
_HERTZ= 0.1519829846011223E-15
_HZ2006= 0.1519829850815779E-15
_HZ= 0.1519829846011223E-15
_TOA2006= 0.5291772490000000    
_TOA= 0.5291772090000000    
_TOANG2006= 0.5291772490000000    
_TOANG= 0.5291772090000000    
_TORAD= 0.1745329251994330E-01
_TOCM=  219474.6306700000    
_TODEBYE=  2.541580000000000    
_TOEV2006=  27.21139610000000    
_TOEV=  27.21138390000000    
_TOHERTZ2006=  6579683899900000.    
_TOHERTZ=  6579683920700000.    
_TOHZ2006=  6579683899900000.    
_TOHZ=  6579683920700000.    
_TOK2006=  315773.3000000000    
_TOK=  315774.7000000000    
_TOKCAL=  627.5096000000000    
_TOKELVIN2006=  315773.3000000000    
_TOKELVIN=  315774.7000000000    
_TOKJ=  2625.500000000000    
_TOKJOULE=  2625.500000000000    
_ANG2006=  1.889725988578923    
_ANG=  1.889726131421507    
_ANGSTROM2006=  1.889725988578923    
_ANGSTROM=  1.889726131421507    
_IGNORE_UNDEF=  2.000000000000000    
_STRICTCHECK=  0.000000000000000    
_SEW_ONEEL=  0.000000000000000    
_CPPDONE=FALSE
_DKROLL_DONE=  0.000000000000000    
_FOCKDONE=TRUE
_GRADONE=FALSE
_HESSDONE=TRUE
_INTDONE=TRUE
_SCFDONE=TRUE
_MODUL_CUDA=FALSE
_MODUL_SLATER=FALSE
_MODUL_MRCC=FALSE
_MRCC_EXEC=
_FITC_AO_SAVED=  0.000000000000000    
_FITC_MO_SAVED=  0.000000000000000    
_SHARED_FS=TRUE
_LSTYP=SEWARD
_INTYP=INTS
_GEOMTYP=ZMAT
_GRADTYP=ALASKA
_DIRECT=FALSE
_SYNCM=  0.000000000000000    
_BASIS=6-31+G
_ZSYMEL=
_ZORIENT=  1.000000000000000    
_NELEC=  10.00000000000000    
!SPIN=  0.000000000000000    
_OPTCONV= 0.4862787468080045E-04
_QSDSTEP=  0.000000000000000    
_QSDIRC=  0.000000000000000    
_PROGRAM=FREQ
_CPUSTEP=  0.000000000000000    
_SYSSTEP=  0.000000000000000    
_WALLSTEP=  0.000000000000000    
!DFMP2=  0.000000000000000    
!DFSCF=  0.000000000000000    
!SCSGRD=  0.000000000000000    
_BASINP=  610.0000000000000    
_CPUTOT=  38.11000000000000    
_CPUCCSD= 0.1000000000000512E-01
_SYSCCSD=  0.000000000000000    
_WALLCCSD= 0.2000000048428774E-01
_CPUF12=  0.000000000000000    
_SYSF12=  0.000000000000000    
_WALLF12=  0.000000000000000    
_CPUF12B=  0.000000000000000    
_SYSF12B=  0.000000000000000    
_WALLF12B=  0.000000000000000    
_CPUTRANS=  0.000000000000000    
_SYSTRANS=  0.000000000000000    
_WALLTRANS= 0.9999999776482582E-02
_DFTEXFAC=  1.000000000000000    
_DMX=-0.7189954187580838E-10
_DMY= 0.1063038546078587E-13
_DMZ=-0.1127978750403713E-06
_FREQUENCIES= 0.3871199678233278E-04
_EMP2= -40.28079953889396    
_EMP2_SING=-0.7535690918598383E-01
_EMP2_TRIP=-0.2476119712626896E-01
_EMP2_SCS= -40.28651669070567    
_ECSING=-0.7535690918598384E-01
_ECTRIP=-0.2476119712626895E-01
_ENERGC= -40.28079953889396    
_ENERG_CC=  0.000000000000000    
_ENERG_CV=  0.000000000000000    
_ENERG_VV=-0.1001181063122528    
_ENERGR= -40.18068143258171    
_ENERGY= -40.28079953889396    
_ENUC=  13.36031501456619    
_FREQSTEP=  22.00000000000000    
_GRADENERG= -40.28079539983776    
_GRADEXFAC=  9999.000000000000    
_GRADMETHOD=  8.000000000000000    
_GRADRECORD=TRUE
_VIRIAL= 0.2457177098192637E-02
!GRID_FREEZE= -1.000000000000000    
_ITERATIONS=  1.000000000000000    
_LASTNELEC=  10.00000000000000    
_LASTSPIN=  0.000000000000000    
_LASTSYM=  1.000000000000000    
_MPP_PROG=  0.000000000000000    
_NPROC_MPP=  1.000000000000000    
_NPROC_SMP=  1.000000000000000    
_NUMSTEP=  0.000000000000000    
_OPTCONVMX= 0.4860023997900138E-04
_OPTCONVRMS= 0.1620929156026682E-04
_OPTGRAD= 0.6936053970120487E-04
_OPTGRADMX= 0.6935010623904740E-04
_OPTGRADRMS= 0.2312017990040162E-04
_OPTSTEP=  3.000000000000000    
_ORBITAL=  2101.200000000000    
_PI=  3.141592653589793    
_ECDIAG=-0.3966723719269487E-01
_EPDIAG=-0.3966723719269487E-01
_SEIG_MIN= 0.1436968000577348E-01
_SEWPROP=TRUE
_STATUS=  1.000000000000000    
_SYSTOT=  1.170000000000000    
_T1DIAG=  0.000000000000000    
_VERSION=  2010001.000000000    
_WALLTOT=  52.12000000000000    
_ZPE= 0.4574612730408606E-01
_DATE=17-Aug-24
_LASTORB=RHF
_MACHINE=Linux-3.10.0-1160.108.1.el7.x86_64/molmod(x86_64) 64 bit serial version
_METHODC=MP2
_OUTPUT=/home/ospite/Desktop/MMfP/Project6/CH4/molpro/MP2/ch4_+.xml
_PGROUP=C1
_TIME=17:19:23
_ANSATZ=
_LIBMOL=/usr/local/molpro/molpros_2010_1_Linux_x86_64_i8/lib/
!SURFREC=  0.000000000000000    
!POLYREC=  0.000000000000000    
!DIPREC=  0.000000000000000    
!VSCFREC=  0.000000000000000    
!VCIREC=  0.000000000000000    
!PVCIREC=  0.000000000000000    
!VMP2REC=  0.000000000000000    
!VMCSCFREC=  0.000000000000000    
!GAREC=  0.000000000000000    
!SCFORB=  21002.00000000000    
!CIOCC=  4.000000000000000    
!CICORE=  1.000000000000000    
!CICLOS=  4.000000000000000    
!CIISTSYM=  1.000000000000000    
!CIISTMS2=  0.000000000000000    
!CIISTNEL=  8.000000000000000    
!NEWMOL=  0.000000000000000    
!NEWSYM=  0.000000000000000    
_SLFILES=slscratch
_NGSSTO=  9.000000000000000    
_SIN=SIN
_COS=COS
_TAN=TAN
_ACOS=ACOS
_ASIN=ASIN
_ATAN=ATAN
_COSH=COSH
_SINH=SINH
_TANH=TANH
_ABS=ABS
_MOD=MOD
_ERF=ERF
_REFC=REFC
_ERFC=ERFC
_HYPOT=HYPOT
_J0=J0
_J1=J1
_JN=JN
_GAMMA=GAMMA
_LGAMMA=LGAMMA
_Y0=Y0
_Y1=Y1
_YN=YN
_EXP=EXP
_LOG=LOG
_LOG10=LOG10
_SQRT=SQRT
_INT=INT
_NINT=NINT
_MAX=MAX
_MIN=MIN
_COSMO=  0.000000000000000    
_COSMOIT=  0.000000000000000    
_COSMOES=  0.000000000000000    
_COSMOEDS=  0.000000000000000    
_COSMOEC=  0.000000000000000    
_COSMOEDCORR=  0.000000000000000    
_FEPSI=  1.000000000000000    
_SL_IsMM=  0.000000000000000    
_SL_NSYM=  0.000000000000000    
_SL_System_BitSw=  0.000000000000000    
_SL_Unique_atoms=  0.000000000000000    
_SL_GRAD=  0.000000000000000    
_SL_MAXUPD_Hess=  5.000000000000000    
_SL_N_PRINT_COD=  5.000000000000000    
_SL_PRINT_CODES=  0.000000000000000    
_SL_BasType=  0.000000000000000    
_SL_Energy_Pred=  0.000000000000000    
_SL_New_Coords=  0.000000000000000    
_SL_Total_Nuclea=  0.000000000000000    
_SL_Highest_Mltp=  0.000000000000000    
_SL_Ref_Geom=  0.000000000000000    
!LATTICE= -1.000000000000000    
!NEWLATTICE=  0.000000000000000    
!LATGRAD_VAR=FALSE
!SEW_LATTICE=  1.000000000000000    
!LOCAL=  0.000000000000000    
!SAVEDOM= -1.000000000000000    
!RESTDOM= -1.000000000000000    
!SAVEDOM_HF= -1.000000000000000    
!RESTDOM_HF= -1.000000000000000    
!HESSREC=  5300.200000000000    
!FREQREC=  5400.200000000000    
!NMODREC=  5450.200000000000    
!GTASKS=  0.000000000000000    
!HTASKS=  5500.200000000000    
!THRCHG= 0.1000000000000000    
!DEBUG= -1.000000000000000    
!CFIT_CPHF=  0.000000000000000    
!RDOMAUX_CPHF=  5.000000000000000    
!THRAO_CPHF= 0.9999999999999999E-11
!THRMO_CPHF= 0.9999999999999999E-11
!THROV_CPHF= 0.1000000000000000E-11
!THRSW_CPHF= 0.1000000000000000E-09
!THRPROD_CPHF= 0.9999999999999999E-11
!THRAOPR_CPHF= 0.1000000000000000E-11
!CFIT_SCFGRD=  0.000000000000000    
!RDOMAUX_SCFGRD=  7.000000000000000    
!THRAO_SCFGRD= 0.9999999999999999E-11
!THRMO_SCFGRD= 0.9999999999999999E-11
!THROV_SCFGRD= 0.1000000000000000E-11
!THRSW_SCFGRD= 0.1000000000000000E-09
!THRPROD_SCFGRD= 0.9999999999999999E-11
!THRAOPR_SCFGRD= 0.1000000000000000E-11
!LOCFIT_SCF=  0.000000000000000    
!LOCFIT_MP2= -1.000000000000000    
_RIDOM=  0.000000000000000    
!CC2_METHOD=  0.000000000000000    
_BASIS2006=FALSE
_SVDDEL= -1.000000000000000    
_SVDDELA= -1.000000000000000    
_SVDDELP= -1.000000000000000    
_SVDDELF= -1.000000000000000    
_SVDDELS= -1.000000000000000    
_SVDDEL_ABS= -1.000000000000000    
_SVDDELA_ABS= -1.000000000000000    
_SVDDELP_ABS= -1.000000000000000    
_SVDDELF_ABS= -1.000000000000000    
_SVDDELS_ABS= -1.000000000000000    
_MAXBASIS=  0.000000000000000    
!OPT_CONICAL=  0.000000000000000    
!CLEARSP_JGRID=  0.000000000000000    
D=  1.096124920585620    
A=  109.4712329619453    
T=  120.0000000028788    
GX1= 0.7118229803150925E-11
GY1= -0.000000000000000    
GZ1= 0.7919728114730254E-07
GX2=-0.9310520973106228E-04
GY2= -0.000000000000000    
GZ2=  2.071375982837782    
GX3=  1.952942817010324    
GY3= -0.000000000000000    
GZ3=-0.6903711951005717    
GX4=-0.9764248559427081    
GY4= -1.691271216145190    
GZ4=-0.6905028657412089    
GX5=-0.9764248559427081    
GY5=  1.691271216145190    
GZ5=-0.6905028657412089    
CX1= 0.7118229616853711E-11
CY1=  0.000000000000000    
CZ1= 0.7919728114806623E-07
H1X2=-0.9310520973106196E-04
H1Y2=  0.000000000000000    
H1Z2=  2.071375982837782    
H2X3=  1.952942817010324    
H2Y3=  0.000000000000000    
H2Z3=-0.6903711951005717    
H3X4=-0.9764248559427081    
H3Y4= -1.691271216145190    
H3Z4=-0.6905028657412089    
H4X5=-0.9764248559427081    
H4Y5=  1.691271216145190    
H4Z5=-0.6905028657412089    
[Atoms] Angs
C     1    6         0.0000000000       -0.0000000000        0.0000000419
H     2    1        -0.0000492692       -0.0000000000        1.0961249614
H     3    1         1.0334528292       -0.0000000000       -0.3653287022
H     4    1        -0.5167017801       -0.8949821818       -0.3653983793
H     5    1        -0.5167017801        0.8949821818       -0.3653983793
[GTO]
  1 0
 s    6  1.00
  0.3047524900D+04  0.1834737091D-02
  0.4573695200D+03  0.1403732293D-01
  0.1039486800D+03  0.6884262165D-01
  0.2921015500D+02  0.2321844388D+00
  0.9286663000D+01  0.4679413476D+00
  0.3163927000D+01  0.3623119882D+00
 s    3  1.00
  0.7868272300D+01 -0.1193324245D+00
  0.1881288500D+01 -0.1608541561D+00
  0.5442492600D+00  0.1143456443D+01
 s    1  1.00
  0.1687144800D+00  0.1000000000D+01
 s    1  1.00
  0.4380000000D-01  0.1000000000D+01
 p    3  1.00
  0.7868272300D+01  0.6899906693D-01
  0.1881288500D+01  0.3164239597D+00
  0.5442492600D+00  0.7443082892D+00
 p    1  1.00
  0.1687144800D+00  0.1000000000D+01
 p    1  1.00
  0.4380000000D-01  0.1000000000D+01
  
  2 0
 s    3  1.00
  0.1873113700D+02  0.3349460400D-01
  0.2825394400D+01  0.2347269500D+00
  0.6401216900D+00  0.8137573301D+00
 s    1  1.00
  0.1612777600D+00  0.1000000000D+01
  
  3 0
 s    3  1.00
  0.1873113700D+02  0.3349460400D-01
  0.2825394400D+01  0.2347269500D+00
  0.6401216900D+00  0.8137573301D+00
 s    1  1.00
  0.1612777600D+00  0.1000000000D+01
  
  4 0
 s    3  1.00
  0.1873113700D+02  0.3349460400D-01
  0.2825394400D+01  0.2347269500D+00
  0.6401216900D+00  0.8137573301D+00
 s    1  1.00
  0.1612777600D+00  0.1000000000D+01
  
  5 0
 s    3  1.00
  0.1873113700D+02  0.3349460400D-01
  0.2825394400D+01  0.2347269500D+00
  0.6401216900D+00  0.8137573301D+00
 s    1  1.00
  0.1612777600D+00  0.1000000000D+01


[MO]
 Sym=      1.1
 Ene=     -11.2127
 Spin= Alpha
 Occup=    2.000000
1 0.99617708522711
2 0.025514814562602
3 -0.017281387944424
4 -0.000917358230830
5 -0.000000000001796
6 -0.000000000000000
7 -0.000000000650756
8 -0.000000000007374
9 0.000000000000000
10 0.000000002091519
11 -0.000000000002470
12 0.000000000000000
13 0.000000000459977
14 -0.000167699994013
15 0.003670974107918
16 -0.000167699946851
17 0.003670975696989
18 -0.000167699950927
19 0.003670975687631
20 -0.000167699950927
21 0.003670975687631
 Sym=      2.1
 Ene=      -0.9458
 Spin= Alpha
 Occup=    2.000000
1 -0.19685557229519
2 0.37142883702274
3 0.40332782913221
4 0.017150930459663
5 -0.000000000021307
6 -0.000000000000000
7 -0.000000052402236
8 -0.000000000148203
9 -0.000000000000001
10 -0.000000035866739
11 -0.000000000120512
12 -0.000000000000001
13 -0.000000001983079
14 0.13422969137732
15 0.023929770671508
16 0.13422970670165
17 0.023929761623954
18 0.13422970675052
19 0.023929761323265
20 0.13422970675052
21 0.023929761323266
 Sym=      3.1
 Ene=      -0.5435
 Spin= Alpha
 Occup=    2.000000
1 -0.000000024771983
2 0.000000058388233
3 0.000000031874127
4 -0.000000002566011
5 -0.000150065350861
6 -0.000000001456989
7 0.43583181648572
8 -0.000076501709239
9 -0.000000000742761
10 0.22218312661713
11 -0.000006268576038
12 -0.000000000060863
13 0.018206024470812
14 0.30138574396903
15 0.23562191963730
16 -0.10054697920282
17 -0.078607127207710
18 -0.10041937943652
19 -0.078507370018592
20 -0.10041938108181
21 -0.078507371304875
 Sym=      4.1
 Ene=      -0.5435
 Spin= Alpha
 Occup=    2.000000
1 -0.000000000030353
2 0.000000000022988
3 0.000000000161169
4 -0.000000000087443
5 0.43583181643070
6 -0.000006149087684
7 0.000150065327048
8 0.22218313272140
9 -0.000003134749491
10 0.000076502185446
11 0.018206034905088
12 -0.000000256866297
13 0.000006268701164
14 0.000090226134234
15 0.000070537805532
16 0.28411912779272
17 0.22212301767639
18 -0.14210120507471
19 -0.11109406339888
20 -0.14210814890053
21 -0.11109949204972
 Sym=      5.1
 Ene=      -0.5435
 Spin= Alpha
 Occup=    2.000000
1 -0.000000000000001
2 -0.000000000000004
3 0.000000000000024
4 0.000000000000006
5 0.000006149086818
6 0.43583184227684
7 0.000000003574239
8 0.000003134749047
9 0.22218314575928
10 0.000000001822116
11 0.000000256866260
12 0.018206035901631
13 0.000000000149306
14 0.000000002280522
15 0.000000001782889
16 0.000004008259067
17 0.000003133638362
18 -0.24608244471366
19 -0.19238611509289
20 0.24607843417407
21 0.19238297967160
 Sym=      6.1
 Ene=       0.0931
 Spin= Alpha
 Occup=    0.000000
1 0.066407365540768
2 -0.11895966429347
3 -0.26957814425672
4 1.72594071829891
5 -0.000000000041989
6 0.000000000000001
7 0.000000044402372
8 -0.000000000360246
9 -0.000000000000021
10 -0.000000106093962
11 -0.000000000139814
12 -0.000000000000031
13 -0.000000353322190
14 0.012719371669937
15 -0.29852573237985
16 0.012719360290559
17 -0.29852597366417
18 0.012719360201320
19 -0.29852597443382
20 0.012719360201322
21 -0.29852597443376
 Sym=      7.1
 Ene=       0.1229
 Spin= Alpha
 Occup=    0.000000
1 0.000000018889091
2 -0.000000007068806
3 -0.000000199581067
4 0.000000384718913
5 -0.000457442891121
6 -0.000000003361623
7 -0.11144308212513
8 -0.000700257163394
9 -0.000000005146001
10 -0.17059799527135
11 0.005053331894230
12 0.000000037135533
13 1.23110130351584
14 -0.037187245983884
15 -0.37273607520900
16 0.012250256703157
17 0.12278706015344
18 0.012468492001182
19 0.12497448190685
20 0.012468490169397
21 0.12497446354647
 Sym=      8.1
 Ene=       0.1229
 Spin= Alpha
 Occup=    0.000000
1 0.000000000000002
2 0.000000000000007
3 -0.000000000000042
4 0.000000000000013
5 -0.000000069163550
6 -0.11144400487341
7 0.000000003645549
8 -0.000000105876205
9 -0.17059950814397
10 0.000000005580651
11 0.000000764043358
12 1.23111164536520
13 -0.000000040272032
14 0.000000001217514
15 0.000000012203407
16 -0.000000022164953
17 -0.000000222164120
18 0.030363544316828
19 0.30434040836712
20 -0.030363523369391
21 -0.30434019840637
 Sym=      9.1
 Ene=       0.1229
 Spin= Alpha
 Occup=    0.000000
1 -0.000000000068813
2 0.000000000139968
3 -0.000000000086452
4 -0.000000001932647
5 -0.11144306616497
6 0.000000069177930
7 0.000457443196795
8 -0.17059807245726
9 0.000000105898209
10 0.000700258013561
11 1.23110127394520
12 -0.000000764202228
13 -0.005053331754553
14 0.000154314832842
15 0.001546733150761
16 -0.035111925373005
17 -0.35193446167044
18 0.017478786257099
19 0.17519367642386
20 0.017478823952917
21 0.17519405425725
 Sym=     10.1
 Ene=       0.3281
 Spin= Alpha
 Occup=    0.000000
1 0.000000000000020
2 0.000000000000019
3 -0.000000000000362
4 -0.000000000000099
5 -0.000007812673185
6 0.26194003100485
7 -0.000000095139031
8 -0.000045470870587
9 1.52452828406880
10 -0.000000553722925
11 -0.000007286584567
12 0.24430155109531
13 -0.000000088732656
14 0.000000044902034
15 0.000000755668929
16 0.000003474322187
17 0.000058470301046
18 0.10131227649730
19 1.70501151297234
20 -0.10131579572146
21 -1.70507073894180
 Sym=     11.1
 Ene=       0.3281
 Spin= Alpha
 Occup=    0.000000
1 0.000000000944840
2 -0.000000001104380
3 -0.000000013359305
4 -0.000000005982100
5 -0.26189697703901
6 -0.000007813113943
7 -0.004749036442557
8 -1.52427770233334
9 -0.000045473435838
10 -0.027640081454876
11 -0.24426139731308
12 -0.000007286995604
13 -0.004429251049490
14 0.002244093670247
15 0.037766478439619
16 0.11622020827091
17 1.95590108378829
18 -0.059235171595678
19 -0.99688462724499
20 -0.059229127631282
21 -0.99678291174515
 Sym=     12.1
 Ene=       0.3281
 Spin= Alpha
 Occup=    0.000000
1 0.000000064814625
2 -0.000000071189973
3 -0.000001016935443
4 -0.000000451193177
5 0.004749037257573
6 0.000000046522289
7 -0.26189694937662
8 0.027640071883689
9 0.000000270766301
10 -1.52427820869774
11 0.004429247448066
12 0.000000043389582
13 -0.24426164681247
14 0.12406355285009
15 2.08789981114143
16 -0.043470221358677
17 -0.73157255526820
18 -0.040296575180343
19 -0.67816240842788
20 -0.040296611168441
21 -0.67816301408104
 Sym=     13.1
 Ene=       0.4111
 Spin= Alpha
 Occup=    0.000000
1 -0.15879229749194
2 0.12240397004046
3 3.38730593854847
4 1.69487204974743
5 0.000000000470286
6 0.000000000000012
7 -0.000000163882751
8 0.000000002024366
9 -0.000000000000000
10 -0.000001191340814
11 0.000000000582653
12 0.000000000000014
13 -0.000000371709408
14 -0.034524847967235
15 -1.67276359963971
16 -0.034524866687733
17 -1.67276522774786
18 -0.034524866319362
19 -1.67276522358062
20 -0.034524866319365
21 -1.67276522358066
 Sym=     14.1
 Ene=       0.8682
 Spin= Alpha
 Occup=    0.000000
1 0.000000000251028
2 -0.000000003471083
3 -0.000000000846089
4 -0.000000004293738
5 -0.96330868691410
6 -0.000234209729355
7 -0.012369377573111
8 1.60859536540603
9 0.000391098606456
10 0.020655193385638
11 -0.54174611519968
12 -0.000131715007590
13 -0.006956296514947
14 -0.005232709713592
15 -0.000294901851907
16 -0.38381513999140
17 -0.021630511077422
18 0.19460510680076
19 0.010967287110897
20 0.19444274229256
21 0.010958136799390
 Sym=     15.1
 Ene=       0.8682
 Spin= Alpha
 Occup=    0.000000
1 -0.000000000000061
2 0.000000000000854
3 0.000000000000184
4 0.000000000001044
5 0.000234190943669
6 -0.96338809843664
7 0.000002966621820
8 -0.000391067237050
9 1.60872797131936
10 -0.000004953858598
11 0.000131704442896
12 -0.54179077463628
13 0.000001668370205
14 0.000001254931873
15 0.000000070724688
16 0.000093315416439
17 0.000005258938345
18 0.33388426246865
19 0.018816581567784
20 -0.33397883281682
21 -0.018821911233465
 Sym=     16.1
 Ene=       0.8682
 Spin= Alpha
 Occup=    0.000000
1 0.000000018698166
2 -0.000000231622866
3 -0.000000168427640
4 -0.000000362842859
5 0.012369377459128
6 0.000000040506650
7 -0.96330875581888
8 -0.020655188896050
9 -0.000000067640651
10 1.60859582033904
11 0.006956297715300
12 0.000000022780161
13 -0.54174605734185
14 -0.40894746433877
15 -0.023047159548711
16 0.14124923325779
17 0.007960758115448
18 0.13384904947887
19 0.007543708465235
20 0.13384907755989
21 0.007543710047776
 Sym=     17.1
 Ene=       1.2663
 Spin= Alpha
 Occup=    0.000000
1 0.000000000000016
2 0.000000000000520
3 -0.000000000001261
4 -0.000000000000054
5 0.000039115177751
6 -0.70428588411660
7 0.000000013349521
8 -0.000040664973286
9 0.73219063056788
10 -0.000000013878475
11 -0.000018645556364
12 0.33572139780394
13 -0.000000006363470
14 -0.000000018972310
15 0.000000029040774
16 -0.000060354837155
17 0.000092383486028
18 -0.94119141986055
19 1.44065576445922
20 0.94125179367023
21 -1.44074817698495
 Sym=     18.1
 Ene=       1.2663
 Spin= Alpha
 Occup=    0.000000
1 -0.000000000135366
2 -0.000000001658805
3 0.000000003771276
4 -0.000000000747813
5 0.70428570585958
6 0.000039115177329
7 0.000501424132031
8 -0.73219044561791
9 -0.000040664972866
10 -0.000521291354969
11 -0.33572131274700
12 -0.000018645556169
13 -0.000239020316302
14 -0.000768903365865
15 0.001176937814397
16 -1.08657255429425
17 1.66318665880612
18 0.54372300128351
19 -0.83226181325468
20 0.54361845268787
21 -0.83210178360095
 Sym=     19.1
 Ene=       1.2663
 Spin= Alpha
 Occup=    0.000000
1 -0.000000161266433
2 -0.000001372905673
3 0.000003417478041
4 -0.000000772885715
5 -0.000501423896858
6 -0.000000014498975
7 0.70428570592951
8 0.000521291841026
9 0.000000015073445
10 -0.73219033937338
11 0.000239020431493
12 0.000000006911424
13 -0.33572145368162
14 -1.15275715780532
15 1.76449193076067
16 0.38497599338117
17 -0.58927355619608
18 0.38388858179890
19 -0.58760908387059
20 0.38388862055233
21 -0.58760914318941
 Sym=     20.1
 Ene=       1.3194
 Spin= Alpha
 Occup=    0.000000
1 -0.10101412105332
2 -1.66537045665641
3 4.06122462554667
4 -0.21911858445666
5 -0.000000000341554
6 -0.000000000000176
7 -0.000000851880761
8 0.000000000156951
9 0.000000000000211
10 0.000000054992551
11 -0.000000000006054
12 0.000000000000084
13 0.000000447841580
14 -0.54911234292188
15 -0.52912291577776
16 -0.54911461490631
17 -0.52912036444957
18 -0.54911461565740
19 -0.52912036367823
20 -0.54911461565694
21 -0.52912036367899
 Sym=     21.1
 Ene=       1.3707
 Spin= Alpha
 Occup=    0.000000
1 -0.043782278080993
2 1.77219179220810
3 -4.15926990873659
4 -0.90096864498756
5 -0.000000000329209
6 0.000000000000073
7 -0.000000507753111
8 0.000000000468317
9 -0.000000000000097
10 0.000000904390292
11 -0.000000000340336
12 -0.000000000000037
13 0.000000323453785
14 -0.49965172464533
15 1.47797628929081
16 -0.49965247683112
17 1.47797775931533
18 -0.49965247669724
19 1.47797775913723
20 -0.49965247669742
21 1.47797775913756
 [FREQ]
      0.00
      0.00
      0.00
      0.00
      0.00
      0.00
   1431.93
   1431.96
   1431.98
   1595.58
   1595.62
   3051.65
   3180.43
   3180.49
   3180.58
 [FR-COORD]
C          0.0000000000       -0.0000000000        0.0000000792
H         -0.0000931052       -0.0000000000        2.0713759828
H          1.9529428170       -0.0000000000       -0.6903711951
H         -0.9764248559       -1.6912712161       -0.6905028657
H         -0.9764248559        1.6912712161       -0.6905028657
 [FR-NORM-COORD]
 Vibration                    1
         -0.11024151          0.12314800         -0.03952220
          0.12467681         -0.05432768         -0.03951164
         -0.18853771          0.49921319         -0.26100882
          0.08590303          0.02385330         -0.07368011
         -0.46300832          0.02385330          0.21611177
 Vibration                    2
          0.11124498         -0.03202272          0.16836197
          0.39078016         -0.20765383          0.16837454
          0.01807837          0.13763196         -0.09519049
          0.11429194         -0.02903444          0.15673405
         -0.07817074         -0.02903444          0.44352979
 Vibration                    3
         -0.08294828          0.05435230          0.10669695
         -0.37446847         -0.29874394          0.10668385
          0.01421282         -0.00618050          0.38154917
         -0.14010880          0.26116693         -0.31903140
          0.16857151          0.26116693          0.25758618
 Vibration                    4
          0.16143930          0.05154994         -0.11854651
          0.02316604         -0.25615423         -0.11855273
          0.20752455          0.20528982          0.01182082
          0.25186067          0.12853219         -0.43496447
          0.16320601          0.12853219          0.06751032
 Vibration                    5
          0.06395911          0.15007209          0.08249926
         -0.16932229          0.44630444          0.08248877
          0.14170973          0.21573622          0.30244255
          0.28409547         -0.03087625          0.21441194
         -0.00064634         -0.03087625         -0.26934623
 Vibration                    6
          0.02776593          0.13419884         -0.01349123
          0.31095431          0.18508694         -0.01347850
         -0.06661825         -0.27838608         -0.28048802
         -0.40925701          0.31504723          0.16153536
          0.27598449          0.31504723          0.07846624
 Vibration                    7
         -0.08417560         -0.00000001         -0.07981388
          0.40334303          0.00000003         -0.05172751
          0.13271749          0.00000003          0.47810796
          0.23350411         -0.29453847          0.26235618
          0.23350414          0.29453849          0.26235620
 Vibration                    8
          0.07981345         -0.00000001         -0.08417547
         -0.38242758          0.00000004         -0.05459456
          0.14744965          0.00000004          0.21617357
         -0.35805493          0.04252986          0.42074411
         -0.35805489         -0.04252984          0.42074414
 Vibration                    9
         -0.00000000         -0.11599781          0.00000001
          0.00000000          0.55594461          0.00000001
         -0.00000002          0.55597233         -0.00000004
         -0.24293755          0.13517877         -0.17178216
          0.24293757          0.13517874          0.17178207
 Vibration                   10
         -0.00003037          0.00000000         -0.00000436
          0.49818084         -0.00000003          0.00001938
          0.16598325          0.00000003          0.46962998
         -0.33190108          0.28745272         -0.23479868
         -0.33190105         -0.28745272         -0.23479872
 Vibration                   11
         -0.00000000         -0.00000306         -0.00000000
          0.00000003          0.49804225          0.00000000
          0.00000001         -0.49801116          0.00000002
          0.28754669          0.00000270         -0.40662953
         -0.28754672          0.00000267          0.40662951
 Vibration                   12
          0.00002842         -0.00000000          0.00003895
         -0.00000823         -0.00000000          0.49763582
          0.46942663         -0.00000000         -0.16591906
         -0.23487856         -0.40686770         -0.16609046
         -0.23487856          0.40686770         -0.16609046
 Vibration                   13
         -0.00000001         -0.08641822         -0.00000000
         -0.00000000         -0.02495368          0.00000002
          0.00000009         -0.02495585         -0.00000003
          0.32608110          0.53985115          0.23059497
         -0.32608105          0.53985105         -0.23059493
 Vibration                   14
         -0.08218197          0.00000001         -0.02672022
         -0.02374118          0.00000000          0.25444169
          0.61037427          0.00000000         -0.23186754
          0.19633939          0.38121639          0.14791711
          0.19633948         -0.38121653          0.14791717
 Vibration                   15
          0.02672083         -0.00000000         -0.08218189
          0.00767624         -0.00000000          0.78214503
         -0.47816032         -0.00000000          0.14801670
          0.07603423          0.11833506          0.02457461
          0.07603422         -0.11833504          0.02457460
