[Molden Format]
[Molpro variables]
_NUMVAR=  693.0000000000000    
_EV2006= 0.3674930886769165E-01
_EV= 0.3674932534394180E-01
_KJOULE= 0.3808798324128737E-03
_KJOULE/MOL= 0.3808798324128737E-03
_CM= 0.4556335267302901E-05
_CM-1= 0.4556335267302901E-05
_KCAL= 0.1593601117815568E-02
_KCAL/MOL= 0.1593601117815568E-02
_KELVIN2006= 0.3166828861084835E-05
_KELVIN= 0.3166814820820034E-05
_HERTZ2006= 0.1519829850815779E-15
_HERTZ= 0.1519829846011223E-15
_HZ2006= 0.1519829850815779E-15
_HZ= 0.1519829846011223E-15
_TOA2006= 0.5291772490000000    
_TOA= 0.5291772090000000    
_TOANG2006= 0.5291772490000000    
_TOANG= 0.5291772090000000    
_TORAD= 0.1745329251994330E-01
_TOCM=  219474.6306700000    
_TODEBYE=  2.541580000000000    
_TOEV2006=  27.21139610000000    
_TOEV=  27.21138390000000    
_TOHERTZ2006=  6579683899900000.    
_TOHERTZ=  6579683920700000.    
_TOHZ2006=  6579683899900000.    
_TOHZ=  6579683920700000.    
_TOK2006=  315773.3000000000    
_TOK=  315774.7000000000    
_TOKCAL=  627.5096000000000    
_TOKELVIN2006=  315773.3000000000    
_TOKELVIN=  315774.7000000000    
_TOKJ=  2625.500000000000    
_TOKJOULE=  2625.500000000000    
_ANG2006=  1.889725988578923    
_ANG=  1.889726131421507    
_ANGSTROM2006=  1.889725988578923    
_ANGSTROM=  1.889726131421507    
_IGNORE_UNDEF=  2.000000000000000    
_STRICTCHECK=  0.000000000000000    
_SEW_ONEEL=  0.000000000000000    
_CPPDONE=FALSE
_DKROLL_DONE=  0.000000000000000    
_FOCKDONE=TRUE
_GRADONE=FALSE
_HESSDONE=TRUE
_INTDONE=TRUE
_SCFDONE=TRUE
_MODUL_CUDA=FALSE
_MODUL_SLATER=FALSE
_MODUL_MRCC=FALSE
_MRCC_EXEC=
_FITC_AO_SAVED=  0.000000000000000    
_FITC_MO_SAVED=  0.000000000000000    
_SHARED_FS=TRUE
_LSTYP=SEWARD
_INTYP=INTS
_GEOMTYP=ZMAT
_GRADTYP=ALASKA
_DIRECT=FALSE
_SYNCM=  0.000000000000000    
_BASIS=6-31++G
_ZSYMEL=
_ZORIENT=  1.000000000000000    
_NELEC=  10.00000000000000    
!SPIN=  0.000000000000000    
_OPTCONV= 0.4668014034201504E-04
_QSDSTEP=  0.000000000000000    
_QSDIRC=  0.000000000000000    
_PROGRAM=FREQ
_CPUSTEP= 0.1000000000000512E-01
_SYSSTEP=  0.000000000000000    
_WALLSTEP=  0.000000000000000    
!DFMP2=  0.000000000000000    
!DFSCF=  0.000000000000000    
!SCSGRD=  0.000000000000000    
_BASINP=  610.0000000000000    
_CPUTOT=  38.82000000000000    
_CPUCCSD= 0.9999999999998010E-02
_SYSCCSD=  0.000000000000000    
_WALLCCSD= 0.3000000026077032E-01
_CPUF12=  0.000000000000000    
_SYSF12=  0.000000000000000    
_WALLF12=  0.000000000000000    
_CPUF12B=  0.000000000000000    
_SYSF12B=  0.000000000000000    
_WALLF12B=  0.000000000000000    
_CPUTRANS= 0.9999999999998010E-02
_SYSTRANS=  0.000000000000000    
_WALLTRANS= 0.9999999776482582E-02
_DFTEXFAC=  1.000000000000000    
_DMX=-0.3914357412423269E-09
_DMY=-0.4410491069584133E-13
_DMZ=-0.1123329945879872E-06
_FREQUENCIES= 0.4507639853614124E-04
_EMP2= -40.28100727254385    
_EMP2_SING=-0.7548756840321000E-01
_EMP2_TRIP=-0.2479719145195432E-01
_EMP2_SCS= -40.28673695834264    
_ECSING=-0.7548756840321003E-01
_ECTRIP=-0.2479719145195430E-01
_ENERGC= -40.28100727254385    
_ENERG_CC=  0.000000000000000    
_ENERG_CV=  0.000000000000000    
_ENERG_VV=-0.1002847598551643    
_ENERGR= -40.18072251268868    
_ENERGY= -40.28100727254385    
_ENUC=  13.36194224951780    
_FREQSTEP=  22.00000000000000    
_GRADENERG= -40.28100314593883    
_GRADEXFAC=  9999.000000000000    
_GRADMETHOD=  8.000000000000000    
_GRADRECORD=TRUE
_VIRIAL= 0.2456230416547506E-02
!GRID_FREEZE= -1.000000000000000    
_ITERATIONS=  1.000000000000000    
_LASTNELEC=  10.00000000000000    
_LASTSPIN=  0.000000000000000    
_LASTSYM=  1.000000000000000    
_MPP_PROG=  0.000000000000000    
_NPROC_MPP=  1.000000000000000    
_NPROC_SMP=  1.000000000000000    
_NUMSTEP=  0.000000000000000    
_OPTCONVMX= 0.4665135845034912E-04
_OPTCONVRMS= 0.1556004678067168E-04
_OPTGRAD= 0.6655674858842819E-04
_OPTGRADMX= 0.6654585923182694E-04
_OPTGRADRMS= 0.2218558286280940E-04
_OPTSTEP=  3.000000000000000    
_ORBITAL=  2101.200000000000    
_PI=  3.141592653589793    
_ECDIAG=-0.3973122883809901E-01
_EPDIAG=-0.3973122883809901E-01
_SEIG_MIN= 0.4429875813619172E-02
_SEWPROP=TRUE
_STATUS=  1.000000000000000    
_SYSTOT=  1.080000000000000    
_T1DIAG=  0.000000000000000    
_VERSION=  2010001.000000000    
_WALLTOT=  42.01000000000000    
_ZPE= 0.4570028350542116E-01
_DATE=17-Aug-24
_LASTORB=RHF
_MACHINE=Linux-3.10.0-1160.108.1.el7.x86_64/molmod(x86_64) 64 bit serial version
_METHODC=MP2
_OUTPUT=/home/ospite/Desktop/MMfP/Project6/CH4/molpro/MP2/ch4_++.xml
_PGROUP=C1
_TIME=17:22:01
_ANSATZ=
_LIBMOL=/usr/local/molpro/molpros_2010_1_Linux_x86_64_i8/lib/
!SURFREC=  0.000000000000000    
!POLYREC=  0.000000000000000    
!DIPREC=  0.000000000000000    
!VSCFREC=  0.000000000000000    
!VCIREC=  0.000000000000000    
!PVCIREC=  0.000000000000000    
!VMP2REC=  0.000000000000000    
!VMCSCFREC=  0.000000000000000    
!GAREC=  0.000000000000000    
!SCFORB=  21002.00000000000    
!CIOCC=  4.000000000000000    
!CICORE=  1.000000000000000    
!CICLOS=  4.000000000000000    
!CIISTSYM=  1.000000000000000    
!CIISTMS2=  0.000000000000000    
!CIISTNEL=  8.000000000000000    
!NEWMOL=  0.000000000000000    
!NEWSYM=  0.000000000000000    
_SLFILES=slscratch
_NGSSTO=  9.000000000000000    
_SIN=SIN
_COS=COS
_TAN=TAN
_ACOS=ACOS
_ASIN=ASIN
_ATAN=ATAN
_COSH=COSH
_SINH=SINH
_TANH=TANH
_ABS=ABS
_MOD=MOD
_ERF=ERF
_REFC=REFC
_ERFC=ERFC
_HYPOT=HYPOT
_J0=J0
_J1=J1
_JN=JN
_GAMMA=GAMMA
_LGAMMA=LGAMMA
_Y0=Y0
_Y1=Y1
_YN=YN
_EXP=EXP
_LOG=LOG
_LOG10=LOG10
_SQRT=SQRT
_INT=INT
_NINT=NINT
_MAX=MAX
_MIN=MIN
_COSMO=  0.000000000000000    
_COSMOIT=  0.000000000000000    
_COSMOES=  0.000000000000000    
_COSMOEDS=  0.000000000000000    
_COSMOEC=  0.000000000000000    
_COSMOEDCORR=  0.000000000000000    
_FEPSI=  1.000000000000000    
_SL_IsMM=  0.000000000000000    
_SL_NSYM=  0.000000000000000    
_SL_System_BitSw=  0.000000000000000    
_SL_Unique_atoms=  0.000000000000000    
_SL_GRAD=  0.000000000000000    
_SL_MAXUPD_Hess=  5.000000000000000    
_SL_N_PRINT_COD=  5.000000000000000    
_SL_PRINT_CODES=  0.000000000000000    
_SL_BasType=  0.000000000000000    
_SL_Energy_Pred=  0.000000000000000    
_SL_New_Coords=  0.000000000000000    
_SL_Total_Nuclea=  0.000000000000000    
_SL_Highest_Mltp=  0.000000000000000    
_SL_Ref_Geom=  0.000000000000000    
!LATTICE= -1.000000000000000    
!NEWLATTICE=  0.000000000000000    
!LATGRAD_VAR=FALSE
!SEW_LATTICE=  1.000000000000000    
!LOCAL=  0.000000000000000    
!SAVEDOM= -1.000000000000000    
!RESTDOM= -1.000000000000000    
!SAVEDOM_HF= -1.000000000000000    
!RESTDOM_HF= -1.000000000000000    
!HESSREC=  5300.200000000000    
!FREQREC=  5400.200000000000    
!NMODREC=  5450.200000000000    
!GTASKS=  0.000000000000000    
!HTASKS=  5500.200000000000    
!THRCHG= 0.1000000000000000    
!DEBUG= -1.000000000000000    
!CFIT_CPHF=  0.000000000000000    
!RDOMAUX_CPHF=  5.000000000000000    
!THRAO_CPHF= 0.9999999999999999E-11
!THRMO_CPHF= 0.9999999999999999E-11
!THROV_CPHF= 0.1000000000000000E-11
!THRSW_CPHF= 0.1000000000000000E-09
!THRPROD_CPHF= 0.9999999999999999E-11
!THRAOPR_CPHF= 0.1000000000000000E-11
!CFIT_SCFGRD=  0.000000000000000    
!RDOMAUX_SCFGRD=  7.000000000000000    
!THRAO_SCFGRD= 0.9999999999999999E-11
!THRMO_SCFGRD= 0.9999999999999999E-11
!THROV_SCFGRD= 0.1000000000000000E-11
!THRSW_SCFGRD= 0.1000000000000000E-09
!THRPROD_SCFGRD= 0.9999999999999999E-11
!THRAOPR_SCFGRD= 0.1000000000000000E-11
!LOCFIT_SCF=  0.000000000000000    
!LOCFIT_MP2= -1.000000000000000    
_RIDOM=  0.000000000000000    
!CC2_METHOD=  0.000000000000000    
_BASIS2006=FALSE
_SVDDEL= -1.000000000000000    
_SVDDELA= -1.000000000000000    
_SVDDELP= -1.000000000000000    
_SVDDELF= -1.000000000000000    
_SVDDELS= -1.000000000000000    
_SVDDEL_ABS= -1.000000000000000    
_SVDDELA_ABS= -1.000000000000000    
_SVDDELP_ABS= -1.000000000000000    
_SVDDELF_ABS= -1.000000000000000    
_SVDDELS_ABS= -1.000000000000000    
_MAXBASIS=  0.000000000000000    
!OPT_CONICAL=  0.000000000000000    
!CLEARSP_JGRID=  0.000000000000000    
D=  1.095991433046998    
A=  109.4712329180187    
T=  120.0000000026264    
GX1= 0.6493296927193021E-11
GY1= -0.000000000000000    
GZ1= 0.7890546609254243E-07
GX2=-0.8523348013070368E-04
GY2= -0.000000000000000    
GZ2=  2.071123727994665    
GX3=  1.952702365773593    
GY3= -0.000000000000000    
GZ3=-0.6902945305230296    
GX4=-0.9763085661854194    
GY4= -1.691065251368370    
GZ4=-0.6904150688697310    
GX5=-0.9763085661854194    
GY5=  1.691065251368370    
GZ5=-0.6904150688697310    
CX1= 0.6493297219356542E-11
CY1=  0.000000000000000    
CZ1= 0.7890546609330695E-07
H1X2=-0.8523348013070309E-04
H1Y2=  0.000000000000000    
H1Z2=  2.071123727994665    
H2X3=  1.952702365773593    
H2Y3=  0.000000000000000    
H2Z3=-0.6902945305230296    
H3X4=-0.9763085661854194    
H3Y4= -1.691065251368370    
H3Z4=-0.6904150688697310    
H4X5=-0.9763085661854194    
H4Y5=  1.691065251368370    
H4Z5=-0.6904150688697310    
[Atoms] Angs
C     1    6         0.0000000000       -0.0000000000        0.0000000418
H     2    1        -0.0000451036       -0.0000000000        1.0959914739
H     3    1         1.0333255879       -0.0000000000       -0.3652881331
H     4    1        -0.5166402422       -0.8948731900       -0.3653519192
H     5    1        -0.5166402422        0.8948731900       -0.3653519192
[GTO]
  1 0
 s    6  1.00
  0.3047524900D+04  0.1834737091D-02
  0.4573695200D+03  0.1403732293D-01
  0.1039486800D+03  0.6884262165D-01
  0.2921015500D+02  0.2321844388D+00
  0.9286663000D+01  0.4679413476D+00
  0.3163927000D+01  0.3623119882D+00
 s    3  1.00
  0.7868272300D+01 -0.1193324245D+00
  0.1881288500D+01 -0.1608541561D+00
  0.5442492600D+00  0.1143456443D+01
 s    1  1.00
  0.1687144800D+00  0.1000000000D+01
 s    1  1.00
  0.4380000000D-01  0.1000000000D+01
 p    3  1.00
  0.7868272300D+01  0.6899906693D-01
  0.1881288500D+01  0.3164239597D+00
  0.5442492600D+00  0.7443082892D+00
 p    1  1.00
  0.1687144800D+00  0.1000000000D+01
 p    1  1.00
  0.4380000000D-01  0.1000000000D+01
  
  2 0
 s    3  1.00
  0.1873113700D+02  0.3349460400D-01
  0.2825394400D+01  0.2347269500D+00
  0.6401216900D+00  0.8137573301D+00
 s    1  1.00
  0.1612777600D+00  0.1000000000D+01
 s    1  1.00
  0.3600000000D-01  0.1000000000D+01
  
  3 0
 s    3  1.00
  0.1873113700D+02  0.3349460400D-01
  0.2825394400D+01  0.2347269500D+00
  0.6401216900D+00  0.8137573301D+00
 s    1  1.00
  0.1612777600D+00  0.1000000000D+01
 s    1  1.00
  0.3600000000D-01  0.1000000000D+01
  
  4 0
 s    3  1.00
  0.1873113700D+02  0.3349460400D-01
  0.2825394400D+01  0.2347269500D+00
  0.6401216900D+00  0.8137573301D+00
 s    1  1.00
  0.1612777600D+00  0.1000000000D+01
 s    1  1.00
  0.3600000000D-01  0.1000000000D+01
  
  5 0
 s    3  1.00
  0.1873113700D+02  0.3349460400D-01
  0.2825394400D+01  0.2347269500D+00
  0.6401216900D+00  0.8137573301D+00
 s    1  1.00
  0.1612777600D+00  0.1000000000D+01
 s    1  1.00
  0.3600000000D-01  0.1000000000D+01


[MO]
 Sym=      1.1
 Ene=     -11.2128
 Spin= Alpha
 Occup=    2.000000
1 0.99618144064622
2 0.025561699105434
3 -0.017077155743947
4 0.002677114454094
5 -0.000000000009424
6 0.000000000000000
7 -0.000000000578853
8 0.000000000027874
9 -0.000000000000000
10 0.000000001660074
11 -0.000000000070782
12 0.000000000000000
13 0.000000000843160
14 -0.000111258742013
15 0.003247771165633
16 -0.000750398768458
17 -0.000111258700023
18 0.003247772331487
19 -0.000750396999392
20 -0.000111258699683
21 0.003247772352214
22 -0.000750397183489
23 -0.000111258699683
24 0.003247772352215
25 -0.000750397183490
 Sym=      2.1
 Ene=      -0.9458
 Spin= Alpha
 Occup=    2.000000
1 -0.19685918226105
2 0.37147131199895
3 0.40352960388330
4 0.020878351893548
5 -0.000000000073890
6 -0.000000000000000
7 -0.000000052278714
8 0.000000000109436
9 -0.000000000000002
10 -0.000000035832905
11 -0.000000001003442
12 -0.000000000000019
13 -0.000000002678982
14 0.13427558537704
15 0.023511396738243
16 -0.000802368312072
17 0.13427560067075
18 0.023511387503635
19 -0.000802367879552
20 0.13427560073237
21 0.023511387423486
22 -0.000802370431675
23 0.13427560073237
24 0.023511387423499
25 -0.000802370431620
 Sym=      3.1
 Ene=      -0.5435
 Spin= Alpha
 Occup=    2.000000
1 -0.000000024735959
2 0.000000057941647
3 0.000000031389387
4 -0.000000029465340
5 -0.000200001440756
6 0.000000000005517
7 0.43557859899253
8 -0.000102920803837
9 0.000000000002842
10 0.22414918838151
11 -0.000003233607783
12 0.000000000000081
13 0.007042648689225
14 0.30131073654446
15 0.23474718019380
16 0.022573827232965
17 -0.10055565837742
18 -0.078341554668552
19 -0.007533497498369
20 -0.10037753718148
21 -0.078202782810065
22 -0.007520152906137
23 -0.10037753717525
24 -0.078202782805214
25 -0.007520152905639
 Sym=      4.1
 Ene=      -0.5435
 Spin= Alpha
 Occup=    2.000000
1 -0.000000000037940
2 -0.000000000000267
3 0.000000000552650
4 0.000000002287676
5 0.43557859912795
6 0.000000383011990
7 0.000200001465774
8 0.22414919324565
9 0.000000197098364
10 0.000102920739280
11 0.007042668617291
12 0.000000006192742
13 0.000003235416800
14 0.000125950742924
15 0.000098125912311
16 0.000009432191280
17 0.28403650231012
18 0.22128910624903
19 0.021279645345487
20 -0.14208144283546
21 -0.11069378529841
22 -0.010644555949228
23 -0.14208101017740
24 -0.11069344822020
25 -0.010644523535044
 Sym=      5.1
 Ene=      -0.5435
 Spin= Alpha
 Occup=    2.000000
1 -0.000000000000000
2 0.000000000000003
3 -0.000000000000029
4 -0.000000000000210
5 -0.000000383011947
6 0.43557864505838
7 -0.000000000181382
8 -0.000000197098339
9 0.22414921674351
10 -0.000000000093337
11 -0.000000006192735
12 0.007042670107427
13 -0.000000000002932
14 -0.000000000114569
15 -0.000000000089231
16 -0.000000000008540
17 -0.000000249757037
18 -0.000000194582398
19 -0.000000018711440
20 -0.24601908198829
21 -0.19167023400474
22 -0.018431427795712
23 0.24601933185989
24 0.19167042867649
25 0.018431446515859
 Sym=      6.1
 Ene=       0.0435
 Spin= Alpha
 Occup=    0.000000
1 -0.035856528623936
2 0.099900748903196
3 0.18525779090935
4 4.33567974519899
5 0.000000000548951
6 -0.000000000000013
7 -0.000000010716803
8 -0.000000001792671
9 0.000000000000039
10 -0.000000064529420
11 0.000000010939234
12 -0.000000000000648
13 -0.000000411775902
14 0.009532599455269
15 -0.16218732715886
16 -1.28633055513569
17 0.009532602024077
18 -0.16218740210677
19 -1.28633111319330
20 0.009532601985858
21 -0.16218740358865
22 -1.28633107735282
23 0.009532601985850
24 -0.16218740358864
25 -1.28633107735044
 Sym=      7.1
 Ene=       0.0819
 Spin= Alpha
 Occup=    0.000000
1 0.000000006712627
2 -0.000000016893397
3 0.000000000351667
4 -0.000000079680693
5 -0.005543269955744
6 -0.000000645384403
7 -0.10400665161473
8 0.001036735703605
9 0.000000120704199
10 0.019452040345585
11 -0.081281655501152
12 -0.000009463349765
13 -1.52506214662408
14 -0.017384757498183
15 -0.16742134311072
16 4.79600763520047
17 0.004920680563461
18 0.047387795664444
19 -1.35748719533895
20 0.006232135673815
21 0.060017570368128
22 -1.71928440618134
23 0.006231959512262
24 0.060015873869729
25 -1.71923580771095
 Sym=      8.1
 Ene=       0.0819
 Spin= Alpha
 Occup=    0.000000
1 -0.000000000000039
2 0.000000000000274
3 -0.000000000000831
4 -0.000000000000585
5 -0.000005796200181
6 -0.10415427333004
7 0.000000955222000
8 0.000001084043195
9 0.019479606824605
10 -0.000000178651864
11 -0.000084990360178
12 -1.52722629003154
13 0.000014006532193
14 0.000000159706014
15 0.000001538025795
16 -0.000044058772326
17 -0.000000966659640
18 -0.000009309275347
19 0.000266676580708
20 0.014215172789626
21 0.13689717396671
22 -3.92160174843866
23 -0.014214365836147
24 -0.13688940271458
25 3.92137913062909
 Sym=      9.1
 Ene=       0.0819
 Spin= Alpha
 Occup=    0.000000
1 -0.000000000378272
2 0.000000001957312
3 -0.000000003243535
4 0.000000009792477
5 -0.10400665754264
6 0.000005838823931
7 0.005543269917385
8 0.019452001536544
9 -0.000001092014577
10 -0.001036737756127
11 -1.52506174646616
12 0.000085615356702
13 0.081281618393933
14 0.000927277638489
15 0.008930011974957
16 -0.25581198767357
17 -0.016699596147553
18 -0.16082305456702
19 4.60699015299069
20 0.007885362326244
21 0.075938852704238
22 -2.17536925776109
23 0.007886956068541
24 0.075954201010022
25 -2.17580893039822
 Sym=     10.1
 Ene=       0.1695
 Spin= Alpha
 Occup=    0.000000
1 -0.000000000000093
2 0.000000000000155
3 0.000000000000656
4 -0.000000000005380
5 -0.000001097612324
6 -0.045058675739431
7 -0.000000248734577
8 -0.000001446994288
9 -0.059401336481357
10 -0.000000327908807
11 0.000081838904990
12 3.35961316157648
13 0.000018545842221
14 -0.000000294474554
15 -0.000003316568987
16 -0.000027382871901
17 -0.000001127213787
18 -0.000012695426417
19 -0.000104818355765
20 0.043564329556939
21 0.49065034740153
22 4.05099909883260
23 -0.043562907868968
24 -0.49063433540541
25 -4.05086689760001
 Sym=     11.1
 Ene=       0.1695
 Spin= Alpha
 Occup=    0.000000
1 -0.000000000958051
2 0.000000002344856
3 0.000000001807392
4 -0.000000081866676
5 -0.044930255280827
6 0.000001113249836
7 -0.003399475508750
8 -0.059232042128333
9 0.000001467609142
10 -0.004481557021439
11 3.35003805250800
12 -0.000083004857839
13 0.25346754937759
14 -0.004023149614813
15 -0.045311391364540
16 -0.37410834182287
17 -0.048818675361334
18 -0.54982823137523
19 -4.53959475824956
20 0.026419832945055
21 0.29755770051417
22 2.45675150282627
23 0.026421985569078
24 0.29758194479220
25 2.45695167296727
 Sym=     12.1
 Ene=       0.1695
 Spin= Alpha
 Occup=    0.000000
1 0.000000011505392
2 -0.000000042100279
3 0.000000024081882
4 0.000001147586122
5 -0.003399471803579
6 -0.000000165215432
7 0.044930297598161
8 -0.004481567369384
9 -0.000000217805133
10 0.059231942942302
11 0.25346749790157
12 0.000012318609418
13 -3.35003910680439
14 0.053202411597026
15 0.59920098819185
16 4.94723535449578
17 -0.021527178643201
18 -0.24245376555849
19 -2.00179155151448
20 -0.015837425492511
21 -0.17837200554769
22 -1.47270755671226
23 -0.015837744959769
24 -0.17837560359969
25 -1.47273726362384
 Sym=     13.1
 Ene=       0.2157
 Spin= Alpha
 Occup=    0.000000
1 0.096224689987787
2 -0.10788051567747
3 -0.90512467830886
4 8.98487910581033
5 0.000000000205242
6 0.000000000000014
7 0.000000035642676
8 -0.000000004211233
9 0.000000000000075
10 -0.000000134654496
11 -0.000000000541520
12 0.000000000000133
13 -0.000000426157140
14 0.023520405252189
15 -0.38601548784742
16 -1.88176978237711
17 0.023520411029007
18 -0.38601559227015
19 -1.88176970433793
20 0.023520410713954
21 -0.38601559868780
22 -1.88176970512365
23 0.023520410713931
24 -0.38601559868797
25 -1.88176970512394
 Sym=     14.1
 Ene=       0.3565
 Spin= Alpha
 Occup=    0.000000
1 0.000000000015456
2 -0.000000000700743
3 0.000000003287462
4 -0.000000008037000
5 -0.31615545297912
6 -0.000003423422824
7 -0.003533717077627
8 -1.59063889880262
9 -0.000017223898752
10 -0.017778816615756
11 1.13732724533153
12 0.000012315308664
13 0.012712092225425
14 0.001221902247299
15 0.022975461381747
16 -0.029110315200388
17 0.10304294239274
18 1.93751795537915
19 -2.45486797020429
20 -0.052133392122366
21 -0.98026495124907
22 1.24201225844048
23 -0.052131451898642
24 -0.98022846919397
25 1.24196603506104
 Sym=     15.1
 Ene=       0.3565
 Spin= Alpha
 Occup=    0.000000
1 0.000000000000007
2 0.000000000000122
3 -0.000000000000760
4 -0.000000000002305
5 -0.000003425726042
6 0.31617520110384
7 0.000000186932597
8 -0.000017235486634
9 1.59073825328606
10 0.000000940494312
11 0.000012323594597
12 -1.13739829718349
13 -0.000000672464399
14 -0.000000064926117
15 -0.000001220806596
16 0.000001546781401
17 0.000001142581824
18 0.000021483983829
19 -0.000027220569090
20 0.089595554109076
21 1.68466653142450
22 -2.13450097181660
23 -0.089596631764845
24 -1.68468679459976
25 2.13452664560600
 Sym=     16.1
 Ene=       0.3565
 Spin= Alpha
 Occup=    0.000000
1 0.000000049922150
2 -0.000000060156922
3 -0.000000767667580
4 -0.000000937265576
5 0.003533717118366
6 0.000000225208434
7 -0.31615542571128
8 0.017778812150398
9 0.000001133066892
10 -1.59063931814986
11 -0.012712085948169
12 -0.000000810157775
13 1.13732690495597
14 0.10972554012815
15 2.06317197840532
16 -2.61407180859204
17 -0.037727154872235
18 -0.70938495047047
19 0.89880290483574
20 -0.035999059817896
21 -0.67689154424632
22 0.85763319110898
23 -0.035999187454689
24 -0.67689394420282
25 0.85763623189568
 Sym=     17.1
 Ene=       0.4818
 Spin= Alpha
 Occup=    0.000000
1 -0.14313568966742
2 0.071096201652453
3 3.52149424484688
4 7.51434876986403
5 0.000000001998655
6 0.000000000000156
7 -0.000000150244713
8 0.000000001886481
9 0.000000000000447
10 -0.000001199495037
11 -0.000000005185030
12 -0.000000000000961
13 -0.000001113167246
14 -0.059446649110402
15 -2.14509270303734
16 -1.24478564442124
17 -0.059446637624972
18 -2.14509433163418
19 -1.24478657810878
20 -0.059446637813284
21 -2.14509432496750
22 -1.24478659557609
23 -0.059446637813349
24 -2.14509432496843
25 -1.24478659557275
 Sym=     18.1
 Ene=       0.9226
 Spin= Alpha
 Occup=    0.000000
1 -0.000000000038629
2 0.000000000380136
3 0.000000000660370
4 0.000000012834480
5 -0.93428834376207
6 -0.000030203419998
7 -0.002766006858275
8 1.86503766157210
9 0.000060292431345
10 0.005521537489146
11 -1.60058198789719
12 -0.000051743179980
13 -0.004738604135336
14 -0.001407853973407
15 -0.000404408472945
16 0.005972010798862
17 -0.45419245187329
18 -0.13046659381797
19 1.92664987212842
20 0.22781288193647
21 0.065439154693120
22 -0.96636494222305
23 0.22778742394289
24 0.065431841895004
25 -0.96625695134867
 Sym=     19.1
 Ene=       0.9226
 Spin= Alpha
 Occup=    0.000000
1 -0.000000000000002
2 0.000000000000099
3 -0.000000000000276
4 -0.000000000000567
5 0.000030203743695
6 -0.93429243836353
7 -0.000000064629550
8 -0.000060293077516
9 1.86504583591131
10 0.000000129014291
11 0.000051743734737
12 -1.60058900179201
13 -0.000000110720375
14 -0.000000034000702
15 -0.000000009766623
16 0.000000144228276
17 0.000014709669211
18 0.000004225346514
19 -0.000062397299352
20 0.39374295375016
21 0.11310250123224
22 -1.67022769860381
23 -0.39375762941876
24 -0.11310671681158
25 1.67028995167532
 Sym=     20.1
 Ene=       0.9226
 Spin= Alpha
 Occup=    0.000000
1 0.000000017548593
2 -0.000000171957222
3 -0.000000367951505
4 -0.000001624206025
5 0.002766007297491
6 0.000000154048514
7 -0.93428846371903
8 -0.005521536396839
9 -0.000000307513550
10 1.86503827804710
11 0.004738606151135
12 0.000000263909369
13 -1.60058261853467
14 -0.48224149837709
15 -0.13852395337555
16 2.04563340150231
17 0.16207446747295
18 0.046556477467055
19 -0.68750791888024
20 0.16008339746586
21 0.045984542340815
22 -0.67906193475882
23 0.16008352731099
24 0.045984579638776
25 -0.67906248555242
 Sym=     21.1
 Ene=       1.2735
 Spin= Alpha
 Occup=    0.000000
1 -0.000000000000003
2 0.000000000000278
3 -0.000000000000576
4 0.000000000000104
5 0.000002062001473
6 -0.76024262139638
7 -0.000000027708981
8 -0.000002463950997
9 0.90843804040410
10 0.000000033110309
11 0.000000084047534
12 -0.030987635549778
13 -0.000000001129346
14 0.000000041154353
15 -0.000000066666365
16 0.000000024255237
17 -0.000002892307006
18 0.000004685287385
19 -0.000001704656621
20 -0.91912182149521
21 1.48889789652488
22 -0.54170846611599
23 0.91912467264775
24 -1.48890251514535
25 0.54171014651724
 Sym=     22.1
 Ene=       1.2735
 Spin= Alpha
 Occup=    0.000000
1 0.000000000070386
2 0.000000001732171
3 -0.000000004152344
4 -0.000000001674722
5 0.76024259489151
6 0.000002062008766
7 -0.000202048187796
8 -0.90843800918046
9 -0.000002463959707
10 0.000241432630218
11 0.030987634552107
12 0.000000084047825
13 -0.000008232515163
14 0.000345500302723
15 -0.000559678049809
16 0.000203624537670
17 -1.06142722437973
18 1.71942034904606
19 -0.62557987232345
20 0.53054335564870
21 -0.85943437213976
22 0.31268959390507
23 0.53053836976616
24 -0.85942629544109
25 0.31268665534504
 Sym=     23.1
 Ene=       1.2735
 Spin= Alpha
 Occup=    0.000000
1 -0.000000060954885
2 -0.000000541822387
3 0.000001074700647
4 -0.000002349592642
5 0.000202049083060
6 -0.000000027160982
7 0.76024250255793
8 -0.000241434860054
9 0.000000032455536
10 -0.90843760995384
11 0.000008236043980
12 -0.000000001107106
13 0.030986900302479
14 -1.12569196435538
15 1.82352293120574
16 -0.66345402659078
17 0.37490437792263
18 -0.60731289878103
19 0.22095990836371
20 0.37539295510500
21 -0.60810435155328
22 0.22124786482003
23 0.37539302077953
24 -0.60810445794036
25 0.22124790352709
 Sym=     24.1
 Ene=       1.3528
 Spin= Alpha
 Occup=    0.000000
1 -0.036478393036964
2 -2.44044022944304
3 5.70392122559735
4 -0.52228598426023
5 0.000000000189232
6 -0.000000000000120
7 -0.000000026307808
8 0.000000000257486
9 0.000000000000274
10 -0.000000661084833
11 -0.000000002233306
12 -0.000000000000315
13 -0.000000201707306
14 -0.024725149769875
15 -1.29927489681383
16 0.20882769583855
17 -0.024725608583787
18 -1.29927487873838
19 0.20882715317322
20 -0.024725607322884
21 -1.29927488012615
22 0.20882714790810
23 -0.024725607322743
24 -1.29927488012660
25 0.20882714790915
 Sym=     25.1
 Ene=       1.4471
 Spin= Alpha
 Occup=    0.000000
1 -0.098173355951328
2 -0.016224184581692
3 -0.33735434657621
4 -4.70584542385521
5 0.000000000051171
6 0.000000000000058
7 -0.000000429213308
8 0.000000000164104
9 -0.000000000000122
10 0.000000325675210
11 -0.000000002335369
12 0.000000000000151
13 0.000000841271359
14 -0.77302501689437
15 1.15304623068350
16 0.80261260575461
17 -0.77302593111881
18 1.15304746722434
19 0.80261338728990
20 -0.77302593064399
21 1.15304746629768
22 0.80261338194138
23 -0.77302593064407
24 1.15304746629790
25 0.80261338194087
 [FREQ]
      0.00
      0.00
      0.00
      0.00
      0.00
      0.00
   1432.31
   1432.34
   1432.36
   1586.52
   1586.56
   3051.25
   3179.52
   3179.58
   3179.67
 [FR-COORD]
C          0.0000000000       -0.0000000000        0.0000000789
H         -0.0000852335       -0.0000000000        2.0711237280
H          1.9527023658       -0.0000000000       -0.6902945305
H         -0.9763085662       -1.6910652514       -0.6904150689
H         -0.9763085662        1.6910652514       -0.6904150689
 [FR-NORM-COORD]
 Vibration                    1
          0.06866719          0.22702147         -0.04227470
          0.13917449          0.12794357         -0.04227180
          0.04516748          0.16192420         -0.10875058
         -0.03981053          0.30910908         -0.08993846
          0.13013727          0.30910908          0.07186204
 Vibration                    2
          0.04765239          0.00720862          0.22798610
          0.03898266         -0.06806786          0.22798574
          0.05054197         -0.16138767          0.23616012
         -0.11719412          0.12914502          0.16242938
          0.21827908          0.12914502          0.28536915
 Vibration                    3
          0.02228368          0.02201689          0.00716924
          0.11531352          0.60440093          0.00717307
         -0.00872268         -0.29880024         -0.08054141
         -0.11846355         -0.10876675          0.52653269
          0.10100736         -0.10876675         -0.42448738
 Vibration                    4
          0.14597528          0.01343936          0.03550283
         -0.08813323          0.10770566          0.03549319
          0.22400242          0.37367155          0.25622565
          0.56319547         -0.21380993          0.00212831
         -0.11516338         -0.21380993         -0.15183583
 Vibration                    5
          0.18211757         -0.09975672         -0.06752418
          0.38841138         -0.19097070         -0.06751569
          0.11336093         -0.24971578         -0.26202267
         -0.04284759          0.02082983         -0.04476150
          0.26954544          0.02082983          0.10420314
 Vibration                    6
         -0.01937331          0.01122230          0.05193493
          0.49148968         -0.00240285          0.05195596
         -0.18964126          0.30140337         -0.42971828
          0.05770040         -0.12705565          0.28163632
         -0.43704238         -0.12705565          0.30386574
 Vibration                    7
         -0.08522560         -0.00000001         -0.07871348
          0.40831266          0.00000006         -0.05091352
          0.13083445          0.00000006          0.47520323
          0.23821692         -0.29500565          0.25684515
          0.23821697          0.29500568          0.25684519
 Vibration                    8
          0.07871306          0.00000007         -0.08522550
         -0.37710285         -0.00000032         -0.05516299
          0.14906010         -0.00000032          0.22246301
         -0.35496600          0.03865849          0.42413997
         -0.35496628         -0.03865864          0.42413977
 Vibration                    9
          0.00000005         -0.11601259         -0.00000004
         -0.00000026          0.55593946         -0.00000003
          0.00000007          0.55596893          0.00000008
         -0.24288317          0.13527114         -0.17174082
          0.24288271          0.13527104          0.17174125
 Vibration                   10
         -0.00003167          0.00000000         -0.00000463
          0.49818676          0.00000004          0.00001735
          0.16598593         -0.00000004          0.46963241
         -0.33189761          0.28744998         -0.23479730
         -0.33189765         -0.28744998         -0.23479723
 Vibration                   11
          0.00000000         -0.00000327          0.00000000
         -0.00000004          0.49804322          0.00000000
         -0.00000001         -0.49801019         -0.00000004
          0.28754477          0.00000292         -0.40663089
         -0.28754472          0.00000296          0.40663092
 Vibration                   12