[Molden Format]
[Molpro variables]
_NUMVAR=  693.0000000000000    
_EV2006= 0.3674930886769165E-01
_EV= 0.3674932534394180E-01
_KJOULE= 0.3808798324128737E-03
_KJOULE/MOL= 0.3808798324128737E-03
_CM= 0.4556335267302901E-05
_CM-1= 0.4556335267302901E-05
_KCAL= 0.1593601117815568E-02
_KCAL/MOL= 0.1593601117815568E-02
_KELVIN2006= 0.3166828861084835E-05
_KELVIN= 0.3166814820820034E-05
_HERTZ2006= 0.1519829850815779E-15
_HERTZ= 0.1519829846011223E-15
_HZ2006= 0.1519829850815779E-15
_HZ= 0.1519829846011223E-15
_TOA2006= 0.5291772490000000    
_TOA= 0.5291772090000000    
_TOANG2006= 0.5291772490000000    
_TOANG= 0.5291772090000000    
_TORAD= 0.1745329251994330E-01
_TOCM=  219474.6306700000    
_TODEBYE=  2.541580000000000    
_TOEV2006=  27.21139610000000    
_TOEV=  27.21138390000000    
_TOHERTZ2006=  6579683899900000.    
_TOHERTZ=  6579683920700000.    
_TOHZ2006=  6579683899900000.    
_TOHZ=  6579683920700000.    
_TOK2006=  315773.3000000000    
_TOK=  315774.7000000000    
_TOKCAL=  627.5096000000000    
_TOKELVIN2006=  315773.3000000000    
_TOKELVIN=  315774.7000000000    
_TOKJ=  2625.500000000000    
_TOKJOULE=  2625.500000000000    
_ANG2006=  1.889725988578923    
_ANG=  1.889726131421507    
_ANGSTROM2006=  1.889725988578923    
_ANGSTROM=  1.889726131421507    
_IGNORE_UNDEF=  2.000000000000000    
_STRICTCHECK=  0.000000000000000    
_SEW_ONEEL=  0.000000000000000    
_CPPDONE=FALSE
_DKROLL_DONE=  0.000000000000000    
_FOCKDONE=TRUE
_GRADONE=FALSE
_HESSDONE=TRUE
_INTDONE=TRUE
_SCFDONE=TRUE
_MODUL_CUDA=FALSE
_MODUL_SLATER=FALSE
_MODUL_MRCC=FALSE
_MRCC_EXEC=
_FITC_AO_SAVED=  0.000000000000000    
_FITC_MO_SAVED=  0.000000000000000    
_SHARED_FS=TRUE
_LSTYP=SEWARD
_INTYP=INTS
_GEOMTYP=ZMAT
_GRADTYP=ALASKA
_DIRECT=FALSE
_SYNCM=  0.000000000000000    
_BASIS=AUG-CC-PVDZ
_ZSYMEL=
_ZORIENT=  1.000000000000000    
_NELEC=  10.00000000000000    
!SPIN=  0.000000000000000    
_OPTCONV= 0.8312933773540245E-04
_QSDSTEP=  0.000000000000000    
_QSDIRC=  0.000000000000000    
_PROGRAM=FREQ
_CPUSTEP=  0.000000000000000    
_SYSSTEP=  0.000000000000000    
_WALLSTEP=  0.000000000000000    
!DFMP2=  0.000000000000000    
!DFSCF=  0.000000000000000    
!SCSGRD=  0.000000000000000    
_BASINP=  610.0000000000000    
_CPUTOT=  66.00000000000000    
_CPUCCSD= 0.9999999999990905E-02
_SYSCCSD=  0.000000000000000    
_WALLCCSD= 0.1999999955296516E-01
_CPUF12=  0.000000000000000    
_SYSF12=  0.000000000000000    
_WALLF12=  0.000000000000000    
_CPUF12B=  0.000000000000000    
_SYSF12B=  0.000000000000000    
_WALLF12B=  0.000000000000000    
_CPUTRANS= 0.1300000000000097    
_SYSTRANS= 0.1000000000000023E-01
_WALLTRANS= 0.1400000005960464    
_DFTEXFAC=  1.000000000000000    
_DMX=-0.5547362523115537E-08
_DMY= 0.2972134257456238E-13
_DMZ=-0.1915643252459204E-08
_FREQUENCIES= 0.6983900904233962E-04
_EMP2= -40.36772650561154    
_EMP2_SING=-0.1204973929256344    
_EMP2_TRIP=-0.4780114652713092E-01
_EMP2_SCS= -40.37376777328642    
_ECSING=-0.1204973929256344    
_ECTRIP=-0.4780114652713097E-01
_ENERGC= -40.36772650561154    
_ENERG_CC=  0.000000000000000    
_ENERG_CV=  0.000000000000000    
_ENERG_VV=-0.1682985394527653    
_ENERGR= -40.19942796615878    
_ENERGY= -40.36772650561154    
_ENUC=  13.33548107166349    
_FREQSTEP=  15.00000000000000    
_GRADENERG= -40.36772430955916    
_GRADEXFAC=  9999.000000000000    
_GRADMETHOD=  8.000000000000000    
_GRADRECORD=TRUE
_VIRIAL= 0.1448946635179878E-04
!GRID_FREEZE= -1.000000000000000    
_ITERATIONS=  1.000000000000000    
_LASTNELEC=  10.00000000000000    
_LASTSPIN=  0.000000000000000    
_LASTSYM=  1.000000000000000    
_MPP_PROG=  0.000000000000000    
_NPROC_MPP=  1.000000000000000    
_NPROC_SMP=  1.000000000000000    
_NUMSTEP=  0.000000000000000    
_OPTCONVMX= 0.8312932137880112E-04
_OPTCONVRMS= 0.2770977924513415E-04
_OPTGRAD= 0.1196635024676094E-03
_OPTGRADMX= 0.1196634967898440E-03
_OPTGRADRMS= 0.3988783415586979E-04
_OPTSTEP=  3.000000000000000    
_ORBITAL=  2101.200000000000    
_PI=  3.141592653589793    
_ECDIAG=-0.5766232632428385E-01
_EPDIAG=-0.5766232632428385E-01
_SEIG_MIN= 0.8552473553796235E-03
_SEWPROP=TRUE
_STATUS=  1.000000000000000    
_SYSTOT=  2.340000000000000    
_T1DIAG=  0.000000000000000    
_VERSION=  2010001.000000000    
_WALLTOT=  71.78000000000000    
_ZPE= 0.4500440119667179E-01
_DATE=17-Aug-24
_LASTORB=RHF
_MACHINE=Linux-3.10.0-1160.108.1.el7.x86_64/molmod(x86_64) 64 bit serial version
_METHODC=MP2
_OUTPUT=/home/ospite/Desktop/MMfP/Project6/CH4/molpro/MP2/ch4_aug-ccpVDZ.xml
_PGROUP=C1
_TIME=17:25:31
_ANSATZ=
_LIBMOL=/usr/local/molpro/molpros_2010_1_Linux_x86_64_i8/lib/
!SURFREC=  0.000000000000000    
!POLYREC=  0.000000000000000    
!DIPREC=  0.000000000000000    
!VSCFREC=  0.000000000000000    
!VCIREC=  0.000000000000000    
!PVCIREC=  0.000000000000000    
!VMP2REC=  0.000000000000000    
!VMCSCFREC=  0.000000000000000    
!GAREC=  0.000000000000000    
!SCFORB=  21002.00000000000    
!CIOCC=  4.000000000000000    
!CICORE=  1.000000000000000    
!CICLOS=  4.000000000000000    
!CIISTSYM=  1.000000000000000    
!CIISTMS2=  0.000000000000000    
!CIISTNEL=  8.000000000000000    
!NEWMOL=  0.000000000000000    
!NEWSYM=  0.000000000000000    
_SLFILES=slscratch
_NGSSTO=  9.000000000000000    
_SIN=SIN
_COS=COS
_TAN=TAN
_ACOS=ACOS
_ASIN=ASIN
_ATAN=ATAN
_COSH=COSH
_SINH=SINH
_TANH=TANH
_ABS=ABS
_MOD=MOD
_ERF=ERF
_REFC=REFC
_ERFC=ERFC
_HYPOT=HYPOT
_J0=J0
_J1=J1
_JN=JN
_GAMMA=GAMMA
_LGAMMA=LGAMMA
_Y0=Y0
_Y1=Y1
_YN=YN
_EXP=EXP
_LOG=LOG
_LOG10=LOG10
_SQRT=SQRT
_INT=INT
_NINT=NINT
_MAX=MAX
_MIN=MIN
_COSMO=  0.000000000000000    
_COSMOIT=  0.000000000000000    
_COSMOES=  0.000000000000000    
_COSMOEDS=  0.000000000000000    
_COSMOEC=  0.000000000000000    
_COSMOEDCORR=  0.000000000000000    
_FEPSI=  1.000000000000000    
_SL_IsMM=  0.000000000000000    
_SL_NSYM=  0.000000000000000    
_SL_System_BitSw=  0.000000000000000    
_SL_Unique_atoms=  0.000000000000000    
_SL_GRAD=  0.000000000000000    
_SL_MAXUPD_Hess=  5.000000000000000    
_SL_N_PRINT_COD=  5.000000000000000    
_SL_PRINT_CODES=  0.000000000000000    
_SL_BasType=  0.000000000000000    
_SL_Energy_Pred=  0.000000000000000    
_SL_New_Coords=  0.000000000000000    
_SL_Total_Nuclea=  0.000000000000000    
_SL_Highest_Mltp=  0.000000000000000    
_SL_Ref_Geom=  0.000000000000000    
!LATTICE= -1.000000000000000    
!NEWLATTICE=  0.000000000000000    
!LATGRAD_VAR=FALSE
!SEW_LATTICE=  1.000000000000000    
!LOCAL=  0.000000000000000    
!SAVEDOM= -1.000000000000000    
!RESTDOM= -1.000000000000000    
!SAVEDOM_HF= -1.000000000000000    
!RESTDOM_HF= -1.000000000000000    
!HESSREC=  5300.200000000000    
!FREQREC=  5400.200000000000    
!NMODREC=  5450.200000000000    
!GTASKS=  0.000000000000000    
!HTASKS=  5500.200000000000    
!THRCHG= 0.1000000000000000    
!DEBUG= -1.000000000000000    
!CFIT_CPHF=  0.000000000000000    
!RDOMAUX_CPHF=  5.000000000000000    
!THRAO_CPHF= 0.9999999999999999E-11
!THRMO_CPHF= 0.9999999999999999E-11
!THROV_CPHF= 0.1000000000000000E-11
!THRSW_CPHF= 0.1000000000000000E-09
!THRPROD_CPHF= 0.9999999999999999E-11
!THRAOPR_CPHF= 0.1000000000000000E-11
!CFIT_SCFGRD=  0.000000000000000    
!RDOMAUX_SCFGRD=  7.000000000000000    
!THRAO_SCFGRD= 0.9999999999999999E-11
!THRMO_SCFGRD= 0.9999999999999999E-11
!THROV_SCFGRD= 0.1000000000000000E-11
!THRSW_SCFGRD= 0.1000000000000000E-09
!THRPROD_SCFGRD= 0.9999999999999999E-11
!THRAOPR_SCFGRD= 0.1000000000000000E-11
!LOCFIT_SCF=  0.000000000000000    
!LOCFIT_MP2= -1.000000000000000    
_RIDOM=  0.000000000000000    
!CC2_METHOD=  0.000000000000000    
_BASIS2006=FALSE
_SVDDEL= -1.000000000000000    
_SVDDELA= -1.000000000000000    
_SVDDELP= -1.000000000000000    
_SVDDELF= -1.000000000000000    
_SVDDELS= -1.000000000000000    
_SVDDEL_ABS= -1.000000000000000    
_SVDDELA_ABS= -1.000000000000000    
_SVDDELP_ABS= -1.000000000000000    
_SVDDELF_ABS= -1.000000000000000    
_SVDDELS_ABS= -1.000000000000000    
_MAXBASIS=  0.000000000000000    
!OPT_CONICAL=  0.000000000000000    
!CLEARSP_JGRID=  0.000000000000000    
D=  1.098166174556566    
A=  109.4712213614770    
T=  120.0000011619356    
GX1= 0.6227034151699825E-08
GY1= -0.000000000000000    
GZ1= 0.1327641848385367E-08
GX2=  1.198136511384542    
GY2= -0.000000000000000    
GZ2=  1.694420915316249    
GX3=  1.198136507629404    
GY3= -0.000000000000000    
GZ3= -1.694420915316249    
GX4= -1.198136546608838    
GY4= -1.694420880274912    
GZ4=-0.7910345156680876E-08
GX5= -1.198136546608838    
GY5=  1.694420880274912    
GZ5=-0.7910345156680876E-08
CX1= 0.6227034152206379E-08
CY1=  0.000000000000000    
CZ1= 0.1327641848888894E-08
H1X2=  1.198136511384542    
H1Y2=  0.000000000000000    
H1Z2=  1.694420915316249    
H2X3=  1.198136507629404    
H2Y3=  0.000000000000000    
H2Z3= -1.694420915316249    
H3X4= -1.198136546608838    
H3Y4= -1.694420880274912    
H3Z4=-0.7910345156680876E-08
H4X5= -1.198136546608838    
H4Y5=  1.694420880274912    
H4Z5=-0.7910345156680876E-08
[Atoms] Angs
C     1    6         0.0000000033       -0.0000000000        0.0000000007
H     2    1         0.6340265351       -0.0000000000        0.8966489308
H     3    1         0.6340265331       -0.0000000000       -0.8966489308
H     4    1        -0.6340265537       -0.8966489123       -0.0000000042
H     5    1        -0.6340265537        0.8966489123       -0.0000000042
[GTO]
  1 0
 s    9  1.00
  0.6665000000D+04  0.6920001793D-03
  0.1000000000D+04  0.5329001381D-02
  0.2280000000D+03  0.2707700701D-01
  0.6471000000D+02  0.1017180264D+00
  0.2106000000D+02  0.2747400712D+00
  0.7495000000D+01  0.4485641162D+00
  0.2797000000D+01  0.2850740738D+00
  0.5215000000D+00  0.1520400394D-01
  0.1596000000D+00 -0.3191000827D-02
 s    9  1.00
  0.6665000000D+04 -0.1460000642D-03
  0.1000000000D+04 -0.1154000508D-02
  0.2280000000D+03 -0.5725002519D-02
  0.6471000000D+02 -0.2331201026D-01
  0.2106000000D+02 -0.6395502813D-01
  0.7495000000D+01 -0.1499810660D+00
  0.2797000000D+01 -0.1272620560D+00
  0.5215000000D+00  0.5445292395D+00
  0.1596000000D+00  0.5804962554D+00
 s    9  1.00
  0.6665000000D+04  0.0000000000D+00
  0.1000000000D+04  0.0000000000D+00
  0.2280000000D+03  0.0000000000D+00
  0.6471000000D+02  0.0000000000D+00
  0.2106000000D+02  0.0000000000D+00
  0.7495000000D+01  0.0000000000D+00
  0.2797000000D+01  0.0000000000D+00
  0.5215000000D+00  0.0000000000D+00
  0.1596000000D+00  0.1000000000D+01
 s    1  1.00
  0.4690000000D-01  0.1000000000D+01
 p    4  1.00
  0.9439000000D+01  0.3810902127D-01
  0.2002000000D+01  0.2094801169D+00
  0.5456000000D+00  0.5085572839D+00
  0.1517000000D+00  0.4688422617D+00
 p    4  1.00
  0.9439000000D+01  0.0000000000D+00
  0.2002000000D+01  0.0000000000D+00
  0.5456000000D+00  0.0000000000D+00
  0.1517000000D+00  0.1000000000D+01
 p    1  1.00
  0.4041000000D-01  0.1000000000D+01
 d    1  1.00
  0.5500000000D+00  0.1000000000D+01
 d    1  1.00
  0.1510000000D+00  0.1000000000D+01
  
  2 0
 s    4  1.00
  0.1301000000D+02  0.1968498999D-01
  0.1962000000D+01  0.1379769298D+00
  0.4446000000D+00  0.4781477569D+00
  0.1220000000D+00  0.5012397451D+00
 s    4  1.00
  0.1301000000D+02  0.0000000000D+00
  0.1962000000D+01  0.0000000000D+00
  0.4446000000D+00  0.0000000000D+00
  0.1220000000D+00  0.1000000000D+01
 s    1  1.00
  0.2974000000D-01  0.1000000000D+01
 p    1  1.00
  0.7270000000D+00  0.1000000000D+01
 p    1  1.00
  0.1410000000D+00  0.1000000000D+01
  
  3 0
 s    4  1.00
  0.1301000000D+02  0.1968498999D-01
  0.1962000000D+01  0.1379769298D+00
  0.4446000000D+00  0.4781477569D+00
  0.1220000000D+00  0.5012397451D+00
 s    4  1.00
  0.1301000000D+02  0.0000000000D+00
  0.1962000000D+01  0.0000000000D+00
  0.4446000000D+00  0.0000000000D+00
  0.1220000000D+00  0.1000000000D+01
 s    1  1.00
  0.2974000000D-01  0.1000000000D+01
 p    1  1.00
  0.7270000000D+00  0.1000000000D+01
 p    1  1.00
  0.1410000000D+00  0.1000000000D+01
  
  4 0
 s    4  1.00
  0.1301000000D+02  0.1968498999D-01
  0.1962000000D+01  0.1379769298D+00
  0.4446000000D+00  0.4781477569D+00
  0.1220000000D+00  0.5012397451D+00
 s    4  1.00
  0.1301000000D+02  0.0000000000D+00
  0.1962000000D+01  0.0000000000D+00
  0.4446000000D+00  0.0000000000D+00
  0.1220000000D+00  0.1000000000D+01
 s    1  1.00
  0.2974000000D-01  0.1000000000D+01
 p    1  1.00
  0.7270000000D+00  0.1000000000D+01
 p    1  1.00
  0.1410000000D+00  0.1000000000D+01
  
  5 0
 s    4  1.00
  0.1301000000D+02  0.1968498999D-01
  0.1962000000D+01  0.1379769298D+00
  0.4446000000D+00  0.4781477569D+00
  0.1220000000D+00  0.5012397451D+00
 s    4  1.00
  0.1301000000D+02  0.0000000000D+00
  0.1962000000D+01  0.0000000000D+00
  0.4446000000D+00  0.0000000000D+00
  0.1220000000D+00  0.1000000000D+01
 s    1  1.00
  0.2974000000D-01  0.1000000000D+01
 p    1  1.00
  0.7270000000D+00  0.1000000000D+01
 p    1  1.00
  0.1410000000D+00  0.1000000000D+01


[MO]
 Sym=      1.1
 Ene=     -11.2197
 Spin= Alpha
 Occup=    2.000000
1 1.00288852904217
2 0.013735390040125
3 -0.034075940174533
4 -0.008569798082349
5 0.000000000094399
6 0.000000000000000
7 0.000000000000650
8 -0.000000001154490
9 -0.000000000000006
10 -0.000000001054007
11 -0.000000000235172
12 -0.000000000000003
13 -0.000000000157010
14 0.000000000010083
15 -0.000000000040371
16 0.000000000030288
17 0.000000000000000
18 -0.000000000047039
19 -0.000000000000000
20 0.000000000150382
21 0.000000000236640
22 -0.000000000387022
23 0.000000000000001
24 -0.000000000187554
25 -0.000000000000000
26 0.000722745944957
27 0.006958325149122
28 0.000809371054257
29 0.000171506339011
30 0.000000000000000
31 0.000242546618208
32 -0.001295300057239
33 0.000000000000000
34 -0.001831830643110
35 0.000722745530842
36 0.006958322667078
37 0.000809370882661
38 0.000171506384175
39 0.000000000000000
40 -0.000242546656143
41 -0.001295299517080
42 0.000000000000000
43 0.001831829945148
44 0.000722745677220
45 0.006958321133656
46 0.000809370628826
47 -0.000171506328411
48 -0.000242546613081
49 0.000000000025346
50 0.001295299182461
51 0.001831829523691
52 0.000000000034652
53 0.000722745677221
54 0.006958321133672
55 0.000809370628832
56 -0.000171506328411
57 0.000242546613081
58 0.000000000025346
59 0.001295299182465
60 -0.001831829523695
61 0.000000000034652
 Sym=      2.1
 Ene=      -0.9399
 Spin= Alpha
 Occup=    2.000000
1 -0.023548231520549
2 0.75380296529003
3 -0.29392055675940
4 0.004446158097381
5 -0.000000004668819
6 -0.000000000000027
7 -0.000000000381434
8 0.000000007982161
9 0.000000000000639
10 -0.000000011344459
11 0.000000000802113
12 0.000000000000173
13 -0.000000005025934
14 0.000000000139637
15 0.000000000018836
16 -0.000000000158473
17 -0.000000000000001
18 -0.000000000268134
19 -0.000000000000001
20 -0.000000000610805
21 -0.000000000490855
22 0.000000001101660
23 -0.000000000000149
24 -0.000000001071932
25 0.000000000000005
26 0.31611953170946
27 -0.11349373373154
28 0.000597326787647
29 -0.014797913405066
30 -0.000000000000005
31 -0.020927409771932
32 -0.008677212280441
33 0.000000000000034
34 -0.012271430461766
35 0.31611953018073
36 -0.11349376114057
37 0.000597316557222
38 -0.014797913139647
39 -0.000000000000004
40 0.020927409584997
41 -0.008677205983214
42 0.000000000000040
43 0.012271423700579
44 0.31611953429708
45 -0.11349373955553
46 0.000597322419012
47 0.014797913549037
48 0.020927409437991
49 0.000000000205871
50 0.008677210877003
51 0.012271429293101
52 0.000000001244034
53 0.31611953429699
54 -0.11349373955753
55 0.000597322418654
56 0.014797913549033
57 -0.020927409437995
58 0.000000000205871
59 0.008677210876620
60 -0.012271429292465
61 0.000000001244031
 Sym=      3.1
 Ene=      -0.5416
 Spin= Alpha
 Occup=    2.000000
1 0.000000000278775
2 -0.000000007375178
3 -0.000000007218146
4 -0.000000003023637
5 -0.60454816688551
6 -0.000000112586948
7 -0.19583284938040
8 0.17382178199767
9 0.000000032371029
10 0.056306527029241
11 0.010841435899458
12 0.000000002018887
13 0.003511889999249
14 0.000000001210582
15 0.022629251828418
16 -0.022629253039000
17 0.000000004866269
18 -0.008464361816315
19 -0.000000000000000
20 -0.000000005168518
21 -0.022045481064715
22 0.022045486233234
23 -0.000000004740641
24 0.008246006531284
25 0.000000000000001
26 -0.53817224850962
27 0.013121183200629
28 -0.024851353849532
29 0.003497555497807
30 -0.000000002369708
31 0.018819484578839
32 0.029455981440298
33 0.000000001032979
34 0.035609424850908
35 -0.20000567196948
36 0.004876326630652
37 -0.009235730811564
38 -0.006695705253623
39 -0.000000002369708
40 -0.012647745470049
41 0.014432412993557
42 0.000000001032981
43 -0.010769278146471
44 0.36908905938389
45 -0.008998755012614
46 0.017043547614504
47 -0.001599071587302
48 0.015733616997493
49 -0.004121854221387
50 0.021944199257322
51 0.023189362203312
52 0.001796807147253
53 0.36908886496736
54 -0.008998750271305
55 0.017043538637233
56 -0.001599077447547
57 -0.015733613449266
58 -0.004121854221388
59 0.021944190620274
60 -0.023189347922755
61 0.001796807147252
 Sym=      4.1
 Ene=      -0.5416
 Spin= Alpha
 Occup=    2.000000
1 0.000000000304342
2 0.000000001800040
3 -0.000000009163787
4 -0.000000008301005
5 0.19583284912953
6 0.000000144708870
7 -0.60454816761783
8 -0.056306512544007
9 -0.000000041607030
10 0.17382179666764
11 -0.003511884342710
12 -0.000000002595074
13 0.010841445256132
14 -0.000000000486297
15 -0.007330352129999
16 0.007330352616295
17 -0.000000006254657
18 -0.026130009792942
19 -0.000000000000001
20 0.000000001646900
21 0.007141243900313
22 -0.007141245547213
23 0.000000006093261
24 0.025455936644609
25 0.000000000000003
26 -0.40241067712403
27 0.009811117992635
28 -0.018582269469493
29 0.016251607376173
30 0.000000003045804
31 0.004429640815896
32 0.016080923632686
33 -0.000000001327712
34 0.030829772293307
35 0.64153055496763
36 -0.015641147654053
37 0.029624172534342
38 -0.015215622611957
39 0.000000003045806
40 0.014622901936444
41 -0.030297791949065
42 -0.000000001327709
43 0.045853331888003
44 -0.11956006371011
45 0.002915024424074
46 -0.005520955087435
47 0.000517988623743
48 -0.005096632662323
49 -0.012724420786453
50 -0.007108437616849
51 -0.007511788057317
52 0.005546847027205
53 -0.11955981382502
54 0.002915018331020
55 -0.005520943548385
56 0.000517996155962
57 0.005096628101767
58 -0.012724420786454
59 -0.007108426515414
60 0.007511769702110
61 0.005546847027203
 Sym=      5.1
 Ene=      -0.5416
 Spin= Alpha
 Occup=    2.000000
1 -0.000000000000010
2 -0.000000000000033
3 0.000000000000210
4 0.000000000000154
5 -0.000000151702151
6 0.63547540680551
7 0.000000102970603
8 0.000000043617570
9 -0.18271408575646
10 -0.000000029607386
11 0.000000002720415
12 -0.011396061140768
13 -0.000000001846831
14 -0.000000000000001
15 0.000000005678465
16 -0.000000005678464
17 -0.027466759566976
18 0.000000004450636
19 -0.000000000011160
20 0.000000000000038
21 -0.000000005531915
22 0.000000005531877
23 0.026758197197938
24 -0.000000004336052
25 -0.000000005102228
26 -0.000000003711770
27 0.000000000092345
28 -0.000000000171143
29 -0.000000003081115
30 0.013375371943033
31 0.000000002325539
32 0.000000001556409
33 -0.005830607635025
34 -0.000000000712104
35 -0.000000181522697
36 0.000000004424547
37 -0.000000008382442
38 0.000000002278591
39 0.013375371654804
40 -0.000000005570682
41 0.000000009456495
42 -0.005830612345748
43 -0.000000012349975
44 -0.54867328857503
45 0.013377185019013
46 -0.025336273367051
47 -0.016538510070587
48 -0.010013607819516
49 0.000000001892684
50 -0.024375662193965
51 -0.040303001746142
52 -0.000000004216724
53 0.54867347380955
54 -0.013377189536231
55 0.025336281920562
56 0.016538509268070
57 -0.010013615715739
58 0.000000002441942
59 0.024375673206871
60 -0.040303013383905
61 0.000000002327050
 Sym=      6.1
 Ene=       0.0369
 Spin= Alpha
 Occup=    0.000000
1 0.025716806052125
2 -0.060669001211444
3 -0.97858443447004
4 -3.47021860749125
5 0.000000001584409
6 -0.000000000000035
7 0.000000000242393
8 -0.000000039969443
9 0.000000000005232
10 -0.000000079070113
11 -0.000000027719292
12 0.000000000004959
13 -0.000000112068543
14 0.000000000740628
15 0.000000000148539
16 -0.000000000889168
17 0.000000000000002
18 -0.000000000230124
19 0.000000000000004
20 -0.000000016412440
21 0.000000016416289
22 -0.000000000003849
23 -0.000000000001241
24 -0.000000017652713
25 -0.000000000000066
26 -0.008764782936617
27 0.52855999499807
28 0.87939913369354
29 0.000490141240484
30 -0.000000000000015
31 0.000693163342451
32 -0.061412996738132
33 0.000000000000160
34 -0.086851106478918
35 -0.008764791865577
36 0.52855974274792
37 0.87939876061896
38 0.000490141408212
39 -0.000000000000014
40 -0.000693163890271
41 -0.061412946462834
42 0.000000000000059
43 0.086851045582789
44 -0.008764792099690
45 0.52855977472292
46 0.87939887324748
47 -0.000490141565103
48 -0.000693164278822
49 -0.000000000051780
50 0.061412962158464
51 0.086851047383549
52 0.000000003436201
53 -0.008764792100120
54 0.52855977470582
55 0.87939887323083
56 -0.000490141565121
57 0.000693164278802
58 -0.000000000051777
59 0.061412962155288
60 -0.086851047378681
61 0.000000003436253
 Sym=      7.1
 Ene=       0.0638
 Spin= Alpha
 Occup=    0.000000
1 -0.000000002052913
2 -0.000000011685333
3 0.000000055629414
4 0.000000038525703
5 -0.034587611521212
6 -0.000004246378837
7 0.099544211817689
8 -0.026213509492284
9 -0.000003218257261
10 0.075443252805442
11 -0.49182475325297
12 -0.000060382139728
13 1.41548705010636
14 0.000000000344147
15 0.000081027710094
16 -0.000081028054241
17 0.000000011486979
18 0.000269279533567
19 0.000000000000055
20 -0.000000006067205
21 -0.008539674647487
22 0.008539680714692
23 -0.000001210629150
24 -0.028379658234107
25 -0.000000000000823
26 0.027902295224709
27 -0.025999878294578
28 -2.88893521367749
29 -0.007161973765852
30 -0.000000218636301
31 -0.002484777121228
32 0.066345169988668
33 0.000003111019275
34 -0.014938658002310
35 -0.046078792609978
36 0.042937133083621
37 4.77088526856510
38 0.007105759478627
39 -0.000000218636322
40 -0.007442241412512
41 -0.042377713690987
42 0.000003111018267
43 0.022838181573360
44 0.009089825049754
45 -0.008470142237469
46 -0.94113839553172
47 -0.000027803878071
48 0.002478942966873
49 0.005125301413287
50 0.011981395158875
51 -0.018888593231297
52 -0.072928937916683
53 0.009086669147164
54 -0.008467201561557
55 -0.94081164129207
56 -0.000028412514162
57 -0.002478519498059
58 0.005125301413311
59 0.011986033072730
60 0.018888256267024
61 -0.072928937915974
 Sym=      8.1
 Ene=       0.0638
 Spin= Alpha
 Occup=    0.000000
1 -0.000000000000078
2 -0.000000000000264
3 0.000000000002529
4 0.000000000002349
5 0.000000788426035
6 0.10538195066306
7 0.000004769351302
8 0.000000597541096
9 0.079867340106473
10 0.000003614634310
11 0.000011211170804
12 1.49849752550515
13 0.000067818662502
14 0.000000000000032
15 -0.000000001847014
16 0.000000001846982
17 -0.000285071469417
18 0.000000012901646
19 -0.000000001646097
20 -0.000000000000467
21 0.000000194661968
22 -0.000000194661502
23 0.030044016044013
24 -0.000001359721332
25 0.000000024923289
26 0.000001979453891
27 -0.000001844508726
28 -0.000204947816607
29 -0.000000341156325
30 0.005425873842775
31 -0.000000294313969
32 0.000002331392789
33 -0.077205841060115
34 0.000000619807066
35 -0.000001565119690
36 0.000001458413783
37 0.000162048670278
38 0.000000342437750
39 0.005425874492517
40 -0.000000181308336
41 -0.000002877729604
42 -0.077205811383696
43 -0.000000241319677
44 -0.039160055496431
45 0.036489711823173
46 4.05453498861259
47 -0.007552228844776
48 -0.005254648027614
49 0.000000245868455
50 0.057549098039836
51 0.004181720710875
52 -0.000003482386701
53 0.039159641162369
54 -0.036489325731725
55 -4.05449208946773
56 0.007552230126139
57 -0.005254535021975
58 0.000000245257231
59 -0.057549644378243
60 0.004180859584530
61 -0.000003505938253
 Sym=      9.1
 Ene=       0.0638
 Spin= Alpha
 Occup=    0.000000
1 0.000000002516408
2 0.000000010475631
3 -0.000000076025903
4 -0.000000054892770
5 -0.099544222434794
6 0.000002310108788
7 -0.034587614171720
8 -0.075443089113599
9 0.000001750803072
10 -0.026213291211828
11 -1.41548679111381
12 0.000032849009525
13 -0.49182462678154
14 -0.000000000292266
15 0.000233199926986
16 -0.000233199634720
17 -0.000000006249122
18 -0.000093562534460
19 -0.000000000000046
20 0.000000000551246
21 -0.024577503023939
22 0.024577502472693
23 0.000000658601742
24 0.009860821174012
25 0.000000000000710
26 -0.039009008443229
27 0.036348930258845
28 4.03889477984077
29 0.002397837317930
30 0.000000118942133
31 0.008858488308150
32 0.015601220853344
33 -0.000001692451531
34 -0.055733714165626
35 -0.013303532072317
36 0.012396686499970
37 1.37741577763014
38 -0.002559628030004
39 0.000000118942146
40 -0.005409247042541
41 0.053377932478864
42 -0.000001692450634
43 0.052989098187524
44 0.026155414613237
45 -0.024371959132102
46 -2.70806639163122
47 -0.000081059882401
48 0.007133753628078
49 -0.001780836739395
50 0.034490845819700
51 -0.054361299264691
52 0.025339859517586
53 0.026157131481912
54 -0.024373558952610
55 -2.70824415201691
56 -0.000080728773139
57 -0.007133984003029
58 -0.001780836739417
59 0.034488322701727
60 0.054361482590961
61 0.025339859516932
 Sym=     10.1
 Ene=       0.1460
 Spin= Alpha
 Occup=    0.000000
1 -0.000000014016953
2 -0.000000071997081
3 0.000000431003831
4 0.000000806153112
5 0.041951490084252
6 -0.000008836281577
7 -0.11537595154120
8 -0.53865515371652
9 0.000113457404143
10 1.48142130695902
11 -1.35887355890893
12 0.000286220835929
13 3.73720528066741
14 -0.000000000205134
15 -0.002906350623231
16 0.002906350828364
17 0.000000706869848
18 -0.009229647377129
19 -0.000000000000168
20 0.000000015928153
21 0.099888277943567
22 -0.099888293871720
23 -0.000024294383178
24 0.31721344058690
25 0.000000000002516
26 -0.12111337376750
27 -1.87097934977860
28 -3.23012788540292
29 0.003281614394139
30 0.000000385849431
31 0.012269626237626
32 0.32584764126805
33 -0.000009744860460
34 0.26815025218805
35 0.20494619639683
36 3.16604257571609
37 5.46597229449900
38 -0.010484831619119
39 0.000000385849458
40 0.017275194415322
41 -0.42684038712589
42 -0.000009744856898
43 0.54183284030328
44 -0.041903932312162
45 -0.64733913122409
46 -1.11758941702264
47 -0.003601085393939
48 -0.002501659535077
49 0.005038061445661
50 -0.050467608220727
51 -0.13681036587200
52 -0.12723929626307
53 -0.041928904192925
54 -0.64772490092317
55 -1.11825542408216
56 -0.003602139722988
57 0.002503922280213
58 0.005038061445627
59 -0.050525254235096
60 0.13687239992924
61 -0.12723929626575
 Sym=     11.1
 Ene=       0.1460
 Spin= Alpha
 Occup=    0.000000
1 0.000000000001739
2 0.000000000008750
3 -0.000000000051452
4 -0.000000000093095
5 -0.000003932271624
6 -0.12276617229532
7 0.000007972476605
8 0.000050490185807
9 1.57631123244946
10 -0.000102366179104
11 0.000127372352321
12 3.97658641148221
13 -0.000258240841026
14 0.000000000000073
15 0.000000272423213
16 -0.000000272423287
17 0.009820840737549
18 0.000000637768512
19 -0.000000002257058
20 -0.000000000002298
21 -0.000009362905913
22 0.000009362908211
23 -0.33753203383148
24 -0.000021919440787
25 0.000000033921411
26 0.000007336372563
27 0.000113333467381
28 0.000195663141980
29 -0.000000138038272
30 0.005360769670510
31 -0.000000786178094
32 -0.000021272145442
33 -0.13538945663767
34 -0.000015158251551
35 -0.000015194339242
36 -0.000234724634615
37 -0.000405237282813
38 0.000000813222909
39 0.005360770069288
40 -0.000001255368788
41 0.000030738578495
42 -0.13538940890553
43 -0.000040811553521
44 0.17347634128113
45 2.67989070487101
46 4.62666286418638
47 0.007324455270753
48 0.015718869659054
49 -0.000000347890481
50 0.40045483299274
51 0.43094535160096
52 0.000008810377202
53 -0.17346848331242
54 -2.67976931360984
55 -4.62645328999562
56 -0.007323780085243
57 0.015718400466824
58 -0.000000348369723
59 -0.40044536654748
60 0.43091969827683
61 0.000008774093842
 Sym=     12.1
 Ene=       0.1460
 Spin= Alpha
 Occup=    0.000000
1 -0.000000016045175
2 -0.000000080082786
3 0.000000508530715
4 0.000000921896557
5 -0.11537593384044
6 0.000000971214099
7 -0.041951486840583
8 1.48142076420211
9 -0.000012470343025
10 0.53865470324087
11 3.73720523129982
12 -0.000031459133836
13 1.35887353479547
14 0.000000001514073
15 0.007993114848333
16 -0.007993116362406
17 -0.000000077693625
18 -0.003355965887998
19 0.000000000000037
20 -0.000000039288616
21 -0.27471480438299
22 0.27471484367160
23 0.000002670247394
24 0.11534094800427
25 -0.000000000000603
26 -0.17455819482645
27 -2.69660339409439
28 -4.65551684867738
29 0.012408025336160
30 -0.000000042409502
31 0.012254571696345
32 0.27571726349916
33 0.000001071077771
34 0.52360150102069
35 -0.056000715255240
36 -0.86510834836078
37 -1.49355493549523
38 0.007402453837407
39 -0.000000042409505
40 -0.001511873315145
41 0.002034879710882
42 0.000001071076873
43 -0.22908629963009
44 0.11527807496515
45 1.78083420144126
46 3.07449904564814
47 0.009905175444546
48 0.006883092366073
49 0.001831875649668
50 0.13887282062131
51 0.37634039861186
52 -0.046265068914527
53 0.11528081967664
54 1.78087660220647
55 3.07457224788901
56 0.009905291328056
57 -0.006883341069060
58 0.001831875649689
59 0.13887915661641
60 -0.37634721690782
61 -0.046265068913936
 Sym=     13.1
 Ene=       0.1741
 Spin= Alpha
 Occup=    0.000000
1 -0.080619299443153
2 -0.58087157949091
3 2.81594740355096
4 8.15754673175591
5 0.000000008515531
6 -0.000000000000362
7 0.000000011513697
8 -0.000000008399310
9 -0.000000000005053
10 -0.000000045828853
11 -0.000000266863459
12 0.000000000016852
13 -0.000000461203199
14 -0.000000002126578
15 -0.000000000967062
16 0.000000003093639
17 0.000000000000078
18 0.000000001403956
19 -0.000000000000013
20 0.000000051785498
21 -0.000000029087689
22 -0.000000022697810
23 0.000000000001593
24 0.000000003445080
25 0.000000000000217
26 0.001971522858148
27 -1.63320750830859
28 -1.18848782717379
29 0.015818709649576
30 0.000000000000094
31 0.022371036231004
32 0.23000884204964
33 -0.000000000001608