
 Primary working directories    : /data/scratch
 Secondary working directories  : /data/scratch
 Wavefunction directory         : /home/ospite/wfu/
 Main file repository           : /data/scratch/

 ARCHNAME  : Linux/x86_64
 FC        : /usr/bin/gfortran
 FCVERSION : 4.8.5
 BLASLIB   : 
 id        : polimi

 Nodes     nprocs
 molmod       1

 Using default tuning parameters: mindgm=1; mindgv=20; mindgc=4; mindgr=1; noblas=0; mincuda=1000; minvec=7
 default implementation of scratch files=df  

 ***,methane with imposed symmetry and 6-31++G basis set
 memory,100,m
 
 basis=6-31++G
 symmetry,y
 
 geometry={angstrom
 C
 H1, C, d
 H2, C, d, H1, a
 H3, C, d, H1, a, H2, t
 H4, C, d, H1, a, H2, -t
 }
 
 d=1.09 Ang
 a=109.47 Deg
 t=120.0 Deg
 
 hf
 mp2
 optg
 frequencies
 put,molden,ch4_6-31++G.molpro

 Variables initialized (661), CPU time= 0.01 sec
 Commands  initialized (458), CPU time= 0.06 sec, 486 directives.
 Default parameters read. Elapsed time= 0.18 sec

 Checking input...
 Passed
1


                                         ***  PROGRAM SYSTEM MOLPRO  ***
                         Copyright, University College Cardiff Consultants Limited, 2008

                                    Version 2010.1 linked Mar  6 2018 16:01:50


 **********************************************************************************************************************************
 LABEL *   methane with imposed symmetry and 6-31++G basis set                           
 Linux-3.10.0-1160.108.1.el7.x86_64/molmod(x86_64) 64 bit serial version                 DATE: 17-Aug-24          TIME: 17:22:01  
 **********************************************************************************************************************************

 SHA1:             d90fb18d49a3be29a79769f900c595ef3b8176e2
 **********************************************************************************************************************************

 Variable memory set to  100000000 words,  buffer space   230000 words

 SETTING BASIS          =    6-31++G
 ZSYMEL=Y  

 SETTING D              =         1.09000000  ANG                             
 SETTING A              =       109.47000000  DEG                             
 SETTING T              =       120.00000000  DEG                             


 Recomputing integrals since basis changed


 Using spherical harmonics

 Library entry C      S 6-31G                selected for orbital group  1
 Library entry C      S 6-31++G              selected for orbital group  1
 Library entry C      P 6-31G                selected for orbital group  1
 Library entry C      P 6-31++G              selected for orbital group  1
 Library entry H      S 6-31G                selected for orbital group  2
 Library entry H      S 6-31++G              selected for orbital group  2

1PROGRAM * SEWARD (Integral evaluation for generally contracted gaussian basis sets)     Author: Roland Lindh, 1990

 Geometry written to block  1 of record 700

 Orientation using atomic masses  
 Molecule type: Symmetric top,     Order of principal axis = 3
 User-specified symmetry elements: Y
 Symmetry elements: Y
 Rotational constants:     158.2574080    158.2574080    158.2538321 GHz  (calculated with average atomic masses)

 Point group  Cs  



 ATOMIC COORDINATES

 NR  ATOM    CHARGE       X              Y              Z

   1  C       6.00   -0.000000000    0.000000000   -0.000007798
   2  H1      1.00   -0.000000000    0.000000000    2.059793685
   3  H2      1.00    1.942014089    0.000000000   -0.686566920
   4  H3      1.00   -0.971007045   -1.681833536   -0.686566920
   5  H4      1.00   -0.971007045    1.681833536   -0.686566920

 Bond lengths in Bohr (Angstrom)

 1-2  2.059801483  1-3  2.059801483  1-4  2.059801483  1-5  2.059801483
     ( 1.090000000)     ( 1.090000000)     ( 1.090000000)     ( 1.090000000)

 Bond angles

  2-1-3  109.47000000   2-1-4  109.47000000   2-1-5  109.47000000   3-1-4  109.47244124

  3-1-5  109.47244124   4-1-5  109.47244124

 NUCLEAR CHARGE:                   10
 NUMBER OF PRIMITIVE AOS:          46
 NUMBER OF SYMMETRY AOS:           46
 NUMBER OF CONTRACTIONS:           25   (  19A'  +   6A"  )
 NUMBER OF CORE ORBITALS:           1   (   1A'  +   0A"  )
 NUMBER OF VALENCE ORBITALS:        8   (   6A'  +   2A"  )


 NUCLEAR REPULSION ENERGY   13.43538921


 Eigenvalues of metric

         1 0.438E-02 0.102E-01 0.102E-01 0.161E-01 0.701E-01 0.701E-01 0.224E+00 0.258E+00
         2 0.102E-01 0.701E-01 0.258E+00 0.577E+00 0.988E+00 0.286E+01


 Contracted 2-electron integrals neglected if value below      1.0D-11
 AO integral compression algorithm  1   Integral accuracy      1.0D-11

     0.524 MB (compressed) written to integral file ( 71.3%)


 NUMBER OF SORTED TWO-ELECTRON INTEGRALS:      30346.     BUFFER LENGTH:  32768
 NUMBER OF SEGMENTS:   1  SEGMENT LENGTH:      30346      RECORD LENGTH: 524288

 Memory used in sort:       0.59 MW

 SORT1 READ       48316. AND WROTE       27388. INTEGRALS IN      1 RECORDS. CPU TIME:     0.00 SEC, REAL TIME:     0.01 SEC
 SORT2 READ       27388. AND WROTE       30346. INTEGRALS IN      2 RECORDS. CPU TIME:     0.04 SEC, REAL TIME:     0.04 SEC

 FILE SIZES:   FILE 1:     3.1 MBYTE,  FILE 4:     4.2 MBYTE,   TOTAL:      7.4 MBYTE

 OPERATOR DM      FOR CENTER  0  COORDINATES:    0.000000    0.000000    0.000000


 **********************************************************************************************************************************
 DATASETS  * FILE   NREC   LENGTH (MB)   RECORD NAMES
              1      19        2.77       500      610      700      900      950      970     1000      129      960     1100   
                                          VAR    BASINP    GEOM    SYMINP    ZMAT    AOBASIS   BASIS     P2S    ABASIS      S 
                                         1400     1410     1200     1210     1080     1600     1650     1300     1700   
                                           T        V       H0       H01     AOSYM     SMH    MOLCAS    ERIS     OPER   

 PROGRAMS   *        TOTAL       INT
 CPU TIMES  *         0.66      0.18
 REAL TIME  *         0.84 SEC
 DISK USED  *         7.87 MB      
 **********************************************************************************************************************************

1PROGRAM * RHF-SCF (CLOSED SHELL)       Authors: W. Meyer, H.-J. Werner


 NUMBER OF ELECTRONS:       5+    5-
 CONVERGENCE THRESHOLDS:    1.00E-06 (Density)    1.00E-07 (Energy)
 MAX. NUMBER OF ITERATIONS:       60
 INTERPOLATION TYPE:            DIIS
 INTERPOLATION STEPS:              2 (START)      1 (STEP)
 LEVEL SHIFTS:                  0.00 (CLOSED)  0.00 (OPEN) 



 Orbital guess generated from atomic densities. Full valence occupancy:    7   2

 Molecular orbital dump at record        2100.2

 Initial alpha occupancy:   4   1
 Initial beta  occupancy:   4   1
 Wave function symmetry:    1

 ITERATION    DDIFF          GRAD             ENERGY        2-EL.EN.            DIPOLE MOMENTS         DIIS
    1      0.000D+00      0.000D+00       -40.16468104     52.940020   -0.00000    0.00000    0.00003    0
    2      0.000D+00      0.149D-01       -40.17901440     51.660312   -0.00000    0.00000    0.00001    1
    3      0.139D-01      0.558D-02       -40.18088142     52.106542   -0.00000    0.00000    0.00001    2
    4      0.404D-02      0.118D-02       -40.18106023     52.057802   -0.00000    0.00000    0.00001    3
    5      0.245D-02      0.145D-03       -40.18106271     52.060608   -0.00000    0.00000    0.00001    4
    6      0.510D-03      0.471D-05       -40.18106271     52.060504   -0.00000    0.00000    0.00001    5
    7      0.268D-04      0.658D-06       -40.18106271     52.060514   -0.00000    0.00000    0.00001    5
    8      0.254D-05      0.437D-07       -40.18106271     52.060513   -0.00000    0.00000    0.00001    4
    9      0.152D-06      0.755D-08       -40.18106271     52.060513   -0.00000    0.00000    0.00001    0

 Final occupancy:   4   1

 !RHF STATE 1.1 Energy                -40.181062710796
 Nuclear energy                        13.43538921
 One-electron energy                  -79.64670859
 Two-electron energy                   26.03025668
 Virial quotient                       -0.99945018
 !RHF STATE 1.1 Dipole moment          -0.00000000     0.00000000     0.00001128
 Dipole moment /Debye                  -0.00000000     0.00000000     0.00002868

 Orbital energies:

         1.1          2.1          3.1          4.1          5.1          6.1
    -11.209925    -0.948193    -0.544995    -0.544988     0.043536     0.081876

         1.2          2.2          3.2
     -0.544995     0.081876     0.169751


 **********************************************************************************************************************************
 DATASETS  * FILE   NREC   LENGTH (MB)   RECORD NAMES
              1      19        2.77       500      610      700      900      950      970     1000      129      960     1100   
                                          VAR    BASINP    GEOM    SYMINP    ZMAT    AOBASIS   BASIS     P2S    ABASIS      S 
                                         1400     1410     1200     1210     1080     1600     1650     1300     1700   
                                           T        V       H0       H01     AOSYM     SMH    MOLCAS    ERIS     OPER   

              2       3        0.30       700     1000     2100   
                                         GEOM     BASIS     RHF  

 PROGRAMS   *        TOTAL        HF       INT
 CPU TIMES  *         0.74      0.07      0.18
 REAL TIME  *         0.94 SEC
 DISK USED  *         7.87 MB      
 **********************************************************************************************************************************


1PROGRAM * MP2 (Closed-shell)     Authors: C. Hampel, H.-J. Werner, 1991, M. Deegan, P.J. Knowles, 1992


 Convergence thresholds:  THRVAR = 1.00D-12  THRDEN = 1.00D-08

 Number of core orbitals:           1 (   1   0 )
 Number of closed-shell orbitals:   4 (   3   1 )
 Number of external orbitals:      20 (  15   5 )

 Molecular orbitals read from record     2100.2  Type=RHF/CANONICAL (state 1.1)

 Number of N-1 electron functions:               4
 Number of N-2 electron functions:              10
 Number of singly external CSFs:                50
 Number of doubly external CSFs:              1740
 Total number of CSFs:                        1791

 Length of J-op  integral file:               0.00 MB
 Length of K-op  integral file:               0.06 MB

 Integral transformation finished. Total CPU:   0.00 sec, npass=  1  Memory used:   0.07 MW

 Memory needed for MP2:                      0.00 MW

 SCS-MP2 correlation energy:           -0.105547281138   (PS=  1.200000  PT=  0.333333)
 SCS-MP2 total energy:                -40.286609991934


  Reference energy                    -40.181062710795
  MP2 singlet pair energy              -0.075144530789
  MP2 triplet pair energy              -0.024707963879
  MP2 correlation energy               -0.099852494668

 !MP2 total energy                    -40.280915205463

 KEXT needed  1 integral passes. Memory used:   0.05 MW  CPU time:      0.01 sec


 Starting Coupled-perturbed Hartree-Fock, convergence threshold= 1.0D-06

 ITER   MIC  DIIS      VAR         VARC       CPU
   1     0     1    0.15D-01    0.96D-03     0.00
   2     3     2    0.35D-03    0.30D-04     0.00
   3     3     3    0.67D-06    0.16D-06     0.00

 CPHF convergence reached in  3 macroiterations and    6 microiterations.   Accuracy: 6.7374D-07

 CPHF solution written to record  4101.2

 Dipole moments (unrelaxed):           -0.00000000     0.00000000     0.00001127
 Orbital relaxation contribution:      -0.00000000    -0.00000000    -0.00000002
 !MP2 dipole moments:                  -0.00000000     0.00000000     0.00001124

 CPU-time for density and lagrangian:                  0.00 sec
 CPU-time for coupled-perturbed hartree-fock:          0.00 sec

 MP2 Gradient info saved on record         5200.1


 **********************************************************************************************************************************
 DATASETS  * FILE   NREC   LENGTH (MB)   RECORD NAMES
              1      21        2.85       500      610      700      900      950      970     1000      129      960     1100   
                                          VAR    BASINP    GEOM    SYMINP    ZMAT    AOBASIS   BASIS     P2S    ABASIS      S 
                                         1400     1410     1200     1210     1080     1600     1650     1300     1700     1380   
                                           T        V       H0       H01     AOSYM     SMH    MOLCAS    ERIS     OPER     JKOP   
                                         5200   
                                          MP2  

              2       5        0.32       700     1000     2100     4100     4101   
                                         GEOM     BASIS     RHF     CPHF     CPHF   

 PROGRAMS   *        TOTAL       MP2        HF       INT
 CPU TIMES  *         0.93      0.19      0.07      0.18
 REAL TIME  *         1.16 SEC
 DISK USED  *         7.87 MB      
 **********************************************************************************************************************************


 PROGRAM * OPT (Geometry optimization)     Authors: F. Eckert and H.-J. Werner


 BFGS update of hessian

 *** Long output written to logfile /home/ospite/Desktop/MMfP/Project6/CH4/molpro/MP2/ch4_++.log ***


 Geometry optimization using default procedure for command MP2

 Geometry written to block  1 of record 700

 Making model hessian for Z-matrix coordinates

 Quadratic Steepest Descent - Minimum Search

 Optimization point 1

 Variable                      Last           Current        Next           Gradient       Hessian

 E(MP2) / Hartree            0.00000000   -40.28091521     0.00000000
 D / ANG                     0.00000000     1.09000000     1.09449695    -0.03090493     6.87242182
 A / DEG                     0.00000000   109.47000000   109.47135939    -0.00000032     0.00023257
 T / DEG                     0.00000000   120.00000000   120.00000000     0.00000000     0.00014996
 Convergence:                0.00000000  (line search)     0.00849804     0.01635420  (total)

 Optimization point 2

 Variable                      Last           Current        Next           Gradient       Hessian

 E(MP2) / Hartree          -40.28091521   -40.28100159     0.00000000
 D / ANG                     1.09000000     1.09449695     1.09596675    -0.00761285     5.17952687
 A / DEG                   109.47000000   109.47135939   109.47113901     0.00000004     0.00022688
 T / DEG                   120.00000000   120.00000000   120.00000000    -0.00000000     0.00014615
 Convergence:                0.00000000  (line search)     0.00277752     0.00402855  (total)

 Optimization point 3

 Variable                      Last           Current        Next           Gradient       Hessian

 E(MP2) / Hartree          -40.28100159   -40.28100727     0.00000000
 D / ANG                     1.09449695     1.09596675     1.09599143    -0.00012575     5.09396629
 A / DEG                   109.47135939   109.47113901   109.47123292    -0.00000002     0.00022504
 T / DEG                   120.00000000   120.00000000   120.00000000    -0.00000000     0.00014493
 Convergence:                0.00000000  (line search)     0.00004668     0.00006656  (total)

 END OF GEOMETRY OPTIMIZATION.    TOTAL CPU:         4.6 SEC

 ITER.   ENERGY(OLD)    ENERGY(NEW)      DE          GRADMAX     GRADNORM    GRADRMS     STEPMAX     STEPLEN     STEPRMS
   1   -40.28091521   -40.28100159    -0.00008639  0.01635419  0.01635420  0.00545140  0.00849800  0.00849804  0.00283268
   2   -40.28100159   -40.28100727    -0.00000568  0.00402855  0.00402855  0.00134285  0.00277751  0.00277752  0.00092584
   3   -40.28100727   -40.28100727    -0.00000000  0.00006655  0.00006656  0.00002219  0.00004665  0.00004668  0.00001556

 Geometry written to block  1 of record 700


 **********************************************************************************************************************************
 DATASETS  * FILE   NREC   LENGTH (MB)   RECORD NAMES
              1      21        2.86       500      610      700      900      950      970     1000      129      960     1100   
                                          VAR    BASINP    GEOM    SYMINP    ZMAT    AOBASIS   BASIS     P2S    ABASIS      S 
                                         1400     1410     1200     1210     1080     1600     1650     1300     1700     1380   
                                           T        V       H0       H01     AOSYM     SMH    MOLCAS    ERIS     OPER     JKOP   
                                         5200   
                                          MP2  

              2       6        0.32       700     1000     2100     4100     4101     9001   
                                         GEOM     BASIS     RHF     CPHF     CPHF    DEN_MP2    

 PROGRAMS   *        TOTAL      OPTG       MP2        HF       INT
 CPU TIMES  *         5.59      4.65      0.19      0.07      0.18
 REAL TIME  *         6.50 SEC
 DISK USED  *         7.93 MB      
 **********************************************************************************************************************************


 PROGRAM * HESSIAN

 Computing numerical hessian using default procedure for command MP2

 Symmetry elements for unique displacements: Y  

 Using no symmetry in wavefunction calculations

 Running default procedure: HF-SCF000  MP2


 Numerically approximating hessian using central gradient differences

 Task list generated. Total number of displacements:     21

    5 tasks completed, CPU=     7.98 sec, Elapsed=     8.43 sec
   10 tasks completed, CPU=    15.92 sec, Elapsed=    16.79 sec
   15 tasks completed, CPU=    23.83 sec, Elapsed=    25.06 sec
   20 tasks completed, CPU=    31.76 sec, Elapsed=    33.33 sec

 Numerical MP2 hessian completed. CPU-time:    33.34 sec, Elapsed:    34.98 sec

 MP2 hessian saved to record  5300.2

 FREQUENCIES * CALCULATION OF HARMONIC VIBRATIONAL SPECTRA FOR MP2


 Permanent Dipole Moment [debye]
   1-  3   -0.000000    0.000000   -0.000000

 Dipole Moment Norm    0.0000003 [debye]

 Dipole Moment Derivatives [debye/ang]
                   1             2             3             4             5             6             7             8
         1    -0.0805430     0.0000000    -0.0000010     0.4265804     0.0000000     0.0000503    -0.6573456     0.0000000
         2     0.0000000    -0.0805353     0.0000000    -0.0000000     0.4265813    -0.0000000    -0.0000000     0.4265814
         3     0.0000256     0.0000000    -0.0805530     0.0000466     0.0000000    -0.7928073     0.3831752     0.0000000
                   9            10            11            12            13            14            15
         1     0.3831634     0.1556265    -0.4693234    -0.1916113     0.1556265     0.4693234    -0.1916113
         2    -0.0000000    -0.4693323    -0.3863522    -0.3318942     0.4693323    -0.3863522     0.3318942
         3     0.2911237    -0.1916184    -0.3318938     0.2910780    -0.1916184     0.3318938     0.2910780

 Projecting out rotations and translations

   Low Vibration      Wavenumber
        Nr             [1/cm] 
        1                0.00
        2                0.00
        3                0.00
        4                0.00
        5                0.00
        6                0.00

     Vibration        Wavenumber
        Nr             [1/cm] 
        1             1432.31
        2             1432.34
        3             1432.36
        4             1586.52
        5             1586.56
        6             3051.25
        7             3179.52
        8             3179.58
        9             3179.67

 FREQUENCIES * CALCULATION OF NORMAL MODES FOR MP2


 Atomic Coordinates

  Nr  Atom  Charge       X              Y              Z

   1   C     6.00    0.000000000    0.000000000    0.000000079
   2   H1    1.00   -0.000085233    0.000000000    2.071123728
   3   H2    1.00    1.952702366    0.000000000   -0.690294531
   4   H3    1.00   -0.976308566   -1.691065251   -0.690415069
   5   H4    1.00   -0.976308566    1.691065251   -0.690415069

 Frequencies dumped to record   5400.2

 Gradient norm at reference geometry: 0.12575D-03

 Normal Modes

                              1 A`        2 A`        3 A``       4 A`        5 A``
 Wavenumbers [cm-1]         1432.31     1432.34     1432.36     1586.52     1586.56
 Intensities [km/mol]         21.98       21.98       21.98        0.00        0.00
 Intensities [relative]       65.54       65.54       65.54        0.00        0.00
           CX1             -0.08523     0.07871     0.00000    -0.00003     0.00000
           CY1             -0.00000     0.00000    -0.11601     0.00000    -0.00000
           CZ1             -0.07871    -0.08523    -0.00000    -0.00000     0.00000
           H1X2             0.40831    -0.37710    -0.00000     0.49819    -0.00000
           H1Y2             0.00000    -0.00000     0.55594     0.00000     0.49804
           H1Z2            -0.05091    -0.05516    -0.00000     0.00002     0.00000
           H2X3             0.13083     0.14906     0.00000     0.16599    -0.00000
           H2Y3             0.00000    -0.00000     0.55597    -0.00000    -0.49801
           H2Z3             0.47520     0.22246     0.00000     0.46963    -0.00000
           H3X4             0.23822    -0.35497    -0.24288    -0.33190     0.28754
           H3Y4            -0.29501     0.03866     0.13527     0.28745     0.00000
           H3Z4             0.25685     0.42414    -0.17174    -0.23480    -0.40663
           H4X5             0.23822    -0.35497     0.24288    -0.33190    -0.28754
           H4Y5             0.29501    -0.03866     0.13527    -0.28745     0.00000
           H4Z5             0.25685     0.42414     0.17174    -0.23480     0.40663

                              6 A`        7 A``       8 A`        9 A` 
 Wavenumbers [cm-1]         3051.25     3179.52     3179.58     3179.67
 Intensities [km/mol]          0.00       33.53       33.53       33.53
 Intensities [relative]        0.00      100.00      100.00      100.00
           CX1              0.00003    -0.00000    -0.08211     0.02687
           CY1             -0.00000    -0.08640     0.00000     0.00000
           CZ1              0.00004    -0.00000    -0.02687    -0.08211
           H1X2            -0.00001    -0.00000    -0.02382     0.00775
           H1Y2             0.00000    -0.02505     0.00000     0.00000
           H1Z2             0.49763     0.00000     0.25593     0.78168
           H2X3             0.46942     0.00000     0.60946    -0.47934
           H2Y3            -0.00000    -0.02505     0.00000     0.00000
           H2Z3            -0.16592    -0.00000    -0.23165     0.14839
           H3X4            -0.23488     0.32612     0.19642     0.07570
           H3Y4            -0.40687     0.53983     0.38149     0.11763
           H3Z4            -0.16609     0.23062     0.14795     0.02421
           H4X5            -0.23488    -0.32612     0.19642     0.07570
           H4Y5             0.40687     0.53983    -0.38149    -0.11763
           H4Z5            -0.16609    -0.23062     0.14795     0.02421


 Normal Modes of low/zero frequencies

                                  1           2           3           4           5
 Wavenumbers [cm-1]            0.00        0.00        0.00        0.00        0.00
 Intensities [km/mol]          0.00        0.00        0.00        0.00        0.00
 Intensities [relative]        0.00        0.00        0.00        0.00        0.00
           CX1              0.06867     0.04765     0.02228     0.14598     0.18212
           CY1              0.22702     0.00721     0.02202     0.01344    -0.09976
           CZ1             -0.04227     0.22799     0.00717     0.03550    -0.06752
           H1X2             0.13917     0.03898     0.11531    -0.08813     0.38841
           H1Y2             0.12794    -0.06807     0.60440     0.10771    -0.19097
           H1Z2            -0.04227     0.22799     0.00717     0.03549    -0.06752
           H2X3             0.04517     0.05054    -0.00872     0.22400     0.11336
           H2Y3             0.16192    -0.16139    -0.29880     0.37367    -0.24972
           H2Z3            -0.10875     0.23616    -0.08054     0.25623    -0.26202
           H3X4            -0.03981    -0.11719    -0.11846     0.56320    -0.04285
           H3Y4             0.30911     0.12915    -0.10877    -0.21381     0.02083
           H3Z4            -0.08994     0.16243     0.52653     0.00213    -0.04476
           H4X5             0.13014     0.21828     0.10101    -0.11516     0.26955
           H4Y5             0.30911     0.12915    -0.10877    -0.21381     0.02083
           H4Z5             0.07186     0.28537    -0.42449    -0.15184     0.10420

                                  6
 Wavenumbers [cm-1]            0.00
 Intensities [km/mol]          0.00
 Intensities [relative]        0.00
           CX1             -0.01937
           CY1              0.01122
           CZ1              0.05193
           H1X2             0.49149
           H1Y2            -0.00240
           H1Z2             0.05196
           H2X3            -0.18964
           H2Y3             0.30140
           H2Z3            -0.42972
           H3X4             0.05770
           H3Y4            -0.12706
           H3Z4             0.28164
           H4X5            -0.43704
           H4Y5            -0.12706
           H4Z5             0.30387


 Zero point energy:  0.04570028 [H]    10030.05 [1/CM]      119.99 [KJ/MOL]
 Frequency information read from record  5400.2

 Dump information in style MOLDEN to ch4_6-31++g.molpro                                                              

 Molecular orbitals read from record     2101.2  Type=RHF/CANONICAL (state 1.1)
 Occupation numbers read from record     2101.2  Type=RHF/RHF (state 1.1)
 Orbital energies read from record       2101.2  Type=RHF/CANONICAL (state 1.1)
 Redundancy group numbers read from rec  2101.2  Type=RHF/RHF (state 1.1)

 DUMP ORBITAL  1.1 AS ORBITAL    1  occ=    2.0000  eig=  -11.2128  GROUP=   2
 DUMP ORBITAL  2.1 AS ORBITAL    2  occ=    2.0000  eig=   -0.9458  GROUP=   2
 DUMP ORBITAL  3.1 AS ORBITAL    3  occ=    2.0000  eig=   -0.5435  GROUP=   2
 DUMP ORBITAL  4.1 AS ORBITAL    4  occ=    2.0000  eig=   -0.5435  GROUP=   2
 DUMP ORBITAL  5.1 AS ORBITAL    5  occ=    2.0000  eig=   -0.5435  GROUP=   2

 Total charge:      10.000000
 Frequency information read from record  5400.2

 **********************************************************************************************************************************

       OPTG(MP2)        MP2             HF-SCF  
    -40.28100727    -40.28091521    -40.18106271
 **********************************************************************************************************************************
 Variable memory released
