
 Primary working directories    : /data/scratch
 Secondary working directories  : /data/scratch
 Wavefunction directory         : /home/ospite/wfu/
 Main file repository           : /data/scratch/

 ARCHNAME  : Linux/x86_64
 FC        : /usr/bin/gfortran
 FCVERSION : 4.8.5
 BLASLIB   : 
 id        : polimi

 Nodes     nprocs
 molmod       1

 Using default tuning parameters: mindgm=1; mindgv=20; mindgc=4; mindgr=1; noblas=0; mincuda=1000; minvec=7
 default implementation of scratch files=df  

 ***,methane with imposed symmetry and 6-31G basis set
 memory,100,m
 
 basis=6-31G
 symmetry,y
 
 geometry={angstrom
 C
 H1, C, d
 H2, C, d, H1, a
 H3, C, d, H1, a, H2, t
 H4, C, d, H1, a, H2, -t
 }
 
 d=1.09 Ang
 a=109.47 Deg
 t=120.0 Deg
 
 hf
 mp2
 optg
 frequencies
 put,molden,ch4_6-31G.molpro

 Variables initialized (661), CPU time= 0.01 sec
 Commands  initialized (458), CPU time= 0.05 sec, 486 directives.
 Default parameters read. Elapsed time= 0.18 sec

 Checking input...
 Passed
1


                                         ***  PROGRAM SYSTEM MOLPRO  ***
                         Copyright, University College Cardiff Consultants Limited, 2008

                                    Version 2010.1 linked Mar  6 2018 16:01:50


 **********************************************************************************************************************************
 LABEL *   methane with imposed symmetry and 6-31G basis set                             
 Linux-3.10.0-1160.108.1.el7.x86_64/molmod(x86_64) 64 bit serial version                 DATE: 17-Aug-24          TIME: 17:24:45  
 **********************************************************************************************************************************

 SHA1:             d90fb18d49a3be29a79769f900c595ef3b8176e2
 **********************************************************************************************************************************

 Variable memory set to  100000000 words,  buffer space   230000 words

 SETTING BASIS          =    6-31G
 ZSYMEL=Y  

 SETTING D              =         1.09000000  ANG                             
 SETTING A              =       109.47000000  DEG                             
 SETTING T              =       120.00000000  DEG                             


 Recomputing integrals since basis changed


 Using spherical harmonics

 Library entry C      S 6-31G                selected for orbital group  1
 Library entry C      P 6-31G                selected for orbital group  1
 Library entry H      S 6-31G                selected for orbital group  2

1PROGRAM * SEWARD (Integral evaluation for generally contracted gaussian basis sets)     Author: Roland Lindh, 1990

 Geometry written to block  1 of record 700

 Orientation using atomic masses  
 Molecule type: Symmetric top,     Order of principal axis = 3
 User-specified symmetry elements: Y
 Symmetry elements: Y
 Rotational constants:     158.2574080    158.2574080    158.2538321 GHz  (calculated with average atomic masses)

 Point group  Cs  



 ATOMIC COORDINATES

 NR  ATOM    CHARGE       X              Y              Z

   1  C       6.00   -0.000000000    0.000000000   -0.000007798
   2  H1      1.00   -0.000000000    0.000000000    2.059793685
   3  H2      1.00    1.942014089    0.000000000   -0.686566920
   4  H3      1.00   -0.971007045   -1.681833536   -0.686566920
   5  H4      1.00   -0.971007045    1.681833536   -0.686566920

 Bond lengths in Bohr (Angstrom)

 1-2  2.059801483  1-3  2.059801483  1-4  2.059801483  1-5  2.059801483
     ( 1.090000000)     ( 1.090000000)     ( 1.090000000)     ( 1.090000000)

 Bond angles

  2-1-3  109.47000000   2-1-4  109.47000000   2-1-5  109.47000000   3-1-4  109.47244124

  3-1-5  109.47244124   4-1-5  109.47244124

 NUCLEAR CHARGE:                   10
 NUMBER OF PRIMITIVE AOS:          38
 NUMBER OF SYMMETRY AOS:           38
 NUMBER OF CONTRACTIONS:           17   (  13A'  +   4A"  )
 NUMBER OF CORE ORBITALS:           1   (   1A'  +   0A"  )
 NUMBER OF VALENCE ORBITALS:        8   (   6A'  +   2A"  )


 NUCLEAR REPULSION ENERGY   13.43538921


 Eigenvalues of metric

         1 0.205E-01 0.744E-01 0.744E-01 0.387E+00 0.417E+00 0.417E+00 0.479E+00 0.621E+00
         2 0.744E-01 0.417E+00 0.621E+00 0.247E+01


 Contracted 2-electron integrals neglected if value below      1.0D-11
 AO integral compression algorithm  1   Integral accuracy      1.0D-11

     0.262 MB (compressed) written to integral file (100.0%)


 NUMBER OF SORTED TWO-ELECTRON INTEGRALS:       6971.     BUFFER LENGTH:  32768
 NUMBER OF SEGMENTS:   1  SEGMENT LENGTH:       6971      RECORD LENGTH: 524288

 Memory used in sort:       0.56 MW

 SORT1 READ       10251. AND WROTE        6261. INTEGRALS IN      1 RECORDS. CPU TIME:     0.00 SEC, REAL TIME:     0.01 SEC
 SORT2 READ        6261. AND WROTE        6971. INTEGRALS IN      1 RECORDS. CPU TIME:     0.01 SEC, REAL TIME:     0.02 SEC

 FILE SIZES:   FILE 1:     2.8 MBYTE,  FILE 4:     4.2 MBYTE,   TOTAL:      7.1 MBYTE

 OPERATOR DM      FOR CENTER  0  COORDINATES:    0.000000    0.000000    0.000000


 **********************************************************************************************************************************
 DATASETS  * FILE   NREC   LENGTH (MB)   RECORD NAMES
              1      19        2.63       500      610      700      900      950      970     1000      129      960     1100   
                                          VAR    BASINP    GEOM    SYMINP    ZMAT    AOBASIS   BASIS     P2S    ABASIS      S 
                                         1400     1410     1200     1210     1080     1600     1650     1300     1700   
                                           T        V       H0       H01     AOSYM     SMH    MOLCAS    ERIS     OPER   

 PROGRAMS   *        TOTAL       INT
 CPU TIMES  *         0.62      0.12
 REAL TIME  *         0.81 SEC
 DISK USED  *         7.59 MB      
 **********************************************************************************************************************************

1PROGRAM * RHF-SCF (CLOSED SHELL)       Authors: W. Meyer, H.-J. Werner


 NUMBER OF ELECTRONS:       5+    5-
 CONVERGENCE THRESHOLDS:    1.00E-06 (Density)    1.00E-07 (Energy)
 MAX. NUMBER OF ITERATIONS:       60
 INTERPOLATION TYPE:            DIIS
 INTERPOLATION STEPS:              2 (START)      1 (STEP)
 LEVEL SHIFTS:                  0.00 (CLOSED)  0.00 (OPEN) 



 Orbital guess generated from atomic densities. Full valence occupancy:    7   2

 Molecular orbital dump at record        2100.2

 Initial alpha occupancy:   4   1
 Initial beta  occupancy:   4   1
 Wave function symmetry:    1

 ITERATION    DDIFF          GRAD             ENERGY        2-EL.EN.            DIPOLE MOMENTS         DIIS
    1      0.000D+00      0.000D+00       -40.16422577     53.038933   -0.00000    0.00000    0.00003    0
    2      0.000D+00      0.216D-01       -40.17841815     51.715055   -0.00000    0.00000    0.00001    1
    3      0.202D-01      0.814D-02       -40.18023388     52.147331   -0.00000    0.00000    0.00001    2
    4      0.582D-02      0.159D-02       -40.18038314     52.099824   -0.00000    0.00000    0.00001    3
    5      0.304D-02      0.187D-03       -40.18038475     52.101865   -0.00000    0.00000    0.00001    4
    6      0.467D-03      0.277D-05       -40.18038475     52.101849   -0.00000    0.00000    0.00001    5
    7      0.771D-05      0.325D-06       -40.18038475     52.101854   -0.00000    0.00000    0.00001    4
    8      0.816D-06      0.330D-07       -40.18038475     52.101854   -0.00000    0.00000    0.00001    0

 Final occupancy:   4   1

 !RHF STATE 1.1 Energy                -40.180384745600
 Nuclear energy                        13.43538921
 One-electron energy                  -79.66670114
 Two-electron energy                   26.05092719
 Virial quotient                       -0.99928219
 !RHF STATE 1.1 Dipole moment          -0.00000000     0.00000000     0.00001058
 Dipole moment /Debye                  -0.00000000     0.00000000     0.00002690

 Orbital energies:

         1.1          2.1          3.1          4.1          5.1          6.1
    -11.207508    -0.945857    -0.543022    -0.543015     0.254627     0.323161

         1.2          2.2          3.2
     -0.543022     0.323163     0.743666


 **********************************************************************************************************************************
 DATASETS  * FILE   NREC   LENGTH (MB)   RECORD NAMES
              1      19        2.63       500      610      700      900      950      970     1000      129      960     1100   
                                          VAR    BASINP    GEOM    SYMINP    ZMAT    AOBASIS   BASIS     P2S    ABASIS      S 
                                         1400     1410     1200     1210     1080     1600     1650     1300     1700   
                                           T        V       H0       H01     AOSYM     SMH    MOLCAS    ERIS     OPER   

              2       3        0.29       700     1000     2100   
                                         GEOM     BASIS     RHF  

 PROGRAMS   *        TOTAL        HF       INT
 CPU TIMES  *         0.68      0.06      0.12
 REAL TIME  *         0.89 SEC
 DISK USED  *         7.59 MB      
 **********************************************************************************************************************************


1PROGRAM * MP2 (Closed-shell)     Authors: C. Hampel, H.-J. Werner, 1991, M. Deegan, P.J. Knowles, 1992


 Convergence thresholds:  THRVAR = 1.00D-12  THRDEN = 1.00D-08

 Number of core orbitals:           1 (   1   0 )
 Number of closed-shell orbitals:   4 (   3   1 )
 Number of external orbitals:      12 (   9   3 )

 Molecular orbitals read from record     2100.2  Type=RHF/CANONICAL (state 1.1)

 Number of N-1 electron functions:               4
 Number of N-2 electron functions:              10
 Number of singly external CSFs:                30
 Number of doubly external CSFs:               636
 Total number of CSFs:                         667

 Length of J-op  integral file:               0.00 MB
 Length of K-op  integral file:               0.04 MB

 Integral transformation finished. Total CPU:   0.00 sec, npass=  1  Memory used:   0.07 MW

 Memory needed for MP2:                      0.00 MW

 SCS-MP2 correlation energy:           -0.104419504634   (PS=  1.200000  PT=  0.333333)
 SCS-MP2 total energy:                -40.284804250235


  Reference energy                    -40.180384745600
  MP2 singlet pair energy              -0.074468171120
  MP2 triplet pair energy              -0.024199873859
  MP2 correlation energy               -0.098668044979

 !MP2 total energy                    -40.279052790579

 KEXT needed  1 integral passes. Memory used:   0.04 MW  CPU time:      0.00 sec


 Starting Coupled-perturbed Hartree-Fock, convergence threshold= 1.0D-06

 ITER   MIC  DIIS      VAR         VARC       CPU
   1     0     1    0.99D-02    0.95D-03     0.00
   2     3     2    0.23D-03    0.19D-04     0.00
   3     3     3    0.13D-05    0.52D-07     0.00
   4     1     4    0.89D-07    0.33D-08     0.00

 CPHF convergence reached in  4 macroiterations and    7 microiterations.   Accuracy: 8.9148D-08

 CPHF solution written to record  4101.2

 Dipole moments (unrelaxed):           -0.00000000     0.00000000     0.00001058
 Orbital relaxation contribution:      -0.00000000    -0.00000000    -0.00000029
 !MP2 dipole moments:                  -0.00000000     0.00000000     0.00001029

 CPU-time for density and lagrangian:                  0.00 sec
 CPU-time for coupled-perturbed hartree-fock:          0.00 sec

 MP2 Gradient info saved on record         5200.1


 **********************************************************************************************************************************
 DATASETS  * FILE   NREC   LENGTH (MB)   RECORD NAMES
              1      21        2.67       500      610      700      900      950      970     1000      129      960     1100   
                                          VAR    BASINP    GEOM    SYMINP    ZMAT    AOBASIS   BASIS     P2S    ABASIS      S 
                                         1400     1410     1200     1210     1080     1600     1650     1300     1700     1380   
                                           T        V       H0       H01     AOSYM     SMH    MOLCAS    ERIS     OPER     JKOP   
                                         5200   
                                          MP2  

              2       5        0.31       700     1000     2100     4100     4101   
                                         GEOM     BASIS     RHF     CPHF     CPHF   

 PROGRAMS   *        TOTAL       MP2        HF       INT
 CPU TIMES  *         0.86      0.17      0.06      0.12
 REAL TIME  *         1.10 SEC
 DISK USED  *         7.59 MB      
 **********************************************************************************************************************************


 PROGRAM * OPT (Geometry optimization)     Authors: F. Eckert and H.-J. Werner


 BFGS update of hessian

 *** Long output written to logfile /home/ospite/Desktop/MMfP/Project6/CH4/molpro/MP2/ch4_Pople631.log ***


 Geometry optimization using default procedure for command MP2

 Geometry written to block  1 of record 700

 Making model hessian for Z-matrix coordinates

 Quadratic Steepest Descent - Minimum Search

 Optimization point 1

 Variable                      Last           Current        Next           Gradient       Hessian

 E(MP2) / Hartree            0.00000000   -40.27905279     0.00000000
 D / ANG                     0.00000000     1.09000000     1.09410547    -0.02821452     6.87242182
 A / DEG                     0.00000000   109.47000000   109.47137329    -0.00000032     0.00023257
 T / DEG                     0.00000000   120.00000000   120.00000000     0.00000000     0.00014996
 Convergence:                0.00000000  (line search)     0.00775825     0.01493049  (total)

 Optimization point 2

 Variable                      Last           Current        Next           Gradient       Hessian

 E(MP2) / Hartree          -40.27905279   -40.27912457     0.00000000
 D / ANG                     1.09000000     1.09410547     1.09541756    -0.00683333     5.20797290
 A / DEG                   109.47000000   109.47137329   109.47113234     0.00000004     0.00022737
 T / DEG                   120.00000000   120.00000000   120.00000000     0.00000000     0.00014648
 Convergence:                0.00000000  (line search)     0.00247950     0.00361604  (total)

 Optimization point 3

 Variable                      Last           Current        Next           Gradient       Hessian

 E(MP2) / Hartree          -40.27912457   -40.27912911     0.00000000
 D / ANG                     1.09410547     1.09541756     1.09543741    -0.00010181     5.13037486
 A / DEG                   109.47137329   109.47113234   109.47123471    -0.00000002     0.00022573
 T / DEG                   120.00000000   120.00000000   120.00000000    -0.00000000     0.00014539
 Convergence:                0.00000000  (line search)     0.00003754     0.00005389  (total)

 END OF GEOMETRY OPTIMIZATION.    TOTAL CPU:         4.2 SEC

 ITER.   ENERGY(OLD)    ENERGY(NEW)      DE          GRADMAX     GRADNORM    GRADRMS     STEPMAX     STEPLEN     STEPRMS
   1   -40.27905279   -40.27912457    -0.00007178  0.01493048  0.01493049  0.00497683  0.00775821  0.00775825  0.00258608
   2   -40.27912457   -40.27912911    -0.00000454  0.00361604  0.00361604  0.00120535  0.00247949  0.00247950  0.00082650
   3   -40.27912911   -40.27912911    -0.00000000  0.00005388  0.00005389  0.00001796  0.00003750  0.00003754  0.00001251

 Geometry written to block  1 of record 700


 **********************************************************************************************************************************
 DATASETS  * FILE   NREC   LENGTH (MB)   RECORD NAMES
              1      21        2.67       500      610      700      900      950      970     1000      129      960     1100   
                                          VAR    BASINP    GEOM    SYMINP    ZMAT    AOBASIS   BASIS     P2S    ABASIS      S 
                                         1400     1410     1200     1210     1080     1600     1650     1300     1700     1380   
                                           T        V       H0       H01     AOSYM     SMH    MOLCAS    ERIS     OPER     JKOP   
                                         5200   
                                          MP2  

              2       6        0.31       700     1000     2100     4100     4101     9001   
                                         GEOM     BASIS     RHF     CPHF     CPHF    DEN_MP2    

 PROGRAMS   *        TOTAL      OPTG       MP2        HF       INT
 CPU TIMES  *         5.06      4.19      0.17      0.06      0.12
 REAL TIME  *         5.92 SEC
 DISK USED  *         7.64 MB      
 **********************************************************************************************************************************


 PROGRAM * HESSIAN

 Computing numerical hessian using default procedure for command MP2

 Symmetry elements for unique displacements: Y  

 Using no symmetry in wavefunction calculations

 Running default procedure: HF-SCF000  MP2


 Numerically approximating hessian using central gradient differences

 Task list generated. Total number of displacements:     21

    5 tasks completed, CPU=     7.10 sec, Elapsed=     7.44 sec
   10 tasks completed, CPU=    14.18 sec, Elapsed=    14.82 sec
   15 tasks completed, CPU=    21.27 sec, Elapsed=    22.24 sec
   20 tasks completed, CPU=    28.36 sec, Elapsed=    29.63 sec

 Numerical MP2 hessian completed. CPU-time:    29.76 sec, Elapsed:    31.13 sec

 MP2 hessian saved to record  5300.2

 FREQUENCIES * CALCULATION OF HARMONIC VIBRATIONAL SPECTRA FOR MP2


 Permanent Dipole Moment [debye]
   1-  3   -0.000000    0.000000   -0.000000

 Dipole Moment Norm    0.0000003 [debye]

 Dipole Moment Derivatives [debye/ang]
                   1             2             3             4             5             6             7             8
         1    -0.0472972     0.0000000    -0.0000021     0.3903501     0.0000000     0.0000699    -0.6191284     0.0000000
         2    -0.0000000    -0.0472812    -0.0000000     0.0000000     0.3903505     0.0000000     0.0000000     0.3903510
         3     0.0000285     0.0000000    -0.0473001     0.0000676     0.0000000    -0.7452610     0.3568307     0.0000000
                   9            10            11            12            13            14            15
         1     0.3568340     0.1380093    -0.4370790    -0.1784517     0.1380093     0.4370790    -0.1784517
         2    -0.0000000    -0.4370836    -0.3667362    -0.3091025     0.4370836    -0.3667362     0.3091025
         3     0.2642159    -0.1784569    -0.3091031     0.2641501    -0.1784569     0.3091031     0.2641501

 Projecting out rotations and translations

   Low Vibration      Wavenumber
        Nr             [1/cm] 
        1                0.00
        2                0.00
        3                0.00
        4                0.00
        5                0.00
        6                0.00

     Vibration        Wavenumber
        Nr             [1/cm] 
        1             1441.20
        2             1441.24
        3             1441.26
        4             1619.81
        5             1619.85
        6             3062.88
        7             3194.04
        8             3194.11
        9             3194.20

 FREQUENCIES * CALCULATION OF NORMAL MODES FOR MP2


 Atomic Coordinates

  Nr  Atom  Charge       X              Y              Z

   1   C     6.00    0.000000000    0.000000000    0.000000090
   2   H1    1.00   -0.000126910    0.000000000    2.070076776
   3   H2    1.00    1.951729150    0.000000000   -0.689906299
   4   H3    1.00   -0.975801120   -1.690210393   -0.690085777
   5   H4    1.00   -0.975801120    1.690210393   -0.690085777

 Frequencies dumped to record   5400.2

 Gradient norm at reference geometry: 0.10181D-03

 Normal Modes

                              1 A`        2 A`        3 A``       4 A`        5 A``
 Wavenumbers [cm-1]         1441.20     1441.24     1441.26     1619.81     1619.85
 Intensities [km/mol]         18.39       18.39       18.39        0.00        0.00
 Intensities [relative]       61.89       61.89       61.89        0.00        0.00
           CX1             -0.08469     0.07917     0.00000    -0.00003     0.00000
           CY1             -0.00000    -0.00000    -0.11593     0.00000    -0.00000
           CZ1             -0.07917    -0.08469     0.00000    -0.00000     0.00000
           H1X2             0.40607    -0.37958    -0.00000     0.49816    -0.00000
           H1Y2             0.00000     0.00000     0.55597     0.00000     0.49804
           H1Z2            -0.05179    -0.05545     0.00000     0.00003    -0.00000
           H2X3             0.13138     0.14894    -0.00000     0.16598    -0.00000
           H2Y3             0.00000     0.00000     0.55599    -0.00000    -0.49801
           H2Z3             0.47670     0.21936    -0.00000     0.46962    -0.00000
           H3X4             0.23585    -0.35638    -0.24320    -0.33191     0.28755
           H3Y4            -0.29515     0.04048     0.13474     0.28746     0.00000
           H3Z4             0.25925     0.42262    -0.17197    -0.23480    -0.40662
           H4X5             0.23585    -0.35638     0.24320    -0.33191    -0.28755
           H4Y5             0.29515    -0.04048     0.13474    -0.28746     0.00000
           H4Z5             0.25925     0.42262     0.17197    -0.23480     0.40662

                              6 A`        7 A``       8 A`        9 A` 
 Wavenumbers [cm-1]         3062.88     3194.04     3194.11     3194.20
 Intensities [km/mol]          0.00       29.71       29.71       29.71
 Intensities [relative]        0.00      100.00      100.00      100.00
           CX1              0.00003     0.00000    -0.08231     0.02663
           CY1              0.00000    -0.08651    -0.00000     0.00000
           CZ1              0.00004     0.00000    -0.02663    -0.08231
           H1X2            -0.00002     0.00000    -0.02333     0.00749
           H1Y2             0.00000    -0.02450    -0.00000     0.00000
           H1Z2             0.49764    -0.00000     0.25325     0.78246
           H2X3             0.46944    -0.00000     0.61113    -0.47710
           H2Y3             0.00000    -0.02450    -0.00000     0.00000
           H2Z3            -0.16592     0.00000    -0.23180     0.14799
           H3X4            -0.23487     0.32588     0.19652     0.07614
           H3Y4            -0.40686     0.53996     0.38082     0.11883
           H3Z4            -0.16609     0.23046     0.14793     0.02519
           H4X5            -0.23487    -0.32588     0.19652     0.07614
           H4Y5             0.40686     0.53996    -0.38082    -0.11883
           H4Z5            -0.16609    -0.23046     0.14793     0.02519


 Normal Modes of low/zero frequencies

                                  1           2           3           4           5
 Wavenumbers [cm-1]            0.00        0.00        0.00        0.00        0.00
 Intensities [km/mol]          0.00        0.00        0.00        0.00        0.00
 Intensities [relative]        0.00        0.00        0.00        0.00        0.00
           CX1              0.24902    -0.00505    -0.00471     0.00242     0.00225
           CY1              0.01651    -0.00101     0.02101    -0.01026     0.00901
           CZ1              0.00180     0.15822     0.05159     0.00171     0.18580
           H1X2             0.26470     0.32202     0.21203    -0.31994    -0.33473
           H1Y2             0.01583    -0.31948     0.49998    -0.15098     0.14554
           H1Z2             0.00180     0.15824     0.05160     0.00169     0.18578
           H2X3             0.24380    -0.11406    -0.07694     0.10986     0.11456
           H2Y3             0.01230    -0.00667    -0.40028    -0.43253     0.13552
           H2Z3            -0.01298    -0.15015    -0.15276     0.30564     0.50352
           H3X4             0.23995    -0.21091    -0.30357    -0.29642     0.26356
           H3Y4             0.01897     0.16105    -0.00783     0.27124    -0.12251
           H3Z4             0.00863     0.05237     0.54482    -0.26517     0.13843
           H4X5             0.24765    -0.01727     0.14964     0.51620    -0.03437
           H4Y5             0.01897     0.16105    -0.00783     0.27124    -0.12251
           H4Z5             0.00975     0.57243    -0.23731    -0.03532    -0.08454

                                  6
 Wavenumbers [cm-1]            0.00
 Intensities [km/mol]          0.00
 Intensities [relative]        0.00
           CX1             -0.01619
           CY1              0.24785
           CZ1             -0.01053
           H1X2            -0.03537
           H1Y2             0.19521
           H1Z2            -0.01053
           H2X3            -0.00980
           H2Y3             0.26175
           H2Z3             0.00754
           H3X4            -0.01297
           H3Y4             0.26723
           H3Z4            -0.06255
           H4X5            -0.00664
           H4Y5             0.26723
           H4Z5             0.02341


 Zero point energy:  0.04603855 [H]    10104.29 [1/CM]      120.87 [KJ/MOL]
 Frequency information read from record  5400.2

 Dump information in style MOLDEN to ch4_6-31g.molpro                                                                

 Molecular orbitals read from record     2101.2  Type=RHF/CANONICAL (state 1.1)
 Occupation numbers read from record     2101.2  Type=RHF/RHF (state 1.1)
 Orbital energies read from record       2101.2  Type=RHF/CANONICAL (state 1.1)
 Redundancy group numbers read from rec  2101.2  Type=RHF/RHF (state 1.1)

 DUMP ORBITAL  1.1 AS ORBITAL    1  occ=    2.0000  eig=  -11.2101  GROUP=   2
 DUMP ORBITAL  2.1 AS ORBITAL    2  occ=    2.0000  eig=   -0.9437  GROUP=   2
 DUMP ORBITAL  3.1 AS ORBITAL    3  occ=    2.0000  eig=   -0.5416  GROUP=   2
 DUMP ORBITAL  4.1 AS ORBITAL    4  occ=    2.0000  eig=   -0.5416  GROUP=   2
 DUMP ORBITAL  5.1 AS ORBITAL    5  occ=    2.0000  eig=   -0.5416  GROUP=   2

 Total charge:      10.000000
 Frequency information read from record  5400.2

 **********************************************************************************************************************************

       OPTG(MP2)        MP2             HF-SCF  
    -40.27912911    -40.27905279    -40.18038475
 **********************************************************************************************************************************
 Variable memory released
