[Molden Format]
[Molpro variables]
_NUMVAR=  693.0000000000000    
_EV2006= 0.3674930886769165E-01
_EV= 0.3674932534394180E-01
_KJOULE= 0.3808798324128737E-03
_KJOULE/MOL= 0.3808798324128737E-03
_CM= 0.4556335267302901E-05
_CM-1= 0.4556335267302901E-05
_KCAL= 0.1593601117815568E-02
_KCAL/MOL= 0.1593601117815568E-02
_KELVIN2006= 0.3166828861084835E-05
_KELVIN= 0.3166814820820034E-05
_HERTZ2006= 0.1519829850815779E-15
_HERTZ= 0.1519829846011223E-15
_HZ2006= 0.1519829850815779E-15
_HZ= 0.1519829846011223E-15
_TOA2006= 0.5291772490000000    
_TOA= 0.5291772090000000    
_TOANG2006= 0.5291772490000000    
_TOANG= 0.5291772090000000    
_TORAD= 0.1745329251994330E-01
_TOCM=  219474.6306700000    
_TODEBYE=  2.541580000000000    
_TOEV2006=  27.21139610000000    
_TOEV=  27.21138390000000    
_TOHERTZ2006=  6579683899900000.    
_TOHERTZ=  6579683920700000.    
_TOHZ2006=  6579683899900000.    
_TOHZ=  6579683920700000.    
_TOK2006=  315773.3000000000    
_TOK=  315774.7000000000    
_TOKCAL=  627.5096000000000    
_TOKELVIN2006=  315773.3000000000    
_TOKELVIN=  315774.7000000000    
_TOKJ=  2625.500000000000    
_TOKJOULE=  2625.500000000000    
_ANG2006=  1.889725988578923    
_ANG=  1.889726131421507    
_ANGSTROM2006=  1.889725988578923    
_ANGSTROM=  1.889726131421507    
_IGNORE_UNDEF=  2.000000000000000    
_STRICTCHECK=  0.000000000000000    
_SEW_ONEEL=  0.000000000000000    
_CPPDONE=FALSE
_DKROLL_DONE=  0.000000000000000    
_FOCKDONE=TRUE
_GRADONE=FALSE
_HESSDONE=TRUE
_INTDONE=TRUE
_SCFDONE=TRUE
_MODUL_CUDA=FALSE
_MODUL_SLATER=FALSE
_MODUL_MRCC=FALSE
_MRCC_EXEC=
_FITC_AO_SAVED=  0.000000000000000    
_FITC_MO_SAVED=  0.000000000000000    
_SHARED_FS=TRUE
_LSTYP=SEWARD
_INTYP=INTS
_GEOMTYP=ZMAT
_GRADTYP=ALASKA
_DIRECT=FALSE
_SYNCM=  0.000000000000000    
_BASIS=STO-3G
_ZSYMEL=
_ZORIENT=  1.000000000000000    
_NELEC=  10.00000000000000    
!SPIN=  0.000000000000000    
_OPTCONV= 0.3740076220410937E-04
_QSDSTEP=  0.000000000000000    
_QSDIRC=  0.000000000000000    
_PROGRAM=FREQ
_CPUSTEP=  0.000000000000000    
_SYSSTEP=  0.000000000000000    
_WALLSTEP=  0.000000000000000    
!DFMP2=  0.000000000000000    
!DFSCF=  0.000000000000000    
!SCSGRD=  0.000000000000000    
_BASINP=  610.0000000000000    
_CPUTOT=  34.45999999999999    
_CPUCCSD= 0.1000000000000512E-01
_SYSCCSD=  0.000000000000000    
_WALLCCSD= 0.9999999776482582E-02
_CPUF12=  0.000000000000000    
_SYSF12=  0.000000000000000    
_WALLF12=  0.000000000000000    
_CPUF12B=  0.000000000000000    
_SYSF12B=  0.000000000000000    
_WALLF12B=  0.000000000000000    
_CPUTRANS=  0.000000000000000    
_SYSTRANS=  0.000000000000000    
_WALLTRANS= 0.9999999776482582E-02
_DFTEXFAC=  1.000000000000000    
_DMX=-0.2178656144380398E-09
_DMY=-0.3175237850427948E-13
_DMZ=-0.4491947937501628E-06
_FREQUENCIES= 0.6560776354819354E-04
_EMP2= -39.78306862666986    
_EMP2_SING=-0.5254174854790170E-01
_EMP2_TRIP=-0.4535533320273789E-02
_EMP2_SCS= -39.79186355268067    
_ECSING=-0.5254174854790171E-01
_ECTRIP=-0.4535533320273781E-02
_ENERGC= -39.78306862666986    
_ENERG_CC=  0.000000000000000    
_ENERG_CV=  0.000000000000000    
_ENERG_VV=-0.5707728186817549E-01
_ENERGR= -39.72599134480168    
_ENERGY= -39.78306862666986    
_ENUC=  13.32212399393348    
_FREQSTEP=  22.00000000000000    
_GRADENERG= -39.78306344821704    
_GRADEXFAC=  9999.000000000000    
_GRADMETHOD=  8.000000000000000    
_GRADRECORD=TRUE
_VIRIAL= 0.2961723520265456E-02
!GRID_FREEZE= -1.000000000000000    
_ITERATIONS=  1.000000000000000    
_LASTNELEC=  10.00000000000000    
_LASTSPIN=  0.000000000000000    
_LASTSYM=  1.000000000000000    
_MPP_PROG=  0.000000000000000    
_NPROC_MPP=  1.000000000000000    
_NPROC_SMP=  1.000000000000000    
_NUMSTEP=  0.000000000000000    
_OPTCONVMX= 0.3692099750394737E-04
_OPTCONVRMS= 0.1246692073470312E-04
_OPTGRAD= 0.6323476438796948E-04
_OPTGRADMX= 0.6309158562309115E-04
_OPTGRADRMS= 0.2107825479598983E-04
_OPTSTEP=  3.000000000000000    
_ORBITAL=  2101.200000000000    
_PI=  3.141592653589793    
_ECDIAG=-0.2992047774828002E-01
_EPDIAG=-0.2992047774828002E-01
_SEIG_MIN= 0.2261470703692602    
_SEWPROP=TRUE
_STATUS=  1.000000000000000    
_SYSTOT= 0.9500000000000000    
_T1DIAG=  0.000000000000000    
_VERSION=  2010001.000000000    
_WALLTOT=  37.27000000000000    
_ZPE= 0.5124604961420554E-01
_DATE=17-Aug-24
_LASTORB=RHF
_MACHINE=Linux-3.10.0-1160.108.1.el7.x86_64/molmod(x86_64) 64 bit serial version
_METHODC=MP2
_OUTPUT=/home/ospite/Desktop/MMfP/Project6/CH4/molpro/MP2/ch4_sto-3g.xml
_PGROUP=C1
_TIME=17:23:10
_ANSATZ=
_LIBMOL=/usr/local/molpro/molpros_2010_1_Linux_x86_64_i8/lib/
!SURFREC=  0.000000000000000    
!POLYREC=  0.000000000000000    
!DIPREC=  0.000000000000000    
!VSCFREC=  0.000000000000000    
!VCIREC=  0.000000000000000    
!PVCIREC=  0.000000000000000    
!VMP2REC=  0.000000000000000    
!VMCSCFREC=  0.000000000000000    
!GAREC=  0.000000000000000    
!SCFORB=  21002.00000000000    
!CIOCC=  4.000000000000000    
!CICORE=  1.000000000000000    
!CICLOS=  4.000000000000000    
!CIISTSYM=  1.000000000000000    
!CIISTMS2=  0.000000000000000    
!CIISTNEL=  8.000000000000000    
!NEWMOL=  0.000000000000000    
!NEWSYM=  0.000000000000000    
_SLFILES=slscratch
_NGSSTO=  9.000000000000000    
_SIN=SIN
_COS=COS
_TAN=TAN
_ACOS=ACOS
_ASIN=ASIN
_ATAN=ATAN
_COSH=COSH
_SINH=SINH
_TANH=TANH
_ABS=ABS
_MOD=MOD
_ERF=ERF
_REFC=REFC
_ERFC=ERFC
_HYPOT=HYPOT
_J0=J0
_J1=J1
_JN=JN
_GAMMA=GAMMA
_LGAMMA=LGAMMA
_Y0=Y0
_Y1=Y1
_YN=YN
_EXP=EXP
_LOG=LOG
_LOG10=LOG10
_SQRT=SQRT
_INT=INT
_NINT=NINT
_MAX=MAX
_MIN=MIN
_COSMO=  0.000000000000000    
_COSMOIT=  0.000000000000000    
_COSMOES=  0.000000000000000    
_COSMOEDS=  0.000000000000000    
_COSMOEC=  0.000000000000000    
_COSMOEDCORR=  0.000000000000000    
_FEPSI=  1.000000000000000    
_SL_IsMM=  0.000000000000000    
_SL_NSYM=  0.000000000000000    
_SL_System_BitSw=  0.000000000000000    
_SL_Unique_atoms=  0.000000000000000    
_SL_GRAD=  0.000000000000000    
_SL_MAXUPD_Hess=  5.000000000000000    
_SL_N_PRINT_COD=  5.000000000000000    
_SL_PRINT_CODES=  0.000000000000000    
_SL_BasType=  0.000000000000000    
_SL_Energy_Pred=  0.000000000000000    
_SL_New_Coords=  0.000000000000000    
_SL_Total_Nuclea=  0.000000000000000    
_SL_Highest_Mltp=  0.000000000000000    
_SL_Ref_Geom=  0.000000000000000    
!LATTICE= -1.000000000000000    
!NEWLATTICE=  0.000000000000000    
!LATGRAD_VAR=FALSE
!SEW_LATTICE=  1.000000000000000    
!LOCAL=  0.000000000000000    
!SAVEDOM= -1.000000000000000    
!RESTDOM= -1.000000000000000    
!SAVEDOM_HF= -1.000000000000000    
!RESTDOM_HF= -1.000000000000000    
!HESSREC=  5300.200000000000    
!FREQREC=  5400.200000000000    
!NMODREC=  5450.200000000000    
!GTASKS=  0.000000000000000    
!HTASKS=  5500.200000000000    
!THRCHG= 0.1000000000000000    
!DEBUG= -1.000000000000000    
!CFIT_CPHF=  0.000000000000000    
!RDOMAUX_CPHF=  5.000000000000000    
!THRAO_CPHF= 0.9999999999999999E-11
!THRMO_CPHF= 0.9999999999999999E-11
!THROV_CPHF= 0.1000000000000000E-11
!THRSW_CPHF= 0.1000000000000000E-09
!THRPROD_CPHF= 0.9999999999999999E-11
!THRAOPR_CPHF= 0.1000000000000000E-11
!CFIT_SCFGRD=  0.000000000000000    
!RDOMAUX_SCFGRD=  7.000000000000000    
!THRAO_SCFGRD= 0.9999999999999999E-11
!THRMO_SCFGRD= 0.9999999999999999E-11
!THROV_SCFGRD= 0.1000000000000000E-11
!THRSW_SCFGRD= 0.1000000000000000E-09
!THRPROD_SCFGRD= 0.9999999999999999E-11
!THRAOPR_SCFGRD= 0.1000000000000000E-11
!LOCFIT_SCF=  0.000000000000000    
!LOCFIT_MP2= -1.000000000000000    
_RIDOM=  0.000000000000000    
!CC2_METHOD=  0.000000000000000    
_BASIS2006=FALSE
_SVDDEL= -1.000000000000000    
_SVDDELA= -1.000000000000000    
_SVDDELP= -1.000000000000000    
_SVDDELF= -1.000000000000000    
_SVDDELS= -1.000000000000000    
_SVDDEL_ABS= -1.000000000000000    
_SVDDELA_ABS= -1.000000000000000    
_SVDDELP_ABS= -1.000000000000000    
_SVDDELF_ABS= -1.000000000000000    
_SVDDELS_ABS= -1.000000000000000    
_MAXBASIS=  0.000000000000000    
!OPT_CONICAL=  0.000000000000000    
!CLEARSP_JGRID=  0.000000000000000    
D=  1.099267222029439    
A=  109.4713245113021    
T=  120.0000001358026    
GX1= 0.3366518489059922E-09
GY1= -0.000000000000000    
GZ1= 0.6692658139527458E-06
GX2=-0.5230212455815940E-03
GY2= -0.000000000000000    
GZ2=  2.077314598307356    
GX3=  1.958683440874802    
GY3= -0.000000000000000    
GZ3=-0.6919477486858995    
GX4=-0.9790802118204466    
GY4= -1.696118684817273    
GZ4=-0.6926874124249170    
GX5=-0.9790802118204466    
GY5=  1.696118684817273    
GZ5=-0.6926874124249170    
CX1= 0.3366518487590842E-09
CY1=  0.000000000000000    
CZ1= 0.6692658139524632E-06
H1X2=-0.5230212455815935E-03
H1Y2=  0.000000000000000    
H1Z2=  2.077314598307356    
H2X3=  1.958683440874802    
H2Y3=  0.000000000000000    
H2Z3=-0.6919477486858995    
H3X4=-0.9790802118204466    
H3Y4= -1.696118684817273    
H3Z4=-0.6926874124249170    
H4X5=-0.9790802118204466    
H4Y5=  1.696118684817273    
H4Z5=-0.6926874124249170    
[Atoms] Angs
C     1    6         0.0000000002       -0.0000000000        0.0000003542
H     2    1        -0.0002767709       -0.0000000000        1.0992675413
H     3    1         1.0364906366       -0.0000000000       -0.3661629784
H     4    1        -0.5181069339       -0.8975473518       -0.3665543916
H     5    1        -0.5181069339        0.8975473518       -0.3665543916
[GTO]
  1 0
 s    3  1.00
  0.7161683700D+02  0.1543289700D+00
  0.1304509600D+02  0.5353281400D+00
  0.3530512200D+01  0.4446345400D+00
 s    3  1.00
  0.2941249400D+01 -0.9996723008D-01
  0.6834831000D+00  0.3995128303D+00
  0.2222899000D+00  0.7001154705D+00
 p    3  1.00
  0.2941249400D+01  0.1559162721D+00
  0.6834831000D+00  0.6076837282D+00
  0.2222899000D+00  0.3919573953D+00
  
  2 0
 s    3  1.00
  0.3425250900D+01  0.1543289707D+00
  0.6239137300D+00  0.5353281424D+00
  0.1688554000D+00  0.4446345420D+00
  
  3 0
 s    3  1.00
  0.3425250900D+01  0.1543289707D+00
  0.6239137300D+00  0.5353281424D+00
  0.1688554000D+00  0.4446345420D+00
  
  4 0
 s    3  1.00
  0.3425250900D+01  0.1543289707D+00
  0.6239137300D+00  0.5353281424D+00
  0.1688554000D+00  0.4446345420D+00
  
  5 0
 s    3  1.00
  0.3425250900D+01  0.1543289707D+00
  0.6239137300D+00  0.5353281424D+00
  0.1688554000D+00  0.4446345420D+00


[MO]
 Sym=      1.1
 Ene=     -11.0311
 Spin= Alpha
 Occup=    2.000000
1 0.99200143629931
2 0.037607020879541
3 -0.000000000015989
4 -0.000000000000000
5 -0.000000021046938
6 -0.006812577438779
7 -0.006812581776957
8 -0.006812581783506
9 -0.006812581783506
 Sym=      2.1
 Ene=      -0.9038
 Spin= Alpha
 Occup=    2.000000
1 -0.22083886536215
2 0.63214766444602
3 -0.000000000267144
4 0.000000000000000
5 -0.000000465637915
6 0.18101363769549
7 0.18101373578715
8 0.18101373588966
9 0.18101373588966
 Sym=      3.1
 Ene=      -0.5141
 Spin= Alpha
 Occup=    2.000000
1 -0.000000240318075
2 0.000000891177158
3 -0.000041131807313
4 -0.000000000008302
5 0.57003560063063
6 0.52391550806975
7 -0.17454977235394
8 -0.17468285861647
9 -0.17468285862893
 Sym=      4.1
 Ene=      -0.5141
 Spin= Alpha
 Occup=    2.000000
1 -0.000000000150014
2 0.000000000570407
3 0.57003589639747
4 -0.000000157095490
5 0.000041131780448
6 -0.000094106286228
7 0.49398389699334
8 -0.24694477746569
9 -0.24694501324591
 Sym=      5.1
 Ene=      -0.5141
 Spin= Alpha
 Occup=    2.000000
1 -0.000000000000000
2 0.000000000000000
3 0.000000157095489
4 0.57003589831706
5 0.000000000019638
6 -0.000000000018304
7 0.000000136133871
8 -0.42777551297436
9 0.42777537685880
 Sym=      6.1
 Ene=       0.7049
 Spin= Alpha
 Occup=    0.000000
1 -0.000000000000016
2 0.000000000000102
3 0.000000319919485
4 1.09523485651988
5 -0.000000000080447
6 0.000000000153804
7 -0.000000288280882
8 0.85454674861186
9 -0.85454646048495
 Sym=      7.1
 Ene=       0.7049
 Spin= Alpha
 Occup=    0.000000
1 0.000000003290005
2 -0.000000020716749
3 -1.09523485715010
4 0.000000319919481
5 -0.000047787199047
6 -0.000217836947221
7 0.98681802707390
8 -0.49329982854957
9 -0.49330032777785
 Sym=      8.1
 Ene=       0.7049
 Spin= Alpha
 Occup=    0.000000
1 0.000005666028561
2 -0.000035631361871
3 0.000047787145721
4 -0.000000000094405
5 -1.09523602638305
6 1.04661647166185
7 -0.34864740136954
8 -0.34895548151939
9 -0.34895548137208
 Sym=      9.1
 Ene=       0.7367
 Spin= Alpha
 Occup=    0.000000
1 0.25080582158655
2 -1.59105857688104
3 0.000000014039131
4 0.000000000000069
5 0.000026198361733
6 0.65695024162754
7 0.65698143413567
8 0.65698146025765
9 0.65698146025754
 [FREQ]
      0.00
      0.00
      0.00
      0.00
      0.00
      0.00
   1576.76
   1576.79
   1576.81
   1809.40
   1809.43
   3343.39
   3600.55
   3600.60
   3600.69
 [FR-COORD]
C          0.0000000003       -0.0000000000        0.0000006693
H         -0.0005230212       -0.0000000000        2.0773145983
H          1.9586834409       -0.0000000000       -0.6919477487
H         -0.9790802118       -1.6961186848       -0.6926874124
H         -0.9790802118        1.6961186848       -0.6926874124
 [FR-NORM-COORD]
 Vibration                    1
          0.24845987         -0.01858198          0.01524473
          0.24716750         -0.01450574          0.01524441
          0.24889036         -0.03033171          0.01646330
          0.23989112         -0.01474524          0.01796158
          0.25789051         -0.01474524          0.01130965
 Vibration                    2
          0.01862837          0.20533894         -0.07046003
         -0.22404241          0.36985107         -0.07052113
          0.09946145          0.10126694          0.15835240
          0.05687584          0.17511846         -0.05052294
          0.14221987          0.17511846         -0.31914846
 Vibration                    3
         -0.00685148          0.03906038          0.13400348
         -0.21001705         -0.30329446          0.13395233
          0.06082250         -0.14045328          0.32556674
         -0.19332800          0.29999550         -0.24134797
          0.31511768          0.29999550          0.31784281
 Vibration                    4
         -0.00100193          0.02388722          0.10598585
         -0.21599930         -0.04049589          0.10593171
          0.07061320          0.51790114          0.30870523
          0.47994568         -0.19092802         -0.04781229
         -0.33856618         -0.19092802          0.05711873
 Vibration                    5
          0.01398025          0.09845669         -0.06805663
          0.32859647         -0.30974816         -0.06797742
         -0.09081768          0.36706053         -0.36470586
          0.02393277          0.16825823         -0.25304036
         -0.20579217          0.16825823          0.41349711
 Vibration                    6
         -0.00327057          0.08963265          0.15269171
          0.35263873          0.32834095          0.15278132
         -0.12182312         -0.02285906         -0.18289244
         -0.15051009          0.02652374          0.51533619
         -0.09338961          0.02652374          0.12554179
 Vibration                    7
         -0.08445238         -0.00000000         -0.07529266
          0.41540119          0.00000000         -0.06760089
          0.11609408          0.00000000          0.47595646
          0.23743584         -0.30837828          0.24443033
          0.23743584          0.30837828          0.24443033
 Vibration                    8
          0.07529237         -0.00000000         -0.08445229
         -0.37014133          0.00000001         -0.07607388
          0.17344892          0.00000001          0.22332643
         -0.35026018          0.03482819          0.42955670
         -0.35026017         -0.03482818          0.42955670
 Vibration                    9
         -0.00000000         -0.11314118          0.00000000
          0.00000000          0.55646808          0.00000000
         -0.00000000          0.55648175         -0.00000001
         -0.25331917          0.11764195         -0.17921031
          0.25331917          0.11764195          0.17921030
 Vibration                   10
         -0.00001943         -0.00000000         -0.00000309
          0.49812855         -0.00000001          0.00012263
          0.16588340          0.00000001          0.46964141
         -0.33189023          0.28747698         -0.23486362
         -0.33189023         -0.28747698         -0.23486363
 Vibration                   11
         -0.00000000         -0.00000152         -0.00000000
          0.00000001          0.49803424          0.00000000
          0.00000000         -0.49801861          0.00000001
          0.28763427          0.00000125         -0.40656793
         -0.28763428          0.00000124          0.40656793
 Vibration                   12
          0.00001359         -0.00000000          0.00001887
         -0.00012103          0.00000000          0.49784260
          0.46952656          0.00000000         -0.16586203
         -0.23478374         -0.40674489         -0.16610274
         -0.23478374          0.40674489         -0.16610274
 Vibration                   13
         -0.00000000         -0.09012588         -0.00000000
         -0.00000000         -0.00695337          0.00000000
          0.00000001         -0.00695550         -0.00000000
          0.31800403          0.54394173          0.22498289
         -0.31800402          0.54394172         -0.22498289
 Vibration                   14
         -0.08589473          0.00000000         -0.02728606
         -0.00668962          0.00000000          0.24798881
          0.61508367          0.00000000         -0.22173383
          0.20758029          0.37111108          0.14944808
          0.20758030         -0.37111109          0.14944808
 Vibration                   15
          0.02728644         -0.00000000         -0.08589468
          0.00190486         -0.00000000          0.78108020
         -0.46759646         -0.00000000          0.15929529
          0.07026796          0.11808155          0.04158927
          0.07026796         -0.11808154          0.04158927
