
 Primary working directories    : /data/scratch
 Secondary working directories  : /data/scratch
 Wavefunction directory         : /home/ospite/wfu/
 Main file repository           : /data/scratch/

 ARCHNAME  : Linux/x86_64
 FC        : /usr/bin/gfortran
 FCVERSION : 4.8.5
 BLASLIB   : 
 id        : polimi

 Nodes     nprocs
 molmod       1

 Using default tuning parameters: mindgm=1; mindgv=20; mindgc=4; mindgr=1; noblas=0; mincuda=1000; minvec=7
 default implementation of scratch files=df  

 ***,methyl with imposed symmetry and aug-cc-pVDZ basis set
 memory,100,m
 
 basis=aug-cc-pVDZ
 symmetry,y
 
 geometry={angstrom
 C
 H1, C, d
 H2, C, d, H1, a
 H3, C, d, H1, -a, H2, t
 }
 
 d=1.09 Ang
 a=120. Deg
 t=0.0 Deg
 hf
 optg
 frequencies
 put,molden,ch4_aug-ccpVDZ.molpro

 Variables initialized (661), CPU time= 0.01 sec
 Commands  initialized (458), CPU time= 0.05 sec, 486 directives.
 Default parameters read. Elapsed time= 0.29 sec

 Checking input...
 Passed
1


                                         ***  PROGRAM SYSTEM MOLPRO  ***
                         Copyright, University College Cardiff Consultants Limited, 2008

                                    Version 2010.1 linked Mar  6 2018 16:01:50


 **********************************************************************************************************************************
 LABEL *   methyl with imposed symmetry and aug-cc-pVDZ basis set                        
 Linux-3.10.0-1160.108.1.el7.x86_64/molmod(x86_64) 64 bit serial version                 DATE: 17-Aug-24          TIME: 18:13:21  
 **********************************************************************************************************************************

 SHA1:             d90fb18d49a3be29a79769f900c595ef3b8176e2
 **********************************************************************************************************************************

 Variable memory set to  100000000 words,  buffer space   230000 words

 SETTING BASIS          =    AUG-CC-PVDZ
 ZSYMEL=Y  

 SETTING D              =         1.09000000  ANG                             
 SETTING A              =       120.00000000  DEG                             
 SETTING T              =         0.00000000  DEG                             


 Recomputing integrals since basis changed


 Using spherical harmonics

 Library entry C      S aug-cc-pVDZ          selected for orbital group  1
 Library entry C      P aug-cc-pVDZ          selected for orbital group  1
 Library entry C      D aug-cc-pVDZ          selected for orbital group  1
 Library entry H      S aug-cc-pVDZ          selected for orbital group  2
 Library entry H      P aug-cc-pVDZ          selected for orbital group  2

1PROGRAM * SEWARD (Integral evaluation for generally contracted gaussian basis sets)     Author: Roland Lindh, 1990

 Geometry written to block  1 of record 700

 Orientation using atomic masses  
 Molecule type: Symmetric top,     Order of principal axis = 3
 User-specified symmetry elements: Y
 Symmetry elements: Y
 Rotational constants:     281.3443841    281.3443841    140.6721920 GHz  (calculated with average atomic masses)

 Point group  Cs  



 ATOMIC COORDINATES

 NR  ATOM    CHARGE       X              Y              Z

   1  C       6.00   -0.000000000    0.000000000    0.000000000
   2  H1      1.00    2.059801483    0.000000000    0.000000000
   3  H2      1.00   -1.029900742   -1.783840411    0.000000000
   4  H3      1.00   -1.029900742    1.783840411    0.000000000

 Bond lengths in Bohr (Angstrom)

 1-2  2.059801483  1-3  2.059801483  1-4  2.059801483
     ( 1.090000000)     ( 1.090000000)     ( 1.090000000)

 Bond angles

  2-1-3  120.00000000   2-1-4  120.00000000   3-1-4  120.00000000

 NUCLEAR CHARGE:                    9
 NUMBER OF PRIMITIVE AOS:          70
 NUMBER OF SYMMETRY AOS:           68
 NUMBER OF CONTRACTIONS:           50   (  32A'  +  18A"  )
 NUMBER OF CORE ORBITALS:           1   (   1A'  +   0A"  )
 NUMBER OF VALENCE ORBITALS:        7   (   5A'  +   2A"  )


 NUCLEAR REPULSION ENERGY    9.57958860

 EXTRA SYMMETRY OF AOS IN SYMMETRY 1:   1 1 1 1 1 2 1 2 1 2   1 2 1 1 2 1 1 1 1 1   2 1 2 1 1 1 1 2 1 1   2 1
 EXTRA SYMMETRY OF AOS IN SYMMETRY 2:   1 1 1 1 2 1 2 1 1 1   1 1 1 1 2 1 1 2

 Eigenvalues of metric

         1 0.965E-03 0.993E-03 0.744E-02 0.941E-02 0.209E-01 0.345E-01 0.415E-01 0.420E-01
         2 0.965E-03 0.744E-02 0.209E-01 0.345E-01 0.605E-01 0.763E-01 0.143E+00 0.171E+00


 Contracted 2-electron integrals neglected if value below      1.0D-11
 AO integral compression algorithm  1   Integral accuracy      1.0D-11

     1.835 MB (compressed) written to integral file ( 40.7%)


 NUMBER OF SORTED TWO-ELECTRON INTEGRALS:     425226.     BUFFER LENGTH:  32768
 NUMBER OF SEGMENTS:   1  SEGMENT LENGTH:     425226      RECORD LENGTH: 524288

 Memory used in sort:       0.98 MW

 SORT1 READ      644114. AND WROTE      218954. INTEGRALS IN      1 RECORDS. CPU TIME:     0.03 SEC, REAL TIME:     0.04 SEC
 SORT2 READ      218954. AND WROTE      425226. INTEGRALS IN      7 RECORDS. CPU TIME:     0.16 SEC, REAL TIME:     0.23 SEC

 FILE SIZES:   FILE 1:     4.5 MBYTE,  FILE 4:     4.2 MBYTE,   TOTAL:      8.7 MBYTE

 OPERATOR DM      FOR CENTER  0  COORDINATES:    0.000000    0.000000    0.000000


 **********************************************************************************************************************************
 DATASETS  * FILE   NREC   LENGTH (MB)   RECORD NAMES
              1      19        3.87       500      610      700      900      950      970     1000      129      960     1100   
                                          VAR    BASINP    GEOM    SYMINP    ZMAT    AOBASIS   BASIS     P2S    ABASIS      S 
                                         1400     1410     1200     1210     1080     1600     1650     1300     1700   
                                           T        V       H0       H01     AOSYM     SMH    MOLCAS    ERIS     OPER   

 PROGRAMS   *        TOTAL       INT
 CPU TIMES  *         0.92      0.42
 REAL TIME  *         1.40 SEC
 DISK USED  *         9.21 MB      
 **********************************************************************************************************************************

1PROGRAM * RHF-SCF (OPEN SHELL)       Authors: W. Meyer, H.-J. Werner


 NUMBER OF ELECTRONS:       5+    4-
 CONVERGENCE THRESHOLDS:    1.00E-06 (Density)    1.00E-07 (Energy)
 MAX. NUMBER OF ITERATIONS:       60
 INTERPOLATION TYPE:            DIIS
 INTERPOLATION STEPS:              2 (START)      1 (STEP)
 LEVEL SHIFTS:                 -0.30 (CLOSED) -0.00 (OPEN) 



 Orbital guess generated from atomic densities. Full valence occupancy:    6   2

 Molecular orbital dump at record        2100.2

 Initial alpha occupancy:   4   1
 Initial beta  occupancy:   3   1
 Wave function symmetry:    1

 ITERATION    DDIFF          GRAD             ENERGY        2-EL.EN.            DIPOLE MOMENTS         DIIS
    1      0.000D+00      0.000D+00       -39.55433898     44.370104   -0.00000    0.00000    0.00000    0
    2      0.000D+00      0.461D-02       -39.56009749     44.392861   -0.00000    0.00000    0.00000    1
    3      0.933D-02      0.174D-02       -39.56129580     44.436786   -0.00000    0.00000    0.00000    2
    4      0.509D-02      0.347D-03       -39.56135652     44.430798   -0.00000    0.00000    0.00000    3
    5      0.794D-03      0.732D-04       -39.56135949     44.432402   -0.00000    0.00000    0.00000    4
    6      0.205D-03      0.182D-04       -39.56135969     44.431809   -0.00000    0.00000    0.00000    5
    7      0.106D-03      0.315D-05       -39.56135970     44.431827   -0.00000    0.00000    0.00000    6
    8      0.177D-04      0.870D-06       -39.56135970     44.431815   -0.00000    0.00000    0.00000    6
    9      0.303D-05      0.298D-06       -39.56135970     44.431814   -0.00000    0.00000    0.00000    6
   10      0.142D-05      0.282D-07       -39.56135970     44.431814   -0.00000    0.00000    0.00000    6
   11      0.176D-06      0.999D-08       -39.56135970     44.431814   -0.00000    0.00000    0.00000    0

 Final alpha occupancy:   4   1
 Final beta  occupancy:   3   1

 !RHF STATE 1.1 Energy                -39.561359702940
 Nuclear energy                         9.57958860
 One-electron energy                  -71.35685523
 Two-electron energy                   22.21590693
 Virial quotient                       -1.00287983
 !RHF STATE 1.1 Dipole moment          -0.00000000     0.00000000     0.00000000
 Dipole moment /Debye                  -0.00000000     0.00000000     0.00000000

 Orbital energies:

         1.1          2.1          3.1          4.1          5.1          6.1
    -11.236464    -0.898350    -0.570409    -0.373776     0.037396     0.060019

         1.2          2.2          3.2
     -0.570409     0.060019     0.150675


 **********************************************************************************************************************************
 DATASETS  * FILE   NREC   LENGTH (MB)   RECORD NAMES
              1      19        3.87       500      610      700      900      950      970     1000      129      960     1100   
                                          VAR    BASINP    GEOM    SYMINP    ZMAT    AOBASIS   BASIS     P2S    ABASIS      S 
                                         1400     1410     1200     1210     1080     1600     1650     1300     1700   
                                           T        V       H0       H01     AOSYM     SMH    MOLCAS    ERIS     OPER   

              2       3        0.33       700     1000     2100   
                                         GEOM     BASIS     RHF  

 PROGRAMS   *        TOTAL        HF       INT
 CPU TIMES  *         1.10      0.18      0.42
 REAL TIME  *         1.67 SEC
 DISK USED  *         9.21 MB      
 **********************************************************************************************************************************


 PROGRAM * OPT (Geometry optimization)     Authors: F. Eckert and H.-J. Werner


 BFGS update of hessian

 *** Long output written to logfile /home/ospite/Desktop/MMfP/Project6/CH3/molpro/HF/ch3_aug-ccpVDZ.log ***


 Geometry optimization using default procedure for command HF-SCF

 Geometry written to block  1 of record 700

 Making model hessian for Z-matrix coordinates

 Quadratic Steepest Descent - Minimum Search

 Optimization point 1

 Variable                      Last           Current        Next           Gradient       Hessian

 E(HF-SCF000) / Hartree      0.00000000   -39.56135970     0.00000000
 D / ANG                     0.00000000     1.09000000     1.08025342     0.05019520     5.15003108
 A / DEG                     0.00000000   120.00000000   120.00000000    -0.00000000     0.00020858
 T / DEG                     0.00000000     0.00000000     0.00000000     0.00000000     0.00000000
 Convergence:                0.00000000  (line search)     0.01841837     0.02656216  (total)

 Optimization point 2

 Variable                      Last           Current        Next           Gradient       Hessian

 E(HF-SCF000) / Hartree    -39.56135970   -39.56165352     0.00000000
 D / ANG                     1.09000000     1.08025342     1.07791069     0.00972707     4.15203281
 A / DEG                   120.00000000   120.00000000   120.00000000     0.00000000     0.00022140
 T / DEG                     0.00000000     0.00000000     0.00000000     0.00000000     0.00000000
 Convergence:                0.00000000  (line search)     0.00442711     0.00514735  (total)

 Optimization point 3

 Variable                      Last           Current        Next           Gradient       Hessian

 E(HF-SCF000) / Hartree    -39.56165352   -39.56166455     0.00000000
 D / ANG                     1.08025342     1.07791069     1.07798840    -0.00033371     4.29447926
 A / DEG                   120.00000000   120.00000000   120.00000000    -0.00000000     0.00022458
 T / DEG                     0.00000000     0.00000000     0.00000000     0.00000000     0.00000000
 Convergence:                0.00000000  (line search)     0.00014685     0.00017659  (total)

 END OF GEOMETRY OPTIMIZATION.    TOTAL CPU:         5.7 SEC

 ITER.   ENERGY(OLD)    ENERGY(NEW)      DE          GRADMAX     GRADNORM    GRADRMS     STEPMAX     STEPLEN     STEPRMS
   1   -39.56135970   -39.56165352    -0.00029381  0.02656216  0.02656216  0.00885405  0.01841837  0.01841837  0.00613946
   2   -39.56165352   -39.56166455    -0.00001103  0.00514735  0.00514735  0.00171578  0.00442711  0.00442711  0.00147570
   3   -39.56166455   -39.56166456    -0.00000001  0.00017659  0.00017659  0.00005886  0.00014685  0.00014685  0.00004895

 Geometry written to block  1 of record 700


 **********************************************************************************************************************************
 DATASETS  * FILE   NREC   LENGTH (MB)   RECORD NAMES
              1      19        3.87       500      610      700      900      950      970     1000      129      960     1100   
                                          VAR    BASINP    GEOM    SYMINP    ZMAT    AOBASIS   BASIS     P2S    ABASIS      S 
                                         1400     1410     1200     1210     1080     1600     1650     1300     1700   
                                           T        V       H0       H01     AOSYM     SMH    MOLCAS    ERIS     OPER   

              2       3        0.33       700     1000     2100   
                                         GEOM     BASIS     RHF  

 PROGRAMS   *        TOTAL      OPTG        HF       INT
 CPU TIMES  *         6.81      5.71      0.18      0.42
 REAL TIME  *         8.79 SEC
 DISK USED  *         9.55 MB      
 **********************************************************************************************************************************


 PROGRAM * HESSIAN

 Computing numerical hessian using default procedure for command HF-SCF

 Symmetry elements for unique displacements: Y  Z  

 Using no symmetry in wavefunction calculations

 Running default procedure: HF-SCF000


 Numerically approximating hessian using central gradient differences

 Task list generated. Total number of displacements:     13

    5 tasks completed, CPU=    12.51 sec, Elapsed=    14.94 sec
   10 tasks completed, CPU=    24.91 sec, Elapsed=    29.53 sec

 Numerical HF-SCF000 hessian completed. CPU-time:    32.31 sec, Elapsed:    38.24 sec

 HF-SCF hessian saved to record  5300.2

 FREQUENCIES * CALCULATION OF HARMONIC VIBRATIONAL SPECTRA FOR HF-SCF


 Permanent Dipole Moment [debye]
   1-  3   -0.000000    0.000000    0.000000

 Dipole Moment Norm    0.0000000 [debye]

 Dipole Moment Derivatives [debye/ang]
                   1             2             3             4             5             6             7             8
         1     0.2630578     0.0000000     0.0000000    -0.3407497     0.0000000     0.0000000     0.0388533    -0.2191430
         2    -0.0000000     0.2630577     0.0000000     0.0000000     0.1653919     0.0000000    -0.2191369    -0.2142160
         3    -0.0000000     0.0000000    -2.2693881     0.0000000     0.0000000     0.7565429     0.0000000     0.0000000
                   9            10            11            12
         1     0.0000000     0.0388533     0.2191430     0.0000000
         2     0.0000000     0.2191369    -0.2142160    -0.0000000
         3     0.7565428     0.0000000    -0.0000000     0.7565428

 Projecting out rotations and translations

   Low Vibration      Wavenumber
        Nr             [1/cm] 
        1                0.00
        2                0.00
        3                0.00
        4                0.00
        5                0.00
        6                0.00

     Vibration        Wavenumber
        Nr             [1/cm] 
        1              235.38
        2             1502.36
        3             1502.46
        4             3251.79
        5             3439.54
        6             3439.63

 FREQUENCIES * CALCULATION OF NORMAL MODES FOR HF-SCF


 Atomic Coordinates

  Nr  Atom  Charge       X              Y              Z

   1   C     6.00   -0.000000000    0.000000000    0.000000000
   2   H1    1.00    2.037102848    0.000000000    0.000000000
   3   H2    1.00   -1.018551424   -1.764182817    0.000000000
   4   H3    1.00   -1.018551424    1.764182817    0.000000000

 Frequencies dumped to record   5400.2

 Gradient norm at reference geometry: 0.33371D-03

 Normal Modes

                              1 B1        2 A1        3 B2        4 A1        5 B2 
 Wavenumbers [cm-1]          235.38     1502.36     1502.46     3251.79     3439.54
 Intensities [km/mol]         90.12        1.77        1.77        0.00        7.50
 Intensities [relative]      100.00        1.96        1.96        0.00        8.32
           CX1              0.00000    -0.08812    -0.00000     0.00003     0.00000
           CY1             -0.00000     0.00000    -0.08812     0.00000    -0.09476
           CZ1             -0.12940    -0.00000     0.00000    -0.00000    -0.00000
           H1X2            -0.00000    -0.07109    -0.00000     0.57480    -0.00000
           H1Y2             0.00000    -0.00000     0.77115    -0.00000    -0.01522
           H1Z2             0.51400     0.00000     0.00000     0.00000    -0.00000
           H2X3            -0.00000     0.56060    -0.36470    -0.28759     0.33915
           H2Y3             0.00000    -0.36469     0.13947    -0.49815     0.57221
           H2Z3             0.51400     0.00000     0.00000     0.00000    -0.00000
           H3X4            -0.00000     0.56060     0.36470    -0.28759    -0.33915
           H3Y4            -0.00000     0.36469     0.13947     0.49815     0.57221
           H3Z4             0.51400     0.00000    -0.00000     0.00000    -0.00000

                              6 A1 
 Wavenumbers [cm-1]         3439.63
 Intensities [km/mol]          7.50
 Intensities [relative]        8.32
           CX1             -0.09476
           CY1             -0.00000
           CZ1              0.00000
           H1X2             0.76822
           H1Y2            -0.00000
           H1Z2            -0.00000
           H2X3             0.18048
           H2Y3             0.33898
           H2Z3            -0.00000
           H3X4             0.18048
           H3Y4            -0.33898
           H3Z4            -0.00000


 Normal Modes of low/zero frequencies

                                  1           2           3           4           5
 Wavenumbers [cm-1]            0.00        0.00        0.00        0.00        0.00
 Intensities [km/mol]          0.00        0.00        0.00        0.00        0.00
 Intensities [relative]        0.00        0.00        0.00        0.00        0.00
           CX1              0.00010    -0.00001     0.00175    -0.00222     0.00309
           CY1              0.13099     0.00000    -0.02427     0.20767    -0.07504
           CZ1              0.00144    -0.00043     0.22452     0.06478     0.10908
           H1X2             0.00010    -0.00001     0.00175    -0.00222     0.00309
           H1Y2             0.61745    -0.00139    -0.04824    -0.03448     0.11158
           H1Z2            -0.13074    -0.00342    -0.16674     0.33589     0.75510
           H2X3             0.42139    -0.00122    -0.01901    -0.21193     0.16470
           H2Y3            -0.11224     0.00070    -0.01229     0.32874    -0.16835
           H2Z3             0.06856     0.70537     0.41987    -0.07035    -0.21082
           H3X4            -0.42120     0.00121     0.02251     0.20749    -0.15853
           H3Y4            -0.11224     0.00070    -0.01229     0.32874    -0.16835
           H3Z4             0.06650    -0.70325     0.42044    -0.07120    -0.21704

                                  6
 Wavenumbers [cm-1]            0.00
 Intensities [km/mol]          0.00
 Intensities [relative]        0.00
           CX1              0.25787
           CY1              0.00280
           CZ1             -0.00227
           H1X2             0.25787
           H1Y2            -0.00154
           H1Z2            -0.00497
           H2X3             0.25411
           H2Y3             0.00497
           H2Z3            -0.00094
           H3X4             0.26162
           H3Y4             0.00497
           H3Z4            -0.00091


 Zero point energy:  0.03046174 [H]     6685.58 [1/CM]       79.98 [KJ/MOL]
 Frequency information read from record  5400.2

 Dump information in style MOLDEN to ch4_aug-ccpvdz.molpro                                                           

 Molecular orbitals read from record     2100.2  Type=RHF/CANONICAL (state 1.1)
 Occupation numbers read from record     2100.2  Type=RHF/RHF (state 1.1)
 Orbital energies read from record       2100.2  Type=RHF/CANONICAL (state 1.1)
 Redundancy group numbers read from rec  2100.2  Type=RHF/RHF (state 1.1)

 DUMP ORBITAL  1.1 AS ORBITAL    1  occ=    2.0000  eig=  -11.2326  GROUP=   2
 DUMP ORBITAL  2.1 AS ORBITAL    2  occ=    2.0000  eig=   -0.9029  GROUP=   2
 DUMP ORBITAL  1.2 AS ORBITAL    3  occ=    2.0000  eig=   -0.5742  GROUP=   2
 DUMP ORBITAL  3.1 AS ORBITAL    4  occ=    2.0000  eig=   -0.5742  GROUP=   2
 DUMP ORBITAL  4.1 AS ORBITAL    5  occ=    1.0000  eig=   -0.3736  GROUP=   1

 Total charge:       9.000000
 Frequency information read from record  5400.2

 **********************************************************************************************************************************

        OPTG(HF)        HF-SCF  
    -39.56166456    -39.56135970
 **********************************************************************************************************************************
 Variable memory released
