
 Primary working directories    : /data/scratch
 Secondary working directories  : /data/scratch
 Wavefunction directory         : /home/ospite/wfu/
 Main file repository           : /data/scratch/

 ARCHNAME  : Linux/x86_64
 FC        : /usr/bin/gfortran
 FCVERSION : 4.8.5
 BLASLIB   : 
 id        : polimi

 Nodes     nprocs
 molmod       1

 Using default tuning parameters: mindgm=1; mindgv=20; mindgc=4; mindgr=1; noblas=0; mincuda=1000; minvec=7
 default implementation of scratch files=df  

 ***,methyl with imposed symmetry and 6-31++G basis set
 memory,100,m
 
 basis=6-31++G
 symmetry,y
 
 geometry={angstrom
 C
 H1, C, d
 H2, C, d, H1, a
 H3, C, d, H1, -a, H2, t
 }
 
 d=1.09 Ang
 a=120. Deg
 t=0.0 Deg
 
 hf
 optg
 frequencies
 put,molden,ch4_6-31++G.molpro

 Variables initialized (661), CPU time= 0.01 sec
 Commands  initialized (458), CPU time= 0.05 sec, 486 directives.
 Default parameters read. Elapsed time= 0.29 sec

 Checking input...
 Passed
1


                                         ***  PROGRAM SYSTEM MOLPRO  ***
                         Copyright, University College Cardiff Consultants Limited, 2008

                                    Version 2010.1 linked Mar  6 2018 16:01:50


 **********************************************************************************************************************************
 LABEL *   methyl with imposed symmetry and 6-31++G basis set                            
 Linux-3.10.0-1160.108.1.el7.x86_64/molmod(x86_64) 64 bit serial version                 DATE: 17-Aug-24          TIME: 18:10:13  
 **********************************************************************************************************************************

 SHA1:             d90fb18d49a3be29a79769f900c595ef3b8176e2
 **********************************************************************************************************************************

 Variable memory set to  100000000 words,  buffer space   230000 words

 SETTING BASIS          =    6-31++G
 ZSYMEL=Y  

 SETTING D              =         1.09000000  ANG                             
 SETTING A              =       120.00000000  DEG                             
 SETTING T              =         0.00000000  DEG                             


 Recomputing integrals since basis changed


 Using spherical harmonics

 Library entry C      S 6-31G                selected for orbital group  1
 Library entry C      S 6-31++G              selected for orbital group  1
 Library entry C      P 6-31G                selected for orbital group  1
 Library entry C      P 6-31++G              selected for orbital group  1
 Library entry H      S 6-31G                selected for orbital group  2
 Library entry H      S 6-31++G              selected for orbital group  2

1PROGRAM * SEWARD (Integral evaluation for generally contracted gaussian basis sets)     Author: Roland Lindh, 1990

 Geometry written to block  1 of record 700

 Orientation using atomic masses  
 Molecule type: Symmetric top,     Order of principal axis = 3
 User-specified symmetry elements: Y
 Symmetry elements: Y
 Rotational constants:     281.3443841    281.3443841    140.6721920 GHz  (calculated with average atomic masses)

 Point group  Cs  



 ATOMIC COORDINATES

 NR  ATOM    CHARGE       X              Y              Z

   1  C       6.00   -0.000000000    0.000000000    0.000000000
   2  H1      1.00    2.059801483    0.000000000    0.000000000
   3  H2      1.00   -1.029900742   -1.783840411    0.000000000
   4  H3      1.00   -1.029900742    1.783840411    0.000000000

 Bond lengths in Bohr (Angstrom)

 1-2  2.059801483  1-3  2.059801483  1-4  2.059801483
     ( 1.090000000)     ( 1.090000000)     ( 1.090000000)

 Bond angles

  2-1-3  120.00000000   2-1-4  120.00000000   3-1-4  120.00000000

 NUCLEAR CHARGE:                    9
 NUMBER OF PRIMITIVE AOS:          41
 NUMBER OF SYMMETRY AOS:           41
 NUMBER OF CONTRACTIONS:           22   (  16A'  +   6A"  )
 NUMBER OF CORE ORBITALS:           1   (   1A'  +   0A"  )
 NUMBER OF VALENCE ORBITALS:        7   (   5A'  +   2A"  )


 NUCLEAR REPULSION ENERGY    9.57958860

 EXTRA SYMMETRY OF AOS IN SYMMETRY 1:   1 1 1 1 1 2 1 2 1 2   1 1 1 1 1 1

 Eigenvalues of metric

         1 0.771E-02 0.951E-02 0.302E-01 0.617E-01 0.208E+00 0.254E+00 0.259E+00 0.535E+00
         2 0.951E-02 0.617E-01 0.254E+00 0.550E+00 0.100E+01 0.296E+01


 Contracted 2-electron integrals neglected if value below      1.0D-11
 AO integral compression algorithm  1   Integral accuracy      1.0D-11

     0.262 MB (compressed) written to integral file (100.0%)


 NUMBER OF SORTED TWO-ELECTRON INTEGRALS:      18115.     BUFFER LENGTH:  32768
 NUMBER OF SEGMENTS:   1  SEGMENT LENGTH:      18115      RECORD LENGTH: 524288

 Memory used in sort:       0.58 MW

 SORT1 READ       31024. AND WROTE       11287. INTEGRALS IN      1 RECORDS. CPU TIME:     0.00 SEC, REAL TIME:     0.01 SEC
 SORT2 READ       11287. AND WROTE       18115. INTEGRALS IN      1 RECORDS. CPU TIME:     0.04 SEC, REAL TIME:     0.04 SEC

 FILE SIZES:   FILE 1:     2.8 MBYTE,  FILE 4:     4.2 MBYTE,   TOTAL:      7.1 MBYTE

 OPERATOR DM      FOR CENTER  0  COORDINATES:    0.000000    0.000000    0.000000


 **********************************************************************************************************************************
 DATASETS  * FILE   NREC   LENGTH (MB)   RECORD NAMES
              1      19        2.66       500      610      700      900      950      970     1000      129      960     1100   
                                          VAR    BASINP    GEOM    SYMINP    ZMAT    AOBASIS   BASIS     P2S    ABASIS      S 
                                         1400     1410     1200     1210     1080     1600     1650     1300     1700   
                                           T        V       H0       H01     AOSYM     SMH    MOLCAS    ERIS     OPER   

 PROGRAMS   *        TOTAL       INT
 CPU TIMES  *         0.73      0.19
 REAL TIME  *         1.49 SEC
 DISK USED  *         7.57 MB      
 **********************************************************************************************************************************

1PROGRAM * RHF-SCF (OPEN SHELL)       Authors: W. Meyer, H.-J. Werner


 NUMBER OF ELECTRONS:       5+    4-
 CONVERGENCE THRESHOLDS:    1.00E-06 (Density)    1.00E-07 (Energy)
 MAX. NUMBER OF ITERATIONS:       60
 INTERPOLATION TYPE:            DIIS
 INTERPOLATION STEPS:              2 (START)      1 (STEP)
 LEVEL SHIFTS:                 -0.30 (CLOSED) -0.00 (OPEN) 



 Orbital guess generated from atomic densities. Full valence occupancy:    6   2

 Molecular orbital dump at record        2100.2

 Initial alpha occupancy:   4   1
 Initial beta  occupancy:   3   1
 Wave function symmetry:    1

 ITERATION    DDIFF          GRAD             ENERGY        2-EL.EN.            DIPOLE MOMENTS         DIIS
    1      0.000D+00      0.000D+00       -39.53949340     44.399055   -0.00000    0.00000   -0.00000    0
    2      0.000D+00      0.891D-02       -39.54418052     44.339199   -0.00000    0.00000   -0.00000    1
    3      0.647D-02      0.303D-02       -39.54499380     44.399555   -0.00000    0.00000   -0.00000    2
    4      0.418D-02      0.670D-03       -39.54504428     44.391058   -0.00000    0.00000   -0.00000    3
    5      0.155D-02      0.210D-03       -39.54505000     44.392564   -0.00000    0.00000   -0.00000    4
    6      0.788D-03      0.256D-04       -39.54505013     44.392270   -0.00000    0.00000   -0.00000    5
    7      0.104D-03      0.456D-05       -39.54505013     44.392309   -0.00000    0.00000   -0.00000    6
    8      0.118D-04      0.141D-05       -39.54505013     44.392293   -0.00000    0.00000   -0.00000    6
    9      0.320D-05      0.271D-06       -39.54505013     44.392294   -0.00000    0.00000   -0.00000    6
   10      0.930D-06      0.491D-07       -39.54505013     44.392293   -0.00000    0.00000   -0.00000    0

 Final alpha occupancy:   4   1
 Final beta  occupancy:   3   1

 !RHF STATE 1.1 Energy                -39.545050133625
 Nuclear energy                         9.57958860
 One-electron energy                  -71.32078532
 Two-electron energy                   22.19614659
 Virial quotient                       -1.00089562
 !RHF STATE 1.1 Dipole moment          -0.00000000     0.00000000    -0.00000000
 Dipole moment /Debye                  -0.00000000     0.00000000    -0.00000000

 Orbital energies:

         1.1          2.1          3.1          4.1          5.1          6.1
    -11.232390    -0.900456    -0.571162    -0.378152     0.045812     0.077473

         1.2          2.2          3.2
     -0.571162     0.077473     0.174150


 **********************************************************************************************************************************
 DATASETS  * FILE   NREC   LENGTH (MB)   RECORD NAMES
              1      19        2.66       500      610      700      900      950      970     1000      129      960     1100   
                                          VAR    BASINP    GEOM    SYMINP    ZMAT    AOBASIS   BASIS     P2S    ABASIS      S 
                                         1400     1410     1200     1210     1080     1600     1650     1300     1700   
                                           T        V       H0       H01     AOSYM     SMH    MOLCAS    ERIS     OPER   

              2       3        0.29       700     1000     2100   
                                         GEOM     BASIS     RHF  

 PROGRAMS   *        TOTAL        HF       INT
 CPU TIMES  *         0.81      0.08      0.19
 REAL TIME  *         1.67 SEC
 DISK USED  *         7.57 MB      
 **********************************************************************************************************************************


 PROGRAM * OPT (Geometry optimization)     Authors: F. Eckert and H.-J. Werner


 BFGS update of hessian

 *** Long output written to logfile /home/ospite/Desktop/MMfP/Project6/CH3/molpro/HF/ch3_++.log ***


 Geometry optimization using default procedure for command HF-SCF

 Geometry written to block  1 of record 700

 Making model hessian for Z-matrix coordinates

 Quadratic Steepest Descent - Minimum Search

 Optimization point 1

 Variable                      Last           Current        Next           Gradient       Hessian

 E(HF-SCF000) / Hartree      0.00000000   -39.54505013     0.00000000
 D / ANG                     0.00000000     1.09000000     1.07432718     0.08071550     5.15003108
 A / DEG                     0.00000000   120.00000000   119.99999998     0.00000000     0.00020858
 T / DEG                     0.00000000     0.00000000     0.00000000     0.00000000     0.00000000
 Convergence:                0.00000000  (line search)     0.02961733     0.04271280  (total)

 Optimization point 2

 Variable                      Last           Current        Next           Gradient       Hessian

 E(HF-SCF000) / Hartree    -39.54505013   -39.54581633     0.00000000
 D / ANG                     1.09000000     1.07432718     1.07042372     0.01609446     4.12312835
 A / DEG                   120.00000000   119.99999998   120.00000000    -0.00000000     0.00022952
 T / DEG                     0.00000000     0.00000000     0.00000000     0.00000000     0.00000000
 Convergence:                0.00000000  (line search)     0.00737647     0.00851682  (total)

 Optimization point 3

 Variable                      Last           Current        Next           Gradient       Hessian

 E(HF-SCF000) / Hartree    -39.54581633   -39.54584607     0.00000000
 D / ANG                     1.07432718     1.07042372     1.07063426    -0.00091757     4.35819555
 A / DEG                   119.99999998   120.00000000   120.00000000     0.00000000     0.00023500
 T / DEG                     0.00000000     0.00000000     0.00000000     0.00000000     0.00000000
 Convergence:                0.00000000  (line search)     0.00039786     0.00048556  (total)

 Optimization point 4

 Variable                      Last           Current        Next           Gradient       Hessian

 E(HF-SCF000) / Hartree    -39.54584607   -39.54584617     0.00000000
 D / ANG                     1.07042372     1.07063426     1.07063208     0.00000963     4.40394400
 A / DEG                   120.00000000   120.00000000   120.00000000     0.00000000     0.00023470
 T / DEG                     0.00000000     0.00000000     0.00000000     0.00000000     0.00000000
 Convergence:                0.00000000  (line search)     0.00000413     0.00000510  (total)

 END OF GEOMETRY OPTIMIZATION.    TOTAL CPU:         5.3 SEC

 ITER.   ENERGY(OLD)    ENERGY(NEW)      DE          GRADMAX     GRADNORM    GRADRMS     STEPMAX     STEPLEN     STEPRMS
   1   -39.54505013   -39.54581633    -0.00076620  0.04271280  0.04271280  0.01423760  0.02961733  0.02961733  0.00987244
   2   -39.54581633   -39.54584607    -0.00002974  0.00851682  0.00851682  0.00283894  0.00737647  0.00737647  0.00245882
   3   -39.54584607   -39.54584617    -0.00000010  0.00048556  0.00048556  0.00016185  0.00039786  0.00039786  0.00013262
   4   -39.54584617   -39.54584617    -0.00000000  0.00000510  0.00000510  0.00000170  0.00000413  0.00000413  0.00000138

 Geometry written to block  1 of record 700


 **********************************************************************************************************************************
 DATASETS  * FILE   NREC   LENGTH (MB)   RECORD NAMES
              1      19        2.66       500      610      700      900      950      970     1000      129      960     1100   
                                          VAR    BASINP    GEOM    SYMINP    ZMAT    AOBASIS   BASIS     P2S    ABASIS      S 
                                         1400     1410     1200     1210     1080     1600     1650     1300     1700   
                                           T        V       H0       H01     AOSYM     SMH    MOLCAS    ERIS     OPER   

              2       3        0.29       700     1000     2100   
                                         GEOM     BASIS     RHF  

 PROGRAMS   *        TOTAL      OPTG        HF       INT
 CPU TIMES  *         6.08      5.26      0.08      0.19
 REAL TIME  *        11.23 SEC
 DISK USED  *         7.62 MB      
 **********************************************************************************************************************************


 PROGRAM * HESSIAN

 Computing numerical hessian using default procedure for command HF-SCF

 Symmetry elements for unique displacements: Y  Z  

 Using no symmetry in wavefunction calculations

 Running default procedure: HF-SCF000


 Numerically approximating hessian using central gradient differences

 Task list generated. Total number of displacements:     13

    5 tasks completed, CPU=     7.00 sec, Elapsed=    12.41 sec
   10 tasks completed, CPU=    13.80 sec, Elapsed=    21.37 sec

 Numerical HF-SCF000 hessian completed. CPU-time:    17.83 sec, Elapsed:    26.39 sec

 HF-SCF hessian saved to record  5300.2

 FREQUENCIES * CALCULATION OF HARMONIC VIBRATIONAL SPECTRA FOR HF-SCF


 Permanent Dipole Moment [debye]
   1-  3   -0.000000    0.000000   -0.000000

 Dipole Moment Norm    0.0000000 [debye]

 Dipole Moment Derivatives [debye/ang]
                   1             2             3             4             5             6             7             8
         1     0.2374850     0.0000000     0.0000000    -0.4211759     0.0000000     0.0000000     0.0918627    -0.2961875
         2     0.0000000     0.2374851     0.0000000     0.0000000     0.2628775     0.0000000    -0.2961854    -0.2501685
         3    -0.0000000     0.0000000    -2.7778580    -0.0000000     0.0000000     0.9260132     0.0000000     0.0000000
                   9            10            11            12
         1     0.0000000     0.0918627     0.2961875     0.0000000
         2     0.0000000     0.2961854    -0.2501685    -0.0000000
         3     0.9260132     0.0000000    -0.0000000     0.9260132

 Projecting out rotations and translations

   Low Vibration      Wavenumber
        Nr             [1/cm] 
        1                0.00
        2                0.00
        3                0.00
        4                0.00
        5                0.00
        6                0.00

     Vibration        Wavenumber
        Nr             [1/cm] 
        1              411.80
        2             1542.57
        3             1542.67
        4             3281.99
        5             3470.82
        6             3470.92

 FREQUENCIES * CALCULATION OF NORMAL MODES FOR HF-SCF


 Atomic Coordinates

  Nr  Atom  Charge       X              Y              Z

   1   C     6.00   -0.000000000    0.000000000    0.000000000
   2   H1    1.00    2.023201415    0.000000000    0.000000000
   3   H2    1.00   -1.011600707   -1.752143822    0.000000000
   4   H3    1.00   -1.011600707    1.752143822    0.000000000

 Frequencies dumped to record   5400.2

 Gradient norm at reference geometry: 0.96319D-05

 Normal Modes

                              1 B1        2 A1        3 B2        4 A1        5 B2 
 Wavenumbers [cm-1]          411.80     1542.57     1542.67     3281.99     3470.82
 Intensities [km/mol]        135.01        4.49        4.49        0.00       11.21
 Intensities [relative]      100.00        3.32        3.32        0.00        8.31
           CX1             -0.00000    -0.08853    -0.00000     0.00003    -0.00000
           CY1             -0.00000     0.00000    -0.08853    -0.00000    -0.09438
           CZ1             -0.12940     0.00000    -0.00000    -0.00000     0.00000
           H1X2            -0.00000    -0.06777    -0.00000     0.57479     0.00000
           H1Y2             0.00000    -0.00000     0.77108    -0.00000    -0.01854
           H1Z2             0.51400    -0.00000    -0.00000     0.00000    -0.00000
           H2X3             0.00000     0.56137    -0.36324    -0.28759     0.34072
           H2Y3            -0.00000    -0.36322     0.14193    -0.49816     0.57160
           H2Z3             0.51400    -0.00000     0.00000     0.00000    -0.00000
           H3X4             0.00000     0.56137     0.36324    -0.28759    -0.34072
           H3Y4             0.00000     0.36322     0.14193     0.49816     0.57160
           H3Z4             0.51400    -0.00000     0.00000     0.00000    -0.00000

                              6 A1 
 Wavenumbers [cm-1]         3470.92
 Intensities [km/mol]         11.21
 Intensities [relative]        8.31
           CX1             -0.09438
           CY1              0.00000
           CZ1              0.00000
           H1X2             0.76853
           H1Y2             0.00000
           H1Z2            -0.00000
           H2X3             0.17805
           H2Y3             0.34055
           H2Z3            -0.00000
           H3X4             0.17805
           H3Y4            -0.34055
           H3Z4            -0.00000


 Normal Modes of low/zero frequencies

                                  1           2           3           4           5
 Wavenumbers [cm-1]            0.00        0.00        0.00        0.00        0.00
 Intensities [km/mol]          0.00        0.00        0.00        0.00        0.00
 Intensities [relative]        0.00        0.00        0.00        0.00        0.00
           CX1              0.25640    -0.02054    -0.01447    -0.00170    -0.00756
           CY1              0.02721     0.18296     0.15527     0.02100     0.07937
           CZ1             -0.00486    -0.12338     0.14480     0.01984     0.07273
           H1X2             0.25640    -0.02054    -0.01447    -0.00170    -0.00756
           H1Y2             0.03250    -0.11040     0.32375     0.02774     0.20843
           H1Z2            -0.00497    -0.09737    -0.23911     0.01002     0.78776
           H2X3             0.26099    -0.27460     0.13143     0.00413     0.10420
           H2Y3             0.02457     0.32965     0.07103     0.01764     0.01485
           H2Z3            -0.00430    -0.12565     0.40886    -0.67502    -0.25716
           H3X4             0.25182     0.23352    -0.16037    -0.00753    -0.11932
           H3Y4             0.02457     0.32965     0.07103     0.01764     0.01485
           H3Z4            -0.00531    -0.14712     0.26465     0.72451    -0.31241

                                  6
 Wavenumbers [cm-1]            0.00
 Intensities [km/mol]          0.00
 Intensities [relative]        0.00
           CX1              0.00886
           CY1             -0.03803
           CZ1              0.15690
           H1X2             0.00886
           H1Y2            -0.48472
           H1Z2             0.20144
           H2X3            -0.37799
           H2Y3             0.18532
           H2Z3             0.15220
           H3X4             0.39571
           H3Y4             0.18532
           H3Z4             0.11704


 Zero point energy:  0.03125824 [H]     6860.39 [1/CM]       82.07 [KJ/MOL]
 Frequency information read from record  5400.2

 Dump information in style MOLDEN to ch4_6-31++g.molpro                                                              

 Molecular orbitals read from record     2100.2  Type=RHF/CANONICAL (state 1.1)
 Occupation numbers read from record     2100.2  Type=RHF/RHF (state 1.1)
 Orbital energies read from record       2100.2  Type=RHF/CANONICAL (state 1.1)
 Redundancy group numbers read from rec  2100.2  Type=RHF/RHF (state 1.1)

 DUMP ORBITAL  1.1 AS ORBITAL    1  occ=    2.0000  eig=  -11.2260  GROUP=   2
 DUMP ORBITAL  2.1 AS ORBITAL    2  occ=    2.0000  eig=   -0.9076  GROUP=   2
 DUMP ORBITAL  1.2 AS ORBITAL    3  occ=    2.0000  eig=   -0.5773  GROUP=   2
 DUMP ORBITAL  3.1 AS ORBITAL    4  occ=    2.0000  eig=   -0.5773  GROUP=   2
 DUMP ORBITAL  4.1 AS ORBITAL    5  occ=    1.0000  eig=   -0.3776  GROUP=   1

 Total charge:       9.000000
 Frequency information read from record  5400.2

 **********************************************************************************************************************************

        OPTG(HF)        HF-SCF  
    -39.54584617    -39.54505013
 **********************************************************************************************************************************
 Variable memory released
