[Molden Format]
[Molpro variables]
_NUMVAR=  687.0000000000000    
_EV2006= 0.3674930886769165E-01
_EV= 0.3674932534394180E-01
_KJOULE= 0.3808798324128737E-03
_KJOULE/MOL= 0.3808798324128737E-03
_CM= 0.4556335267302901E-05
_CM-1= 0.4556335267302901E-05
_KCAL= 0.1593601117815568E-02
_KCAL/MOL= 0.1593601117815568E-02
_KELVIN2006= 0.3166828861084835E-05
_KELVIN= 0.3166814820820034E-05
_HERTZ2006= 0.1519829850815779E-15
_HERTZ= 0.1519829846011223E-15
_HZ2006= 0.1519829850815779E-15
_HZ= 0.1519829846011223E-15
_TOA2006= 0.5291772490000000    
_TOA= 0.5291772090000000    
_TOANG2006= 0.5291772490000000    
_TOANG= 0.5291772090000000    
_TORAD= 0.1745329251994330E-01
_TOCM=  219474.6306700000    
_TODEBYE=  2.541580000000000    
_TOEV2006=  27.21139610000000    
_TOEV=  27.21138390000000    
_TOHERTZ2006=  6579683899900000.    
_TOHERTZ=  6579683920700000.    
_TOHZ2006=  6579683899900000.    
_TOHZ=  6579683920700000.    
_TOK2006=  315773.3000000000    
_TOK=  315774.7000000000    
_TOKCAL=  627.5096000000000    
_TOKELVIN2006=  315773.3000000000    
_TOKELVIN=  315774.7000000000    
_TOKJ=  2625.500000000000    
_TOKJOULE=  2625.500000000000    
_ANG2006=  1.889725988578923    
_ANG=  1.889726131421507    
_ANGSTROM2006=  1.889725988578923    
_ANGSTROM=  1.889726131421507    
_IGNORE_UNDEF=  2.000000000000000    
_STRICTCHECK=  0.000000000000000    
_SEW_ONEEL=  0.000000000000000    
_CPPDONE=FALSE
_DKROLL_DONE=  0.000000000000000    
_FOCKDONE=TRUE
_GRADONE=FALSE
_HESSDONE=TRUE
_INTDONE=TRUE
_SCFDONE=TRUE
_MODUL_CUDA=FALSE
_MODUL_SLATER=FALSE
_MODUL_MRCC=FALSE
_MRCC_EXEC=
_FITC_AO_SAVED=FALSE
_FITC_MO_SAVED=FALSE
_SHARED_FS=TRUE
_LSTYP=SEWARD
_INTYP=INTS
_GEOMTYP=ZMAT
_GRADTYP=ALASKA
_DIRECT=FALSE
_SYNCM=  0.000000000000000    
_BASIS=AUG-CC-PVDZ
_ZSYMEL=
_ZORIENT=  1.000000000000000    
_NELEC=  9.000000000000000    
!SPIN=  1.000000000000000    
_OPTCONV= 0.1468457477840234E-03
_QSDSTEP=  0.000000000000000    
_QSDIRC=  0.000000000000000    
_PROGRAM=FREQ
_CPUSTEP=  0.000000000000000    
_SYSSTEP=  0.000000000000000    
_WALLSTEP=  0.000000000000000    
!DFSCF=  0.000000000000000    
!SCSGRD=  0.000000000000000    
_BASINP=  610.0000000000000    
_CPUTOT=  39.00000000000000    
_CPUSORT= 0.1999999999999957    
_SYSSORT= 0.1000000000000001E-01
_WALLSORT= 0.2900000000372529    
_DFTEXFAC=  1.000000000000000    
_DMX=-0.7801845280930308E-10
_DMY=  0.000000000000000    
_DMZ=-0.1581440056446549E-15
_FREQUENCIES= 0.2889851626794240E-04
_ENERGY= -39.56166455948343    
_ENUC=  9.686330184315736    
_FREQSTEP=  14.00000000000000    
_GRADENERG= -39.56166453137119    
_GRADEXFAC=  9999.000000000000    
_GRADMETHOD=  2.000000000000000    
_VIRIAL= 0.2081017498942009E-04
!GRID_FREEZE= -1.000000000000000    
_ITERATIONS=  2.000000000000000    
_LASTNELEC=  9.000000000000000    
_LASTSPIN=  1.000000000000000    
_LASTSYM=  1.000000000000000    
_MPP_PROG=  0.000000000000000    
_NPROC_MPP=  1.000000000000000    
_NPROC_SMP=  1.000000000000000    
_NUMSTEP=  0.000000000000000    
_OPTCONVMX= 0.1468457477840225E-03
_OPTCONVRMS= 0.4894858259467446E-04
_OPTGRAD= 0.1765932698027676E-03
_OPTGRADMX= 0.1765932698027672E-03
_OPTGRADRMS= 0.5886442326758921E-04
_OPTSTEP=  3.000000000000000    
_ORBITAL=  2100.200000000000    
_PI=  3.141592653589793    
_SEIG_MIN= 0.9345142115457806E-03
_SEWPROP=TRUE
_STATUS=  1.000000000000000    
_SYSTOT=  1.170000000000000    
_VERSION=  2010001.000000000    
_WALLTOT=  47.71000000000000    
_ZPE= 0.3046174047764091E-01
_DATE=17-Aug-24
_LASTORB=RHF
_MACHINE=Linux-3.10.0-1160.108.1.el7.x86_64/molmod(x86_64) 64 bit serial version
_OUTPUT=/home/ospite/Desktop/MMfP/Project6/CH3/molpro/HF/ch3_aug-ccpVDZ.xml
_PGROUP=Cs
_TIME=18:13:21
_LIBMOL=/usr/local/molpro/molpros_2010_1_Linux_x86_64_i8/lib/
!SURFREC=  0.000000000000000    
!POLYREC=  0.000000000000000    
!DIPREC=  0.000000000000000    
!VSCFREC=  0.000000000000000    
!VCIREC=  0.000000000000000    
!PVCIREC=  0.000000000000000    
!VMP2REC=  0.000000000000000    
!VMCSCFREC=  0.000000000000000    
!GAREC=  0.000000000000000    
!SCFORB=  21002.00000000000    
!NEWMOL= -1.000000000000000    
!NEWSYM= -1.000000000000000    
_SLFILES=slscratch
_NGSSTO=  9.000000000000000    
_SIN=SIN
_COS=COS
_TAN=TAN
_ACOS=ACOS
_ASIN=ASIN
_ATAN=ATAN
_COSH=COSH
_SINH=SINH
_TANH=TANH
_ABS=ABS
_MOD=MOD
_ERF=ERF
_REFC=REFC
_ERFC=ERFC
_HYPOT=HYPOT
_J0=J0
_J1=J1
_JN=JN
_GAMMA=GAMMA
_LGAMMA=LGAMMA
_Y0=Y0
_Y1=Y1
_YN=YN
_EXP=EXP
_LOG=LOG
_LOG10=LOG10
_SQRT=SQRT
_INT=INT
_NINT=NINT
_MAX=MAX
_MIN=MIN
_COSMO=  0.000000000000000    
_COSMOIT=  0.000000000000000    
_COSMOES=  0.000000000000000    
_COSMOEDS=  0.000000000000000    
_COSMOEC=  0.000000000000000    
_COSMOEDCORR=  0.000000000000000    
_FEPSI=  1.000000000000000    
_SL_IsMM=  0.000000000000000    
_SL_NSYM=  0.000000000000000    
_SL_System_BitSw=  0.000000000000000    
_SL_Unique_atoms=  0.000000000000000    
_SL_GRAD=  0.000000000000000    
_SL_MAXUPD_Hess=  5.000000000000000    
_SL_N_PRINT_COD=  5.000000000000000    
_SL_PRINT_CODES=  0.000000000000000    
_SL_BasType=  0.000000000000000    
_SL_Energy_Pred=  0.000000000000000    
_SL_New_Coords=  0.000000000000000    
_SL_Total_Nuclea=  0.000000000000000    
_SL_Highest_Mltp=  0.000000000000000    
_SL_Ref_Geom=  0.000000000000000    
!LATTICE= -1.000000000000000    
!NEWLATTICE=  0.000000000000000    
!LATGRAD_VAR=FALSE
!SEW_LATTICE=  1.000000000000000    
!LOCAL=  0.000000000000000    
!SAVEDOM= -1.000000000000000    
!RESTDOM= -1.000000000000000    
!SAVEDOM_HF= -1.000000000000000    
!RESTDOM_HF= -1.000000000000000    
!HESSREC=  5300.200000000000    
!FREQREC=  5400.200000000000    
!NMODREC=  5450.200000000000    
!GTASKS=  0.000000000000000    
!HTASKS=  5500.200000000000    
!THRCHG= 0.1000000000000000    
!DEBUG= -1.000000000000000    
!CFIT_CPHF=  0.000000000000000    
!RDOMAUX_CPHF=  5.000000000000000    
!THRAO_CPHF= 0.9999999999999999E-11
!THRMO_CPHF= 0.9999999999999999E-11
!THROV_CPHF= 0.1000000000000000E-11
!THRSW_CPHF= 0.1000000000000000E-09
!THRPROD_CPHF= 0.9999999999999999E-11
!THRAOPR_CPHF= 0.1000000000000000E-11
!CFIT_SCFGRD=  0.000000000000000    
!RDOMAUX_SCFGRD=  7.000000000000000    
!THRAO_SCFGRD= 0.9999999999999999E-11
!THRMO_SCFGRD= 0.9999999999999999E-11
!THROV_SCFGRD= 0.1000000000000000E-11
!THRSW_SCFGRD= 0.1000000000000000E-09
!THRPROD_SCFGRD= 0.9999999999999999E-11
!THRAOPR_SCFGRD= 0.1000000000000000E-11
!LOCFIT_SCF=  0.000000000000000    
!LOCFIT_MP2= -1.000000000000000    
_RIDOM=  0.000000000000000    
!CC2_METHOD=  0.000000000000000    
_BASIS2006=FALSE
_SVDDEL= -1.000000000000000    
_SVDDELA= -1.000000000000000    
_SVDDELP= -1.000000000000000    
_SVDDELF= -1.000000000000000    
_SVDDELS= -1.000000000000000    
_SVDDEL_ABS= -1.000000000000000    
_SVDDELA_ABS= -1.000000000000000    
_SVDDELP_ABS= -1.000000000000000    
_SVDDELF_ABS= -1.000000000000000    
_SVDDELS_ABS= -1.000000000000000    
_MAXBASIS=  0.000000000000000    
!OPT_CONICAL=  0.000000000000000    
!CLEARSP_JGRID=  0.000000000000000    
D=  1.077988399683396    
A=  119.9999999999394    
T=  0.000000000000000    
GX1=-0.2502997809017415E-12
GY1=  0.000000000000000    
GZ1=  0.000000000000000    
GX2=  2.037102848250714    
GY2=  0.000000000000000    
GZ2=  0.000000000000000    
GX3= -1.018551424123866    
GY3= -1.764182816708049    
GZ3=  0.000000000000000    
GX4= -1.018551424123866    
GY4=  1.764182816708049    
GZ4=  0.000000000000000    
CX1=-0.2502997809017415E-12
CY1=  0.000000000000000    
CZ1=  0.000000000000000    
H1X2=  2.037102848250714    
H1Y2=  0.000000000000000    
H1Z2=  0.000000000000000    
H2X3= -1.018551424123866    
H2Y3= -1.764182816708049    
H2Z3=  0.000000000000000    
H3X4= -1.018551424123866    
H3Y4=  1.764182816708049    
H3Z4=  0.000000000000000    
[Atoms] Angs
C     1    6        -0.0000000000        0.0000000000        0.0000000000
H     2    1         1.0779883997        0.0000000000        0.0000000000
H     3    1        -0.5389941998       -0.9335653391        0.0000000000
H     4    1        -0.5389941998        0.9335653391        0.0000000000
[GTO]
  1 0
 s    9  1.00
  0.6665000000D+04  0.6920001793D-03
  0.1000000000D+04  0.5329001381D-02
  0.2280000000D+03  0.2707700701D-01
  0.6471000000D+02  0.1017180264D+00
  0.2106000000D+02  0.2747400712D+00
  0.7495000000D+01  0.4485641162D+00
  0.2797000000D+01  0.2850740738D+00
  0.5215000000D+00  0.1520400394D-01
  0.1596000000D+00 -0.3191000827D-02
 s    9  1.00
  0.6665000000D+04 -0.1460000642D-03
  0.1000000000D+04 -0.1154000508D-02
  0.2280000000D+03 -0.5725002519D-02
  0.6471000000D+02 -0.2331201026D-01
  0.2106000000D+02 -0.6395502813D-01
  0.7495000000D+01 -0.1499810660D+00
  0.2797000000D+01 -0.1272620560D+00
  0.5215000000D+00  0.5445292395D+00
  0.1596000000D+00  0.5804962554D+00
 s    9  1.00
  0.6665000000D+04  0.0000000000D+00
  0.1000000000D+04  0.0000000000D+00
  0.2280000000D+03  0.0000000000D+00
  0.6471000000D+02  0.0000000000D+00
  0.2106000000D+02  0.0000000000D+00
  0.7495000000D+01  0.0000000000D+00
  0.2797000000D+01  0.0000000000D+00
  0.5215000000D+00  0.0000000000D+00
  0.1596000000D+00  0.1000000000D+01
 s    1  1.00
  0.4690000000D-01  0.1000000000D+01
 p    4  1.00
  0.9439000000D+01  0.3810902127D-01
  0.2002000000D+01  0.2094801169D+00
  0.5456000000D+00  0.5085572839D+00
  0.1517000000D+00  0.4688422617D+00
 p    4  1.00
  0.9439000000D+01  0.0000000000D+00
  0.2002000000D+01  0.0000000000D+00
  0.5456000000D+00  0.0000000000D+00
  0.1517000000D+00  0.1000000000D+01
 p    1  1.00
  0.4041000000D-01  0.1000000000D+01
 d    1  1.00
  0.5500000000D+00  0.1000000000D+01
 d    1  1.00
  0.1510000000D+00  0.1000000000D+01
  
  2 0
 s    4  1.00
  0.1301000000D+02  0.1968498999D-01
  0.1962000000D+01  0.1379769298D+00
  0.4446000000D+00  0.4781477569D+00
  0.1220000000D+00  0.5012397451D+00
 s    4  1.00
  0.1301000000D+02  0.0000000000D+00
  0.1962000000D+01  0.0000000000D+00
  0.4446000000D+00  0.0000000000D+00
  0.1220000000D+00  0.1000000000D+01
 s    1  1.00
  0.2974000000D-01  0.1000000000D+01
 p    1  1.00
  0.7270000000D+00  0.1000000000D+01
 p    1  1.00
  0.1410000000D+00  0.1000000000D+01
  
  3 0
 s    4  1.00
  0.1301000000D+02  0.1968498999D-01
  0.1962000000D+01  0.1379769298D+00
  0.4446000000D+00  0.4781477569D+00
  0.1220000000D+00  0.5012397451D+00
 s    4  1.00
  0.1301000000D+02  0.0000000000D+00
  0.1962000000D+01  0.0000000000D+00
  0.4446000000D+00  0.0000000000D+00
  0.1220000000D+00  0.1000000000D+01
 s    1  1.00
  0.2974000000D-01  0.1000000000D+01
 p    1  1.00
  0.7270000000D+00  0.1000000000D+01
 p    1  1.00
  0.1410000000D+00  0.1000000000D+01
  
  4 0
 s    4  1.00
  0.1301000000D+02  0.1968498999D-01
  0.1962000000D+01  0.1379769298D+00
  0.4446000000D+00  0.4781477569D+00
  0.1220000000D+00  0.5012397451D+00
 s    4  1.00
  0.1301000000D+02  0.0000000000D+00
  0.1962000000D+01  0.0000000000D+00
  0.4446000000D+00  0.0000000000D+00
  0.1220000000D+00  0.1000000000D+01
 s    1  1.00
  0.2974000000D-01  0.1000000000D+01
 p    1  1.00
  0.7270000000D+00  0.1000000000D+01
 p    1  1.00
  0.1410000000D+00  0.1000000000D+01


[MO]
 Sym=      1.1
 Ene=     -11.2326
 Spin= Alpha
 Occup=    2.000000
1 1.00280824884292
2 0.013204416078609
3 -0.032915648626799
4 -0.008076863307094
5 0.000000000002256
6 0.0
7 0.000000000000000
8 -0.000000001005612
9 0.0
10 -0.000000000000000
11 -0.000000000629234
12 0.0
13 0.000000000000000
14 0.000359972239169
15 0.000359972333801
16 -0.000719944572971
17 0.0
18 0.000000000000000
19 0.0
20 -0.000804799350929
21 -0.000804799432046
22 0.001609598782975
23 0.0
24 0.000000000000000
25 0.0
26 0.000486566148347
27 0.009232365279716
28 0.000990196127833
29 0.000427444654788
30 0.0
31 -0.000000000000000
32 -0.002821179103444
33 0.0
34 0.000000000000000
35 0.000486565981548
36 0.009232363315049
37 0.000990194824430
38 -0.000213722353813
39 -0.000370177969650
40 -0.000000000000000
41 0.001410589374024
42 0.002443212082630
43 0.000000000000000
44 0.000486565981548
45 0.009232363315049
46 0.000990194824430
47 -0.000213722353813
48 0.000370177969650
49 -0.000000000000000
50 0.001410589374024
51 -0.002443212082630
52 0.000000000000000
 Sym=      2.1
 Ene=      -0.9029
 Spin= Alpha
 Occup=    2.000000
1 -0.023095533581286
2 0.77364197097555
3 -0.23869006089410
4 -0.018346267394878
5 0.000000000087307
6 0.0
7 0.000000000000000
8 -0.000000002066605
9 0.0
10 0.000000000000000
11 -0.000000002064493
12 0.0
13 0.000000000000000
14 0.002071324142185
15 0.002071324296516
16 -0.004142648438701
17 0.0
18 0.000000000000000
19 0.0
20 -0.004004288823204
21 -0.004004289839518
22 0.008008578662721
23 0.0
24 0.000000000000000
25 0.0
26 0.35598146343539
27 -0.12334616429949
28 0.004632817716120
29 -0.028309810645721
30 0.0
31 0.000000000000000
32 -0.012623582651620
33 0.0
34 -0.000000000000000
35 0.35598146338329
36 -0.12334616772797
37 0.004632813269736
38 0.014154905272166
39 0.024517015142185
40 0.000000000000000
41 0.006311791450084
42 0.010932341825402
43 0.000000000000000
44 0.35598146338329
45 -0.12334616772797
46 0.004632813269736
47 0.014154905272166
48 -0.024517015142185
49 0.000000000000000
50 0.006311791450084
51 -0.010932341825402
52 0.000000000000000
 Sym=      1.2
 Ene=      -0.5742
 Spin= Alpha
 Occup=    2.000000
1 0.0
2 0.0
3 0.0
4 0.0
5 0.0
6 0.64680283496992
7 0.0
8 0.0
9 -0.20472834794239
10 0.0
11 0.0
12 -0.005488362504420
13 0.0
14 0.0
15 0.0
16 0.0
17 -0.027017477205315
18 0.0
19 0.000000000000000
20 0.0
21 0.0
22 0.0
23 0.058416675225710
24 0.0
25 0.000000000000000
26 0.0
27 0.0
28 0.0
29 0.0
30 0.012069461006299
31 0.0
32 0.0
33 -0.032923326068168
34 0.0
35 -0.56724932382607
36 0.022165185666837
37 -0.009314223459022
38 -0.014048884457169
39 -0.012263920726824
40 -0.000000000000000
41 -0.007050902722972
42 -0.045135847333818
43 -0.000000000000000
44 0.56724932382607
45 -0.022165185666837
46 0.009314223459022
47 0.014048884457169
48 -0.012263920726824
49 0.000000000000000
50 0.007050902722972
51 -0.045135847333818
52 0.000000000000000
 Sym=      3.1
 Ene=      -0.5742
 Spin= Alpha
 Occup=    2.000000
1 0.000000000133387
2 0.000000000389056
3 -0.000000004205312
4 -0.000000006270611
5 0.64680283487508
6 0.0
7 -0.000000000000000
8 -0.20472834421477
9 0.0
10 0.000000000000000
11 -0.005488360599039
12 0.0
13 -0.000000000000000
14 0.023397821842194
15 -0.023397821843647
16 0.000000000001454
17 0.0
18 -0.000000000000000
19 0.0
20 -0.050590326660118
21 0.050590326136056
22 0.000000000524062
23 0.0
24 0.000000000000000
25 0.0
26 0.65500309965652
27 -0.025594152776178
28 0.010755137094198
29 -0.020375047891413
30 0.0
31 0.000000000000000
32 -0.049206686469461
33 0.0
34 -0.000000000000000
35 -0.32750154964891
36 0.012797080043358
37 -0.005377566754829
38 0.003958333762687
39 -0.014048884358508
40 -0.000000000000000
41 -0.036994167124802
42 -0.007050900415314
43 0.000000000000000
44 -0.32750154964891
45 0.012797080043358
46 -0.005377566754829
47 0.003958333762687
48 0.014048884358508
49 -0.000000000000000
50 -0.036994167124802
51 0.007050900415314
52 0.000000000000000
 Sym=      4.1
 Ene=      -0.3736
 Spin= Alpha
 Occup=    1.000000
1 -0.000000000000000
2 -0.000000000000001
3 -0.000000000000000
4 0.000000000000004
5 0.000000000000000
6 0.0
7 0.89084244583009
8 -0.000000000000002
9 0.0
10 0.065797656537746
11 0.000000000000001
12 0.0
13 0.066146105172638
14 -0.000000000000000
15 0.000000000000000
16 0.000000000000000
17 0.0
18 0.000000000043200
19 0.0
20 0.000000000000000
21 -0.000000000000000
22 -0.000000000000000
23 0.0
24 -0.000000000344516
25 0.0
26 0.000000000000001
27 0.000000000000001
28 -0.000000000000003
29 -0.000000000000000
30 0.0
31 0.020486035012242
32 -0.000000000000000
33 0.0
34 0.003973022264693
35 0.000000000000000
36 -0.000000000000001
37 -0.000000000000000
38 0.000000000000000
39 0.000000000000000
40 0.020486035018409
41 0.000000000000000
42 -0.000000000000001
43 0.003973021904576
44 0.000000000000000
45 -0.000000000000001
46 -0.000000000000000
47 0.000000000000000
48 -0.000000000000000
49 0.020486035018409
50 0.000000000000000
51 0.000000000000001
52 0.003973021904576
 Sym=      5.1
 Ene=       0.0375
 Spin= Alpha
 Occup=    0.000000
1 0.022306211280276
2 -0.076843116353300
3 -0.94300892794613
4 -3.15690339210701
5 -0.000000000502000
6 0.0
7 -0.000000000000000
8 0.000000093823125
9 0.0
10 -0.000000000000000
11 0.000000109055120
12 0.0
13 0.000000000000002
14 0.002308442022472
15 0.002308440450097
16 -0.004616882472570
17 0.0
18 -0.000000000000000
19 0.0
20 -0.045751691739537
21 -0.045751703312466
22 0.091503395052003
23 0.0
24 0.000000000000000
25 0.0
26 -0.001799705910435
27 0.61013891736294
28 1.11664042186168
29 0.004342869881426
30 0.0
31 0.000000000000000
32 -0.14566190197787
33 0.0
34 -0.000000000000000
35 -0.001799698653046
36 0.61013914374918
37 1.11664071494221
38 -0.002171434550046
39 -0.003761034952956
40 -0.000000000000000
41 0.072830978896238
42 0.12614697614152
43 -0.000000000000000
44 -0.001799698653046
45 0.61013914374918
46 1.11664071494221
47 -0.002171434550046
48 0.003761034952956
49 -0.000000000000000
50 0.072830978896238
51 -0.12614697614152
52 -0.000000000000000
 Sym=      2.2
 Ene=       0.0599
 Spin= Alpha
 Occup=    0.000000
1 0.0
2 0.0
3 0.0
4 0.0
5 0.0
6 0.10055861150937
7 0.0
8 0.0
9 0.29560540420287
10 0.0
11 0.0
12 1.72490717291858
13 0.0
14 0.0
15 0.0
16 0.0
17 -0.008331939487535
18 0.0
19 -0.000000000000000
20 0.0
21 0.0
22 0.0
23 0.097813649332744
24 0.0
25 0.000000000000000
26 0.0
27 0.0
28 0.0
29 0.0
30 0.004267086184023
31 0.0
32 0.0
33 -0.18558443803176
34 0.0
35 -0.043874620227854
36 0.34080410753461
37 4.20223730684971
38 -0.003652251998743
39 -0.002058800219566
40 -0.000000000000000
41 0.15125131582594
42 0.076390524867187
43 0.000000000000001
44 0.043874620227854
45 -0.34080410753461
46 -4.20223730684971
47 0.003652251998743
48 -0.002058800219566
49 0.000000000000000
50 -0.15125131582594
51 0.076390524867187
52 -0.000000000000001
 Sym=      6.1
 Ene=       0.0599
 Spin= Alpha
 Occup=    0.000000
1 0.000000001040516
2 -0.000000000051643
3 -0.000000014738658
4 -0.000000014964594
5 -0.10055863045058
6 0.0
7 0.000000000000000
8 -0.29560494238011
9 0.0
10 -0.000000000000001
11 -1.72490681751083
12 0.0
13 0.000000000000000
14 -0.007215669555100
15 0.007215669230619
16 0.000000000324481
17 0.0
18 0.000000000000001
19 0.0
20 0.084709158635135
21 -0.084709158341817
22 -0.000000000293318
23 0.0
24 -0.000000000000000
25 0.0
26 -0.050662076078245
27 0.39352591542194
28 4.85232525668359
29 0.004167430512545
30 0.0
31 -0.000000000000000
32 -0.16371526572490
33 0.0
34 0.000000000000000
35 0.025331038437497
36 -0.19676295749530
37 -2.42616260654134
38 -0.002158458067652
39 0.003652253561727
40 -0.000000000000000
41 0.098259496980299
42 -0.15125119748902
43 0.000000000000000
44 0.025331038437497
45 -0.19676295749530
46 -2.42616260654134
47 -0.002158458067652
48 -0.003652253561727
49 -0.000000000000000
50 0.098259496980299
51 0.15125119748902
52 0.000000000000000
 Sym=      7.1
 Ene=       0.1169
 Spin= Alpha
 Occup=    0.000000
1 -0.000000000000000
2 -0.000000000000001
3 0.000000000000006
4 0.000000000000010
5 -0.000000000000001
6 0.0
7 -0.26647208335678
8 0.000000000000001
9 0.0
10 -0.048263198871368
11 0.000000000000006
12 0.0
13 1.25955485433570
14 0.000000000000000
15 -0.000000000000000
16 0.000000000000000
17 0.0
18 0.000000000013567
19 0.0
20 -0.000000000000002
21 0.000000000000003
22 -0.000000000000001
23 0.0
24 -0.000000000744476
25 0.0
26 0.000000000000000
27 -0.000000000000002
28 -0.000000000000012
29 0.000000000000000
30 0.0
31 0.008544771160570
32 0.000000000000001
33 0.0
34 -0.15594503256314
35 -0.000000000000001
36 -0.000000000000004
37 0.000000000000003
38 -0.000000000000000
39 -0.000000000000000
40 0.008544771143614
41 -0.000000000000002
42 0.000000000000002
43 -0.15594503374823
44 -0.000000000000001
45 -0.000000000000004
46 0.000000000000003
47 -0.000000000000000
48 0.000000000000000
49 0.008544771143614
50 -0.000000000000002
51 -0.000000000000002
52 -0.15594503374823
 Sym=      3.2
 Ene=       0.1508
 Spin= Alpha
 Occup=    0.000000
1 0.0
2 0.0
3 0.0
4 0.0
5 0.0
6 -0.14178658314274
7 0.0
8 0.0
9 1.73039085216061
10 0.0
11 0.0
12 4.27628864723824
13 0.0
14 0.0
15 0.0
16 0.0
17 0.008268456181996
18 0.0
19 -0.000000000000000
20 0.0
21 0.0
22 0.0
23 -0.33751773529186
24 0.0
25 0.000000000000000
26 0.0
27 0.0
28 0.0
29 0.0
30 0.010921172810747
31 0.0
32 0.0
33 -0.092406801639946
34 0.0
35 0.16178304784278
36 3.02316768867374
37 4.93253208554211
38 0.004277585431636
39 0.018330167749163
40 -0.000000000000000
41 0.38981671812282
42 0.58277555505546
43 0.000000000000001
44 -0.16178304784278
45 -3.02316768867374
46 -4.93253208554211
47 -0.004277585431636
48 0.018330167749163
49 0.000000000000000
50 -0.38981671812282
51 0.58277555505546
52 -0.000000000000001
 Sym=      8.1
 Ene=       0.1508
 Spin= Alpha
 Occup=    0.000000
1 0.000000011373943
2 0.000000063674204
3 -0.000000385822126
4 -0.000000837021762
5 -0.14178656072490
6 0.0
7 0.000000000000000
8 1.73039021714545
9 0.0
10 -0.000000000000001
11 4.27628853914954
12 0.0
13 -0.000000000000001
14 -0.007160697138914
15 0.007160698050151
16 -0.000000000911238
17 0.0
18 -0.000000000000000
19 0.0
20 0.29229884341256
21 -0.29229887951413
22 0.000000036101574
23 0.0
24 0.000000000000000
25 0.0
26 -0.18681093671093
27 -3.49085208650687
28 -5.69559737243256
29 0.020799828813500
30 0.0
31 -0.000000000000000
32 0.80783591985305
33 0.0
34 0.000000000000000
35 0.093405475438756
36 1.74542643012260
37 2.84779891449672
38 0.013390841068538
39 0.004277585276091
40 -0.000000000000000
41 0.13265394598863
42 0.38981660709556
43 0.000000000000000
44 0.093405475438756
45 1.74542643012260
46 2.84779891449672
47 0.013390841068538
48 -0.004277585276091
49 -0.000000000000000
50 0.13265394598863
51 -0.38981660709556
52 0.000000000000000
 Sym=      9.1
 Ene=       0.1740
 Spin= Alpha
 Occup=    0.000000
1 -0.084970121610841
2 -0.57656041099781
3 2.88306019048924
4 7.87261537897637
5 -0.000000011327473
6 0.0
7 -0.000000000000000
8 -0.000000026525734
9 0.0
10 -0.000000000000000
11 0.000000373418949
12 0.0
13 -0.000000000000000
14 -0.002505845450257
15 -0.002505840671498
16 0.005011686121755
17 0.0
18 0.000000000000000
19 0.0
20 0.14203084537259
21 0.14203082536244
22 -0.28406167073503
23 0.0
24 -0.000000000000000
25 0.0
26 -0.030886958940071
27 -2.09341527471129
28 -1.53464136281701
29 0.023275163533136
30 0.0
31 -0.000000000000000
32 0.53023154878130
33 0.0
34 0.000000000000000
35 -0.030886946787612
36 -2.09341522588245
37 -1.53464055863154
38 -0.011637579521200
39 -0.020156882231807
40 0.000000000000000
41 -0.26511579364021
42 -0.45919402910154
43 -0.000000000000000
44 -0.030886946787612
45 -2.09341522588245
46 -1.53464055863154
47 -0.011637579521200
48 0.020156882231807
49 0.000000000000000
50 -0.26511579364021
51 0.45919402910154
52 -0.000000000000000
 Sym=     10.1
 Ene=       0.2852
 Spin= Alpha
 Occup=    0.000000
1 -0.000000001630010
2 -0.000000020840671
3 0.000000043809028
4 -0.000000088441666
5 -0.36979187626432
6 0.0
7 0.000000000000001
8 -0.031647576215489
9 0.0
10 -0.000000000000001
11 1.17366030630041
12 0.0
13 -0.000000000000003
14 0.054698728012407
15 -0.054698726358654
16 -0.000000001653753
17 0.0
18 0.000000000000000
19 0.0
20 -0.68126062496245
21 0.68126063292842
22 -0.000000007965973
23 0.0
24 0.000000000000001
25 0.0
26 0.17074132719415
27 1.27543478661986
28 -2.47392201071081
29 0.014974670914469
30 0.0
31 0.000000000000000
32 0.43620101484930
33 0.0
34 0.000000000000001
35 -0.085370652883347
36 -0.63771735691417
37 1.23696101564610
38 -0.004125162010135
39 0.011027294112508
40 -0.000000000000000
41 -0.66593498306614
42 0.63631847738552
43 0.000000000000001
44 -0.085370652883347
45 -0.63771735691417
46 1.23696101564610
47 -0.004125162010135
48 -0.011027294112508
49 -0.000000000000000
50 -0.66593498306614
51 -0.63631847738552
52 0.000000000000001
 Sym=      4.2
 Ene=       0.2852
 Spin= Alpha
 Occup=    0.000000
1 0.0
2 0.0
3 0.0
4 0.0
5 0.0
6 0.36979187941971
7 0.0
8 0.0
9 0.031647374784665
10 0.0
11 0.0
12 -1.17366032443655
13 0.0
14 0.0
15 0.0
16 0.0
17 0.063160651038073
18 0.0
19 -0.000000000000000
20 0.0
21 0.0
22 0.0
23 -0.78665197898060
24 0.0
25 0.000000000000000
26 0.0
27 0.0
28 0.0
29 0.0
30 0.010491774419202
31 0.0
32 0.0
33 1.03331362478031
34 0.0
35 0.14786631513431
36 1.10455861250414
37 -2.14247931009947
38 -0.011027294461780
39 -0.008608059863283
40 -0.000000000000000
41 -0.63631854616576
42 -0.068822430189681
43 0.000000000000004
44 -0.14786631513431
45 -1.10455861250414
46 2.14247931009947
47 0.011027294461780
48 -0.008608059863283
49 0.000000000000000
50 0.63631854616576
51 -0.068822430189681
52 -0.000000000000004
 Sym=     11.1
 Ene=       0.2877
 Spin= Alpha
 Occup=    0.000000
1 -0.019811734104717
2 0.28603588604257
3 0.30591015049055
4 2.50298315245965
5 -0.000000016978218
6 0.0
7 0.000000000000000
8 -0.000000055982527
9 0.0
10 -0.000000000000000
11 0.000000052304393
12 0.0
13 -0.000000000000001
14 -0.013366330999494
15 -0.013366334579600
16 0.026732665579095
17 0.0
18 -0.000000000000000
19 0.0
20 -0.063257815918417
21 -0.063257749781578
22 0.12651556569999
23 0.0
24 0.000000000000000
25 0.0
26 -0.19367176631732
27 -1.00610079951008
28 -0.22611392338310
29 0.015777508821280
30 0.0
31 0.000000000000000
32 -0.32421990882763
33 0.0
34 0.000000000000001
35 -0.19367177952407
36 -1.00610100874156
37 -0.22611374132305
38 -0.007888754173304
39 -0.013663722749837
40 0.000000000000000
41 0.16210991639664
42 0.28078268075235
43 0.000000000000000
44 -0.19367177952407
45 -1.00610100874156
46 -0.22611374132305
47 -0.007888754173304
48 0.013663722749837
49 0.000000000000000
50 0.16210991639664
51 -0.28078268075235
52 0.000000000000000
 Sym=     12.1
 Ene=       0.3616
 Spin= Alpha
 Occup=    0.000000
1 0.000000000000000
2 0.000000000000000
3 -0.000000000000003
4 -0.000000000000005
5 0.000000000000001
6 0.0
7 0.000000000005375
8 0.000000000000004
9 0.0
10 -0.000000000074889
11 0.000000000000003
12 0.0
13 -0.000000000213532
14 0.000000000000000
15 -0.000000000000000
16 -0.000000000000000
17 0.0
18 0.044927077385814
19 0.0
20 -0.000000000000000
21 -0.000000000000001
22 0.000000000000001
23 0.0
24 -0.15553416530641
25 0.0
26 0.000000000000000
27 -0.000000000000003
28 -0.000000000000002
29 0.000000000000000
30 0.0
31 -0.021327423242624
32 0.000000000000000
33 0.0
34 1.21216526564476
35 -0.000000000000000
36 0.000000000000005
37 0.000000000000002
38 0.000000000000000
39 0.000000000000000
40 0.010663711572876
41 -0.000000000000001
42 0.000000000000001
43 -0.60608263261130
44 -0.000000000000000
45 0.000000000000005
46 0.000000000000002
47 0.000000000000000
48 -0.000000000000000
49 0.010663711572876
50 -0.000000000000001
51 -0.000000000000001
52 -0.60608263261130
 Sym=      5.2
 Ene=       0.3616
 Spin= Alpha
 Occup=    0.000000
1 0.0
2 0.0
3 0.0
4 0.0
5 0.0
6 -0.000000000000002
7 0.0
8 0.0
9 -0.000000000000025
10 0.0
11 0.0
12 -0.000000000000019
13 0.0
14 0.0
15 0.0
16 0.0
17 0.000000000000000
18 0.0
19 -0.044927077342673
20 0.0
21 0.0
22 0.0
23 0.000000000000005
24 0.0
25 0.15553416446542
26 0.0
27 0.0
28 0.0
29 0.0
30 0.000000000000000
31 0.0
32 0.0
33 0.000000000000001
34 0.0
35 0.000000000000001
36 -0.000000000000039
37 -0.000000000000014
38 -0.000000000000000
39 -0.000000000000000
40 -0.018470090285501
41 -0.000000000000006
42 -0.000000000000003
43 1.04976591283200
44 -0.000000000000001
45 0.000000000000039
46 0.000000000000014
47 0.000000000000000
48 -0.000000000000000
49 0.018470090285501
50 0.000000000000006
51 -0.000000000000003
52 -1.04976591283200
 Sym=      6.2
 Ene=       0.4446
 Spin= Alpha
 Occup=    0.000000
1 0.0
2 0.0
3 0.0
4 0.0
5 0.0
6 0.22320326086508
7 0.0
8 0.0
9 4.66777986106317
10 0.0
11 0.0
12 3.35667396863661
13 0.0
14 0.0
15 0.0
16 0.0
17 -0.083849265492692
18 0.0
19 -0.000000000000000
20 0.0
21 0.0
22 0.0
23 -0.64307256893212
24 0.0
25 0.000000000000001
26 0.0
27 0.0
28 0.0
29 0.0
30 0.003125684331680
31 0.0
32 0.0
33 -1.06053949071595
34 0.0
35 -0.093051959578973
36 6.74919560146254
37 2.86841808568527
38 0.015659549371057
39 0.030248819701524
40 -0.000000000000000
41 1.21545331925505
42 1.04468736389581
43 0.000000000000006
44 0.093051959578973
45 -6.74919560146254
46 -2.86841808568527
47 -0.015659549371057
48 0.030248819701524
49 0.000000000000000
50 -1.21545331925505
51 1.04468736389581
52 -0.000000000000006
 Sym=     13.1
 Ene=       0.4446
 Spin= Alpha
 Occup=    0.000000
1 -0.000000018044988
2 -0.000000031858269
3 0.000000714134281
4 0.000000417655926
5 -0.22320328208612
6 0.0
7 0.000000000000002
8 -4.66777899395860
9 0.0
10 0.000000000000003
11 -3.35667409860532
12 0.0
13 0.000000000000002
14 -0.072615593532096
15 0.072615594859488
16 -0.000000001327392
17 0.0
18 0.000000000000000
19 0.0
20 -0.55691698871248
21 0.55691705351060
22 -0.000000064798115
23 0.0
24 -0.000000000000001
25 0.0
26 -0.10744718731095
27 7.79329787955167
28 3.31216413514061
29 -0.039289865857924
30 0.0
31 -0.000000000000000
32 -1.74642890521735
33 0.0
34 -0.000000000000001
35 0.053723591881141
36 -3.89664944176724
37 -1.65608214380271
38 -0.012166734217251
39 -0.015659549282915
40 0.000000000000000
41 0.35879743350421
42 -1.21545317212690
43 -0.000000000000004
44 0.053723591881141
45 -3.89664944176724
46 -1.65608214380271
47 -0.012166734217251
48 0.015659549282915
49 0.000000000000000
50 0.35879743350421
51 1.21545317212690
52 -0.000000000000004
 Sym=     14.1
 Ene=       0.4855
 Spin= Alpha
 Occup=    0.000000
1 0.000000000000000
2 0.000000000000000
3 0.000000000000002
4 -0.000000000000001
5 0.000000000000000
6 0.0
7 -0.45216174321776
8 -0.000000000000017
9 0.0
10 -1.78166980819862
11 -0.000000000000008
12 0.0
13 -0.81419872091612
14 -0.000000000000000
15 0.000000000000000
16 0.000000000000000
17 0.0
18 -0.000000000143371
19 0.0
20 -0.000000000000005
21 0.000000000000004
22 0.000000000000000
23 0.0
24 0.000000007203362
25 0.0
26 -0.000000000000000
27 0.000000000000033
28 0.000000000000008
29 -0.000000000000000