[Molden Format]
[Molpro variables]
_NUMVAR=  687.0000000000000    
_EV2006= 0.3674930886769165E-01
_EV= 0.3674932534394180E-01
_KJOULE= 0.3808798324128737E-03
_KJOULE/MOL= 0.3808798324128737E-03
_CM= 0.4556335267302901E-05
_CM-1= 0.4556335267302901E-05
_KCAL= 0.1593601117815568E-02
_KCAL/MOL= 0.1593601117815568E-02
_KELVIN2006= 0.3166828861084835E-05
_KELVIN= 0.3166814820820034E-05
_HERTZ2006= 0.1519829850815779E-15
_HERTZ= 0.1519829846011223E-15
_HZ2006= 0.1519829850815779E-15
_HZ= 0.1519829846011223E-15
_TOA2006= 0.5291772490000000    
_TOA= 0.5291772090000000    
_TOANG2006= 0.5291772490000000    
_TOANG= 0.5291772090000000    
_TORAD= 0.1745329251994330E-01
_TOCM=  219474.6306700000    
_TODEBYE=  2.541580000000000    
_TOEV2006=  27.21139610000000    
_TOEV=  27.21138390000000    
_TOHERTZ2006=  6579683899900000.    
_TOHERTZ=  6579683920700000.    
_TOHZ2006=  6579683899900000.    
_TOHZ=  6579683920700000.    
_TOK2006=  315773.3000000000    
_TOK=  315774.7000000000    
_TOKCAL=  627.5096000000000    
_TOKELVIN2006=  315773.3000000000    
_TOKELVIN=  315774.7000000000    
_TOKJ=  2625.500000000000    
_TOKJOULE=  2625.500000000000    
_ANG2006=  1.889725988578923    
_ANG=  1.889726131421507    
_ANGSTROM2006=  1.889725988578923    
_ANGSTROM=  1.889726131421507    
_IGNORE_UNDEF=  2.000000000000000    
_STRICTCHECK=  0.000000000000000    
_SEW_ONEEL=  0.000000000000000    
_CPPDONE=FALSE
_DKROLL_DONE=  0.000000000000000    
_FOCKDONE=TRUE
_GRADONE=FALSE
_HESSDONE=TRUE
_INTDONE=TRUE
_SCFDONE=TRUE
_MODUL_CUDA=FALSE
_MODUL_SLATER=FALSE
_MODUL_MRCC=FALSE
_MRCC_EXEC=
_FITC_AO_SAVED=FALSE
_FITC_MO_SAVED=FALSE
_SHARED_FS=TRUE
_LSTYP=SEWARD
_INTYP=INTS
_GEOMTYP=ZMAT
_GRADTYP=ALASKA
_DIRECT=FALSE
_SYNCM=  0.000000000000000    
_BASIS=STO-3G
_ZSYMEL=
_ZORIENT=  1.000000000000000    
_NELEC=  9.000000000000000    
!SPIN=  1.000000000000000    
_OPTCONV= 0.1359587766125185E-04
_QSDSTEP=  0.000000000000000    
_QSDIRC=  0.000000000000000    
_PROGRAM=FREQ
_CPUSTEP= 0.9999999999998010E-02
_SYSSTEP=  0.000000000000000    
_WALLSTEP=  0.000000000000000    
!DFSCF=  0.000000000000000    
!SCSGRD=  0.000000000000000    
_BASINP=  610.0000000000000    
_CPUTOT=  20.18000000000000    
_CPUSORT= 0.1999999999999957E-01
_SYSSORT= 0.1000000000000001E-01
_WALLSORT= 0.3000000026077032E-01
_DFTEXFAC=  1.000000000000000    
_DMX=-0.1070921129553426E-10
_DMY=  0.000000000000000    
_DMZ= 0.1164504618006413E-19
_FREQUENCIES= -677.8059810676995    
_ENERGY= -39.07214901396121    
_ENUC=  9.699716699547821    
_FREQSTEP=  14.00000000000000    
_GRADENERG= -39.07214924724974    
_GRADEXFAC=  9999.000000000000    
_GRADMETHOD=  2.000000000000000    
_VIRIAL= 0.2224498720210185E-04
!GRID_FREEZE= -1.000000000000000    
_ITERATIONS=  2.000000000000000    
_LASTNELEC=  9.000000000000000    
_LASTSPIN=  1.000000000000000    
_LASTSYM=  1.000000000000000    
_MPP_PROG=  0.000000000000000    
_NPROC_MPP=  1.000000000000000    
_NPROC_SMP=  1.000000000000000    
_NUMSTEP=  0.000000000000000    
_OPTCONVMX= 0.1359587766120983E-04
_OPTCONVRMS= 0.4531959220417282E-05
_OPTGRAD= 0.1993578712261614E-04
_OPTGRADMX= 0.1993578712259928E-04
_OPTGRADRMS= 0.6645262374205379E-05
_OPTSTEP=  3.000000000000000    
_ORBITAL=  2100.200000000000    
_PI=  3.141592653589793    
_SEIG_MIN= 0.2525756717114985    
_SEWPROP=TRUE
_STATUS=  1.000000000000000    
_SYSTOT= 0.7500000000000000    
_VERSION=  2010001.000000000    
_WALLTOT=  24.28000000000000    
_ZPE= 0.3343073647622868E-01
_DATE=17-Aug-24
_LASTORB=RHF
_MACHINE=Linux-3.10.0-1160.108.1.el7.x86_64/molmod(x86_64) 64 bit serial version
_OUTPUT=/home/ospite/Desktop/MMfP/Project6/CH3/molpro/HF/ch3_sto-3g.xml
_PGROUP=Cs
_TIME=18:11:00
_LIBMOL=/usr/local/molpro/molpros_2010_1_Linux_x86_64_i8/lib/
!SURFREC=  0.000000000000000    
!POLYREC=  0.000000000000000    
!DIPREC=  0.000000000000000    
!VSCFREC=  0.000000000000000    
!VCIREC=  0.000000000000000    
!PVCIREC=  0.000000000000000    
!VMP2REC=  0.000000000000000    
!VMCSCFREC=  0.000000000000000    
!GAREC=  0.000000000000000    
!SCFORB=  21002.00000000000    
!NEWMOL= -1.000000000000000    
!NEWSYM= -1.000000000000000    
_SLFILES=slscratch
_NGSSTO=  9.000000000000000    
_SIN=SIN
_COS=COS
_TAN=TAN
_ACOS=ACOS
_ASIN=ASIN
_ATAN=ATAN
_COSH=COSH
_SINH=SINH
_TANH=TANH
_ABS=ABS
_MOD=MOD
_ERF=ERF
_REFC=REFC
_ERFC=ERFC
_HYPOT=HYPOT
_J0=J0
_J1=J1
_JN=JN
_GAMMA=GAMMA
_LGAMMA=LGAMMA
_Y0=Y0
_Y1=Y1
_YN=YN
_EXP=EXP
_LOG=LOG
_LOG10=LOG10
_SQRT=SQRT
_INT=INT
_NINT=NINT
_MAX=MAX
_MIN=MIN
_COSMO=  0.000000000000000    
_COSMOIT=  0.000000000000000    
_COSMOES=  0.000000000000000    
_COSMOEDS=  0.000000000000000    
_COSMOEC=  0.000000000000000    
_COSMOEDCORR=  0.000000000000000    
_FEPSI=  1.000000000000000    
_SL_IsMM=  0.000000000000000    
_SL_NSYM=  0.000000000000000    
_SL_System_BitSw=  0.000000000000000    
_SL_Unique_atoms=  0.000000000000000    
_SL_GRAD=  0.000000000000000    
_SL_MAXUPD_Hess=  5.000000000000000    
_SL_N_PRINT_COD=  5.000000000000000    
_SL_PRINT_CODES=  0.000000000000000    
_SL_BasType=  0.000000000000000    
_SL_Energy_Pred=  0.000000000000000    
_SL_New_Coords=  0.000000000000000    
_SL_Total_Nuclea=  0.000000000000000    
_SL_Highest_Mltp=  0.000000000000000    
_SL_Ref_Geom=  0.000000000000000    
!LATTICE= -1.000000000000000    
!NEWLATTICE=  0.000000000000000    
!LATGRAD_VAR=FALSE
!SEW_LATTICE=  1.000000000000000    
!LOCAL=  0.000000000000000    
!SAVEDOM= -1.000000000000000    
!RESTDOM= -1.000000000000000    
!SAVEDOM_HF= -1.000000000000000    
!RESTDOM_HF= -1.000000000000000    
!HESSREC=  5300.200000000000    
!FREQREC=  5400.200000000000    
!NMODREC=  5450.200000000000    
!GTASKS=  0.000000000000000    
!HTASKS=  5500.200000000000    
!THRCHG= 0.1000000000000000    
!DEBUG= -1.000000000000000    
!CFIT_CPHF=  0.000000000000000    
!RDOMAUX_CPHF=  5.000000000000000    
!THRAO_CPHF= 0.9999999999999999E-11
!THRMO_CPHF= 0.9999999999999999E-11
!THROV_CPHF= 0.1000000000000000E-11
!THRSW_CPHF= 0.1000000000000000E-09
!THRPROD_CPHF= 0.9999999999999999E-11
!THRAOPR_CPHF= 0.1000000000000000E-11
!CFIT_SCFGRD=  0.000000000000000    
!RDOMAUX_SCFGRD=  7.000000000000000    
!THRAO_SCFGRD= 0.9999999999999999E-11
!THRMO_SCFGRD= 0.9999999999999999E-11
!THROV_SCFGRD= 0.1000000000000000E-11
!THRSW_SCFGRD= 0.1000000000000000E-09
!THRPROD_SCFGRD= 0.9999999999999999E-11
!THRAOPR_SCFGRD= 0.1000000000000000E-11
!LOCFIT_SCF=  0.000000000000000    
!LOCFIT_MP2= -1.000000000000000    
_RIDOM=  0.000000000000000    
!CC2_METHOD=  0.000000000000000    
_BASIS2006=FALSE
_SVDDEL= -1.000000000000000    
_SVDDELA= -1.000000000000000    
_SVDDELP= -1.000000000000000    
_SVDDELF= -1.000000000000000    
_SVDDELS= -1.000000000000000    
_SVDDEL_ABS= -1.000000000000000    
_SVDDELA_ABS= -1.000000000000000    
_SVDDELP_ABS= -1.000000000000000    
_SVDDELF_ABS= -1.000000000000000    
_SVDDELS_ABS= -1.000000000000000    
_MAXBASIS=  0.000000000000000    
!OPT_CONICAL=  0.000000000000000    
!CLEARSP_JGRID=  0.000000000000000    
D=  1.076500674981803    
A=  119.9999999921295    
T=  0.000000000000000    
GX1=-0.3244821078496329E-10
GY1=  0.000000000000000    
GZ1=  0.000000000000000    
GX2=  2.034291455973555    
GY2=  0.000000000000000    
GZ2=  0.000000000000000    
GX3= -1.017145727793445    
GY3= -1.761748079742554    
GZ3=  0.000000000000000    
GX4= -1.017145727793445    
GY4=  1.761748079742554    
GZ4=  0.000000000000000    
CX1=-0.3244821078496329E-10
CY1=  0.000000000000000    
CZ1=  0.000000000000000    
H1X2=  2.034291455973555    
H1Y2=  0.000000000000000    
H1Z2=  0.000000000000000    
H2X3= -1.017145727793445    
H2Y3= -1.761748079742554    
H2Z3=  0.000000000000000    
H3X4= -1.017145727793445    
H3Y4=  1.761748079742554    
H3Z4=  0.000000000000000    
[Atoms] Angs
C     1    6        -0.0000000000        0.0000000000        0.0000000000
H     2    1         1.0765006750        0.0000000000        0.0000000000
H     3    1        -0.5382503374       -0.9322769318        0.0000000000
H     4    1        -0.5382503374        0.9322769318        0.0000000000
[GTO]
  1 0
 s    3  1.00
  0.7161683700D+02  0.1543289700D+00
  0.1304509600D+02  0.5353281400D+00
  0.3530512200D+01  0.4446345400D+00
 s    3  1.00
  0.2941249400D+01 -0.9996723008D-01
  0.6834831000D+00  0.3995128303D+00
  0.2222899000D+00  0.7001154705D+00
 p    3  1.00
  0.2941249400D+01  0.1559162721D+00
  0.6834831000D+00  0.6076837282D+00
  0.2222899000D+00  0.3919573953D+00
  
  2 0
 s    3  1.00
  0.3425250900D+01  0.1543289707D+00
  0.6239137300D+00  0.5353281424D+00
  0.1688554000D+00  0.4446345420D+00
  
  3 0
 s    3  1.00
  0.3425250900D+01  0.1543289707D+00
  0.6239137300D+00  0.5353281424D+00
  0.1688554000D+00  0.4446345420D+00
  
  4 0
 s    3  1.00
  0.3425250900D+01  0.1543289707D+00
  0.6239137300D+00  0.5353281424D+00
  0.1688554000D+00  0.4446345420D+00


[MO]
 Sym=      1.1
 Ene=     -10.9895
 Spin= Alpha
 Occup=    2.000000
1 0.99242332422807
2 0.034592217151181
3 -0.000000000002427
4 0.0
5 -0.000000000000000
6 -0.006862796853402
7 -0.006862796855967
8 -0.006862796855967
 Sym=      2.1
 Ene=      -0.8499
 Spin= Alpha
 Occup=    2.000000
1 -0.22301316647161
2 0.64466140081094
3 0.000000000045854
4 0.0
5 -0.000000000000000
6 0.22350507314641
7 0.22350507318761
8 0.22350507318761
 Sym=      1.2
 Ene=      -0.5304
 Spin= Alpha
 Occup=    2.000000
1 0.0
2 0.0
3 0.0
4 0.54937855192217
5 0.0
6 0.0
7 -0.42876185952124
8 0.42876185952124
 Sym=      3.1
 Ene=      -0.5304
 Spin= Alpha
 Occup=    2.000000
1 0.000000000007396
2 -0.000000000015173
3 0.54937855190957
4 0.0
5 0.000000000000000
6 0.49509155006878
7 -0.24754577504996
8 -0.24754577504996
 Sym=      4.1
 Ene=      -0.3477
 Spin= Alpha
 Occup=    1.000000
1 -0.000000000000000
2 0.000000000000000
3 0.000000000000000
4 0.0
5 1.00000000000000
6 -0.000000000000000
7 0.000000000000000
8 0.000000000000000
 Sym=      5.1
 Ene=       0.6301
 Spin= Alpha
 Occup=    0.000000
1 -0.23128709141335
2 1.45587543221040
3 -0.000000000336075
4 0.0
5 -0.000000000000000
6 -0.75348582671466
7 -0.75348582724958
8 -0.75348582724958
 Sym=      6.1
 Ene=       0.7738
 Spin= Alpha
 Occup=    0.000000
1 -0.000000000073600
2 0.000000000516803
3 1.15900751976544
4 0.0
5 -0.000000000000000
6 -1.02107077138631
7 0.51053538524977
8 0.51053538524977
 Sym=      2.2
 Ene=       0.7738
 Spin= Alpha
 Occup=    0.000000
1 0.0
2 0.0
3 0.0
4 1.15900751986742
5 0.0
6 0.0
7 0.88427322688737
8 -0.88427322688737
 [FREQ]
    677.81
      0.00
      0.00
      0.00
      0.00
      0.00
      0.00
   1680.09
   1680.19
   3580.64
   3866.69
   3866.78
 [FR-COORD]
C         -0.0000000000        0.0000000000        0.0000000000
H          2.0342914560        0.0000000000        0.0000000000
H         -1.0171457278       -1.7617480797        0.0000000000
H         -1.0171457278        1.7617480797        0.0000000000
 [FR-NORM-COORD]
 Vibration                    1
          0.00000000         -0.00000000         -0.12940149
         -0.00000000         -0.00000000          0.51399927
          0.00000000          0.00000000          0.51399927
          0.00000000         -0.00000000          0.51399927
 Vibration                    2
          0.23767299         -0.09982745         -0.00261903
          0.23767299         -0.08383489         -0.00248909
          0.25152295         -0.10782372         -0.00277314
          0.22382303         -0.10782372         -0.00259485
 Vibration                    3
          0.09838358          0.23167685          0.05387116
          0.09838358          0.19614111          0.04966085
          0.06760874          0.24944471          0.05335644
          0.12915843          0.24944471          0.05859619
 Vibration                    4
          0.00404711          0.01086714         -0.04700039
          0.00404711          0.00862123          0.70601305
          0.00210209          0.01199010         -0.19263174
          0.00599212          0.01199010         -0.65438247
 Vibration                    5
          0.00085066          0.00237075         -0.00864021
          0.00085066          0.00963948         -0.28493552
          0.00714557         -0.00126362          0.79141650
         -0.00544424         -0.00126362         -0.53240163
 Vibration                    6
         -0.01780714         -0.05154483          0.24436022
         -0.01780714         -0.13680507          0.37608117
         -0.09164467         -0.00891471          0.24647894
          0.05603039         -0.00891471          0.11052056
 Vibration                    7
         -0.00320837          0.00959189          0.04009615
         -0.00320837          0.57692052          0.06614521
          0.48811264         -0.27407243          0.02955965
         -0.49452938         -0.27407243          0.02458357
 Vibration                    8
         -0.08672425          0.00000000         -0.00000000
         -0.08233770         -0.00000000          0.00000000
          0.55788859         -0.36962104          0.00000000
          0.55788859          0.36962104          0.00000000
 Vibration                    9
         -0.00000000         -0.08672244         -0.00000000
         -0.00000000          0.77128947         -0.00000000
         -0.36963421          0.13106423         -0.00000000
          0.36963421          0.13106423         -0.00000000
 Vibration                   10
          0.00002084         -0.00000000         -0.00000000
          0.57489463          0.00000000          0.00000000
         -0.28757146         -0.49810843          0.00000000
         -0.28757146          0.49810843          0.00000000
 Vibration                   11
         -0.00000000         -0.09604146          0.00000000
          0.00000000         -0.00391329          0.00000000
          0.33376816          0.57419012          0.00000000
         -0.33376816          0.57419012          0.00000000
 Vibration                   12
         -0.09603983          0.00000000         -0.00000000
          0.76702473          0.00000000          0.00000000
          0.18871137          0.33366084          0.00000000
          0.18871137         -0.33366084          0.00000000
