[Molden Format]
[Molpro variables]
_NUMVAR=  687.0000000000000    
_EV2006= 0.3674930886769165E-01
_EV= 0.3674932534394180E-01
_KJOULE= 0.3808798324128737E-03
_KJOULE/MOL= 0.3808798324128737E-03
_CM= 0.4556335267302901E-05
_CM-1= 0.4556335267302901E-05
_KCAL= 0.1593601117815568E-02
_KCAL/MOL= 0.1593601117815568E-02
_KELVIN2006= 0.3166828861084835E-05
_KELVIN= 0.3166814820820034E-05
_HERTZ2006= 0.1519829850815779E-15
_HERTZ= 0.1519829846011223E-15
_HZ2006= 0.1519829850815779E-15
_HZ= 0.1519829846011223E-15
_TOA2006= 0.5291772490000000    
_TOA= 0.5291772090000000    
_TOANG2006= 0.5291772490000000    
_TOANG= 0.5291772090000000    
_TORAD= 0.1745329251994330E-01
_TOCM=  219474.6306700000    
_TODEBYE=  2.541580000000000    
_TOEV2006=  27.21139610000000    
_TOEV=  27.21138390000000    
_TOHERTZ2006=  6579683899900000.    
_TOHERTZ=  6579683920700000.    
_TOHZ2006=  6579683899900000.    
_TOHZ=  6579683920700000.    
_TOK2006=  315773.3000000000    
_TOK=  315774.7000000000    
_TOKCAL=  627.5096000000000    
_TOKELVIN2006=  315773.3000000000    
_TOKELVIN=  315774.7000000000    
_TOKJ=  2625.500000000000    
_TOKJOULE=  2625.500000000000    
_ANG2006=  1.889725988578923    
_ANG=  1.889726131421507    
_ANGSTROM2006=  1.889725988578923    
_ANGSTROM=  1.889726131421507    
_IGNORE_UNDEF=  2.000000000000000    
_STRICTCHECK=  0.000000000000000    
_SEW_ONEEL=  0.000000000000000    
_CPPDONE=FALSE
_DKROLL_DONE=  0.000000000000000    
_FOCKDONE=TRUE
_GRADONE=FALSE
_HESSDONE=TRUE
_INTDONE=TRUE
_SCFDONE=TRUE
_MODUL_CUDA=FALSE
_MODUL_SLATER=FALSE
_MODUL_MRCC=FALSE
_MRCC_EXEC=
_FITC_AO_SAVED=FALSE
_FITC_MO_SAVED=FALSE
_SHARED_FS=TRUE
_LSTYP=SEWARD
_INTYP=INTS
_GEOMTYP=ZMAT
_GRADTYP=ALASKA
_DIRECT=FALSE
_SYNCM=  0.000000000000000    
_BASIS=6-31+G
_ZSYMEL=
_ZORIENT=  1.000000000000000    
_NELEC=  9.000000000000000    
!SPIN=  1.000000000000000    
_OPTCONV= 0.4193900140820279E-05
_QSDSTEP=  0.000000000000000    
_QSDIRC=  0.000000000000000    
_PROGRAM=FREQ
_CPUSTEP=  0.000000000000000    
_SYSSTEP=  0.000000000000000    
_WALLSTEP=  0.000000000000000    
!DFSCF=  0.000000000000000    
!SCSGRD=  0.000000000000000    
_BASINP=  610.0000000000000    
_CPUTOT=  23.28000000000000    
_CPUSORT= 0.4000000000000270E-01
_SYSSORT= 0.1000000000000001E-01
_WALLSORT= 0.8999999985098839E-01
_DFTEXFAC=  1.000000000000000    
_DMX=-0.3275507226563334E-09
_DMY=  0.000000000000000    
_DMZ= 0.1126719484492030E-14
_FREQUENCIES= 0.3918091390704003E-04
_ENERGY= -39.54578559072851    
_ENUC=  9.753947550302975    
_FREQSTEP=  14.00000000000000    
_GRADENERG= -39.54578550398042    
_GRADEXFAC=  9999.000000000000    
_GRADMETHOD=  2.000000000000000    
_VIRIAL= 0.1907267142119163E-04
!GRID_FREEZE= -1.000000000000000    
_ITERATIONS=  2.000000000000000    
_LASTNELEC=  9.000000000000000    
_LASTSPIN=  1.000000000000000    
_LASTSYM=  1.000000000000000    
_MPP_PROG=  0.000000000000000    
_NPROC_MPP=  1.000000000000000    
_NPROC_SMP=  1.000000000000000    
_NUMSTEP=  0.000000000000000    
_OPTCONVMX= 0.4193900140819440E-05
_OPTCONVRMS= 0.1397966713606760E-05
_OPTGRAD= 0.5177253959522442E-05
_OPTGRADMX= 0.5177253959522023E-05
_OPTGRADRMS= 0.1725751319840814E-05
_OPTSTEP=  4.000000000000000    
_ORBITAL=  2100.200000000000    
_PI=  3.141592653589793    
_SEIG_MIN= 0.2843351035868468E-01
_SEWPROP=TRUE
_STATUS=  1.000000000000000    
_SYSTOT= 0.9000000000000000    
_VERSION=  2010001.000000000    
_WALLTOT=  40.61000000000000    
_ZPE= 0.3127772752888377E-01
_DATE=17-Aug-24
_LASTORB=RHF
_MACHINE=Linux-3.10.0-1160.108.1.el7.x86_64/molmod(x86_64) 64 bit serial version
_OUTPUT=/home/ospite/Desktop/MMfP/Project6/CH3/molpro/HF/ch3_+.xml
_PGROUP=Cs
_TIME=18:09:24
_LIBMOL=/usr/local/molpro/molpros_2010_1_Linux_x86_64_i8/lib/
!SURFREC=  0.000000000000000    
!POLYREC=  0.000000000000000    
!DIPREC=  0.000000000000000    
!VSCFREC=  0.000000000000000    
!VCIREC=  0.000000000000000    
!PVCIREC=  0.000000000000000    
!VMP2REC=  0.000000000000000    
!VMCSCFREC=  0.000000000000000    
!GAREC=  0.000000000000000    
!SCFORB=  21002.00000000000    
!NEWMOL= -1.000000000000000    
!NEWSYM= -1.000000000000000    
_SLFILES=slscratch
_NGSSTO=  9.000000000000000    
_SIN=SIN
_COS=COS
_TAN=TAN
_ACOS=ACOS
_ASIN=ASIN
_ATAN=ATAN
_COSH=COSH
_SINH=SINH
_TANH=TANH
_ABS=ABS
_MOD=MOD
_ERF=ERF
_REFC=REFC
_ERFC=ERFC
_HYPOT=HYPOT
_J0=J0
_J1=J1
_JN=JN
_GAMMA=GAMMA
_LGAMMA=LGAMMA
_Y0=Y0
_Y1=Y1
_YN=YN
_EXP=EXP
_LOG=LOG
_LOG10=LOG10
_SQRT=SQRT
_INT=INT
_NINT=NINT
_MAX=MAX
_MIN=MIN
_COSMO=  0.000000000000000    
_COSMOIT=  0.000000000000000    
_COSMOES=  0.000000000000000    
_COSMOEDS=  0.000000000000000    
_COSMOEC=  0.000000000000000    
_COSMOEDCORR=  0.000000000000000    
_FEPSI=  1.000000000000000    
_SL_IsMM=  0.000000000000000    
_SL_NSYM=  0.000000000000000    
_SL_System_BitSw=  0.000000000000000    
_SL_Unique_atoms=  0.000000000000000    
_SL_GRAD=  0.000000000000000    
_SL_MAXUPD_Hess=  5.000000000000000    
_SL_N_PRINT_COD=  5.000000000000000    
_SL_PRINT_CODES=  0.000000000000000    
_SL_BasType=  0.000000000000000    
_SL_Energy_Pred=  0.000000000000000    
_SL_New_Coords=  0.000000000000000    
_SL_Total_Nuclea=  0.000000000000000    
_SL_Highest_Mltp=  0.000000000000000    
_SL_Ref_Geom=  0.000000000000000    
!LATTICE= -1.000000000000000    
!NEWLATTICE=  0.000000000000000    
!LATGRAD_VAR=FALSE
!SEW_LATTICE=  1.000000000000000    
!LOCAL=  0.000000000000000    
!SAVEDOM= -1.000000000000000    
!RESTDOM= -1.000000000000000    
!SAVEDOM_HF= -1.000000000000000    
!RESTDOM_HF= -1.000000000000000    
!HESSREC=  5300.200000000000    
!FREQREC=  5400.200000000000    
!NMODREC=  5450.200000000000    
!GTASKS=  0.000000000000000    
!HTASKS=  5500.200000000000    
!THRCHG= 0.1000000000000000    
!DEBUG= -1.000000000000000    
!CFIT_CPHF=  0.000000000000000    
!RDOMAUX_CPHF=  5.000000000000000    
!THRAO_CPHF= 0.9999999999999999E-11
!THRMO_CPHF= 0.9999999999999999E-11
!THROV_CPHF= 0.1000000000000000E-11
!THRSW_CPHF= 0.1000000000000000E-09
!THRPROD_CPHF= 0.9999999999999999E-11
!THRAOPR_CPHF= 0.1000000000000000E-11
!CFIT_SCFGRD=  0.000000000000000    
!RDOMAUX_SCFGRD=  7.000000000000000    
!THRAO_SCFGRD= 0.9999999999999999E-11
!THRMO_SCFGRD= 0.9999999999999999E-11
!THROV_SCFGRD= 0.1000000000000000E-11
!THRSW_SCFGRD= 0.1000000000000000E-09
!THRPROD_SCFGRD= 0.9999999999999999E-11
!THRAOPR_SCFGRD= 0.1000000000000000E-11
!LOCFIT_SCF=  0.000000000000000    
!LOCFIT_MP2= -1.000000000000000    
_RIDOM=  0.000000000000000    
!CC2_METHOD=  0.000000000000000    
_BASIS2006=FALSE
_SVDDEL= -1.000000000000000    
_SVDDELA= -1.000000000000000    
_SVDDELP= -1.000000000000000    
_SVDDELF= -1.000000000000000    
_SVDDELS= -1.000000000000000    
_SVDDEL_ABS= -1.000000000000000    
_SVDDELA_ABS= -1.000000000000000    
_SVDDELP_ABS= -1.000000000000000    
_SVDDELF_ABS= -1.000000000000000    
_SVDDELS_ABS= -1.000000000000000    
_MAXBASIS=  0.000000000000000    
!OPT_CONICAL=  0.000000000000000    
!CLEARSP_JGRID=  0.000000000000000    
D=  1.070515452368939    
A=  119.9999999980289    
T=  0.000000000000000    
GX1=-0.8081230129519668E-11
GY1=  0.000000000000000    
GZ1=  0.000000000000000    
GX2=  2.022981024424018    
GY2=  0.000000000000000    
GZ2=  0.000000000000000    
GX3= -1.011490512163859    
GY3= -1.751952958566864    
GZ3=  0.000000000000000    
GX4= -1.011490512163859    
GY4=  1.751952958566864    
GZ4=  0.000000000000000    
CX1=-0.8081230129519668E-11
CY1=  0.000000000000000    
CZ1=  0.000000000000000    
H1X2=  2.022981024424018    
H1Y2=  0.000000000000000    
H1Z2=  0.000000000000000    
H2X3= -1.011490512163859    
H2Y3= -1.751952958566864    
H2Z3=  0.000000000000000    
H3X4= -1.011490512163859    
H3Y4=  1.751952958566864    
H3Z4=  0.000000000000000    
[Atoms] Angs
C     1    6        -0.0000000000        0.0000000000        0.0000000000
H     2    1         1.0705154524        0.0000000000        0.0000000000
H     3    1        -0.5352577262       -0.9270935769        0.0000000000
H     4    1        -0.5352577262        0.9270935769        0.0000000000
[GTO]
  1 0
 s    6  1.00
  0.3047524900D+04  0.1834737091D-02
  0.4573695200D+03  0.1403732293D-01
  0.1039486800D+03  0.6884262165D-01
  0.2921015500D+02  0.2321844388D+00
  0.9286663000D+01  0.4679413476D+00
  0.3163927000D+01  0.3623119882D+00
 s    3  1.00
  0.7868272300D+01 -0.1193324245D+00
  0.1881288500D+01 -0.1608541561D+00
  0.5442492600D+00  0.1143456443D+01
 s    1  1.00
  0.1687144800D+00  0.1000000000D+01
 s    1  1.00
  0.4380000000D-01  0.1000000000D+01
 p    3  1.00
  0.7868272300D+01  0.6899906693D-01
  0.1881288500D+01  0.3164239597D+00
  0.5442492600D+00  0.7443082892D+00
 p    1  1.00
  0.1687144800D+00  0.1000000000D+01
 p    1  1.00
  0.4380000000D-01  0.1000000000D+01
  
  2 0
 s    3  1.00
  0.1873113700D+02  0.3349460400D-01
  0.2825394400D+01  0.2347269500D+00
  0.6401216900D+00  0.8137573301D+00
 s    1  1.00
  0.1612777600D+00  0.1000000000D+01
  
  3 0
 s    3  1.00
  0.1873113700D+02  0.3349460400D-01
  0.2825394400D+01  0.2347269500D+00
  0.6401216900D+00  0.8137573301D+00
 s    1  1.00
  0.1612777600D+00  0.1000000000D+01
  
  4 0
 s    3  1.00
  0.1873113700D+02  0.3349460400D-01
  0.2825394400D+01  0.2347269500D+00
  0.6401216900D+00  0.8137573301D+00
 s    1  1.00
  0.1612777600D+00  0.1000000000D+01


[MO]
 Sym=      1.1
 Ene=     -11.2259
 Spin= Alpha
 Occup=    2.000000
1 0.99614974596867
2 0.024108621246474
3 -0.012405492436901
4 0.000732789721131
5 0.000000000000403
6 0.0
7 -0.000000000000000
8 -0.000000000010693
9 0.0
10 0.000000000000000
11 -0.000000000000775
12 0.0
13 -0.000000000000000
14 -0.000224194651389
15 0.002379123275257
16 -0.000224194654129
17 0.002379123260848
18 -0.000224194654129
19 0.002379123260848
 Sym=      2.1
 Ene=      -0.9077
 Spin= Alpha
 Occup=    2.000000
1 -0.19832429082906
2 0.39399587701422
3 0.35838477809989
4 0.003459134540723
5 -0.000000000018691
6 0.0
7 0.000000000000000
8 0.000000000004434
9 0.0
10 0.000000000000000
11 -0.000000000010272
12 0.0
13 0.000000000000000
14 0.15821292764771
15 0.052542890797321
16 0.15821292767577
17 0.052542890823380
18 0.15821292767577
19 0.052542890823380
 Sym=      1.2
 Ene=      -0.5774
 Spin= Alpha
 Occup=    2.000000
1 0.0
2 0.0
3 0.0
4 0.0
5 0.0
6 0.44590244778890
7 0.0
8 0.0
9 0.19815229498273
10 0.0
11 0.0
12 0.012828447314944
13 0.0
14 0.0
15 0.0
16 -0.25313966405304
17 -0.18149690056892
18 0.25313966405304
19 0.18149690056892
 Sym=      3.1
 Ene=      -0.5774
 Spin= Alpha
 Occup=    2.000000
1 -0.000000000001354
2 0.000000000029066
3 -0.000000000243680
4 -0.000000000215396
5 0.44590244780801
6 0.0
7 0.000000000000000
8 0.19815229482429
9 0.0
10 0.000000000000000
11 0.012828447281451
12 0.0
13 0.000000000000000
14 0.29230050632678
15 0.20957456923184
16 -0.14615025316332
17 -0.10478728432791
18 -0.14615025316332
19 -0.10478728432791
 Sym=      4.1
 Ene=      -0.3777
 Spin= Alpha
 Occup=    1.000000
1 -0.000000000000000
2 -0.000000000000000
3 0.000000000000001
4 -0.000000000000001
5 -0.000000000000000
6 0.0
7 0.58446092524058
8 -0.000000000000001
9 0.0
10 0.49490441423119
11 -0.000000000000000
12 0.0
13 0.096243549747600
14 0.000000000000000
15 0.000000000000001
16 0.000000000000000
17 -0.000000000000000
18 0.000000000000000
19 -0.000000000000000
 Sym=      5.1
 Ene=       0.0970
 Spin= Alpha
 Occup=    0.000000
1 0.071752669605951
2 -0.085514935584183
3 -0.54452764488351
4 1.58397350543162
5 0.000000000140885
6 0.0
7 0.000000000000000
8 -0.000000000251609
9 0.0
10 0.000000000000000
11 -0.000000002533074
12 0.0
13 0.000000000000000
14 0.006884281117153
15 -0.21372087027458
16 0.006884280923999
17 -0.21372087241557
18 0.006884280923999
19 -0.21372087241557
 Sym=      2.2
 Ene=       0.1190
 Spin= Alpha
 Occup=    0.000000
1 0.0
2 0.0
3 0.0
4 0.0
5 0.0
6 -0.11760447734149
7 0.0
8 0.0
9 -0.14672159412309
10 0.0
11 0.0
12 1.23152556165184
13 0.0
14 0.0
15 0.0
16 0.025986033818685
17 0.30248781058019
18 -0.025986033818685
19 -0.30248781058019
 Sym=      6.1
 Ene=       0.1190
 Spin= Alpha
 Occup=    0.000000
1 0.000000000206188
2 -0.000000000071328
3 -0.000000002673707
4 0.000000002544713
5 -0.11760447731301
6 0.0
7 0.000000000000001
8 -0.14672159410991
9 0.0
10 0.000000000000001
11 1.23152556166113
12 0.0
13 -0.000000000000003
14 -0.030006087211980
15 -0.34928283732230
16 0.015003043662939
17 0.17464141934786
18 0.015003043662939
19 0.17464141934786
 Sym=      7.1
 Ene=       0.1346
 Spin= Alpha
 Occup=    0.000000
1 -0.000000000000000
2 0.000000000000000
3 0.000000000000000
4 -0.000000000000000
5 -0.000000000000000
6 0.0
7 -0.18426713285211
8 -0.000000000000000
9 0.0
10 -0.45366669299171
11 0.000000000000003
12 0.0
13 1.16541684581659
14 -0.000000000000000
15 -0.000000000000001
16 0.000000000000000
17 0.000000000000001
18 0.000000000000000
19 0.000000000000001
 Sym=      8.1
 Ene=       0.3306
 Spin= Alpha
 Occup=    0.000000
1 0.13570433946238
2 -0.075871934428944
3 -2.64870131576385
4 -1.09133336496883
5 0.000000004325558
6 0.0
7 -0.000000000000000
8 0.000000026638605
9 0.0
10 0.000000000000000
11 0.000000004786791
12 0.0
13 -0.000000000000000
14 0.10041228818542
15 1.55290042916265
16 0.10041229039321
17 1.55290048127708
18 0.10041229039321
19 1.55290048127708
 Sym=      9.1
 Ene=       0.3438
 Spin= Alpha
 Occup=    0.000000
1 0.000000002109470
2 -0.000000001099988
3 -0.000000041509143
4 -0.000000017592639
5 -0.26266298985031
6 0.0
7 -0.000000000000000
8 -1.71994025978229
9 0.0
10 -0.000000000000000
11 -0.34010088276490
12 0.0
13 0.000000000000000
14 0.098034179404145
15 2.22806018016386
16 -0.049017087191204
17 -1.11403005349485
18 -0.049017087191204
19 -1.11403005349485
 Sym=      3.2
 Ene=       0.3438
 Spin= Alpha
 Occup=    0.000000
1 0.0
2 0.0
3 0.0
4 0.0
5 0.0
6 0.26266299000944
7 0.0
8 0.0
9 1.71994025960372
10 0.0
11 0.0
12 0.34010088289131
13 0.0
14 0.0
15 0.0
16 0.084900088435587
17 1.92955669602389
18 -0.084900088435587
19 -1.92955669602389
 Sym=     10.1
 Ene=       0.8543
 Spin= Alpha
 Occup=    0.000000
1 0.000000000029146
2 -0.000000001247040
3 0.000000001747464
4 -0.000000000433038
5 -0.94327842857980
6 0.0
7 0.000000000000006
8 1.77166196644237
9 0.0
10 -0.000000000000008
11 -0.52072738188612
12 0.0
13 0.000000000000003
14 -0.38441978800678
15 -0.20395358599720
16 0.19220989394522
17 0.10197679280821
18 0.19220989394522
19 0.10197679280821
 Sym=      4.2
 Ene=       0.8543
 Spin= Alpha
 Occup=    0.000000
1 0.0
2 0.0
3 0.0
4 0.0
5 0.0
6 -0.94327842848327
7 0.0
8 0.0
9 1.77166196669778
10 0.0
11 0.0
12 -0.52072738187102
13 0.0
14 0.0
15 0.0
16 0.33291730219790
17 0.17662898676466
18 -0.33291730219790
19 -0.17662898676466
 Sym=     11.1
 Ene=       0.8675
 Spin= Alpha
 Occup=    0.000000
1 -0.000000000000000
2 0.000000000000000
3 -0.000000000000000
4 0.000000000000000
5 -0.000000000000005
6 0.0
7 -1.09991348076036
8 0.000000000000011
9 0.0
10 1.38188989911058
11 -0.000000000000003
12 0.0
13 -0.52069172803438
14 -0.000000000000002
15 -0.000000000000001
16 0.000000000000001
17 0.000000000000001
18 0.000000000000001
19 0.000000000000001
 Sym=     12.1
 Ene=       1.0538
 Spin= Alpha
 Occup=    0.000000
1 -0.029666245084332
2 -1.69784761663861
3 2.91826526881274
4 -0.71082821433856
5 0.000000000551257
6 0.0
7 -0.000000000000000
8 -0.000000001136716
9 0.0
10 0.000000000000000
11 0.000000000249791
12 0.0
13 -0.000000000000000
14 -0.43961504116392
15 -0.11917466358095
16 -0.43961504129110
17 -0.11917466425136
18 -0.43961504129110
19 -0.11917466425136
 Sym=     13.1
 Ene=       1.2781
 Spin= Alpha
 Occup=    0.000000
1 0.069395755540828
2 -1.27978491206720
3 2.61431603714009
4 0.60569386979594
5 -0.000000001263294
6 0.0
7 -0.000000000000000
8 0.000000001222276
9 0.0
10 -0.000000000000000
11 0.000000000978206
12 0.0
13 -0.000000000000000
14 0.69622885274885
15 -1.34602935819773
16 0.69622884924740
17 -1.34602935290066
18 0.69622884924740
19 -1.34602935290066
 Sym=      5.2
 Ene=       1.3139
 Spin= Alpha
 Occup=    0.000000
1 0.0
2 0.0
3 0.0
4 0.0
5 0.0
6 0.75169765436960
7 0.0
8 0.0
9 -0.74625644986768
10 0.0
11 0.0
12 -0.35889299529570
13 0.0
14 0.0
15 0.0
16 0.96120038551015
17 -1.44556002487603
18 -0.96120038551015
19 1.44556002487603
 Sym=     14.1
 Ene=       1.3139
 Spin= Alpha
 Occup=    0.000000
1 -0.000000000146347
2 0.000000002399512
3 -0.000000004930026
4 -0.000000001324538
5 -0.75169765428503
6 0.0
7 -0.000000000000000
8 0.74625644952334
9 0.0
10 0.000000000000000
11 0.35889299529076
12 0.0
13 -0.000000000000000
14 1.10989860123516
15 -1.66918893601462
16 -0.55494930279222
17 0.83459447205319
18 -0.55494930279222
19 0.83459447205319
 [FREQ]
      0.00
      0.00
      0.00
      0.00
      0.00
      0.00
    413.12
   1543.49
   1543.59
   3283.64
   3472.71
   3472.80
 [FR-COORD]
C         -0.0000000000        0.0000000000        0.0000000000
H          2.0229810244        0.0000000000        0.0000000000
H         -1.0114905122       -1.7519529586        0.0000000000
H         -1.0114905122        1.7519529586        0.0000000000
 [FR-NORM-COORD]
 Vibration                    1
          0.25136512         -0.03091799         -0.02429531
          0.25136512         -0.12500547         -0.02712680
          0.16988297          0.01612574         -0.02106694
          0.33284726          0.01612574         -0.02469219
 Vibration                    2
          0.05100409          0.05252750          0.19337856
          0.05100409          0.39568226          0.19072299
          0.34818483         -0.11904988          0.17142434
         -0.24617665         -0.11904988          0.21798836
 Vibration                    3
          0.00175623          0.00475261          0.00063772
          0.00175623          0.01049216          0.77720312
          0.00672682          0.00188284         -0.17901374
         -0.00321436          0.00188284         -0.59627623
 Vibration                    4
          0.00047429         -0.00036275          0.00675044
          0.00047429          0.01012474         -0.23427342
          0.00955672         -0.00560649          0.79956021
         -0.00860813         -0.00560649         -0.54503549
 Vibration                    5
          0.00791471          0.21276071          0.04913129
          0.00791471         -0.09264364          0.03951098
         -0.25657321          0.36546288          0.05563621
          0.27240264          0.36546288          0.05224668
 Vibration                    6
         -0.02569975         -0.13231543          0.16145241
         -0.02569975         -0.46500917          0.17414461
         -0.31382099          0.03403145          0.15381591
          0.26242148          0.03403145          0.15639670
 Vibration                    7
          0.00000000          0.00000000         -0.12940149
          0.00000000          0.00000000          0.51399927
         -0.00000000         -0.00000000          0.51399927
         -0.00000000          0.00000000          0.51399927
 Vibration                    8
         -0.08853293          0.00000000         -0.00000000
         -0.06775740         -0.00000000          0.00000000
          0.56137487         -0.36321236          0.00000000
          0.56137487          0.36321236          0.00000000
 Vibration                    9
         -0.00000000         -0.08853054         -0.00000000
         -0.00000000          0.77107609          0.00000000
         -0.36322963          0.14194391         -0.00000000
          0.36322963          0.14194391          0.00000000
 Vibration                   10
          0.00003358          0.00000000          0.00000000
          0.57478462          0.00000000         -0.00000000
         -0.28759239         -0.49815982         -0.00000000
         -0.28759239          0.49815982         -0.00000000
 Vibration                   11
          0.00000000         -0.09437737          0.00000000
         -0.00000000         -0.01855863          0.00000000
          0.34072697          0.57159780         -0.00000000
         -0.34072697          0.57159781         -0.00000000
 Vibration                   12
         -0.09437513         -0.00000000         -0.00000000
          0.76853227         -0.00000000          0.00000000
          0.17803899          0.34055080          0.00000000
          0.17803899         -0.34055080          0.00000000
