[Molden Format]
[Molpro variables]
_NUMVAR=  687.0000000000000    
_EV2006= 0.3674930886769165E-01
_EV= 0.3674932534394180E-01
_KJOULE= 0.3808798324128737E-03
_KJOULE/MOL= 0.3808798324128737E-03
_CM= 0.4556335267302901E-05
_CM-1= 0.4556335267302901E-05
_KCAL= 0.1593601117815568E-02
_KCAL/MOL= 0.1593601117815568E-02
_KELVIN2006= 0.3166828861084835E-05
_KELVIN= 0.3166814820820034E-05
_HERTZ2006= 0.1519829850815779E-15
_HERTZ= 0.1519829846011223E-15
_HZ2006= 0.1519829850815779E-15
_HZ= 0.1519829846011223E-15
_TOA2006= 0.5291772490000000    
_TOA= 0.5291772090000000    
_TOANG2006= 0.5291772490000000    
_TOANG= 0.5291772090000000    
_TORAD= 0.1745329251994330E-01
_TOCM=  219474.6306700000    
_TODEBYE=  2.541580000000000    
_TOEV2006=  27.21139610000000    
_TOEV=  27.21138390000000    
_TOHERTZ2006=  6579683899900000.    
_TOHERTZ=  6579683920700000.    
_TOHZ2006=  6579683899900000.    
_TOHZ=  6579683920700000.    
_TOK2006=  315773.3000000000    
_TOK=  315774.7000000000    
_TOKCAL=  627.5096000000000    
_TOKELVIN2006=  315773.3000000000    
_TOKELVIN=  315774.7000000000    
_TOKJ=  2625.500000000000    
_TOKJOULE=  2625.500000000000    
_ANG2006=  1.889725988578923    
_ANG=  1.889726131421507    
_ANGSTROM2006=  1.889725988578923    
_ANGSTROM=  1.889726131421507    
_IGNORE_UNDEF=  2.000000000000000    
_STRICTCHECK=  0.000000000000000    
_SEW_ONEEL=  0.000000000000000    
_CPPDONE=FALSE
_DKROLL_DONE=  0.000000000000000    
_FOCKDONE=TRUE
_GRADONE=FALSE
_HESSDONE=TRUE
_INTDONE=TRUE
_SCFDONE=TRUE
_MODUL_CUDA=FALSE
_MODUL_SLATER=FALSE
_MODUL_MRCC=FALSE
_MRCC_EXEC=
_FITC_AO_SAVED=FALSE
_FITC_MO_SAVED=FALSE
_SHARED_FS=TRUE
_LSTYP=SEWARD
_INTYP=INTS
_GEOMTYP=ZMAT
_GRADTYP=ALASKA
_DIRECT=FALSE
_SYNCM=  0.000000000000000    
_BASIS=6-31++G
_ZSYMEL=
_ZORIENT=  1.000000000000000    
_NELEC=  9.000000000000000    
!SPIN=  1.000000000000000    
_OPTCONV= 0.4133027781397945E-05
_QSDSTEP=  0.000000000000000    
_QSDIRC=  0.000000000000000    
_PROGRAM=FREQ
_CPUSTEP=  0.000000000000000    
_SYSSTEP=  0.000000000000000    
_WALLSTEP= 0.1000000000000000E-01
!DFSCF=  0.000000000000000    
!SCSGRD=  0.000000000000000    
_BASINP=  610.0000000000000    
_CPUTOT=  23.83000000000000    
_CPUSORT= 0.5999999999999872E-01
_SYSSORT= 0.1000000000000001E-01
_WALLSORT= 0.1500000003725290    
_DFTEXFAC=  1.000000000000000    
_DMX=-0.1519195394483752E-09
_DMY=  0.000000000000000    
_DMZ= 0.1660415739963728E-15
_FREQUENCIES= 0.6870482925419787E-04
_ENERGY= -39.54584616998017    
_ENUC=  9.752885039504687    
_FREQSTEP=  14.00000000000000    
_GRADENERG= -39.54584608376247    
_GRADEXFAC=  9999.000000000000    
_GRADMETHOD=  2.000000000000000    
_VIRIAL= 0.1904945987046604E-04
!GRID_FREEZE= -1.000000000000000    
_ITERATIONS=  2.000000000000000    
_LASTNELEC=  9.000000000000000    
_LASTSPIN=  1.000000000000000    
_LASTSYM=  1.000000000000000    
_MPP_PROG=  0.000000000000000    
_NPROC_MPP=  1.000000000000000    
_NPROC_SMP=  1.000000000000000    
_NUMSTEP=  0.000000000000000    
_OPTCONVMX= 0.4133027781330520E-05
_OPTCONVRMS= 0.1377675927132649E-05
_OPTGRAD= 0.5096973499482418E-05
_OPTGRADMX= 0.5096973499449222E-05
_OPTGRADRMS= 0.1698991166494139E-05
_OPTSTEP=  4.000000000000000    
_ORBITAL=  2100.200000000000    
_PI=  3.141592653589793    
_SEIG_MIN= 0.7483979022854408E-02
_SEWPROP=TRUE
_STATUS=  1.000000000000000    
_SYSTOT= 0.8700000000000000    
_VERSION=  2010001.000000000    
_WALLTOT=  38.04000000000000    
_ZPE= 0.3125824460414195E-01
_DATE=17-Aug-24
_LASTORB=RHF
_MACHINE=Linux-3.10.0-1160.108.1.el7.x86_64/molmod(x86_64) 64 bit serial version
_OUTPUT=/home/ospite/Desktop/MMfP/Project6/CH3/molpro/HF/ch3_++.xml
_PGROUP=Cs
_TIME=18:10:13
_LIBMOL=/usr/local/molpro/molpros_2010_1_Linux_x86_64_i8/lib/
!SURFREC=  0.000000000000000    
!POLYREC=  0.000000000000000    
!DIPREC=  0.000000000000000    
!VSCFREC=  0.000000000000000    
!VCIREC=  0.000000000000000    
!PVCIREC=  0.000000000000000    
!VMP2REC=  0.000000000000000    
!VMCSCFREC=  0.000000000000000    
!GAREC=  0.000000000000000    
!SCFORB=  21002.00000000000    
!NEWMOL= -1.000000000000000    
!NEWSYM= -1.000000000000000    
_SLFILES=slscratch
_NGSSTO=  9.000000000000000    
_SIN=SIN
_COS=COS
_TAN=TAN
_ACOS=ACOS
_ASIN=ASIN
_ATAN=ATAN
_COSH=COSH
_SINH=SINH
_TANH=TANH
_ABS=ABS
_MOD=MOD
_ERF=ERF
_REFC=REFC
_ERFC=ERFC
_HYPOT=HYPOT
_J0=J0
_J1=J1
_JN=JN
_GAMMA=GAMMA
_LGAMMA=LGAMMA
_Y0=Y0
_Y1=Y1
_YN=YN
_EXP=EXP
_LOG=LOG
_LOG10=LOG10
_SQRT=SQRT
_INT=INT
_NINT=NINT
_MAX=MAX
_MIN=MIN
_COSMO=  0.000000000000000    
_COSMOIT=  0.000000000000000    
_COSMOES=  0.000000000000000    
_COSMOEDS=  0.000000000000000    
_COSMOEC=  0.000000000000000    
_COSMOEDCORR=  0.000000000000000    
_FEPSI=  1.000000000000000    
_SL_IsMM=  0.000000000000000    
_SL_NSYM=  0.000000000000000    
_SL_System_BitSw=  0.000000000000000    
_SL_Unique_atoms=  0.000000000000000    
_SL_GRAD=  0.000000000000000    
_SL_MAXUPD_Hess=  5.000000000000000    
_SL_N_PRINT_COD=  5.000000000000000    
_SL_PRINT_CODES=  0.000000000000000    
_SL_BasType=  0.000000000000000    
_SL_Energy_Pred=  0.000000000000000    
_SL_New_Coords=  0.000000000000000    
_SL_Total_Nuclea=  0.000000000000000    
_SL_Highest_Mltp=  0.000000000000000    
_SL_Ref_Geom=  0.000000000000000    
!LATTICE= -1.000000000000000    
!NEWLATTICE=  0.000000000000000    
!LATGRAD_VAR=FALSE
!SEW_LATTICE=  1.000000000000000    
!LOCAL=  0.000000000000000    
!SAVEDOM= -1.000000000000000    
!RESTDOM= -1.000000000000000    
!SAVEDOM_HF= -1.000000000000000    
!RESTDOM_HF= -1.000000000000000    
!HESSREC=  5300.200000000000    
!FREQREC=  5400.200000000000    
!NMODREC=  5450.200000000000    
!GTASKS=  0.000000000000000    
!HTASKS=  5500.200000000000    
!THRCHG= 0.1000000000000000    
!DEBUG= -1.000000000000000    
!CFIT_CPHF=  0.000000000000000    
!RDOMAUX_CPHF=  5.000000000000000    
!THRAO_CPHF= 0.9999999999999999E-11
!THRMO_CPHF= 0.9999999999999999E-11
!THROV_CPHF= 0.1000000000000000E-11
!THRSW_CPHF= 0.1000000000000000E-09
!THRPROD_CPHF= 0.9999999999999999E-11
!THRAOPR_CPHF= 0.1000000000000000E-11
!CFIT_SCFGRD=  0.000000000000000    
!RDOMAUX_SCFGRD=  7.000000000000000    
!THRAO_SCFGRD= 0.9999999999999999E-11
!THRMO_SCFGRD= 0.9999999999999999E-11
!THROV_SCFGRD= 0.1000000000000000E-11
!THRSW_SCFGRD= 0.1000000000000000E-09
!THRPROD_SCFGRD= 0.9999999999999999E-11
!THRAOPR_SCFGRD= 0.1000000000000000E-11
!LOCFIT_SCF=  0.000000000000000    
!LOCFIT_MP2= -1.000000000000000    
_RIDOM=  0.000000000000000    
!CC2_METHOD=  0.000000000000000    
_BASIS2006=FALSE
_SVDDEL= -1.000000000000000    
_SVDDELA= -1.000000000000000    
_SVDDELP= -1.000000000000000    
_SVDDELF= -1.000000000000000    
_SVDDELS= -1.000000000000000    
_SVDDEL_ABS= -1.000000000000000    
_SVDDELA_ABS= -1.000000000000000    
_SVDDELP_ABS= -1.000000000000000    
_SVDDELF_ABS= -1.000000000000000    
_SVDDELS_ABS= -1.000000000000000    
_MAXBASIS=  0.000000000000000    
!OPT_CONICAL=  0.000000000000000    
!CLEARSP_JGRID=  0.000000000000000    
D=  1.070632077780114    
A=  119.9999999966407    
T=  0.000000000000000    
GX1=-0.1377425951076816E-10
GY1=  0.000000000000000    
GZ1=  0.000000000000000    
GX2=  2.023201414505411    
GY2=  0.000000000000000    
GZ2=  0.000000000000000    
GX3= -1.011600707170636    
GY3= -1.752143822005536    
GZ3=  0.000000000000000    
GX4= -1.011600707170636    
GY4=  1.752143822005536    
GZ4=  0.000000000000000    
CX1=-0.1377425951076816E-10
CY1=  0.000000000000000    
CZ1=  0.000000000000000    
H1X2=  2.023201414505411    
H1Y2=  0.000000000000000    
H1Z2=  0.000000000000000    
H2X3= -1.011600707170636    
H2Y3= -1.752143822005536    
H2Z3=  0.000000000000000    
H3X4= -1.011600707170636    
H3Y4=  1.752143822005536    
H3Z4=  0.000000000000000    
[Atoms] Angs
C     1    6        -0.0000000000        0.0000000000        0.0000000000
H     2    1         1.0706320778        0.0000000000        0.0000000000
H     3    1        -0.5353160388       -0.9271945775        0.0000000000
H     4    1        -0.5353160388        0.9271945775        0.0000000000
[GTO]
  1 0
 s    6  1.00
  0.3047524900D+04  0.1834737091D-02
  0.4573695200D+03  0.1403732293D-01
  0.1039486800D+03  0.6884262165D-01
  0.2921015500D+02  0.2321844388D+00
  0.9286663000D+01  0.4679413476D+00
  0.3163927000D+01  0.3623119882D+00
 s    3  1.00
  0.7868272300D+01 -0.1193324245D+00
  0.1881288500D+01 -0.1608541561D+00
  0.5442492600D+00  0.1143456443D+01
 s    1  1.00
  0.1687144800D+00  0.1000000000D+01
 s    1  1.00
  0.4380000000D-01  0.1000000000D+01
 p    3  1.00
  0.7868272300D+01  0.6899906693D-01
  0.1881288500D+01  0.3164239597D+00
  0.5442492600D+00  0.7443082892D+00
 p    1  1.00
  0.1687144800D+00  0.1000000000D+01
 p    1  1.00
  0.4380000000D-01  0.1000000000D+01
  
  2 0
 s    3  1.00
  0.1873113700D+02  0.3349460400D-01
  0.2825394400D+01  0.2347269500D+00
  0.6401216900D+00  0.8137573301D+00
 s    1  1.00
  0.1612777600D+00  0.1000000000D+01
 s    1  1.00
  0.3600000000D-01  0.1000000000D+01
  
  3 0
 s    3  1.00
  0.1873113700D+02  0.3349460400D-01
  0.2825394400D+01  0.2347269500D+00
  0.6401216900D+00  0.8137573301D+00
 s    1  1.00
  0.1612777600D+00  0.1000000000D+01
 s    1  1.00
  0.3600000000D-01  0.1000000000D+01
  
  4 0
 s    3  1.00
  0.1873113700D+02  0.3349460400D-01
  0.2825394400D+01  0.2347269500D+00
  0.6401216900D+00  0.8137573301D+00
 s    1  1.00
  0.1612777600D+00  0.1000000000D+01
 s    1  1.00
  0.3600000000D-01  0.1000000000D+01


[MO]
 Sym=      1.1
 Ene=     -11.2260
 Spin= Alpha
 Occup=    2.000000
1 0.99619247981443
2 0.024644008855249
3 -0.013711182385008
4 0.008770369531879
5 -0.000000000007284
6 0.0
7 -0.000000000000000
8 0.000000000022676
9 0.0
10 0.000000000000000
11 -0.000000000093908
12 0.0
13 -0.000000000000000
14 -0.000085841301998
15 0.001958875999893
16 -0.002403274052633
17 -0.000085841305946
18 0.001958876013253
19 -0.002403274297450
20 -0.000085841305946
21 0.001958876013253
22 -0.002403274297450
 Sym=      2.1
 Ene=      -0.9076
 Spin= Alpha
 Occup=    2.000000
1 -0.19848822370851
2 0.39244567720233
3 0.36281967266442
4 -0.036104792854803
5 0.000000000019496
6 0.0
7 0.000000000000000
8 -0.000000000046543
9 0.0
10 0.000000000000000
11 0.000000000300402
12 0.0
13 0.000000000000000
14 0.15782104595843
15 0.054687968714697
16 0.012098842998684
17 0.15782104597312
18 0.054687968711246
19 0.012098843836147
20 0.15782104597312
21 0.054687968711246
22 0.012098843836147
 Sym=      1.2
 Ene=      -0.5773
 Spin= Alpha
 Occup=    2.000000
1 0.0
2 0.0
3 0.0
4 0.0
5 0.0
6 0.44564706474700
7 0.0
8 0.0
9 0.19974167829080
10 0.0
11 0.0
12 0.002970385269116
13 0.0
14 0.0
15 0.0
16 0.0
17 -0.25302538673124
18 -0.18119368357228
19 -0.015557949414163
20 0.25302538673124
21 0.18119368357228
22 0.015557949414163
 Sym=      3.1
 Ene=      -0.5773
 Spin= Alpha
 Occup=    2.000000
1 0.000000000003645
2 0.000000000003173
3 -0.000000000165991
4 -0.000000000636046
5 0.44564706478884
6 0.0
7 0.000000000000000
8 0.19974167802587
9 0.0
10 0.000000000000000
11 0.002970385984519
12 0.0
13 -0.000000000000000
14 0.29216855022965
15 0.20922444442073
16 0.017964771365732
17 -0.14608427510934
18 -0.10461222196570
19 -0.008982385458366
20 -0.14608427510934
21 -0.10461222196570
22 -0.008982385458366
 Sym=      4.1
 Ene=      -0.3776
 Spin= Alpha
 Occup=    1.000000
1 -0.000000000000000
2 -0.000000000000000
3 0.000000000000000
4 -0.000000000000004
5 -0.000000000000000
6 0.0
7 0.58451510727976
8 -0.000000000000000
9 0.0
10 0.49485967087157
11 0.000000000000001
12 0.0
13 0.096226545591865
14 -0.000000000000000
15 0.000000000000001
16 -0.000000000000001
17 0.000000000000000
18 -0.000000000000000
19 0.000000000000002
20 0.000000000000000
21 -0.000000000000000
22 0.000000000000002
 Sym=      5.1
 Ene=       0.0460
 Spin= Alpha
 Occup=    0.000000
1 0.035603140788724
2 -0.12365873218880
3 -0.048829917988003
4 -3.62962621759317
5 0.000000000769868
6 0.0
7 -0.000000000000000
8 -0.000000001665261
9 0.0
10 0.000000000000000
11 0.000000036263183
12 0.0
13 -0.000000000000001
14 -0.005363985780059
15 0.062136976907014
16 1.52604368756240
17 -0.005363986018941
18 0.062136979085876
19 1.52604379435338
20 -0.005363986018941
21 0.062136979085876
22 1.52604379435338
 Sym=      2.2
 Ene=       0.0773
 Spin= Alpha
 Occup=    0.000000
1 0.0
2 0.0
3 0.0
4 0.0
5 0.0
6 0.10252870156361
7 0.0
8 0.0
9 -0.032354512010180
10 0.0
11 0.0
12 1.68469491251765
13 0.0
14 0.0
15 0.0
16 0.0
17 -0.017217034096223
18 -0.11340707063853
19 4.03454256558367
20 0.017217034096223
21 0.11340707063853
22 -4.03454256558367
 Sym=      6.1
 Ene=       0.0773
 Spin= Alpha
 Occup=    0.000000
1 0.000000000501246
2 -0.000000000834361
3 -0.000000002523830
4 -0.000000002468784
5 -0.10252870516228
6 0.0
7 0.000000000000000
8 0.032354485667566
9 0.0
10 0.000000000000001
11 -1.68469462873494
12 0.0
13 -0.000000000000000
14 -0.019880519686763
15 -0.13095122863799
16 4.65868807554051
17 0.009940259959249
18 0.065475611507107
19 -2.32934402957661
20 0.009940259959249
21 0.065475611507107
22 -2.32934402957661
 Sym=      7.1
 Ene=       0.1346
 Spin= Alpha
 Occup=    0.000000
1 0.000000000000000
2 -0.000000000000000
3 0.000000000000000
4 0.000000000000007
5 0.000000000000000
6 0.0
7 -0.18423069508463
8 -0.000000000000000
9 0.0
10 -0.45367061695881
11 0.000000000000001
12 0.0
13 1.16542795043344
14 -0.000000000000000
15 -0.000000000000001
16 -0.000000000000002
17 -0.000000000000000
18 -0.000000000000001
19 -0.000000000000001
20 -0.000000000000000
21 -0.000000000000001
22 -0.000000000000001
 Sym=      3.2
 Ene=       0.1747
 Spin= Alpha
 Occup=    0.000000
1 0.0
2 0.0
3 0.0
4 0.0
5 0.0
6 -0.062142618019091
7 0.0
8 0.0
9 -0.035938912907765
10 0.0
11 0.0
12 3.77015612071261
13 0.0
14 0.0
15 0.0
16 0.0
17 0.035700372490921
18 0.52664007151411
19 4.54693434493681
20 -0.035700372490921
21 -0.52664007151411
22 -4.54693434493681
 Sym=      8.1
 Ene=       0.1747
 Spin= Alpha
 Occup=    0.000000
1 -0.000000002293958
2 0.000000001582284
3 0.000000021249629
4 -0.000000233267961
5 -0.062142610435095
6 0.0
7 -0.000000000000000
8 -0.035938876074487
9 0.0
10 0.000000000000000
11 3.77015621635149
12 0.0
13 -0.000000000000000
14 -0.041223240727914
15 -0.60811158702603
16 -5.25034775914127
17 0.020611620189411
18 0.30405581807985
19 2.62517397154802
20 0.020611620189411
21 0.30405581807985
22 2.62517397154802
 Sym=      9.1
 Ene=       0.2125
 Spin= Alpha
 Occup=    0.000000
1 0.081012929651858
2 -0.065148514396241
3 -0.88493576395987
4 8.10473006722583
5 -0.000000001951728
6 0.0
7 0.000000000000000
8 0.000000001606307
9 0.0
10 0.000000000000001
11 0.000000117867460
12 0.0
13 -0.000000000000001
14 0.000621456683574
15 -0.39556080355449
16 -2.25980977365326
17 0.000621458858091
18 -0.39556077366389
19 -2.25980951674651
20 0.000621458858091
21 -0.39556077366389
22 -2.25980951674651
 Sym=     10.1
 Ene=       0.3318
 Spin= Alpha
 Occup=    0.000000
1 0.13012242461438
2 -0.062152099161827
3 -2.60059007030840
4 -1.90375566105754
5 0.000000000539708
6 0.0
7 -0.000000000000000
8 -0.000000001144635
9 0.0
10 0.000000000000000
11 -0.000000010880743
12 0.0
13 0.000000000000000
14 0.10371323729424
15 1.59670508409480
16 0.23913338991379
17 0.10371323695746
18 1.59670508096850
19 0.23913336504815
20 0.10371323695746
21 1.59670508096850
22 0.23913336504815
 Sym=      4.2
 Ene=       0.3642
 Spin= Alpha
 Occup=    0.000000
1 0.0
2 0.0
3 0.0
4 0.0
5 0.0
6 0.31516613906866
7 0.0
8 0.0
9 1.74850341787877
10 0.0
11 0.0
12 -0.93545416171490
13 0.0
14 0.0
15 0.0
16 0.0
17 0.070617037113672
18 1.88472383863975
19 -1.89292242916567
20 -0.070617037113672
21 -1.88472383863975
22 1.89292242916567
 Sym=     11.1
 Ene=       0.3642
 Spin= Alpha
 Occup=    0.000000
1 0.000000000038884
2 0.000000000003267
3 -0.000000000586894
4 0.000000006761491
5 -0.31516614170725
6 0.0
7 -0.000000000000000
8 -1.74850341339377
9 0.0
10 -0.000000000000000
11 0.93545423549816
12 0.0
13 -0.000000000000000
14 0.081541529625503
15 2.17629162034631
16 -2.18575867451351
17 -0.040770764933228
18 -1.08814581054403
19 1.09287933419550
20 -0.040770764933228
21 -1.08814581054403
22 1.09287933419550
 Sym=     12.1
 Ene=       0.8675
 Spin= Alpha
 Occup=    0.000000
1 -0.000000000000000
2 0.000000000000000
3 0.000000000000001
4 -0.000000000000001
5 -0.000000000000000
6 0.0
7 -1.09989079225682
8 -0.000000000000000
9 0.0
10 1.38190463429012
11 -0.000000000000000
12 0.0
13 -0.52067001574559
14 -0.000000000000000
15 0.000000000000000
16 0.000000000000000
17 -0.000000000000000
18 -0.000000000000001
19 0.000000000000000
20 -0.000000000000000
21 -0.000000000000001
22 0.000000000000000
 Sym=      5.2
 Ene=       0.9231
 Spin= Alpha
 Occup=    0.000000
1 0.0
2 0.0
3 0.0
4 0.0
5 0.0
6 -0.93898025240371
7 0.0
8 0.0
9 2.09070096835938
10 0.0
11 0.0
12 -1.83671584416446
13 0.0
14 0.0
15 0.0
16 0.0
17 0.37005604332176
18 0.30866686508066
19 -2.00504683876230
20 -0.37005604332176
21 -0.30866686508066
22 2.00504683876230
 Sym=     13.1
 Ene=       0.9231
 Spin= Alpha
 Occup=    0.000000
1 0.000000000064997
2 0.000000000226932
3 -0.000000000888981
4 -0.000000005089836
5 -0.93898025111589
6 0.0
7 -0.000000000000000
8 2.09070097186402
9 0.0
10 -0.000000000000000
11 -1.83671586983371
12 0.0
13 0.000000000000000
14 -0.42730391275291
15 -0.35641779617355
16 2.31522871129215
17 0.21365195728384
18 0.17820889853096
19 -1.15761435324019
20 0.21365195728384
21 0.17820889853096
22 -1.15761435324019
 Sym=     14.1
 Ene=       1.2049
 Spin= Alpha
 Occup=    0.000000
1 -0.043947346539990
2 -1.91796249422755
3 3.50724282011617
4 -4.44526030842551
5 -0.000000000108444
6 0.0
7 -0.000000000000000
8 0.000000000799583
9 0.0
10 -0.000000000000000
11 -0.000000003668089
12 0.0
13 -0.000000000000000
14 -0.42792677656934
15 0.011929969517180
16 1.12670162550077
17 -0.42792677568488
18 0.011929968536824
19 1.12670161737643
20 -0.42792677568488
21 0.011929968536824
22 1.12670161737643
 Sym=     15.1
 Ene=       1.2786
 Spin= Alpha
 Occup=    0.000000
1 0.072918091731893
2 -1.15380254482012
3 2.37963942964616
4 1.00146248756219
5 -0.000000002106481
6 0.0
7 0.000000000000000
8 0.000000001510320
9 0.0
10 0.000000000000000
11 0.000000002773317
12 0.0
13 -0.000000000000000
14 0.72641841097021
15 -1.35554615573107
16 -0.10484832772418
17 0.72641840520818
18 -1.35554614770427
19 -0.10484832440566
20 0.72641840520818
21 -1.35554614770427
22 -0.10484832440566
 Sym=      6.2
 Ene=       1.3151
 Spin= Alpha
 Occup=    0.000000
1 0.0
2 0.0
3 0.0
4 0.0
5 0.0
6 0.77405345062448
7 0.0
8 0.0
9 -0.82113224268296
10 0.0
11 0.0
12 -0.19496655965922
13 0.0
14 0.0
15 0.0
16 0.0
17 0.95187189217760
18 -1.46511739141961
19 0.23412073324158
20 -0.95187189217760
21 1.46511739141961
22 -0.23412073324158
 Sym=     16.1
 Ene=       1.3151
 Spin= Alpha
 Occup=    0.000000
1 -0.000000000260766
2 0.000000003100674
3 -0.000000006628298
4 -0.000000005271331
5 -0.77405345120204
6 0.0
7 0.000000000000000
8 0.82113224512538
9 0.0
10 0.000000000000000
11 0.19496655434734
12 0.0
13 0.000000000000000
14 1.09912698347517
15 -1.69177183695782
16 0.27033934633391
17 -0.54956349554036
18 0.84588592532161
19 -0.13516967193775
20 -0.54956349554036
21 0.84588592532161
22 -0.13516967193775
 [FREQ]
      0.00
      0.00
      0.00
      0.00
      0.00
      0.00
    411.80
   1542.57
   1542.67
   3281.99
   3470.82
   3470.92
 [FR-COORD]
C         -0.0000000000        0.0000000000        0.0000000000
H          2.0232014145        0.0000000000        0.0000000000
H         -1.0116007072       -1.7521438220        0.0000000000
H         -1.0116007072        1.7521438220        0.0000000000
 [FR-NORM-COORD]
 Vibration                    1
          0.25640301          0.02721199         -0.00485841
          0.25640301          0.03250385         -0.00496970
          0.26098590          0.02456606         -0.00429894
          0.25182013          0.02456606         -0.00530659
 Vibration                    2
         -0.02053960          0.18296279         -0.12337955
         -0.02053960         -0.11040169         -0.09737292
         -0.27460069          0.32964503         -0.12564729
          0.23352150          0.32964503         -0.14711845
 Vibration                    3
         -0.01447014          0.15526993          0.14479892
         -0.01447014          0.32374569         -0.23911493
          0.13143414          0.07103205          0.40886388
         -0.16037443          0.07103205          0.26464780
 Vibration                    4
         -0.00169728          0.02100402          0.01983756
         -0.00169728          0.02773802          0.01001868
          0.00413453          0.01763702         -0.67502019
         -0.00752909          0.01763702          0.72451420
 Vibration                    5
         -0.00755768          0.07937484          0.07272940
         -0.00755768          0.20842665          0.78775934
          0.10420446          0.01484894         -0.25716447
         -0.11931983          0.01484894         -0.31240667
 Vibration                    6
          0.00886028         -0.03802774          0.15689592
          0.00886028         -0.48471890          0.20144482
         -0.37798562          0.18531784          0.15220411
          0.39570617          0.18531784          0.11703884
 Vibration                    7
         -0.00000000         -0.00000000         -0.12940149
         -0.00000000          0.00000000          0.51399927
          0.00000000         -0.00000000          0.51399927
          0.00000000          0.00000000          0.51399927
 Vibration                    8
         -0.08853085          0.00000000          0.00000000
         -0.06777443         -0.00000000         -0.00000000
          0.56137102         -0.36321974         -0.00000000
          0.56137102          0.36321974         -0.00000000
 Vibration                    9
         -0.00000000         -0.08852875         -0.00000000
         -0.00000000          0.77107644         -0.00000000
         -0.36323609          0.14193309          0.00000000
          0.36323609          0.14193309          0.00000000
 Vibration                   10
          0.00003303         -0.00000000         -0.00000000
          0.57478896         -0.00000000          0.00000000
         -0.28759125         -0.49815798          0.00000000
         -0.28759125          0.49815798          0.00000000
 Vibration                   11
         -0.00000000         -0.09437905          0.00000000
          0.00000000         -0.01854402         -0.00000000
          0.34072009          0.57160049         -0.00000000
         -0.34072009          0.57160049         -0.00000000
 Vibration                   12
         -0.09437708          0.00000000          0.00000000
          0.76852753          0.00000000         -0.00000000
          0.17805297          0.34054563         -0.00000000
          0.17805297         -0.34054563         -0.00000000
