[Molden Format]
[Molpro variables]
_NUMVAR=  687.0000000000000    
_EV2006= 0.3674930886769165E-01
_EV= 0.3674932534394180E-01
_KJOULE= 0.3808798324128737E-03
_KJOULE/MOL= 0.3808798324128737E-03
_CM= 0.4556335267302901E-05
_CM-1= 0.4556335267302901E-05
_KCAL= 0.1593601117815568E-02
_KCAL/MOL= 0.1593601117815568E-02
_KELVIN2006= 0.3166828861084835E-05
_KELVIN= 0.3166814820820034E-05
_HERTZ2006= 0.1519829850815779E-15
_HERTZ= 0.1519829846011223E-15
_HZ2006= 0.1519829850815779E-15
_HZ= 0.1519829846011223E-15
_TOA2006= 0.5291772490000000    
_TOA= 0.5291772090000000    
_TOANG2006= 0.5291772490000000    
_TOANG= 0.5291772090000000    
_TORAD= 0.1745329251994330E-01
_TOCM=  219474.6306700000    
_TODEBYE=  2.541580000000000    
_TOEV2006=  27.21139610000000    
_TOEV=  27.21138390000000    
_TOHERTZ2006=  6579683899900000.    
_TOHERTZ=  6579683920700000.    
_TOHZ2006=  6579683899900000.    
_TOHZ=  6579683920700000.    
_TOK2006=  315773.3000000000    
_TOK=  315774.7000000000    
_TOKCAL=  627.5096000000000    
_TOKELVIN2006=  315773.3000000000    
_TOKELVIN=  315774.7000000000    
_TOKJ=  2625.500000000000    
_TOKJOULE=  2625.500000000000    
_ANG2006=  1.889725988578923    
_ANG=  1.889726131421507    
_ANGSTROM2006=  1.889725988578923    
_ANGSTROM=  1.889726131421507    
_IGNORE_UNDEF=  2.000000000000000    
_STRICTCHECK=  0.000000000000000    
_SEW_ONEEL=  0.000000000000000    
_CPPDONE=FALSE
_DKROLL_DONE=  0.000000000000000    
_FOCKDONE=TRUE
_GRADONE=FALSE
_HESSDONE=TRUE
_INTDONE=TRUE
_SCFDONE=TRUE
_MODUL_CUDA=FALSE
_MODUL_SLATER=FALSE
_MODUL_MRCC=FALSE
_MRCC_EXEC=
_FITC_AO_SAVED=FALSE
_FITC_MO_SAVED=FALSE
_SHARED_FS=TRUE
_LSTYP=SEWARD
_INTYP=INTS
_GEOMTYP=ZMAT
_GRADTYP=ALASKA
_DIRECT=FALSE
_SYNCM=  0.000000000000000    
_BASIS=6-31G
_ZSYMEL=
_ZORIENT=  1.000000000000000    
_NELEC=  9.000000000000000    
!SPIN=  1.000000000000000    
_OPTCONV= 0.4293736919623629E-05
_QSDSTEP=  0.000000000000000    
_QSDIRC=  0.000000000000000    
_PROGRAM=FREQ
_CPUSTEP=  0.000000000000000    
_SYSSTEP=  0.000000000000000    
_WALLSTEP= 0.1000000000000000E-01
!DFSCF=  0.000000000000000    
!SCSGRD=  0.000000000000000    
_BASINP=  610.0000000000000    
_CPUTOT=  21.10000000000000    
_CPUSORT= 0.3000000000000114E-01
_SYSSORT= 0.1000000000000001E-01
_WALLSORT= 0.8999999985098839E-01
_DFTEXFAC=  1.000000000000000    
_DMX=-0.1932483340016944E-09
_DMY=  0.000000000000000    
_DMZ= 0.1292454678021338E-15
_FREQUENCIES= 0.5646227712290858E-04
_ENERGY= -39.54352234974787    
_ENUC=  9.755719168862488    
_FREQSTEP=  14.00000000000000    
_GRADENERG= -39.54352229708391    
_GRADEXFAC=  9999.000000000000    
_GRADMETHOD=  2.000000000000000    
_VIRIAL= 0.1901763732968747E-04
!GRID_FREEZE= -1.000000000000000    
_ITERATIONS=  2.000000000000000    
_LASTNELEC=  9.000000000000000    
_LASTSPIN=  1.000000000000000    
_LASTSYM=  1.000000000000000    
_MPP_PROG=  0.000000000000000    
_NPROC_MPP=  1.000000000000000    
_NPROC_SMP=  1.000000000000000    
_NUMSTEP=  0.000000000000000    
_OPTCONVMX= 0.4293736919623491E-05
_OPTCONVRMS= 0.1431245639874543E-05
_OPTGRAD= 0.5306757119131285E-05
_OPTGRADMX= 0.5306757119131215E-05
_OPTGRADRMS= 0.1768919039710428E-05
_OPTSTEP=  4.000000000000000    
_ORBITAL=  2100.200000000000    
_PI=  3.141592653589793    
_SEIG_MIN= 0.3133978037074227E-01
_SEWPROP=TRUE
_STATUS=  1.000000000000000    
_SYSTOT= 0.7800000000000000    
_VERSION=  2010001.000000000    
_WALLTOT=  25.24000000000000    
_ZPE= 0.3111003701529665E-01
_DATE=17-Aug-24
_LASTORB=RHF
_MACHINE=Linux-3.10.0-1160.108.1.el7.x86_64/molmod(x86_64) 64 bit serial version
_OUTPUT=/home/ospite/Desktop/MMfP/Project6/CH3/molpro/HF/ch3_Pople631.xml
_PGROUP=Cs
_TIME=18:12:31
_LIBMOL=/usr/local/molpro/molpros_2010_1_Linux_x86_64_i8/lib/
!SURFREC=  0.000000000000000    
!POLYREC=  0.000000000000000    
!DIPREC=  0.000000000000000    
!VSCFREC=  0.000000000000000    
!VCIREC=  0.000000000000000    
!PVCIREC=  0.000000000000000    
!VMP2REC=  0.000000000000000    
!VMCSCFREC=  0.000000000000000    
!GAREC=  0.000000000000000    
!SCFORB=  21002.00000000000    
!NEWMOL= -1.000000000000000    
!NEWSYM= -1.000000000000000    
_SLFILES=slscratch
_NGSSTO=  9.000000000000000    
_SIN=SIN
_COS=COS
_TAN=TAN
_ACOS=ACOS
_ASIN=ASIN
_ATAN=ATAN
_COSH=COSH
_SINH=SINH
_TANH=TANH
_ABS=ABS
_MOD=MOD
_ERF=ERF
_REFC=REFC
_ERFC=ERFC
_HYPOT=HYPOT
_J0=J0
_J1=J1
_JN=JN
_GAMMA=GAMMA
_LGAMMA=LGAMMA
_Y0=Y0
_Y1=Y1
_YN=YN
_EXP=EXP
_LOG=LOG
_LOG10=LOG10
_SQRT=SQRT
_INT=INT
_NINT=NINT
_MAX=MAX
_MIN=MIN
_COSMO=  0.000000000000000    
_COSMOIT=  0.000000000000000    
_COSMOES=  0.000000000000000    
_COSMOEDS=  0.000000000000000    
_COSMOEC=  0.000000000000000    
_COSMOEDCORR=  0.000000000000000    
_FEPSI=  1.000000000000000    
_SL_IsMM=  0.000000000000000    
_SL_NSYM=  0.000000000000000    
_SL_System_BitSw=  0.000000000000000    
_SL_Unique_atoms=  0.000000000000000    
_SL_GRAD=  0.000000000000000    
_SL_MAXUPD_Hess=  5.000000000000000    
_SL_N_PRINT_COD=  5.000000000000000    
_SL_PRINT_CODES=  0.000000000000000    
_SL_BasType=  0.000000000000000    
_SL_Energy_Pred=  0.000000000000000    
_SL_New_Coords=  0.000000000000000    
_SL_Total_Nuclea=  0.000000000000000    
_SL_Highest_Mltp=  0.000000000000000    
_SL_Ref_Geom=  0.000000000000000    
!LATTICE= -1.000000000000000    
!NEWLATTICE=  0.000000000000000    
!LATGRAD_VAR=FALSE
!SEW_LATTICE=  1.000000000000000    
!LOCAL=  0.000000000000000    
!SAVEDOM= -1.000000000000000    
!RESTDOM= -1.000000000000000    
!SAVEDOM_HF= -1.000000000000000    
!RESTDOM_HF= -1.000000000000000    
!HESSREC=  5300.200000000000    
!FREQREC=  5400.200000000000    
!NMODREC=  5450.200000000000    
!GTASKS=  0.000000000000000    
!HTASKS=  5500.200000000000    
!THRCHG= 0.1000000000000000    
!DEBUG= -1.000000000000000    
!CFIT_CPHF=  0.000000000000000    
!RDOMAUX_CPHF=  5.000000000000000    
!THRAO_CPHF= 0.9999999999999999E-11
!THRMO_CPHF= 0.9999999999999999E-11
!THROV_CPHF= 0.1000000000000000E-11
!THRSW_CPHF= 0.1000000000000000E-09
!THRPROD_CPHF= 0.9999999999999999E-11
!THRAOPR_CPHF= 0.1000000000000000E-11
!CFIT_SCFGRD=  0.000000000000000    
!RDOMAUX_SCFGRD=  7.000000000000000    
!THRAO_SCFGRD= 0.9999999999999999E-11
!THRMO_SCFGRD= 0.9999999999999999E-11
!THROV_SCFGRD= 0.1000000000000000E-11
!THRSW_SCFGRD= 0.1000000000000000E-09
!THRPROD_SCFGRD= 0.9999999999999999E-11
!THRAOPR_SCFGRD= 0.1000000000000000E-11
!LOCFIT_SCF=  0.000000000000000    
!LOCFIT_MP2= -1.000000000000000    
_RIDOM=  0.000000000000000    
!CC2_METHOD=  0.000000000000000    
_BASIS2006=FALSE
_SVDDEL= -1.000000000000000    
_SVDDELA= -1.000000000000000    
_SVDDELP= -1.000000000000000    
_SVDDELF= -1.000000000000000    
_SVDDELS= -1.000000000000000    
_SVDDEL_ABS= -1.000000000000000    
_SVDDELA_ABS= -1.000000000000000    
_SVDDELP_ABS= -1.000000000000000    
_SVDDELF_ABS= -1.000000000000000    
_SVDDELS_ABS= -1.000000000000000    
_MAXBASIS=  0.000000000000000    
!OPT_CONICAL=  0.000000000000000    
!CLEARSP_JGRID=  0.000000000000000    
D=  1.070321048961990    
A=  119.9999999977002    
T=  0.000000000000000    
GX1=-0.9427195135636168E-11
GY1=  0.000000000000000    
GZ1=  0.000000000000000    
GX2=  2.022613655224524    
GY2=  0.000000000000000    
GZ2=  0.000000000000000    
GX3= -1.011306827556093    
GY3= -1.751634807514495    
GZ3=  0.000000000000000    
GX4= -1.011306827556093    
GY4=  1.751634807514495    
GZ4=  0.000000000000000    
CX1=-0.9427195135636168E-11
CY1=  0.000000000000000    
CZ1=  0.000000000000000    
H1X2=  2.022613655224524    
H1Y2=  0.000000000000000    
H1Z2=  0.000000000000000    
H2X3= -1.011306827556093    
H2Y3= -1.751634807514495    
H2Z3=  0.000000000000000    
H3X4= -1.011306827556093    
H3Y4=  1.751634807514495    
H3Z4=  0.000000000000000    
[Atoms] Angs
C     1    6        -0.0000000000        0.0000000000        0.0000000000
H     2    1         1.0703210490        0.0000000000        0.0000000000
H     3    1        -0.5351605244       -0.9269252186        0.0000000000
H     4    1        -0.5351605244        0.9269252186        0.0000000000
[GTO]
  1 0
 s    6  1.00
  0.3047524900D+04  0.1834737091D-02
  0.4573695200D+03  0.1403732293D-01
  0.1039486800D+03  0.6884262165D-01
  0.2921015500D+02  0.2321844388D+00
  0.9286663000D+01  0.4679413476D+00
  0.3163927000D+01  0.3623119882D+00
 s    3  1.00
  0.7868272300D+01 -0.1193324245D+00
  0.1881288500D+01 -0.1608541561D+00
  0.5442492600D+00  0.1143456443D+01
 s    1  1.00
  0.1687144800D+00  0.1000000000D+01
 p    3  1.00
  0.7868272300D+01  0.6899906693D-01
  0.1881288500D+01  0.3164239597D+00
  0.5442492600D+00  0.7443082892D+00
 p    1  1.00
  0.1687144800D+00  0.1000000000D+01
  
  2 0
 s    3  1.00
  0.1873113700D+02  0.3349460400D-01
  0.2825394400D+01  0.2347269500D+00
  0.6401216900D+00  0.8137573301D+00
 s    1  1.00
  0.1612777600D+00  0.1000000000D+01
  
  3 0
 s    3  1.00
  0.1873113700D+02  0.3349460400D-01
  0.2825394400D+01  0.2347269500D+00
  0.6401216900D+00  0.8137573301D+00
 s    1  1.00
  0.1612777600D+00  0.1000000000D+01
  
  4 0
 s    3  1.00
  0.1873113700D+02  0.3349460400D-01
  0.2825394400D+01  0.2347269500D+00
  0.6401216900D+00  0.8137573301D+00
 s    1  1.00
  0.1612777600D+00  0.1000000000D+01


[MO]
 Sym=      1.1
 Ene=     -11.2174
 Spin= Alpha
 Occup=    2.000000
1 0.99614219900434
2 0.024055650608783
3 -0.012630871843720
4 0.000000000000769
5 0.0
6 0.000000000000000
7 -0.000000000014767
8 0.0
9 0.000000000000000
10 -0.000321993256206
11 0.002809886858383
12 -0.000321993259732
13 0.002809886839537
14 -0.000321993259732
15 0.002809886839537
 Sym=      2.1
 Ene=      -0.9015
 Spin= Alpha
 Occup=    2.000000
1 -0.19815563530726
2 0.39190653395477
3 0.35749446896350
4 0.000000000018959
5 0.0
6 -0.000000000000000
7 -0.000000000032525
8 0.0
9 -0.000000000000000
10 0.15811743673818
11 0.054987917752803
12 0.15811743674238
13 0.054987917728241
14 0.15811743674238
15 0.054987917728241
 Sym=      1.2
 Ene=      -0.5715
 Spin= Alpha
 Occup=    2.000000
1 0.0
2 0.0
3 0.0
4 0.0
5 0.44321123709877
6 0.0
7 0.0
8 0.19746187915965
9 0.0
10 0.0
11 0.0
12 -0.25229853723869
13 -0.19163666356074
14 0.25229853723869
15 0.19163666356074
 Sym=      3.1
 Ene=      -0.5715
 Spin= Alpha
 Occup=    2.000000
1 0.000000000011388
2 0.000000000015970
3 -0.000000000214734
4 0.44321123709888
5 0.0
6 -0.000000000000000
7 0.19746187912537
8 0.0
9 -0.000000000000000
10 0.29132925673336
11 0.22128295880508
12 -0.14566462834296
13 -0.11064147927952
14 -0.14566462834296
15 -0.11064147927952
 Sym=      4.1
 Ene=      -0.3774
 Spin= Alpha
 Occup=    1.000000
1 -0.000000000000000
2 0.000000000000000
3 -0.000000000000000
4 -0.000000000000000
5 0.0
6 0.58888277211172
7 0.000000000000000
8 0.0
9 0.53957564242616
10 -0.000000000000000
11 -0.000000000000000
12 -0.000000000000000
13 0.000000000000000
14 -0.000000000000000
15 0.000000000000000
 Sym=      5.1
 Ene=       0.2550
 Spin= Alpha
 Occup=    0.000000
1 0.14788051503529
2 -0.15152674582542
3 -2.40113089214611
4 0.000000000390597
5 0.0
6 0.000000000000000
7 0.000000002373197
8 0.0
9 -0.000000000000000
10 0.038225545479236
11 1.16538806336054
12 0.038225545667693
13 1.16538806783057
14 0.038225545667693
15 1.16538806783057
 Sym=      6.1
 Ene=       0.3301
 Spin= Alpha
 Occup=    0.000000
1 0.000000000208634
2 -0.000000000204140
3 -0.000000003535349
4 -0.31542907166845
5 0.0
6 -0.000000000000000
7 -1.61877548858476
8 0.0
9 0.000000000000000
10 0.045092738809928
11 2.05166766762197
12 -0.022546369327088
13 -1.02583383123868
14 -0.022546369327088
15 -1.02583383123868
 Sym=      2.2
 Ene=       0.3301
 Spin= Alpha
 Occup=    0.000000
1 0.0
2 0.0
3 0.0
4 0.0
5 0.31542907166817
6 0.0
7 0.0
8 1.61877548867308
9 0.0
10 0.0
11 0.0
12 0.039051457300692
13 1.77679631887252
14 -0.039051457300692
15 -1.77679631887252
 Sym=      7.1
 Ene=       0.7490
 Spin= Alpha
 Occup=    0.000000
1 0.000000000000000
2 0.000000000000000
3 -0.000000000000000
4 -0.000000000000242
5 0.0
6 -1.06483093120955
7 0.000000000000548
8 0.0
9 1.09064474392489
10 -0.000000000000160
11 -0.000000000000149
12 0.000000000000080
13 0.000000000000074
14 0.000000000000080
15 0.000000000000074
 Sym=      3.2
 Ene=       0.7500
 Spin= Alpha
 Occup=    0.000000
1 0.0
2 0.0
3 0.0
4 0.0
5 -0.76455665029429
6 0.0
7 0.0
8 1.73445643232140
9 0.0
10 0.0
11 0.0
12 0.44092893118853
13 0.40678084792298
14 -0.44092893118853
15 -0.40678084792298
 Sym=      8.1
 Ene=       0.7500
 Spin= Alpha
 Occup=    0.000000
1 -0.000000000029562
2 -0.000000000395816
3 0.000000001072811
4 -0.76455665041083
5 0.0
6 0.000000000000336
7 1.73445643221332
8 0.0
9 -0.000000000000344
10 -0.50914087431235
11 -0.46971006426479
12 0.25457043687452
13 0.23485503182843
14 0.25457043687452
15 0.23485503182843
 Sym=      9.1
 Ene=       0.9319
 Spin= Alpha
 Occup=    0.000000
1 0.061650098734527
2 1.13894186834479
3 -2.43094120467054
4 -0.000000000232304
5 0.0
6 0.000000000000000
7 0.000000000439706
8 0.0
9 -0.000000000000000
10 0.59632589349523
11 0.24759260739443
12 0.59632589378191
13 0.24759260747660
14 0.59632589378191
15 0.24759260747660
 Sym=     10.1
 Ene=       1.2275
 Spin= Alpha
 Occup=    0.000000
1 -0.059117927061020
2 1.78434981994242
3 -3.23791976328376
4 0.000000004273359
5 0.0
6 -0.000000000000000
7 -0.000000004701370
8 0.0
9 -0.000000000000000
10 -0.49263307853974
11 1.09285059721150
12 -0.49263307157447
13 1.09285058711153
14 -0.49263307157447
15 1.09285058711153
 Sym=      4.2
 Ene=       1.2597
 Spin= Alpha
 Occup=    0.000000
1 0.0
2 0.0
3 0.0
4 0.0
5 0.91743873817015
6 0.0
7 0.0
8 -1.00939759367628
9 0.0
10 0.0
11 0.0
12 0.86184599056298
13 -1.25412085866380
14 -0.86184599056298
15 1.25412085866380
 Sym=     11.1
 Ene=       1.2597
 Spin= Alpha
 Occup=    0.000000
1 -0.000000000274264
2 0.000000008347715
3 -0.000000015175542
4 -0.91743873805773
5 0.0
6 0.000000000000000
7 1.00939759348185
8 0.0
9 -0.000000000000000
10 0.99517402708960
11 -1.44813402552254
12 -0.49758701695654
13 0.72406702042644
14 -0.49758701695654
15 0.72406702042644
 [FREQ]
      0.00
      0.00
      0.00
      0.00
      0.00
      0.00
    321.85
   1549.16
   1549.26
   3285.55
   3474.91
   3475.00
 [FR-COORD]
C         -0.0000000000        0.0000000000        0.0000000000
H          2.0226136552        0.0000000000        0.0000000000
H         -1.0113068276       -1.7516348075        0.0000000000
H         -1.0113068276        1.7516348075        0.0000000000
 [FR-NORM-COORD]
 Vibration                    1
          0.21785871          0.13778090         -0.00756346
          0.21785871          0.14403566         -0.01101403
          0.22327549          0.13465352         -0.00599064
          0.21244193          0.13465352         -0.00568571
 Vibration                    2
         -0.05426868          0.09692336          0.22071688
         -0.05426868          0.14520904         -0.00135854
         -0.01245205          0.07278052          0.31710142
         -0.09608530          0.07278052          0.34640777
 Vibration                    3
         -0.12612686          0.19447609         -0.10570953
         -0.12612686          0.12205600         -0.03222538
         -0.18884449          0.23068613         -0.13339479
         -0.06340922          0.23068613         -0.15150843
 Vibration                    4
          0.00066111         -0.00062962          0.00574250
          0.00066111         -0.00312040         -0.00486641
         -0.00149596          0.00061576          0.71511754
          0.00281818          0.00061576         -0.69302364
 Vibration                    5
         -0.00245136          0.00973093          0.07332384
         -0.00245136          0.02421424          0.85210684
          0.01009155          0.00248927         -0.31156803
         -0.01499428          0.00248927         -0.32056730
 Vibration                    6
         -0.01379605          0.01478238         -0.03398904
         -0.01379605          0.58300439         -0.02561099
          0.47829864         -0.26932862         -0.03280534
         -0.50589075         -0.26932862         -0.04355078
 Vibration                    7
          0.00000000          0.00000000         -0.12940149
          0.00000000          0.00000000          0.51399927
         -0.00000000          0.00000000          0.51399927
         -0.00000000         -0.00000000          0.51399927
 Vibration                    8
         -0.08859668         -0.00000000         -0.00000000
         -0.06723846          0.00000000          0.00000000
          0.56149527         -0.36298177          0.00000000
          0.56149527          0.36298177          0.00000000
 Vibration                    9
          0.00000000         -0.08859454         -0.00000000
          0.00000000          0.77106333         -0.00000000
         -0.36299842          0.14233161         -0.00000000
          0.36299842          0.14233161          0.00000000
 Vibration                   10
          0.00003315          0.00000000          0.00000000
          0.57478756          0.00000000         -0.00000000
         -0.28759127         -0.49815877         -0.00000000
         -0.28759127          0.49815877         -0.00000000
 Vibration                   11
          0.00000000         -0.09431730          0.00000000
         -0.00000000         -0.01908166          0.00000000
          0.34097328          0.57150139          0.00000000
         -0.34097329          0.57150139          0.00000000
 Vibration                   12
         -0.09431528         -0.00000000          0.00000000
          0.76857565         -0.00000000         -0.00000000
          0.17766071          0.34079811         -0.00000000
          0.17766071         -0.34079811         -0.00000000
