[Molden Format]
[Molpro variables]
_NUMVAR=  673.0000000000000    
_EV2006= 0.3674930886769165E-01
_EV= 0.3674932534394180E-01
_KJOULE= 0.3808798324128737E-03
_KJOULE/MOL= 0.3808798324128737E-03
_CM= 0.4556335267302901E-05
_CM-1= 0.4556335267302901E-05
_KCAL= 0.1593601117815568E-02
_KCAL/MOL= 0.1593601117815568E-02
_KELVIN2006= 0.3166828861084835E-05
_KELVIN= 0.3166814820820034E-05
_HERTZ2006= 0.1519829850815779E-15
_HERTZ= 0.1519829846011223E-15
_HZ2006= 0.1519829850815779E-15
_HZ= 0.1519829846011223E-15
_TOA2006= 0.5291772490000000    
_TOA= 0.5291772090000000    
_TOANG2006= 0.5291772490000000    
_TOANG= 0.5291772090000000    
_TORAD= 0.1745329251994330E-01
_TOCM=  219474.6306700000    
_TODEBYE=  2.541580000000000    
_TOEV2006=  27.21139610000000    
_TOEV=  27.21138390000000    
_TOHERTZ2006=  6579683899900000.    
_TOHERTZ=  6579683920700000.    
_TOHZ2006=  6579683899900000.    
_TOHZ=  6579683920700000.    
_TOK2006=  315773.3000000000    
_TOK=  315774.7000000000    
_TOKCAL=  627.5096000000000    
_TOKELVIN2006=  315773.3000000000    
_TOKELVIN=  315774.7000000000    
_TOKJ=  2625.500000000000    
_TOKJOULE=  2625.500000000000    
_ANG2006=  1.889725988578923    
_ANG=  1.889726131421507    
_ANGSTROM2006=  1.889725988578923    
_ANGSTROM=  1.889726131421507    
_IGNORE_UNDEF=  2.000000000000000    
_STRICTCHECK=  0.000000000000000    
_SEW_ONEEL=  0.000000000000000    
_CPPDONE=FALSE
_DKROLL_DONE=  0.000000000000000    
_FOCKDONE=TRUE
_GRADONE=FALSE
_HESSDONE=TRUE
_INTDONE=TRUE
_SCFDONE=TRUE
_MODUL_CUDA=FALSE
_MODUL_SLATER=FALSE
_MODUL_MRCC=FALSE
_MRCC_EXEC=
_FITC_AO_SAVED=FALSE
_FITC_MO_SAVED=FALSE
_SHARED_FS=TRUE
_LSTYP=SEWARD
_INTYP=INTS
_GEOMTYP=ZMAT
_GRADTYP=ALASKA
_DIRECT=FALSE
_SYNCM=  0.000000000000000    
_BASIS=AUG-CC-PVDZ
_ZORIENT=  1.000000000000000    
_NELEC=  2.000000000000000    
!SPIN=  0.000000000000000    
_OPTCONV= 0.4745173835378612E-03
_QSDSTEP=  0.000000000000000    
_QSDIRC=  0.000000000000000    
_PROGRAM=FREQ
_CPUSTEP=  0.000000000000000    
_SYSSTEP=  0.000000000000000    
_WALLSTEP=  0.000000000000000    
!DFSCF=  0.000000000000000    
!SCSGRD=  0.000000000000000    
_BASINP=  610.0000000000000    
_CPUTOT=  8.760000000000000    
_CPUSORT= 0.4999999999999893E-01
_SYSSORT= 0.1000000000000001E-01
_WALLSORT= 0.6999999936670065E-01
_DFTEXFAC=  1.000000000000000    
_DMX=  0.000000000000000    
_DMY=  0.000000000000000    
_DMZ=  0.000000000000000    
_FREQUENCIES= 0.4289095148733125E-10
_ENERGY= -1.128825884275605    
_ENUC= 0.7073234217434016    
_FREQSTEP=  5.000000000000000    
_GRADENERG= -1.128806237986018    
_GRADEXFAC=  9999.000000000000    
_GRADMETHOD=  1.000000000000000    
_VIRIAL= 0.5557220748419757E-02
!GRID_FREEZE= -1.000000000000000    
_ITERATIONS=  2.000000000000000    
_LASTNELEC=  2.000000000000000    
_LASTSPIN=  0.000000000000000    
_LASTSYM=  1.000000000000000    
_MPP_PROG=  0.000000000000000    
_NPROC_MPP=  1.000000000000000    
_NPROC_SMP=  1.000000000000000    
_NUMSTEP=  0.000000000000000    
_OPTCONVMX= 0.4745173835378612E-03
_OPTCONVRMS= 0.4745173835378612E-03
_OPTGRAD= 0.1927041211942093E-03
_OPTGRADMX= 0.1927041211942093E-03
_OPTGRADRMS= 0.1927041211942093E-03
_OPTSTEP=  2.000000000000000    
_ORBITAL=  2100.200000000000    
_PI=  3.141592653589793    
_SEIG_MIN= 0.2899618777982880E-03
_SEWPROP=TRUE
_STATUS=  1.000000000000000    
_SYSTOT= 0.6400000000000000    
_VERSION=  2010001.000000000    
_WALLTOT=  14.01000000000000    
_ZPE= 0.1038512041313723E-01
_DATE=18-Aug-24
_LASTORB=RHF
_MACHINE=Linux-3.10.0-1160.108.1.el7.x86_64/molmod(x86_64) 64 bit serial version
_OUTPUT=/home/ospite/Desktop/MMfP/Project6/H2/molpro/HF/ch4_aug-ccpVDZ.xml
_PGROUP=D2h
_TIME=12:53:07
_LIBMOL=/usr/local/molpro/molpros_2010_1_Linux_x86_64_i8/lib/
!SURFREC=  0.000000000000000    
!POLYREC=  0.000000000000000    
!DIPREC=  0.000000000000000    
!VSCFREC=  0.000000000000000    
!VCIREC=  0.000000000000000    
!PVCIREC=  0.000000000000000    
!VMP2REC=  0.000000000000000    
!VMCSCFREC=  0.000000000000000    
!GAREC=  0.000000000000000    
!SCFORB=  21002.00000000000    
!NEWMOL=  0.000000000000000    
!NEWSYM=  1.000000000000000    
_SLFILES=slscratch
_NGSSTO=  9.000000000000000    
_SIN=SIN
_COS=COS
_TAN=TAN
_ACOS=ACOS
_ASIN=ASIN
_ATAN=ATAN
_COSH=COSH
_SINH=SINH
_TANH=TANH
_ABS=ABS
_MOD=MOD
_ERF=ERF
_REFC=REFC
_ERFC=ERFC
_HYPOT=HYPOT
_J0=J0
_J1=J1
_JN=JN
_GAMMA=GAMMA
_LGAMMA=LGAMMA
_Y0=Y0
_Y1=Y1
_YN=YN
_EXP=EXP
_LOG=LOG
_LOG10=LOG10
_SQRT=SQRT
_INT=INT
_NINT=NINT
_MAX=MAX
_MIN=MIN
_COSMO=  0.000000000000000    
_COSMOIT=  0.000000000000000    
_COSMOES=  0.000000000000000    
_COSMOEDS=  0.000000000000000    
_COSMOEC=  0.000000000000000    
_COSMOEDCORR=  0.000000000000000    
_FEPSI=  1.000000000000000    
_SL_IsMM=  0.000000000000000    
_SL_NSYM=  0.000000000000000    
_SL_System_BitSw=  0.000000000000000    
_SL_Unique_atoms=  0.000000000000000    
_SL_GRAD=  0.000000000000000    
_SL_MAXUPD_Hess=  5.000000000000000    
_SL_N_PRINT_COD=  5.000000000000000    
_SL_PRINT_CODES=  0.000000000000000    
_SL_BasType=  0.000000000000000    
_SL_Energy_Pred=  0.000000000000000    
_SL_New_Coords=  0.000000000000000    
_SL_Total_Nuclea=  0.000000000000000    
_SL_Highest_Mltp=  0.000000000000000    
_SL_Ref_Geom=  0.000000000000000    
!LATTICE= -1.000000000000000    
!NEWLATTICE=  0.000000000000000    
!LATGRAD_VAR=FALSE
!SEW_LATTICE=  1.000000000000000    
!LOCAL=  0.000000000000000    
!SAVEDOM= -1.000000000000000    
!RESTDOM= -1.000000000000000    
!SAVEDOM_HF= -1.000000000000000    
!RESTDOM_HF= -1.000000000000000    
!HESSREC=  5300.200000000000    
!FREQREC=  5400.200000000000    
!NMODREC=  5450.200000000000    
!GTASKS=  0.000000000000000    
!HTASKS=  5500.200000000000    
!THRCHG= 0.1000000000000000    
!DEBUG= -1.000000000000000    
!CFIT_CPHF=  0.000000000000000    
!RDOMAUX_CPHF=  5.000000000000000    
!THRAO_CPHF= 0.9999999999999999E-11
!THRMO_CPHF= 0.9999999999999999E-11
!THROV_CPHF= 0.1000000000000000E-11
!THRSW_CPHF= 0.1000000000000000E-09
!THRPROD_CPHF= 0.9999999999999999E-11
!THRAOPR_CPHF= 0.1000000000000000E-11
!CFIT_SCFGRD=  0.000000000000000    
!RDOMAUX_SCFGRD=  7.000000000000000    
!THRAO_SCFGRD= 0.9999999999999999E-11
!THRMO_SCFGRD= 0.9999999999999999E-11
!THROV_SCFGRD= 0.1000000000000000E-11
!THRSW_SCFGRD= 0.1000000000000000E-09
!THRPROD_SCFGRD= 0.9999999999999999E-11
!THRAOPR_SCFGRD= 0.1000000000000000E-11
!LOCFIT_SCF=  0.000000000000000    
!LOCFIT_MP2= -1.000000000000000    
_RIDOM=  0.000000000000000    
!CC2_METHOD=  0.000000000000000    
_BASIS2006=FALSE
_SVDDEL= -1.000000000000000    
_SVDDELA= -1.000000000000000    
_SVDDELP= -1.000000000000000    
_SVDDELF= -1.000000000000000    
_SVDDELS= -1.000000000000000    
_SVDDEL_ABS= -1.000000000000000    
_SVDDELA_ABS= -1.000000000000000    
_SVDDELP_ABS= -1.000000000000000    
_SVDDELF_ABS= -1.000000000000000    
_SVDDELS_ABS= -1.000000000000000    
_MAXBASIS=  0.000000000000000    
!OPT_CONICAL=  0.000000000000000    
!CLEARSP_JGRID=  0.000000000000000    
D= 0.7481403736012174    
GX1= -0.000000000000000    
GY1= -0.000000000000000    
GZ1=-0.7068902069828347    
GX2= -0.000000000000000    
GY2= -0.000000000000000    
GZ2= 0.7068902069828347    
H1X1=  0.000000000000000    
H1Y1=  0.000000000000000    
H1Z1=-0.7068902069828347    
H2X2=  0.000000000000000    
H2Y2=  0.000000000000000    
H2Z2= 0.7068902069828347    
[Atoms] Angs
H     1    1         0.0000000000        0.0000000000       -0.3740701868
H     2    1         0.0000000000        0.0000000000        0.3740701868
[GTO]
  1 0
 s    4  1.00
  0.1301000000D+02  0.1968498999D-01
  0.1962000000D+01  0.1379769298D+00
  0.4446000000D+00  0.4781477569D+00
  0.1220000000D+00  0.5012397451D+00
 s    4  1.00
  0.1301000000D+02  0.0000000000D+00
  0.1962000000D+01  0.0000000000D+00
  0.4446000000D+00  0.0000000000D+00
  0.1220000000D+00  0.1000000000D+01
 s    1  1.00
  0.2974000000D-01  0.1000000000D+01
 p    1  1.00
  0.7270000000D+00  0.1000000000D+01
 p    1  1.00
  0.1410000000D+00  0.1000000000D+01
  
  2 0
 s    4  1.00
  0.1301000000D+02  0.1968498999D-01
  0.1962000000D+01  0.1379769298D+00
  0.4446000000D+00  0.4781477569D+00
  0.1220000000D+00  0.5012397451D+00
 s    4  1.00
  0.1301000000D+02  0.0000000000D+00
  0.1962000000D+01  0.0000000000D+00
  0.4446000000D+00  0.0000000000D+00
  0.1220000000D+00  0.1000000000D+01
 s    1  1.00
  0.2974000000D-01  0.1000000000D+01
 p    1  1.00
  0.7270000000D+00  0.1000000000D+01
 p    1  1.00
  0.1410000000D+00  0.1000000000D+01


[MO]
 Sym=      1.1
 Ene=      -0.5903
 Spin= Alpha
 Occup=    2.000000
1 0.68697875187739
2 -0.17465621662317
3 0.006890778148097
4 0.0
5 0.0
6 0.022032276865960
7 0.0
8 0.0
9 0.003371263463680
10 0.68697875187739
11 -0.17465621662317
12 0.006890778148097
13 0.0
14 0.0
15 -0.022032276865960
16 0.0
17 0.0
18 -0.003371263463680
 Sym=      1.5
 Ene=       0.0614
 Spin= Alpha
 Occup=    0.000000
1 0.080357416449811
2 -2.42513445541988
3 4.47190069938787
4 0.0
5 0.0
6 -0.000275357365993
7 0.0
8 0.0
9 -0.57975238893272
10 -0.080357416449811
11 2.42513445541988
12 -4.47190069938787
13 0.0
14 0.0
15 -0.000275357365993
16 0.0
17 0.0
18 -0.57975238893272
 Sym=      2.1
 Ene=       0.0671
 Spin= Alpha
 Occup=    0.000000
1 -0.10641331105836
2 -0.30240577000497
3 0.69085359394076
4 0.0
5 0.0
6 -0.012923804879628
7 0.0
8 0.0
9 0.067917476556291
10 -0.10641331105836
11 -0.30240577000497
12 0.69085359394076
13 0.0
14 0.0
15 0.012923804879628
16 0.0
17 0.0
18 -0.067917476556291
 Sym=      2.5
 Ene=       0.2311
 Spin= Alpha
 Occup=    0.000000
1 -0.27445880446841
2 -10.7058782389934
3 3.25129813642839
4 0.0
5 0.0
6 0.045553008311805
7 0.0
8 0.0
9 -2.24606041316868
10 0.27445880446841
11 10.7058782389934
12 -3.25129813642839
13 0.0
14 0.0
15 0.045553008311805
16 0.0
17 0.0
18 -2.24606041316868
 Sym=      1.2
 Ene=       0.2848
 Spin= Alpha
 Occup=    0.000000
1 0.0
2 0.0
3 0.0
4 -0.012017763463388
5 0.0
6 0.0
7 0.52258395628897
8 0.0
9 0.0
10 0.0
11 0.0
12 0.0
13 -0.012017763463388
14 0.0
15 0.0
16 0.52258395628897
17 0.0
18 0.0
 Sym=      1.3
 Ene=       0.2848
 Spin= Alpha
 Occup=    0.000000
1 0.0
2 0.0
3 0.0
4 0.0
5 -0.012017763463388
6 0.0
7 0.0
8 0.52258395628897
9 0.0
10 0.0
11 0.0
12 0.0
13 0.0
14 -0.012017763463388
15 0.0
16 0.0
17 0.52258395628897
18 0.0
 Sym=      3.1
 Ene=       0.4165
 Spin= Alpha
 Occup=    0.000000
1 0.31987072087258
2 -0.98885869389172
3 0.37567573791572
4 0.0
5 0.0
6 -0.017402333577767
7 0.0
8 0.0
9 1.28072057665396
10 0.31987072087258
11 -0.98885869389172
12 0.37567573791572
13 0.0
14 0.0
15 0.017402333577767
16 0.0
17 0.0
18 -1.28072057665396
 Sym=      1.6
 Ene=       0.4582
 Spin= Alpha
 Occup=    0.000000
1 0.0
2 0.0
3 0.0
4 -0.046610928199688
5 0.0
6 0.0
7 1.98339617768241
8 0.0
9 0.0
10 0.0
11 0.0
12 0.0
13 0.046610928199688
14 0.0
15 0.0
16 -1.98339617768241
17 0.0
18 0.0
 Sym=      1.7
 Ene=       0.4582
 Spin= Alpha
 Occup=    0.000000
1 0.0
2 0.0
3 0.0
4 0.0
5 -0.046610928199688
6 0.0
7 0.0
8 1.98339617768241
9 0.0
10 0.0
11 0.0
12 0.0
13 0.0
14 0.046610928199688
15 0.0
16 0.0
17 -1.98339617768241
18 0.0
 Sym=      3.5
 Ene=       0.5581
 Spin= Alpha
 Occup=    0.000000
1 -0.40030217825145
2 31.3559653806941
3 -2.40389221392246
4 0.0
5 0.0
6 -0.073605975053992
7 0.0
8 0.0
9 8.13366841384250
10 0.40030217825145
11 -31.3559653806941
12 2.40389221392246
13 0.0
14 0.0
15 -0.073605975053992
16 0.0
17 0.0
18 8.13366841384250
 Sym=      4.1
 Ene=       0.7191
 Spin= Alpha
 Occup=    0.000000
1 -1.40268703560968
2 1.38170270578568
3 -0.20902624823039
4 0.0
5 0.0
6 -0.015477734954103
7 0.0
8 0.0
9 0.89144057494335
10 -1.40268703560968
11 1.38170270578568
12 -0.20902624823039
13 0.0
14 0.0
15 0.015477734954103
16 0.0
17 0.0
18 -0.89144057494335
 Sym=      4.5
 Ene=       1.2285
 Spin= Alpha
 Occup=    0.000000
1 1.52404475091240
2 20.1885695370895
3 -0.47188267209313
4 0.0
5 0.0
6 -0.51788818210560
7 0.0
8 0.0
9 6.08224016223470
10 -1.52404475091240
11 -20.1885695370895
12 0.47188267209313
13 0.0
14 0.0
15 -0.51788818210560
16 0.0
17 0.0
18 6.08224016223470
 Sym=      2.2
 Ene=       1.6043
 Spin= Alpha
 Occup=    0.000000
1 0.0
2 0.0
3 0.0
4 0.67134407815161
5 0.0
6 0.0
7 -0.29131147952072
8 0.0
9 0.0
10 0.0
11 0.0
12 0.0
13 0.67134407815161
14 0.0
15 0.0
16 -0.29131147952072
17 0.0
18 0.0
 Sym=      2.3
 Ene=       1.6043
 Spin= Alpha
 Occup=    0.000000
1 0.0
2 0.0
3 0.0
4 0.0
5 0.67134407815161
6 0.0
7 0.0
8 -0.29131147952072
9 0.0
10 0.0
11 0.0
12 0.0
13 0.0
14 0.67134407815161
15 0.0
16 0.0
17 -0.29131147952072
18 0.0
 Sym=      5.1
 Ene=       2.0762
 Spin= Alpha
 Occup=    0.000000
1 -0.67997492070079
2 0.72328073383963
3 -0.13139529779454
4 0.0
5 0.0
6 0.75902528750212
7 0.0
8 0.0
9 -0.43092149056871
10 -0.67997492070079
11 0.72328073383963
12 -0.13139529779454
13 0.0
14 0.0
15 -0.75902528750212
16 0.0
17 0.0
18 0.43092149056871
 Sym=      2.6
 Ene=       2.2387
 Spin= Alpha
 Occup=    0.000000
1 0.0
2 0.0
3 0.0
4 1.06143773119385
5 0.0
6 0.0
7 -0.70811728385518
8 0.0
9 0.0
10 0.0
11 0.0
12 0.0
13 -1.06143773119385
14 0.0
15 0.0
16 0.70811728385518
17 0.0
18 0.0
 Sym=      2.7
 Ene=       2.2387
 Spin= Alpha
 Occup=    0.000000
1 0.0
2 0.0
3 0.0
4 0.0
5 1.06143773119385
6 0.0
7 0.0
8 -0.70811728385518
9 0.0
10 0.0
11 0.0
12 0.0
13 0.0
14 -1.06143773119385
15 0.0
16 0.0
17 0.70811728385518
18 0.0
 Sym=      5.5
 Ene=       3.6629
 Spin= Alpha
 Occup=    0.000000
1 4.35123165272299
2 -9.45599288543926
3 0.41366680636500
4 0.0
5 0.0
6 2.12523747247732
7 0.0
8 0.0
9 -1.98963841578322
10 -4.35123165272299
11 9.45599288543926
12 -0.41366680636500
13 0.0
14 0.0
15 2.12523747247732
16 0.0
17 0.0
18 -1.98963841578322
 [FREQ]
      0.00
      0.00
      0.00
      0.00
      0.00
   4558.54
 [FR-COORD]
H          0.0000000000        0.0000000000       -0.7068902070
H          0.0000000000        0.0000000000        0.7068902070
 [FR-NORM-COORD]
 Vibration                    1
          0.00000000          0.51079086         -0.49805478
         -0.48486918          0.00000000         -0.49805478
 Vibration                    2
          0.00003150          0.56482999         -0.00000000
          0.59502648          0.56483017         -0.00000000
 Vibration                    3
          0.99605349         -0.00001786         -0.00000000
         -0.00001882         -0.00001787         -0.00000000
 Vibration                    4
          0.00000000         -0.38886535          0.00000001
         -0.40965456          0.82042028          0.00000001
 Vibration                    5
          0.00000000          0.51084837          0.49799871
         -0.48492377         -0.00000000          0.49799871
 Vibration                    6
         -0.00000000          0.00000000          0.70431617
         -0.00000000         -0.00000000         -0.70431617
