
 Primary working directories    : /data/scratch
 Secondary working directories  : /data/scratch
 Wavefunction directory         : /home/ospite/wfu/
 Main file repository           : /data/scratch/

 ARCHNAME  : Linux/x86_64
 FC        : /usr/bin/gfortran
 FCVERSION : 4.8.5
 BLASLIB   : 
 id        : polimi

 Nodes     nprocs
 molmod       1

 Using default tuning parameters: mindgm=1; mindgv=20; mindgc=4; mindgr=1; noblas=0; mincuda=1000; minvec=7
 default implementation of scratch files=df  

 ***,hydrogen with imposed symmetry and 6-31++G basis set
 memory,100,m
 
 basis=6-31++G
 
 geometry={angstrom
 H1
 H2, H1, d
 }
 
 d=0.74 Ang
 
 hf
 optg
 frequencies
 put,molden,ch4_6-31++G.molpro

 Variables initialized (661), CPU time= 0.01 sec
 Commands  initialized (458), CPU time= 0.06 sec, 486 directives.
 Default parameters read. Elapsed time= 0.13 sec

 Checking input...
 Passed
1


                                         ***  PROGRAM SYSTEM MOLPRO  ***
                         Copyright, University College Cardiff Consultants Limited, 2008

                                    Version 2010.1 linked Mar  6 2018 16:01:50


 **********************************************************************************************************************************
 LABEL *   hydrogen with imposed symmetry and 6-31++G basis set                          
 Linux-3.10.0-1160.108.1.el7.x86_64/molmod(x86_64) 64 bit serial version                 DATE: 18-Aug-24          TIME: 15:24:06  
 **********************************************************************************************************************************

 SHA1:             d90fb18d49a3be29a79769f900c595ef3b8176e2
 **********************************************************************************************************************************

 Variable memory set to  100000000 words,  buffer space   230000 words

 SETTING BASIS          =    6-31++G
 SETTING D              =         0.74000000  ANG                             


 Recomputing integrals since basis changed


 Using spherical harmonics

 Library entry H      S 6-31G                selected for orbital group  1
 Library entry H      S 6-31++G              selected for orbital group  1

1PROGRAM * SEWARD (Integral evaluation for generally contracted gaussian basis sets)     Author: Roland Lindh, 1990

 Geometry written to block  1 of record 700

 Orientation using atomic masses  
 Molecule type: Linear
 Symmetry elements: X,Y,Z
 Rotational constants:    1831.2560048   1831.2560048      0.0000000 GHz  (calculated with average atomic masses)

 Point group  D2h 



 ATOMIC COORDINATES

 NR  ATOM    CHARGE       X              Y              Z

   1  H1      1.00    0.000000000    0.000000000   -0.699198669
   2  H2      1.00    0.000000000    0.000000000    0.699198669

 Bond lengths in Bohr (Angstrom)

 1-2  1.398397337
     ( 0.740000000)

 NUCLEAR CHARGE:                    2
 NUMBER OF PRIMITIVE AOS:          10
 NUMBER OF SYMMETRY AOS:           10
 NUMBER OF CONTRACTIONS:            6   (   3Ag  +   0B3u +   0B2u +   0B1g +   3B1u +   0B2g +   0B3g +   0Au  )
 NUMBER OF CORE ORBITALS:           0   (   0Ag  +   0B3u +   0B2u +   0B1g +   0B1u +   0B2g +   0B3g +   0Au  )
 NUMBER OF VALENCE ORBITALS:        2   (   1Ag  +   0B3u +   0B2u +   0B1g +   1B1u +   0B2g +   0B3g +   0Au  )


 NUCLEAR REPULSION ENERGY    0.71510434


 Eigenvalues of metric

         1 0.266E+00 0.117E+01 0.384E+01
         5 0.208E-01 0.109E+00 0.596E+00


 Contracted 2-electron integrals neglected if value below      1.0D-11
 AO integral compression algorithm  1   Integral accuracy      1.0D-11

     0.262 MB (compressed) written to integral file (100.0%)


 NUMBER OF SORTED TWO-ELECTRON INTEGRALS:        150.     BUFFER LENGTH:  32768
 NUMBER OF SEGMENTS:   1  SEGMENT LENGTH:        150      RECORD LENGTH: 524288

 Memory used in sort:       0.56 MW

 SORT1 READ         648. AND WROTE         150. INTEGRALS IN      1 RECORDS. CPU TIME:     0.00 SEC, REAL TIME:     0.00 SEC
 SORT2 READ         150. AND WROTE         150. INTEGRALS IN      1 RECORDS. CPU TIME:     0.00 SEC, REAL TIME:     0.00 SEC

 FILE SIZES:   FILE 1:     2.8 MBYTE,  FILE 4:     4.2 MBYTE,   TOTAL:      7.0 MBYTE

 OPERATOR DM      FOR CENTER  0  COORDINATES:    0.000000    0.000000    0.000000


 **********************************************************************************************************************************
 DATASETS  * FILE   NREC   LENGTH (MB)   RECORD NAMES
              1      19        2.54       500      610      700      900      950      970     1000      129      960     1100   
                                          VAR    BASINP    GEOM    SYMINP    ZMAT    AOBASIS   BASIS     P2S    ABASIS      S 
                                         1400     1410     1200     1210     1080     1600     1650     1300     1700   
                                           T        V       H0       H01     AOSYM     SMH    MOLCAS    ERIS     OPER   

 PROGRAMS   *        TOTAL       INT
 CPU TIMES  *         0.52      0.08
 REAL TIME  *         0.62 SEC
 DISK USED  *         7.47 MB      
 **********************************************************************************************************************************

1PROGRAM * RHF-SCF (CLOSED SHELL)       Authors: W. Meyer, H.-J. Werner


 NUMBER OF ELECTRONS:       1+    1-
 CONVERGENCE THRESHOLDS:    1.00E-06 (Density)    1.00E-07 (Energy)
 MAX. NUMBER OF ITERATIONS:       60
 INTERPOLATION TYPE:            DIIS
 INTERPOLATION STEPS:              2 (START)      1 (STEP)
 LEVEL SHIFTS:                  0.00 (CLOSED)  0.00 (OPEN) 



 Orbital guess generated from atomic densities. Full valence occupancy:    1   0   0   0   1   0   0   0


 Molecular orbital dump at record        2100.2

 Initial alpha occupancy:   1   0   0   0   0
 Initial beta  occupancy:   1   0   0   0   0
 Wave function symmetry:    1

 ITERATION    DDIFF          GRAD             ENERGY        2-EL.EN.            DIPOLE MOMENTS         DIIS
    1      0.000D+00      0.000D+00        -1.12558526      1.263418    0.00000    0.00000    0.00000    0
    2      0.000D+00      0.143D-01        -1.12681110      1.291268    0.00000    0.00000    0.00000    1
    3      0.109D-01      0.232D-02        -1.12685529      1.296880    0.00000    0.00000    0.00000    2
    4      0.210D-02      0.201D-03        -1.12685574      1.297172    0.00000    0.00000    0.00000    3
    5      0.319D-03      0.227D-05        -1.12685574      1.297166    0.00000    0.00000    0.00000    4
    6      0.213D-05      0.179D-08        -1.12685574      1.297166    0.00000    0.00000    0.00000    3
    7      0.167D-08      0.690D-14        -1.12685574      1.297166    0.00000    0.00000    0.00000    0

 Final occupancy:   1   0   0   0   0

 !RHF STATE 1.1 Energy                 -1.126855740467
 Nuclear energy                         0.71510434
 One-electron energy                   -2.49054317
 Two-electron energy                    0.64858309
 Virial quotient                       -1.00362112
 !RHF STATE 1.1 Dipole moment           0.00000000     0.00000000     0.00000000
 Dipole moment /Debye                   0.00000000     0.00000000     0.00000000

 Orbital energies:

         1.1          2.1          3.1
     -0.596688     0.088711     0.946051

         1.5          2.5
      0.075270     0.303817


 **********************************************************************************************************************************
 DATASETS  * FILE   NREC   LENGTH (MB)   RECORD NAMES
              1      19        2.54       500      610      700      900      950      970     1000      129      960     1100   
                                          VAR    BASINP    GEOM    SYMINP    ZMAT    AOBASIS   BASIS     P2S    ABASIS      S 
                                         1400     1410     1200     1210     1080     1600     1650     1300     1700   
                                           T        V       H0       H01     AOSYM     SMH    MOLCAS    ERIS     OPER   

              2       3        0.26       700     1000     2100   
                                         GEOM     BASIS     RHF  

 PROGRAMS   *        TOTAL        HF       INT
 CPU TIMES  *         0.56      0.03      0.08
 REAL TIME  *         0.66 SEC
 DISK USED  *         7.47 MB      
 **********************************************************************************************************************************


 PROGRAM * OPT (Geometry optimization)     Authors: F. Eckert and H.-J. Werner


 BFGS update of hessian

 *** Long output written to logfile /home/ospite/Desktop/MMfP/Project6/H2/molpro/HF/h2_++.log ***


 Geometry optimization using default procedure for command HF-SCF

 Geometry written to block  1 of record 700

 Making model hessian for Z-matrix coordinates

 Quadratic Steepest Descent - Minimum Search

 Optimization point 1

 Variable                      Last           Current        Next           Gradient       Hessian

 E(HF-SCF000) / Hartree      0.00000000    -1.12685574     0.00000000
 D / ANG                     0.00000000     0.74000000     0.73017194     0.01382644     1.40683292
 Convergence:                0.00000000  (line search)     0.01857234     0.00731664  (total)

 Optimization point 2

 Variable                      Last           Current        Next           Gradient       Hessian

 E(HF-SCF000) / Hartree     -1.12685574    -1.12692381     0.00000000
 D / ANG                     0.74000000     0.73017194     0.73025902    -0.00012360     1.41940885
 Convergence:                0.00000000  (line search)     0.00016455     0.00006540  (total)

 END OF GEOMETRY OPTIMIZATION.    TOTAL CPU:         2.3 SEC

 ITER.   ENERGY(OLD)    ENERGY(NEW)      DE          GRADMAX     GRADNORM    GRADRMS     STEPMAX     STEPLEN     STEPRMS
   1    -1.12685574    -1.12692381    -0.00006807  0.00731664  0.00731664  0.00731664  0.01857234  0.01857234  0.01857234
   2    -1.12692381    -1.12692381    -0.00000001  0.00006540  0.00006540  0.00006540  0.00016455  0.00016455  0.00016455

 Geometry written to block  1 of record 700


 **********************************************************************************************************************************
 DATASETS  * FILE   NREC   LENGTH (MB)   RECORD NAMES
              1      19        2.54       500      610      700      900      950      970     1000      129      960     1100   
                                          VAR    BASINP    GEOM    SYMINP    ZMAT    AOBASIS   BASIS     P2S    ABASIS      S 
                                         1400     1410     1200     1210     1080     1600     1650     1300     1700   
                                           T        V       H0       H01     AOSYM     SMH    MOLCAS    ERIS     OPER   

              2       3        0.26       700     1000     2100   
                                         GEOM     BASIS     RHF  

 PROGRAMS   *        TOTAL      OPTG        HF       INT
 CPU TIMES  *         2.86      2.31      0.03      0.08
 REAL TIME  *         3.34 SEC
 DISK USED  *         7.50 MB      
 **********************************************************************************************************************************


 PROGRAM * HESSIAN

 Computing numerical hessian using default procedure for command HF-SCF

 Symmetry elements for unique displacements: X  Y  Z  

 Using no symmetry in wavefunction calculations

 Running default procedure: HF-SCF000


 Numerically approximating hessian using central gradient differences

 Task list generated. Total number of displacements:      4


 Numerical HF-SCF000 hessian completed. CPU-time:     4.50 sec, Elapsed:     4.58 sec

 HF-SCF hessian saved to record  5300.2

 FREQUENCIES * CALCULATION OF HARMONIC VIBRATIONAL SPECTRA FOR HF-SCF


 Permanent Dipole Moment [debye]
   1-  3    0.000000    0.000000    0.000000

 Dipole Moment Norm    0.0000000 [debye]

 Dipole Moment Derivatives [debye/ang]
                   1             2             3             4             5             6
         1     0.0000000     0.0000000     0.0000000     0.0000000     0.0000000    -0.0000000
         2     0.0000000     0.0000000     0.0000000     0.0000000     0.0000000    -0.0000000
         3     0.0000000     0.0000000     0.0000002    -0.0000000    -0.0000000     0.0000002

 Projecting out rotations and translations

   Low Vibration      Wavenumber
        Nr             [1/cm] 
        1                0.00
        2                0.00
        3                0.00
        4                0.00
        5                0.00

     Vibration        Wavenumber
        Nr             [1/cm] 
        1             4637.52

 FREQUENCIES * CALCULATION OF NORMAL MODES FOR HF-SCF


 Atomic Coordinates

  Nr  Atom  Charge       X              Y              Z

   1   H1    1.00    0.000000000    0.000000000   -0.689994773
   2   H2    1.00    0.000000000    0.000000000    0.689994773

 Frequencies dumped to record   5400.2

 Gradient norm at reference geometry: 0.12360D-03

 Normal Modes

                              1 Ag 
 Wavenumbers [cm-1]         4637.52
 Intensities [km/mol]          0.00
 Intensities [relative]        0.00
           H1X1            -0.00000
           H1Y1            -0.00000
           H1Z1             0.70432
           H2X2            -0.00000
           H2Y2            -0.00000
           H2Z2            -0.70432


 Normal Modes of low/zero frequencies

                                  1           2           3           4           5
 Wavenumbers [cm-1]            0.00        0.00        0.00        0.00        0.00
 Intensities [km/mol]          0.00        0.00        0.00        0.00        0.00
 Intensities [relative]        0.00        0.00        0.00        0.00        0.00
           H1X1             0.00000     0.70432     0.00000    -0.00000     0.70432
           H1Y1             0.84729     0.00000     0.00000    -0.52366    -0.00000
           H1Z1             0.00000    -0.00000     0.70432    -0.00000     0.00000
           H2X2             0.00000     0.70432    -0.00000    -0.00000    -0.70432
           H2Y2             0.52366    -0.00000    -0.00000     0.84729     0.00000
           H2Z2            -0.00000    -0.00000     0.70432    -0.00000     0.00000


 Zero point energy:  0.01056504 [H]     2318.76 [1/CM]       27.74 [KJ/MOL]
 Frequency information read from record  5400.2

 Dump information in style MOLDEN to ch4_6-31++g.molpro                                                              

 Molecular orbitals read from record     2100.2  Type=RHF/CANONICAL (state 1.1)
 Occupation numbers read from record     2100.2  Type=RHF/RHF (state 1.1)
 Orbital energies read from record       2100.2  Type=RHF/CANONICAL (state 1.1)
 Redundancy group numbers read from rec  2100.2  Type=RHF/RHF (state 1.1)

 DUMP ORBITAL  1.1 AS ORBITAL    1  occ=    2.0000  eig=   -0.5996  GROUP=   2

 Total charge:       2.000000
 Frequency information read from record  5400.2

 **********************************************************************************************************************************

        OPTG(HF)        HF-SCF  
     -1.12692381     -1.12685574
 **********************************************************************************************************************************
 Variable memory released
