[Molden Format]
[Molpro variables]
_NUMVAR=  673.0000000000000    
_EV2006= 0.3674930886769165E-01
_EV= 0.3674932534394180E-01
_KJOULE= 0.3808798324128737E-03
_KJOULE/MOL= 0.3808798324128737E-03
_CM= 0.4556335267302901E-05
_CM-1= 0.4556335267302901E-05
_KCAL= 0.1593601117815568E-02
_KCAL/MOL= 0.1593601117815568E-02
_KELVIN2006= 0.3166828861084835E-05
_KELVIN= 0.3166814820820034E-05
_HERTZ2006= 0.1519829850815779E-15
_HERTZ= 0.1519829846011223E-15
_HZ2006= 0.1519829850815779E-15
_HZ= 0.1519829846011223E-15
_TOA2006= 0.5291772490000000    
_TOA= 0.5291772090000000    
_TOANG2006= 0.5291772490000000    
_TOANG= 0.5291772090000000    
_TORAD= 0.1745329251994330E-01
_TOCM=  219474.6306700000    
_TODEBYE=  2.541580000000000    
_TOEV2006=  27.21139610000000    
_TOEV=  27.21138390000000    
_TOHERTZ2006=  6579683899900000.    
_TOHERTZ=  6579683920700000.    
_TOHZ2006=  6579683899900000.    
_TOHZ=  6579683920700000.    
_TOK2006=  315773.3000000000    
_TOK=  315774.7000000000    
_TOKCAL=  627.5096000000000    
_TOKELVIN2006=  315773.3000000000    
_TOKELVIN=  315774.7000000000    
_TOKJ=  2625.500000000000    
_TOKJOULE=  2625.500000000000    
_ANG2006=  1.889725988578923    
_ANG=  1.889726131421507    
_ANGSTROM2006=  1.889725988578923    
_ANGSTROM=  1.889726131421507    
_IGNORE_UNDEF=  2.000000000000000    
_STRICTCHECK=  0.000000000000000    
_SEW_ONEEL=  0.000000000000000    
_CPPDONE=FALSE
_DKROLL_DONE=  0.000000000000000    
_FOCKDONE=TRUE
_GRADONE=FALSE
_HESSDONE=TRUE
_INTDONE=TRUE
_SCFDONE=TRUE
_MODUL_CUDA=FALSE
_MODUL_SLATER=FALSE
_MODUL_MRCC=FALSE
_MRCC_EXEC=
_FITC_AO_SAVED=FALSE
_FITC_MO_SAVED=FALSE
_SHARED_FS=TRUE
_LSTYP=SEWARD
_INTYP=INTS
_GEOMTYP=ZMAT
_GRADTYP=ALASKA
_DIRECT=FALSE
_SYNCM=  0.000000000000000    
_DFTNAME=B3LYP3
_DFTFUNC=B88
_BASIS=AUG-CC-PVDZ
_ZSYMEL=
_ZORIENT=  1.000000000000000    
_NELEC=  2.000000000000000    
!SPIN=  0.000000000000000    
_OPTCONV= 0.6478420804493135E-03
_QSDSTEP=  0.000000000000000    
_QSDIRC=  0.000000000000000    
_PROGRAM=FREQ
_CPUSTEP=  0.000000000000000    
_SYSSTEP=  0.000000000000000    
_WALLSTEP= 0.1000000000000000E-01
!DFSCF=  0.000000000000000    
!SCSGRD=  0.000000000000000    
_BASINP=  610.0000000000000    
_CPUTOT=  10.88000000000000    
_CPUSORT= 0.5000000000000071E-01
_SYSSORT= 0.1000000000000001E-01
_WALLSORT= 0.8999999985098839E-01
_DFTEXFAC= 0.2000000000000000    
_DFTFAC= 0.7200000000000000    
_DFTFUN=-0.5660306336767227    
_DFTFUNS=-0.6468586417103501    
_DMX=-0.3631169308667523E-16
_DMY=-0.8274444132789150E-17
_DMZ= 0.1583530398821531E-12
_FREQUENCIES= 0.6660950622642824E-14
_ENERGY= -1.174026304357776    
_ENUC= 0.6955477036279912    
_FREQSTEP=  5.000000000000000    
_GRADENERG= -1.174008564175257    
_GRADEXFAC= 0.2000000000000000    
_GRADMETHOD=  1.000000000000000    
_VIRIAL= 0.5131704040419042E-02
_GRID=  1800.200000000000    
!GRID_FREEZE= -1.000000000000000    
_GRID_SPARSITY=  0.000000000000000    
_GRID_RMAX=  6.423860239915037    
_ITERATIONS=  2.000000000000000    
_LASTNELEC=  2.000000000000000    
_LASTSPIN=  0.000000000000000    
_LASTSYM=  1.000000000000000    
_MPP_PROG=  0.000000000000000    
_NGRID=  4244.000000000000    
_NPROC_MPP=  1.000000000000000    
_NPROC_SMP=  1.000000000000000    
_NUMSTEP=  0.000000000000000    
_OPTCONVMX= 0.6478420804493135E-03
_OPTCONVRMS= 0.6478420804493135E-03
_OPTGRAD= 0.2510143625805983E-03
_OPTGRADMX= 0.2510143625805983E-03
_OPTGRADRMS= 0.2510143625805983E-03
_OPTSTEP=  2.000000000000000    
_ORBITAL=  2101.200000000000    
_PI=  3.141592653589793    
_SEIG_MIN= 0.3022816142855868E-03
_SEWPROP=TRUE
_STATUS=  1.000000000000000    
_SYSTOT= 0.7300000000000000    
_VERSION=  2010001.000000000    
_WALLTOT=  14.04000000000000    
_ZPE= 0.9926116263952310E-02
_DATE=18-Aug-24
_LASTORB=RKS
_MACHINE=Linux-3.10.0-1160.108.1.el7.x86_64/molmod(x86_64) 64 bit serial version
_OUTPUT=/home/ospite/Desktop/MMfP/Project6/H2/molpro/DFT/B3LYP/h2_aug-ccpVDZ.xml
_PGROUP=C1
_TIME=15:27:44
_LIBMOL=/usr/local/molpro/molpros_2010_1_Linux_x86_64_i8/lib/
!SURFREC=  0.000000000000000    
!POLYREC=  0.000000000000000    
!DIPREC=  0.000000000000000    
!VSCFREC=  0.000000000000000    
!VCIREC=  0.000000000000000    
!PVCIREC=  0.000000000000000    
!VMP2REC=  0.000000000000000    
!VMCSCFREC=  0.000000000000000    
!GAREC=  0.000000000000000    
!SCFORB=  21002.00000000000    
!NEWMOL=  0.000000000000000    
!NEWSYM=  0.000000000000000    
_SLFILES=slscratch
_NGSSTO=  9.000000000000000    
_SIN=SIN
_COS=COS
_TAN=TAN
_ACOS=ACOS
_ASIN=ASIN
_ATAN=ATAN
_COSH=COSH
_SINH=SINH
_TANH=TANH
_ABS=ABS
_MOD=MOD
_ERF=ERF
_REFC=REFC
_ERFC=ERFC
_HYPOT=HYPOT
_J0=J0
_J1=J1
_JN=JN
_GAMMA=GAMMA
_LGAMMA=LGAMMA
_Y0=Y0
_Y1=Y1
_YN=YN
_EXP=EXP
_LOG=LOG
_LOG10=LOG10
_SQRT=SQRT
_INT=INT
_NINT=NINT
_MAX=MAX
_MIN=MIN
_COSMO=  0.000000000000000    
_COSMOIT=  0.000000000000000    
_COSMOES=  0.000000000000000    
_COSMOEDS=  0.000000000000000    
_COSMOEC=  0.000000000000000    
_COSMOEDCORR=  0.000000000000000    
_FEPSI=  1.000000000000000    
_SL_IsMM=  0.000000000000000    
_SL_NSYM=  0.000000000000000    
_SL_System_BitSw=  0.000000000000000    
_SL_Unique_atoms=  0.000000000000000    
_SL_GRAD=  0.000000000000000    
_SL_MAXUPD_Hess=  5.000000000000000    
_SL_N_PRINT_COD=  5.000000000000000    
_SL_PRINT_CODES=  0.000000000000000    
_SL_BasType=  0.000000000000000    
_SL_Energy_Pred=  0.000000000000000    
_SL_New_Coords=  0.000000000000000    
_SL_Total_Nuclea=  0.000000000000000    
_SL_Highest_Mltp=  0.000000000000000    
_SL_Ref_Geom=  0.000000000000000    
!LATTICE= -1.000000000000000    
!NEWLATTICE=  0.000000000000000    
!LATGRAD_VAR=FALSE
!SEW_LATTICE=  1.000000000000000    
!LOCAL=  0.000000000000000    
!SAVEOCC=  0.000000000000000    
!SAVEDOM= -1.000000000000000    
!RESTDOM= -1.000000000000000    
!SAVEDOM_HF= -1.000000000000000    
!RESTDOM_HF= -1.000000000000000    
!HESSREC=  5300.200000000000    
!FREQREC=  5400.200000000000    
!NMODREC=  5450.200000000000    
!GTASKS=  0.000000000000000    
!HTASKS=  5500.200000000000    
!THRCHG= 0.1000000000000000    
!DEBUG= -1.000000000000000    
!CFIT_CPHF=  0.000000000000000    
!RDOMAUX_CPHF=  5.000000000000000    
!THRAO_CPHF= 0.9999999999999999E-11
!THRMO_CPHF= 0.9999999999999999E-11
!THROV_CPHF= 0.1000000000000000E-11
!THRSW_CPHF= 0.1000000000000000E-09
!THRPROD_CPHF= 0.9999999999999999E-11
!THRAOPR_CPHF= 0.1000000000000000E-11
!CFIT_SCFGRD=  0.000000000000000    
!RDOMAUX_SCFGRD=  7.000000000000000    
!THRAO_SCFGRD= 0.9999999999999999E-11
!THRMO_SCFGRD= 0.9999999999999999E-11
!THROV_SCFGRD= 0.1000000000000000E-11
!THRSW_SCFGRD= 0.1000000000000000E-09
!THRPROD_SCFGRD= 0.9999999999999999E-11
!THRAOPR_SCFGRD= 0.1000000000000000E-11
!LOCFIT_SCF=  0.000000000000000    
!LOCFIT_MP2= -1.000000000000000    
_RIDOM=  0.000000000000000    
!CC2_METHOD=  0.000000000000000    
_BASIS2006=FALSE
_SVDDEL= -1.000000000000000    
_SVDDELA= -1.000000000000000    
_SVDDELP= -1.000000000000000    
_SVDDELF= -1.000000000000000    
_SVDDELS= -1.000000000000000    
_SVDDEL_ABS= -1.000000000000000    
_SVDDELA_ABS= -1.000000000000000    
_SVDDELP_ABS= -1.000000000000000    
_SVDDELF_ABS= -1.000000000000000    
_SVDDELS_ABS= -1.000000000000000    
_MAXBASIS=  0.000000000000000    
!OPT_CONICAL=  0.000000000000000    
!CLEARSP_JGRID=  0.000000000000000    
D= 0.7608064928398164    
GX1= -0.000000000000000    
GY1= -0.000000000000000    
GZ1=-0.7188579552372751    
GX2= -0.000000000000000    
GY2= -0.000000000000000    
GZ2= 0.7188579552372751    
H1X1=  0.000000000000000    
H1Y1=  0.000000000000000    
H1Z1=-0.7188579552372751    
H2X2=  0.000000000000000    
H2Y2=  0.000000000000000    
H2Z2= 0.7188579552372751    
[Atoms] Angs
H     1    1         0.0000000000        0.0000000000       -0.3804032464
H     2    1         0.0000000000        0.0000000000        0.3804032464
[GTO]
  1 0
 s    4  1.00
  0.1301000000D+02  0.1968498999D-01
  0.1962000000D+01  0.1379769298D+00
  0.4446000000D+00  0.4781477569D+00
  0.1220000000D+00  0.5012397451D+00
 s    4  1.00
  0.1301000000D+02  0.0000000000D+00
  0.1962000000D+01  0.0000000000D+00
  0.4446000000D+00  0.0000000000D+00
  0.1220000000D+00  0.1000000000D+01
 s    1  1.00
  0.2974000000D-01  0.1000000000D+01
 p    1  1.00
  0.7270000000D+00  0.1000000000D+01
 p    1  1.00
  0.1410000000D+00  0.1000000000D+01
  
  2 0
 s    4  1.00
  0.1301000000D+02  0.1968498999D-01
  0.1962000000D+01  0.1379769298D+00
  0.4446000000D+00  0.4781477569D+00
  0.1220000000D+00  0.5012397451D+00
 s    4  1.00
  0.1301000000D+02  0.0000000000D+00
  0.1962000000D+01  0.0000000000D+00
  0.4446000000D+00  0.0000000000D+00
  0.1220000000D+00  0.1000000000D+01
 s    1  1.00
  0.2974000000D-01  0.1000000000D+01
 p    1  1.00
  0.7270000000D+00  0.1000000000D+01
 p    1  1.00
  0.1410000000D+00  0.1000000000D+01


[MO]
 Sym=      1.1
 Ene=      -0.4280
 Spin= Alpha
 Occup=    2.000000
1 0.69833784256929
2 -0.18430491695009
3 0.013441950958375
4 -0.000000000000000
5 0.000000000000000
6 0.018489530767561
7 -0.000000000000000
8 -0.000000000000000
9 -0.009305296312609
10 0.69833784256915
11 -0.18430491694990
12 0.013441950958443
13 -0.000000000000000
14 -0.000000000000000
15 -0.018489530767571
16 0.000000000000000
17 0.000000000000000
18 0.009305296312574
 Sym=      2.1
 Ene=       0.0151
 Spin= Alpha
 Occup=    0.000000
1 0.21594670321658
2 -0.38215669979916
3 3.32311080014593
4 -0.000000000000000
5 -0.000000000000000
6 -0.014462696395811
7 0.000000000000001
8 0.000000000000000
9 -0.20062835251884
10 -0.21594670321640
11 0.38215669979931
12 -3.32311080014654
13 0.000000000000000
14 0.000000000000000
15 -0.014462696395825
16 -0.000000000000001
17 -0.000000000000000
18 -0.20062835251886
 Sym=      3.1
 Ene=       0.0256
 Spin= Alpha
 Occup=    0.000000
1 -0.19361667758234
2 -0.17942688522464
3 0.65679610168827
4 -0.000000000000000
5 -0.000000000000000
6 -0.012994299120078
7 0.000000000000001
8 0.000000000000000
9 0.024931288123419
10 -0.19361667758260
11 -0.17942688522883
12 0.65679610168602
13 0.000000000000000
14 0.000000000000000
15 0.012994299120032
16 -0.000000000000001
17 -0.000000000000001
18 -0.024931288122461
 Sym=      4.1
 Ene=       0.1304
 Spin= Alpha
 Occup=    0.000000
1 -0.38235612293003
2 -6.99974010644004
3 4.02878367423139
4 0.000000000000000
5 -0.000000000000000
6 0.044213700220637
7 -0.000000000000002
8 -0.000000000000001
9 -1.37924964171642
10 0.38235612293006
11 6.99974010644006
12 -4.02878367423132
13 -0.000000000000000
14 0.000000000000000
15 0.044213700220643
16 -0.000000000000001
17 -0.000000000000000
18 -1.37924964171627
 Sym=      5.1
 Ene=       0.1678
 Spin= Alpha
 Occup=    0.000000
1 -0.000000000000002
2 0.000000000000017
3 0.000000000000007
4 0.007228192588229
5 -0.001601261919572
6 -0.000000000000000
7 0.50234413385436
8 -0.11128432484923
9 0.000000000000006
10 0.000000000000001
11 -0.000000000000017
12 -0.000000000000007
13 0.007228192588233
14 -0.001601261919573
15 -0.000000000000000
16 0.50234413385449
17 -0.11128432484926
18 0.000000000000005
 Sym=      6.1
 Ene=       0.1678
 Spin= Alpha
 Occup=    0.000000
1 -0.000000000000001
2 -0.000000000000002
3 0.000000000000006
4 0.001601261919572
5 0.007228192588229
6 0.000000000000000
7 0.11128432484924
8 0.50234413385436
9 0.000000000000001
10 0.000000000000001
11 0.000000000000001
12 -0.000000000000005
13 0.001601261919573
14 0.007228192588233
15 0.000000000000000
16 0.11128432484926
17 0.50234413385449
18 -0.000000000000001
 Sym=      7.1
 Ene=       0.3134
 Spin= Alpha
 Occup=    0.000000
1 0.35950222241837
2 -1.04666733004670
3 0.42421832856705
4 0.000000000000000
5 0.000000000000000
6 -0.000010604401849
7 -0.000000000000006
8 -0.000000000000011
9 1.21710474964200
10 0.35950222241864
11 -1.04666733005899
12 0.42421832856785
13 -0.000000000000000
14 -0.000000000000000
15 0.000010604401797
16 0.000000000000006
17 0.000000000000010
18 -1.21710474963875
 Sym=      8.1
 Ene=       0.3555
 Spin= Alpha
 Occup=    0.000000
1 0.000000000000002
2 -0.000000000000147
3 0.000000000000011
4 0.000553090513423
5 0.025674059320651
6 0.000000000000000
7 -0.041757506327417
8 -1.93835306973181
9 -0.000000000000047
10 -0.000000000000003
11 0.000000000000155
12 -0.000000000000014
13 -0.000553090513423
14 -0.025674059320650
15 0.000000000000000
16 0.041757506327417
17 1.93835306973177
18 -0.000000000000032
 Sym=      9.1
 Ene=       0.3555
 Spin= Alpha
 Occup=    0.000000
1 -0.000000000000007
2 0.000000000000411
3 -0.000000000000035
4 -0.025674059320650
5 0.000553090513423
6 -0.000000000000001
7 1.93835306973181
8 -0.041757506327417
9 0.000000000000113
10 0.000000000000003
11 -0.000000000000411
12 0.000000000000036
13 0.025674059320649
14 -0.000553090513422
15 -0.000000000000001
16 -1.93835306973177
17 0.041757506327416
18 0.000000000000103
 Sym=     10.1
 Ene=       0.4509
 Spin= Alpha
 Occup=    0.000000
1 -0.51883410052199
2 30.0447524683177
3 -2.70251837866644
4 -0.000000000000002
5 0.000000000000000
6 -0.032955094996383
7 -0.000000000000024
8 -0.000000000000009
9 7.77504323233513
10 0.51883410052207
11 -30.0447524683175
12 2.70251837866624
13 0.000000000000001
14 -0.000000000000001
15 -0.032955094996365
16 0.000000000000023
17 0.000000000000009
18 7.77504323233571
 Sym=     11.1
 Ene=       0.5565
 Spin= Alpha
 Occup=    0.000000
1 1.38175096584534
2 -1.35351971121205
3 0.22138816585979
4 0.000000000000000
5 0.000000000000000
6 0.017210967907822
7 0.000000000000004
8 0.000000000000002
9 -0.92507874879024
10 1.38175096584539
11 -1.35351971120764
12 0.22138816585954
13 -0.000000000000000
14 -0.000000000000000
15 -0.017210967907818
16 -0.000000000000003
17 -0.000000000000001
18 0.92507874878903
 Sym=     12.1
 Ene=       0.9875
 Spin= Alpha
 Occup=    0.000000
1 1.61340149913158
2 21.9139677023393
3 -0.50150131403428
4 -0.000000000000003
5 -0.000000000000000
6 -0.43536425347086
7 -0.000000000000001
8 -0.000000000000000
9 6.67815747880430
10 -1.61340149913157
11 -21.9139677023393
12 0.50150131403425
13 0.000000000000001
14 -0.000000000000001
15 -0.43536425347085
16 0.000000000000002
17 0.000000000000001
18 6.67815747880438
 Sym=     13.1
 Ene=       1.3588
 Spin= Alpha
 Occup=    0.000000
1 0.000000000000003
2 0.000000000000038
3 -0.000000000000002
4 0.58732004959530
5 -0.33160717276425
6 0.000000000000000
7 -0.26755537044764
8 0.15106461973019
9 0.000000000000011
10 -0.000000000000003
11 -0.000000000000039
12 0.000000000000002
13 0.58732004959534
14 -0.33160717276427
15 0.000000000000000
16 -0.26755537044767
17 0.15106461973021
18 0.000000000000011
 Sym=     14.1
 Ene=       1.3588
 Spin= Alpha
 Occup=    0.000000
1 0.000000000000003
2 0.000000000000055
3 -0.000000000000003
4 0.33160717276425
5 0.58732004959530
6 -0.000000000000001
7 -0.15106461973019
8 -0.26755537044764
9 0.000000000000016
10 -0.000000000000002
11 -0.000000000000056
12 0.000000000000003
13 0.33160717276427
14 0.58732004959534
15 -0.000000000000000
16 -0.15106461973021
17 -0.26755537044767
18 0.000000000000016
 Sym=     15.1
 Ene=       1.7920
 Spin= Alpha
 Occup=    0.000000
1 -0.67745256197940
2 0.74037022162808
3 -0.14011139133723
4 -0.000000000000000
5 -0.000000000000000
6 0.75228503405505
7 0.000000000000000
8 0.000000000000000
9 -0.45801413079618
10 -0.67745256197939
11 0.74037022162647
12 -0.14011139133711
13 0.000000000000000
14 0.000000000000000
15 -0.75228503405506
16 -0.000000000000000
17 -0.000000000000000
18 0.45801413079662
 Sym=     16.1
 Ene=       1.9666
 Spin= Alpha
 Occup=    0.000000
1 -0.000000000000004
2 -0.000000000000087
3 0.000000000000006
4 -1.04301156661109
5 0.12641453976339
6 -0.000000000000000
7 0.73214158626312
8 -0.088736639776503
9 -0.000000000000025
10 0.000000000000005
11 0.000000000000086
12 -0.000000000000006
13 1.04301156661106
14 -0.12641453976339
15 -0.000000000000000
16 -0.73214158626311
17 0.088736639776502
18 -0.000000000000024
 Sym=     17.1
 Ene=       1.9666
 Spin= Alpha
 Occup=    0.000000
1 -0.000000000000000
2 0.000000000000001
3 0.000000000000000
4 0.12641453976340
5 1.04301156661109
6 0.000000000000000
7 -0.088736639776503
8 -0.73214158626312
9 0.000000000000000
10 -0.000000000000000
11 0.000000000000000
12 -0.000000000000000
13 -0.12641453976339
14 -1.04301156661106
15 -0.000000000000000
16 0.088736639776501
17 0.73214158626311
18 0.000000000000000
 Sym=     18.1
 Ene=       3.2656
 Spin= Alpha
 Occup=    0.000000
1 4.08442300384689
2 -9.99549629039690
3 0.41006883463832
4 -0.000000000000000
5 0.000000000000000
6 2.10518789823610
7 0.000000000000000
8 -0.000000000000000
9 -2.23293929531154
10 -4.08442300384686
11 9.99549629039685
12 -0.41006883463830
13 0.000000000000000
14 -0.000000000000000
15 2.10518789823610
16 -0.000000000000000
17 0.000000000000000
18 -2.23293929531155
 [FREQ]
      0.00
      0.00
      0.00
      0.00
      0.00
   4357.06
 [FR-COORD]
H          0.0000000000        0.0000000000       -0.7188579552
H          0.0000000000        0.0000000000        0.7188579552
 [FR-NORM-COORD]
 Vibration                    1
          0.00000000          0.84729370          0.00000000
          0.00000000          0.52365631         -0.00000000
 Vibration                    2
          0.70431617          0.00000000         -0.00000000
          0.70431617         -0.00000000         -0.00000000
 Vibration                    3
          0.00000000          0.00000000          0.70431617
         -0.00000000         -0.00000000          0.70431617
 Vibration                    4
         -0.00000000         -0.52365631         -0.00000000
         -0.00000000          0.84729370         -0.00000000
 Vibration                    5
          0.70431617         -0.00000000          0.00000000
         -0.70431617          0.00000000          0.00000000
 Vibration                    6
         -0.00000000         -0.00000000          0.70431617
         -0.00000000         -0.00000000         -0.70431617
