 benzene                                                 
GAUSSIAN             21 MOL ORBITALS    210 PRIMITIVES       12 NUCLEI
  C    1    (CENTRE  1)   0.00000000  2.28503852  1.31912467  CHARGE =  6.0
  C    2    (CENTRE  2)   0.00000000  2.28528138 -1.31942868  CHARGE =  6.0
  H    3    (CENTRE  3)   0.00000000  4.06303083  2.34558134  CHARGE =  1.0
  H    4    (CENTRE  4)   0.00000000  4.06315689 -2.34604325  CHARGE =  1.0
  C    5    (CENTRE  5)   0.00000000 -0.00000000  2.63842648  CHARGE =  6.0
  H    6    (CENTRE  6)   0.00000000 -0.00000000  4.69144516  CHARGE =  1.0
  C    7    (CENTRE  7)  -0.00000000 -2.28503852  1.31912467  CHARGE =  6.0
  H    8    (CENTRE  8)  -0.00000000 -4.06303083  2.34558134  CHARGE =  1.0
  C    9    (CENTRE  9)  -0.00000000 -2.28528138 -1.31942868  CHARGE =  6.0
  H   10    (CENTRE 10)  -0.00000000 -4.06315689 -2.34604325  CHARGE =  1.0
  C   11    (CENTRE 11)   0.00000000 -0.00000000 -2.63777892  CHARGE =  6.0
  H   12    (CENTRE 12)   0.00000000 -0.00000000 -4.69075850  CHARGE =  1.0
CENTRE ASSIGNMENTS    1  1  1  1  1  1  1  1  1  1  1  1  1  1  1  1  1  1  1  1
CENTRE ASSIGNMENTS    1  1  1  1  1  1  1  1  2  2  2  2  2  2  2  2  2  2  2  2
CENTRE ASSIGNMENTS    2  2  2  2  2  2  2  2  2  2  2  2  2  2  2  2  3  3  3  3
CENTRE ASSIGNMENTS    3  3  3  4  4  4  4  4  4  4  5  5  5  5  5  5  5  5  5  5
CENTRE ASSIGNMENTS    5  5  5  5  5  5  5  5  5  5  5  5  5  5  5  5  5  5  6  6
CENTRE ASSIGNMENTS    6  6  6  6  6  7  7  7  7  7  7  7  7  7  7  7  7  7  7  7
CENTRE ASSIGNMENTS    7  7  7  7  7  7  7  7  7  7  7  7  7  8  8  8  8  8  8  8
CENTRE ASSIGNMENTS    9  9  9  9  9  9  9  9  9  9  9  9  9  9  9  9  9  9  9  9
CENTRE ASSIGNMENTS    9  9  9  9  9  9  9  9 10 10 10 10 10 10 10 11 11 11 11 11
CENTRE ASSIGNMENTS   11 11 11 11 11 11 11 11 11 11 11 11 11 11 11 11 11 11 11 11
CENTRE ASSIGNMENTS   11 11 11 12 12 12 12 12 12 12
TYPE ASSIGNMENTS      1  1  1  1  1  1  1  1  1  2  2  2  3  3  3  4  4  4  1  2
TYPE ASSIGNMENTS      3  4  5  6  7  8  9 10  1  1  1  1  1  1  1  1  1  2  2  2
TYPE ASSIGNMENTS      3  3  3  4  4  4  1  2  3  4  5  6  7  8  9 10  1  1  1  1
TYPE ASSIGNMENTS      2  3  4  1  1  1  1  2  3  4  1  1  1  1  1  1  1  1  1  2
TYPE ASSIGNMENTS      2  2  3  3  3  4  4  4  1  2  3  4  5  6  7  8  9 10  1  1
TYPE ASSIGNMENTS      1  1  2  3  4  1  1  1  1  1  1  1  1  1  2  2  2  3  3  3
TYPE ASSIGNMENTS      4  4  4  1  2  3  4  5  6  7  8  9 10  1  1  1  1  2  3  4
TYPE ASSIGNMENTS      1  1  1  1  1  1  1  1  1  2  2  2  3  3  3  4  4  4  1  2
TYPE ASSIGNMENTS      3  4  5  6  7  8  9 10  1  1  1  1  2  3  4  1  1  1  1  1
TYPE ASSIGNMENTS      1  1  1  1  2  2  2  3  3  3  4  4  4  1  2  3  4  5  6  7
TYPE ASSIGNMENTS      8  9 10  1  1  1  1  2  3  4
EXPONENTS  0.3047525D+04 0.4573695D+03 0.1039487D+03 0.2921016D+02 0.9286663D+01
EXPONENTS  0.3163927D+01 0.7868272D+01 0.1881289D+01 0.5442493D+00 0.7868272D+01
EXPONENTS  0.1881289D+01 0.5442493D+00 0.7868272D+01 0.1881289D+01 0.5442493D+00
EXPONENTS  0.7868272D+01 0.1881289D+01 0.5442493D+00 0.1687145D+00 0.1687145D+00
EXPONENTS  0.1687145D+00 0.1687145D+00 0.8000000D+00 0.8000000D+00 0.8000000D+00
EXPONENTS  0.8000000D+00 0.8000000D+00 0.8000000D+00 0.3047525D+04 0.4573695D+03
EXPONENTS  0.1039487D+03 0.2921016D+02 0.9286663D+01 0.3163927D+01 0.7868272D+01
EXPONENTS  0.1881289D+01 0.5442493D+00 0.7868272D+01 0.1881289D+01 0.5442493D+00
EXPONENTS  0.7868272D+01 0.1881289D+01 0.5442493D+00 0.7868272D+01 0.1881289D+01
EXPONENTS  0.5442493D+00 0.1687145D+00 0.1687145D+00 0.1687145D+00 0.1687145D+00
EXPONENTS  0.8000000D+00 0.8000000D+00 0.8000000D+00 0.8000000D+00 0.8000000D+00
EXPONENTS  0.8000000D+00 0.1873114D+02 0.2825394D+01 0.6401217D+00 0.1612778D+00
EXPONENTS  0.1100000D+01 0.1100000D+01 0.1100000D+01 0.1873114D+02 0.2825394D+01
EXPONENTS  0.6401217D+00 0.1612778D+00 0.1100000D+01 0.1100000D+01 0.1100000D+01
EXPONENTS  0.3047525D+04 0.4573695D+03 0.1039487D+03 0.2921016D+02 0.9286663D+01
EXPONENTS  0.3163927D+01 0.7868272D+01 0.1881289D+01 0.5442493D+00 0.7868272D+01
EXPONENTS  0.1881289D+01 0.5442493D+00 0.7868272D+01 0.1881289D+01 0.5442493D+00
EXPONENTS  0.7868272D+01 0.1881289D+01 0.5442493D+00 0.1687145D+00 0.1687145D+00
EXPONENTS  0.1687145D+00 0.1687145D+00 0.8000000D+00 0.8000000D+00 0.8000000D+00
EXPONENTS  0.8000000D+00 0.8000000D+00 0.8000000D+00 0.1873114D+02 0.2825394D+01
EXPONENTS  0.6401217D+00 0.1612778D+00 0.1100000D+01 0.1100000D+01 0.1100000D+01
EXPONENTS  0.3047525D+04 0.4573695D+03 0.1039487D+03 0.2921016D+02 0.9286663D+01
EXPONENTS  0.3163927D+01 0.7868272D+01 0.1881289D+01 0.5442493D+00 0.7868272D+01
EXPONENTS  0.1881289D+01 0.5442493D+00 0.7868272D+01 0.1881289D+01 0.5442493D+00
EXPONENTS  0.7868272D+01 0.1881289D+01 0.5442493D+00 0.1687145D+00 0.1687145D+00
EXPONENTS  0.1687145D+00 0.1687145D+00 0.8000000D+00 0.8000000D+00 0.8000000D+00
EXPONENTS  0.8000000D+00 0.8000000D+00 0.8000000D+00 0.1873114D+02 0.2825394D+01
EXPONENTS  0.6401217D+00 0.1612778D+00 0.1100000D+01 0.1100000D+01 0.1100000D+01
EXPONENTS  0.3047525D+04 0.4573695D+03 0.1039487D+03 0.2921016D+02 0.9286663D+01
EXPONENTS  0.3163927D+01 0.7868272D+01 0.1881289D+01 0.5442493D+00 0.7868272D+01
EXPONENTS  0.1881289D+01 0.5442493D+00 0.7868272D+01 0.1881289D+01 0.5442493D+00
EXPONENTS  0.7868272D+01 0.1881289D+01 0.5442493D+00 0.1687145D+00 0.1687145D+00
EXPONENTS  0.1687145D+00 0.1687145D+00 0.8000000D+00 0.8000000D+00 0.8000000D+00
EXPONENTS  0.8000000D+00 0.8000000D+00 0.8000000D+00 0.1873114D+02 0.2825394D+01
EXPONENTS  0.6401217D+00 0.1612778D+00 0.1100000D+01 0.1100000D+01 0.1100000D+01
EXPONENTS  0.3047525D+04 0.4573695D+03 0.1039487D+03 0.2921016D+02 0.9286663D+01
EXPONENTS  0.3163927D+01 0.7868272D+01 0.1881289D+01 0.5442493D+00 0.7868272D+01
EXPONENTS  0.1881289D+01 0.5442493D+00 0.7868272D+01 0.1881289D+01 0.5442493D+00
EXPONENTS  0.7868272D+01 0.1881289D+01 0.5442493D+00 0.1687145D+00 0.1687145D+00
EXPONENTS  0.1687145D+00 0.1687145D+00 0.8000000D+00 0.8000000D+00 0.8000000D+00
EXPONENTS  0.8000000D+00 0.8000000D+00 0.8000000D+00 0.1873114D+02 0.2825394D+01
EXPONENTS  0.6401217D+00 0.1612778D+00 0.1100000D+01 0.1100000D+01 0.1100000D+01
MO    1     MO 0.0        OCC NO =    2.0000000  ORB. ENERGY =  -10.187980
  0.22410276D+00  0.41342583D+00  0.66739748D+00  0.86875321D+00  0.74130869D+00
  0.25595608D+00 -0.81390944D-02 -0.37513012D-02  0.10519040D-01  0.00000000D+00
  0.00000000D+00  0.00000000D+00  0.15992430D-03  0.12261981D-03  0.61195881D-04
  0.78363216D-04  0.60083943D-04  0.29986099D-04 -0.49859732D-03  0.00000000D+00
 -0.49976123D-04 -0.20932194D-04 -0.46603531D-02 -0.45233778D-02 -0.45864580D-02
  0.00000000D+00  0.00000000D+00  0.11234901D-03  0.21226751D+00  0.39159210D+00
  0.63215107D+00  0.82287286D+00  0.70215891D+00  0.24243860D+00 -0.77038613D-02
 -0.35507026D-02  0.99565409D-02  0.00000000D+00  0.00000000D+00  0.00000000D+00
  0.14536283D-03  0.11145500D-03  0.55623854D-04 -0.10208969D-03 -0.78275900D-04
 -0.39065160D-04 -0.46980821D-03  0.00000000D+00 -0.39040585D-04  0.33725677D-04
 -0.44202896D-02 -0.42841552D-02 -0.43504893D-02  0.00000000D+00  0.00000000D+00
 -0.10515511D-03 -0.45176670D-04 -0.76628183D-04 -0.87238478D-04  0.16478969D-03
  0.00000000D+00  0.49832133D-04  0.29934360D-04 -0.42957051D-04 -0.72863288D-04
 -0.82952278D-04  0.15746378D-03  0.00000000D+00  0.45196973D-04 -0.25718265D-04
  0.22798970D+00  0.42059648D+00  0.67897312D+00  0.88382126D+00  0.75416629D+00
  0.26039549D+00 -0.82822686D-02 -0.38172900D-02  0.10704080D-01  0.00000000D+00
  0.00000000D+00  0.00000000D+00  0.00000000D+00  0.00000000D+00  0.00000000D+00
  0.17918224D-03  0.13738558D-03  0.68565032D-04 -0.51376754D-03  0.00000000D+00
  0.00000000D+00 -0.50865955D-04 -0.47388998D-02 -0.47013235D-02 -0.45692020D-02
  0.00000000D+00  0.00000000D+00  0.00000000D+00 -0.46129261D-04 -0.78243957D-04
 -0.89077980D-04  0.16603011D-03  0.00000000D+00  0.00000000D+00  0.59239375D-04
  0.22410276D+00  0.41342583D+00  0.66739748D+00  0.86875321D+00  0.74130869D+00
  0.25595608D+00 -0.81390944D-02 -0.37513012D-02  0.10519040D-01  0.00000000D+00
  0.00000000D+00  0.00000000D+00 -0.15992430D-03 -0.12261981D-03 -0.61195881D-04
  0.78363216D-04  0.60083943D-04  0.29986099D-04 -0.49859732D-03  0.00000000D+00
  0.49976123D-04 -0.20932194D-04 -0.46603531D-02 -0.45233778D-02 -0.45864580D-02
  0.00000000D+00  0.00000000D+00 -0.11234901D-03 -0.45176670D-04 -0.76628183D-04
 -0.87238478D-04  0.16478969D-03  0.00000000D+00 -0.49832133D-04  0.29934360D-04
  0.21226751D+00  0.39159210D+00  0.63215107D+00  0.82287286D+00  0.70215891D+00
  0.24243860D+00 -0.77038613D-02 -0.35507026D-02  0.99565409D-02  0.00000000D+00
  0.00000000D+00  0.00000000D+00 -0.14536283D-03 -0.11145500D-03 -0.55623854D-04
 -0.10208969D-03 -0.78275900D-04 -0.39065160D-04 -0.46980821D-03  0.00000000D+00
  0.39040585D-04  0.33725677D-04 -0.44202896D-02 -0.42841552D-02 -0.43504893D-02
  0.00000000D+00  0.00000000D+00  0.10515511D-03 -0.42957051D-04 -0.72863288D-04
 -0.82952278D-04  0.15746378D-03  0.00000000D+00 -0.45196973D-04 -0.25718265D-04
  0.20188338D+00  0.37243541D+00  0.60122623D+00  0.78261791D+00  0.66780928D+00
  0.23057850D+00 -0.73171202D-02 -0.33724540D-02  0.94567131D-02  0.00000000D+00
  0.00000000D+00  0.00000000D+00  0.00000000D+00  0.00000000D+00  0.00000000D+00
 -0.18009138D-03 -0.13808265D-03 -0.68912918D-04 -0.40846834D-03  0.00000000D+00
  0.00000000D+00  0.62301866D-04 -0.42140554D-02 -0.41789795D-02 -0.40567343D-02
  0.00000000D+00  0.00000000D+00  0.00000000D+00 -0.40569929D-04 -0.68814278D-04
 -0.78342623D-04  0.15448649D-03  0.00000000D+00  0.00000000D+00 -0.43737252D-04
MO    2     MO 0.0        OCC NO =    2.0000000  ORB. ENERGY =  -10.187719
  0.26891855D+00  0.49610221D+00  0.80086279D+00  0.10424854D+01  0.88955467D+00
  0.30714185D+00 -0.99290133D-02 -0.45762731D-02  0.12832348D-01  0.00000000D+00
  0.00000000D+00  0.00000000D+00 -0.10004721D-03 -0.76709852D-04 -0.38283592D-04
  0.16499210D-03  0.12650548D-03  0.63135100D-04 -0.95930984D-03  0.00000000D+00
  0.11108322D-03 -0.68153037D-04 -0.54232467D-02 -0.53059634D-02 -0.53907886D-02
  0.00000000D+00  0.00000000D+00  0.63475196D-04  0.26343498D+00  0.48598610D+00
  0.78453226D+00  0.10212279D+01  0.87141561D+00  0.30087887D+00 -0.97236402D-02
 -0.44816169D-02  0.12566922D-01  0.00000000D+00  0.00000000D+00  0.00000000D+00
 -0.97850021D-04 -0.75025189D-04 -0.37442828D-04 -0.16993416D-03 -0.13029474D-03
 -0.65026206D-04 -0.92092416D-03  0.00000000D+00  0.10608227D-03  0.73725592D-04
 -0.53154696D-02 -0.52038398D-02 -0.52920995D-02  0.00000000D+00  0.00000000D+00
 -0.63745553D-04 -0.54973204D-04 -0.93244958D-04 -0.10615609D-03  0.13332507D-03
  0.00000000D+00  0.13781119D-03  0.67764385D-04 -0.53826561D-04 -0.91300035D-04
 -0.10394186D-03  0.13174077D-03  0.00000000D+00  0.13262646D-03 -0.65395754D-04
  0.00000000D+00  0.00000000D+00  0.00000000D+00  0.00000000D+00  0.00000000D+00
  0.00000000D+00 -0.00000000D+00 -0.00000000D+00  0.00000000D+00  0.00000000D+00
  0.00000000D+00  0.00000000D+00 -0.39206158D-03 -0.30060795D-03 -0.15002444D-03
  0.00000000D+00  0.00000000D+00  0.00000000D+00  0.00000000D+00  0.00000000D+00
  0.23377132D-03  0.00000000D+00  0.00000000D+00  0.00000000D+00  0.00000000D+00
  0.00000000D+00  0.00000000D+00  0.88882544D-04  0.00000000D+00  0.00000000D+00
  0.00000000D+00  0.00000000D+00  0.00000000D+00  0.19440858D-04  0.00000000D+00
 -0.26891855D+00 -0.49610221D+00 -0.80086279D+00 -0.10424854D+01 -0.88955467D+00
 -0.30714185D+00  0.99290133D-02  0.45762731D-02 -0.12832348D-01  0.00000000D+00
  0.00000000D+00  0.00000000D+00 -0.10004721D-03 -0.76709852D-04 -0.38283592D-04
 -0.16499210D-03 -0.12650548D-03 -0.63135100D-04  0.95930984D-03  0.00000000D+00
  0.11108322D-03  0.68153037D-04  0.54232467D-02  0.53059634D-02  0.53907886D-02
  0.00000000D+00  0.00000000D+00  0.63475196D-04  0.54973204D-04  0.93244958D-04
  0.10615609D-03 -0.13332507D-03  0.00000000D+00  0.13781119D-03 -0.67764385D-04
 -0.26343498D+00 -0.48598610D+00 -0.78453226D+00 -0.10212279D+01 -0.87141561D+00
 -0.30087887D+00  0.97236402D-02  0.44816169D-02 -0.12566922D-01  0.00000000D+00
  0.00000000D+00  0.00000000D+00 -0.97850021D-04 -0.75025189D-04 -0.37442828D-04
  0.16993416D-03  0.13029474D-03  0.65026206D-04  0.92092416D-03  0.00000000D+00
  0.10608227D-03 -0.73725592D-04  0.53154696D-02  0.52038398D-02  0.52920995D-02
  0.00000000D+00  0.00000000D+00 -0.63745553D-04  0.53826561D-04  0.91300035D-04
  0.10394186D-03 -0.13174077D-03  0.00000000D+00  0.13262646D-03  0.65395754D-04
  0.00000000D+00  0.00000000D+00  0.00000000D+00  0.00000000D+00  0.00000000D+00
  0.00000000D+00 -0.00000000D+00 -0.00000000D+00  0.00000000D+00  0.00000000D+00
  0.00000000D+00  0.00000000D+00 -0.38599248D-03 -0.29595455D-03 -0.14770206D-03
  0.00000000D+00  0.00000000D+00  0.00000000D+00  0.00000000D+00  0.00000000D+00
  0.22924158D-03  0.00000000D+00  0.00000000D+00  0.00000000D+00  0.00000000D+00
  0.00000000D+00  0.00000000D+00 -0.82987952D-04  0.00000000D+00  0.00000000D+00
  0.00000000D+00  0.00000000D+00  0.00000000D+00  0.20607489D-04  0.00000000D+00
MO    3     MO 0.0        OCC NO =    2.0000000  ORB. ENERGY =  -10.187710
 -0.14334223D+00 -0.26443842D+00 -0.42688560D+00 -0.55567821D+00 -0.47416123D+00
 -0.16371648D+00  0.52982712D-02  0.24419684D-02 -0.68475342D-02  0.00000000D+00
  0.00000000D+00  0.00000000D+00 -0.16353447D-03 -0.12538786D-03 -0.62577328D-04
  0.29973399D-03  0.22981701D-03  0.11469480D-03  0.53098562D-03  0.00000000D+00
  0.65394509D-04 -0.19776374D-03  0.28845878D-02  0.28705507D-02  0.28282668D-02
  0.00000000D+00  0.00000000D+00 -0.84168103D-04  0.16704193D+00  0.30815974D+00
  0.49746538D+00  0.64755211D+00  0.55255739D+00  0.19078479D+00 -0.61655520D-02
 -0.28416973D-02  0.79684158D-02  0.00000000D+00  0.00000000D+00  0.00000000D+00
  0.16733487D-03  0.12830176D-03  0.64031571D-04  0.28604159D-03  0.21931855D-03
  0.10945533D-03 -0.61156147D-03  0.00000000D+00 -0.58787500D-04 -0.19274953D-03
 -0.33713124D-02 -0.33348131D-02 -0.33045660D-02  0.00000000D+00  0.00000000D+00
 -0.87521984D-04  0.29585945D-04  0.50183363D-04  0.57131985D-04 -0.67492402D-04
  0.00000000D+00 -0.63965925D-04 -0.55943610D-04 -0.34430384D-04 -0.58400448D-04
 -0.66486846D-04  0.82434045D-04  0.00000000D+00  0.72361407D-04 -0.62747825D-04
 -0.30235810D+00 -0.55779165D+00 -0.90044867D+00 -0.11721166D+01 -0.10001692D+01
 -0.34533440D+00  0.11167971D-01  0.51473078D-02 -0.14433588D-01  0.00000000D+00
  0.00000000D+00  0.00000000D+00  0.00000000D+00  0.00000000D+00  0.00000000D+00
  0.12032120D-04  0.92254668D-05  0.46041545D-05  0.10771257D-02  0.00000000D+00
  0.00000000D+00 -0.67358873D-04  0.60930848D-02  0.60632605D-02  0.59561656D-02
  0.00000000D+00  0.00000000D+00  0.00000000D+00  0.61573028D-04  0.10443951D-03
  0.11890069D-03 -0.14944073D-03  0.00000000D+00  0.00000000D+00 -0.17551255D-03
 -0.14334223D+00 -0.26443842D+00 -0.42688560D+00 -0.55567821D+00 -0.47416123D+00
 -0.16371648D+00  0.52982712D-02  0.24419684D-02 -0.68475342D-02  0.00000000D+00
  0.00000000D+00  0.00000000D+00  0.16353447D-03  0.12538786D-03  0.62577328D-04
  0.29973399D-03  0.22981701D-03  0.11469480D-03  0.53098562D-03  0.00000000D+00
 -0.65394509D-04 -0.19776374D-03  0.28845878D-02  0.28705507D-02  0.28282668D-02
  0.00000000D+00  0.00000000D+00  0.84168103D-04  0.29585945D-04  0.50183363D-04
  0.57131985D-04 -0.67492402D-04  0.00000000D+00  0.63965925D-04 -0.55943610D-04
  0.16704193D+00  0.30815974D+00  0.49746538D+00  0.64755211D+00  0.55255739D+00
  0.19078479D+00 -0.61655520D-02 -0.28416973D-02  0.79684158D-02  0.00000000D+00
  0.00000000D+00  0.00000000D+00 -0.16733487D-03 -0.12830176D-03 -0.64031571D-04
  0.28604159D-03  0.21931855D-03  0.10945533D-03 -0.61156147D-03  0.00000000D+00
  0.58787500D-04 -0.19274953D-03 -0.33713124D-02 -0.33348131D-02 -0.33045660D-02
  0.00000000D+00  0.00000000D+00  0.87521984D-04 -0.34430384D-04 -0.58400448D-04
 -0.66486846D-04  0.82434045D-04  0.00000000D+00 -0.72361407D-04 -0.62747825D-04
  0.30839865D+00  0.56893528D+00  0.91843795D+00  0.11955333D+01  0.10201508D+01
  0.35223354D+00 -0.11373785D-01 -0.52421673D-02  0.14699584D-01  0.00000000D+00
  0.00000000D+00  0.00000000D+00  0.00000000D+00  0.00000000D+00  0.00000000D+00
 -0.11323330D-04 -0.86820110D-05 -0.43329320D-05 -0.10332743D-02  0.00000000D+00
  0.00000000D+00 -0.47691871D-04 -0.62325504D-02 -0.62164462D-02 -0.60965628D-02
  0.00000000D+00  0.00000000D+00  0.00000000D+00 -0.62638391D-04 -0.10624657D-03
 -0.12095796D-03  0.15914470D-03  0.00000000D+00  0.00000000D+00 -0.16719997D-03
MO    4     MO 0.0        OCC NO =    2.0000000  ORB. ENERGY =  -10.187166
 -0.26353830D+00 -0.48617671D+00 -0.78483995D+00 -0.10216284D+01 -0.87175738D+00
 -0.30099687D+00  0.98788103D-02  0.45531346D-02 -0.12767465D-01  0.00000000D+00
  0.00000000D+00  0.00000000D+00  0.10257771D-03  0.78650081D-04  0.39251903D-04
  0.23466057D-03  0.17992284D-03  0.89794107D-04  0.18655336D-02  0.00000000D+00
 -0.24223543D-03 -0.27281422D-03  0.51861729D-02  0.49032460D-02  0.47506751D-02
  0.00000000D+00  0.00000000D+00  0.19968202D-05  0.26901969D+00  0.49628880D+00
  0.80116400D+00  0.10428775D+01  0.88988924D+00  0.30725737D+00 -0.10081314D-01
 -0.46464682D-02  0.13029182D-01  0.00000000D+00  0.00000000D+00  0.00000000D+00
 -0.10468525D-03 -0.80266011D-04 -0.40058365D-04  0.23113324D-03  0.17721831D-03
  0.88444357D-04 -0.18851750D-02  0.00000000D+00  0.24457508D-03 -0.27124303D-03
 -0.52968992D-02 -0.50114070D-02 -0.48608451D-02  0.00000000D+00  0.00000000D+00
  0.48972341D-06  0.55837686D-04  0.94711284D-04  0.10782545D-03 -0.76508582D-04
  0.00000000D+00 -0.25421677D-03 -0.11819041D-03 -0.56963304D-04 -0.96620545D-04
 -0.10999908D-03  0.79270679D-04  0.00000000D+00  0.25700686D-03 -0.11962121D-03
  0.00000000D+00  0.00000000D+00  0.00000000D+00  0.00000000D+00  0.00000000D+00
  0.00000000D+00 -0.00000000D+00 -0.00000000D+00  0.00000000D+00  0.00000000D+00
  0.00000000D+00  0.00000000D+00  0.29608723D-03  0.22702091D-03  0.11329934D-03
  0.00000000D+00  0.00000000D+00  0.00000000D+00  0.00000000D+00  0.00000000D+00
 -0.22561158D-03  0.00000000D+00  0.00000000D+00  0.00000000D+00  0.00000000D+00
  0.00000000D+00  0.00000000D+00 -0.26073003D-03  0.00000000D+00  0.00000000D+00
  0.00000000D+00  0.00000000D+00  0.00000000D+00  0.50003533D-04  0.00000000D+00
  0.26353830D+00  0.48617671D+00  0.78483995D+00  0.10216284D+01  0.87175738D+00
  0.30099687D+00 -0.98788103D-02 -0.45531346D-02  0.12767465D-01  0.00000000D+00
  0.00000000D+00  0.00000000D+00  0.10257771D-03  0.78650081D-04  0.39251903D-04
 -0.23466057D-03 -0.17992284D-03 -0.89794107D-04 -0.18655336D-02  0.00000000D+00
 -0.24223543D-03  0.27281422D-03 -0.51861729D-02 -0.49032460D-02 -0.47506751D-02
  0.00000000D+00  0.00000000D+00  0.19968202D-05 -0.55837686D-04 -0.94711284D-04
 -0.10782545D-03  0.76508582D-04  0.00000000D+00 -0.25421677D-03  0.11819041D-03
 -0.26901969D+00 -0.49628880D+00 -0.80116400D+00 -0.10428775D+01 -0.88988924D+00
 -0.30725737D+00  0.10081314D-01  0.46464682D-02 -0.13029182D-01  0.00000000D+00
  0.00000000D+00  0.00000000D+00 -0.10468525D-03 -0.80266011D-04 -0.40058365D-04
 -0.23113324D-03 -0.17721831D-03 -0.88444357D-04  0.18851750D-02  0.00000000D+00
  0.24457508D-03  0.27124303D-03  0.52968992D-02  0.50114070D-02  0.48608451D-02
  0.00000000D+00  0.00000000D+00  0.48972341D-06  0.56963304D-04  0.96620545D-04
  0.10999908D-03 -0.79270679D-04  0.00000000D+00  0.25700686D-03  0.11962121D-03
  0.00000000D+00  0.00000000D+00  0.00000000D+00  0.00000000D+00  0.00000000D+00
  0.00000000D+00 -0.00000000D+00 -0.00000000D+00  0.00000000D+00  0.00000000D+00
  0.00000000D+00  0.00000000D+00 -0.30437332D-03 -0.23337416D-03 -0.11647006D-03
  0.00000000D+00  0.00000000D+00  0.00000000D+00  0.00000000D+00  0.00000000D+00
  0.23072994D-03  0.00000000D+00  0.00000000D+00  0.00000000D+00  0.00000000D+00
  0.00000000D+00  0.00000000D+00 -0.26229735D-03  0.00000000D+00  0.00000000D+00
  0.00000000D+00  0.00000000D+00  0.00000000D+00 -0.49518705D-04  0.00000000D+00
MO    5     MO 0.0        OCC NO =    2.0000000  ORB. ENERGY =  -10.187157
 -0.16445854D+00 -0.30339389D+00 -0.48977181D+00 -0.63753737D+00 -0.54401179D+00
 -0.18783420D+00  0.61747442D-02  0.28459339D-02 -0.79802958D-02  0.00000000D+00
  0.00000000D+00  0.00000000D+00  0.24171519D-03  0.18533187D-03  0.92493594D-04
 -0.15303817D-03 -0.11733996D-03 -0.58560864D-04  0.12568357D-02  0.00000000D+00
 -0.32152869D-03  0.37919972D-04  0.32262623D-02  0.29193300D-02  0.30901752D-02
  0.00000000D+00  0.00000000D+00  0.15416525D-03 -0.13930616D+00 -0.25699267D+00
 -0.41486585D+00 -0.54003206D+00 -0.46081034D+00 -0.15910674D+00  0.52143702D-02
  0.24032984D-02 -0.67390997D-02  0.00000000D+00  0.00000000D+00  0.00000000D+00
  0.22650012D-03  0.17366592D-03  0.86671467D-04  0.17628879D-03  0.13516706D-03
  0.67457839D-04  0.89876329D-03  0.00000000D+00 -0.22297252D-03 -0.10305140D-03
  0.27492832D-02  0.24693399D-02  0.26451154D-02  0.00000000D+00  0.00000000D+00
 -0.15094546D-03  0.36414113D-04  0.61765227D-04  0.70317528D-04 -0.36641861D-04
  0.00000000D+00 -0.12934115D-03 -0.12482077D-03  0.27980543D-04  0.47460297D-04
  0.54031871D-04 -0.50590176D-04  0.00000000D+00 -0.10732835D-03  0.11127975D-03
  0.31285190D+00  0.57715067D+00  0.93170013D+00  0.12127967D+01  0.10348817D+01
  0.35731977D+00 -0.11737136D-01 -0.54096352D-02  0.15169182D-01  0.00000000D+00
  0.00000000D+00  0.00000000D+00  0.00000000D+00  0.00000000D+00  0.00000000D+00
 -0.24880878D-03 -0.19077079D-03 -0.95207997D-04 -0.23157870D-02  0.00000000D+00
  0.00000000D+00  0.45665392D-03 -0.61469376D-02 -0.56716129D-02 -0.57650880D-02
  0.00000000D+00  0.00000000D+00  0.00000000D+00 -0.67854118D-04 -0.11509343D-03
 -0.13102980D-03  0.79900227D-04  0.00000000D+00  0.00000000D+00  0.33241197D-03
 -0.16445854D+00 -0.30339389D+00 -0.48977181D+00 -0.63753737D+00 -0.54401179D+00
 -0.18783420D+00  0.61747442D-02  0.28459339D-02 -0.79802958D-02  0.00000000D+00
  0.00000000D+00  0.00000000D+00 -0.24171519D-03 -0.18533187D-03 -0.92493594D-04
 -0.15303817D-03 -0.11733996D-03 -0.58560864D-04  0.12568357D-02  0.00000000D+00
  0.32152869D-03  0.37919972D-04  0.32262623D-02  0.29193300D-02  0.30901752D-02
  0.00000000D+00  0.00000000D+00 -0.15416525D-03  0.36414113D-04  0.61765227D-04
  0.70317528D-04 -0.36641861D-04  0.00000000D+00  0.12934115D-03 -0.12482077D-03
 -0.13930616D+00 -0.25699267D+00 -0.41486585D+00 -0.54003206D+00 -0.46081034D+00
 -0.15910674D+00  0.52143702D-02  0.24032984D-02 -0.67390997D-02  0.00000000D+00
  0.00000000D+00  0.00000000D+00 -0.22650012D-03 -0.17366592D-03 -0.86671467D-04
  0.17628879D-03  0.13516706D-03  0.67457839D-04  0.89876329D-03  0.00000000D+00
  0.22297252D-03 -0.10305140D-03  0.27492832D-02  0.24693399D-02  0.26451154D-02
  0.00000000D+00  0.00000000D+00  0.15094546D-03  0.27980543D-04  0.47460297D-04
  0.54031871D-04 -0.50590176D-04  0.00000000D+00  0.10732835D-03  0.11127975D-03
  0.30474016D+00  0.56218608D+00  0.90754265D+00  0.11813509D+01  0.10080488D+01
  0.34805504D+00 -0.11406284D-01 -0.52571458D-02  0.14741586D-01  0.00000000D+00
  0.00000000D+00  0.00000000D+00  0.00000000D+00  0.00000000D+00  0.00000000D+00
  0.22425928D-03  0.17194779D-03  0.85814000D-04 -0.20176509D-02  0.00000000D+00
  0.00000000D+00 -0.34249302D-03 -0.60140449D-02 -0.55688696D-02 -0.56518168D-02
  0.00000000D+00  0.00000000D+00  0.00000000D+00 -0.62893951D-04 -0.10668004D-03
 -0.12145146D-03  0.10221871D-03  0.00000000D+00  0.00000000D+00 -0.31606700D-03
MO    6     MO 0.0        OCC NO =    2.0000000  ORB. ENERGY =  -10.186894
  0.20969558D+00  0.38684739D+00  0.62449164D+00  0.81290256D+00  0.69365123D+00
  0.23950110D+00 -0.80931431D-02 -0.37301222D-02  0.10459652D-01  0.00000000D+00
  0.00000000D+00  0.00000000D+00 -0.23066348D-03 -0.17685813D-03 -0.88264601D-04
 -0.14311834D-03 -0.10973406D-03 -0.54764989D-04 -0.37226563D-02  0.00000000D+00
  0.11152758D-02  0.65229152D-03 -0.38959532D-02 -0.36151578D-02 -0.35681227D-02
  0.00000000D+00  0.00000000D+00 -0.62480619D-04 -0.22230880D+00 -0.41011634D+00
 -0.66205493D+00 -0.86179880D+00 -0.73537448D+00 -0.25390714D+00  0.85677181D-02
  0.39488534D-02 -0.11072997D-01  0.00000000D+00  0.00000000D+00  0.00000000D+00
  0.25279249D-03  0.19382524D-03  0.96732381D-04 -0.12898355D-03 -0.98896402D-04
 -0.49356236D-04  0.38167962D-02  0.00000000D+00 -0.11405664D-02  0.64663017D-03
  0.41426408D-02  0.38366829D-02  0.38047793D-02  0.00000000D+00  0.00000000D+00
 -0.76956189D-04 -0.79526539D-04 -0.13489206D-03 -0.15356985D-03 -0.18856732D-03
  0.00000000D+00  0.21349407D-03  0.12082358D-03  0.82303538D-04  0.13960238D-03
  0.15893237D-03  0.18593252D-03  0.00000000D+00 -0.22389651D-03  0.13130377D-03
 -0.20562472D+00 -0.37933747D+00 -0.61236829D+00 -0.79712156D+00 -0.68018527D+00
 -0.23485163D+00  0.79399802D-02  0.36595296D-02 -0.10261703D-01  0.00000000D+00
  0.00000000D+00  0.00000000D+00  0.00000000D+00  0.00000000D+00  0.00000000D+00
  0.26750212D-03  0.20510366D-03  0.10236110D-03  0.36852369D-02  0.00000000D+00
  0.00000000D+00 -0.12846420D-02  0.38159903D-02  0.34833686D-02  0.35584598D-02
  0.00000000D+00  0.00000000D+00  0.00000000D+00  0.78701736D-04  0.13349304D-03
  0.15197711D-03  0.18978790D-03  0.00000000D+00  0.00000000D+00 -0.24004122D-03
  0.20969558D+00  0.38684739D+00  0.62449164D+00  0.81290256D+00  0.69365123D+00
  0.23950110D+00 -0.80931431D-02 -0.37301222D-02  0.10459652D-01  0.00000000D+00
  0.00000000D+00  0.00000000D+00  0.23066348D-03  0.17685813D-03  0.88264601D-04
 -0.14311834D-03 -0.10973406D-03 -0.54764989D-04 -0.37226563D-02  0.00000000D+00
 -0.11152758D-02  0.65229152D-03 -0.38959532D-02 -0.36151578D-02 -0.35681227D-02
  0.00000000D+00  0.00000000D+00  0.62480619D-04 -0.79526539D-04 -0.13489206D-03
 -0.15356985D-03 -0.18856732D-03  0.00000000D+00 -0.21349407D-03  0.12082358D-03
 -0.22230880D+00 -0.41011634D+00 -0.66205493D+00 -0.86179880D+00 -0.73537448D+00
 -0.25390714D+00  0.85677181D-02  0.39488534D-02 -0.11072997D-01  0.00000000D+00
  0.00000000D+00  0.00000000D+00 -0.25279249D-03 -0.19382524D-03 -0.96732381D-04
 -0.12898355D-03 -0.98896402D-04 -0.49356236D-04  0.38167962D-02  0.00000000D+00
  0.11405664D-02  0.64663017D-03  0.41426408D-02  0.38366829D-02  0.38047793D-02
  0.00000000D+00  0.00000000D+00  0.76956189D-04  0.82303538D-04  0.13960238D-03
  0.15893237D-03  0.18593252D-03  0.00000000D+00  0.22389651D-03  0.13130377D-03
  0.23414559D+00  0.43195289D+00  0.69730590D+00  0.90768509D+00  0.77452934D+00
  0.26742637D+00 -0.90076737D-02 -0.41516286D-02  0.11641600D-01  0.00000000D+00
  0.00000000D+00  0.00000000D+00  0.00000000D+00  0.00000000D+00  0.00000000D+00
  0.28751969D-03  0.22045186D-03  0.11002093D-03 -0.38821261D-02  0.00000000D+00
  0.00000000D+00 -0.13194568D-02 -0.43795073D-02 -0.40048292D-02 -0.40872401D-02
  0.00000000D+00  0.00000000D+00  0.00000000D+00 -0.84637767D-04 -0.14356167D-03
 -0.16343989D-03 -0.18043247D-03  0.00000000D+00  0.00000000D+00 -0.26920207D-03
MO    7     MO 0.0        OCC NO =    2.0000000  ORB. ENERGY =   -0.846770
 -0.50500237D-01 -0.93163076D-01 -0.15039409D+00 -0.19576842D+00 -0.16704955D+00
 -0.57678194D-01 -0.71964278D-01 -0.33168270D-01  0.93007291D-01  0.00000000D+00
  0.00000000D+00  0.00000000D+00 -0.70001495D-01 -0.53672707D-01 -0.26786442D-01
 -0.40440890D-01 -0.31007510D-01 -0.15474921D-01  0.20988366D-01  0.00000000D+00
 -0.11639793D-02 -0.67234574D-03 -0.11898698D-01  0.10262783D-02  0.26450019D-02
  0.00000000D+00  0.00000000D+00 -0.27954401D-02 -0.50510046D-01 -0.93181172D-01
 -0.15042330D+00 -0.19580645D+00 -0.16708200D+00 -0.57689398D-01 -0.71982177D-01
 -0.33176520D-01  0.93030424D-01  0.00000000D+00  0.00000000D+00  0.00000000D+00
 -0.70059111D-01 -0.53716883D-01 -0.26808489D-01  0.40415803D-01  0.30988275D-01
  0.15465321D-01  0.20966628D-01  0.00000000D+00 -0.11501180D-02  0.66424661D-03
 -0.11898407D-01  0.10296615D-02  0.26373363D-02  0.00000000D+00  0.00000000D+00
  0.27960612D-02  0.78777241D-02  0.13362111D-01  0.15212291D-01  0.12662808D-02
  0.00000000D+00 -0.60754460D-02 -0.35078973D-02  0.78785945D-02  0.13363587D-01
  0.15213972D-01  0.12603298D-02  0.00000000D+00 -0.60771631D-02  0.35086579D-02
 -0.50493861D-01 -0.93151314D-01 -0.15037510D+00 -0.19574370D+00 -0.16702846D+00
 -0.57670912D-01 -0.71958269D-01 -0.33165500D-01  0.92999525D-01  0.00000000D+00
  0.00000000D+00  0.00000000D+00  0.00000000D+00  0.00000000D+00  0.00000000D+00
 -0.80840401D-01 -0.61983292D-01 -0.30934007D-01  0.20963089D-01  0.00000000D+00
  0.00000000D+00 -0.13316905D-02 -0.11896216D-01  0.34487398D-02  0.22128514D-03
  0.00000000D+00  0.00000000D+00  0.00000000D+00  0.78762151D-02  0.13359552D-01
  0.15209377D-01  0.12621202D-02  0.00000000D+00  0.00000000D+00 -0.70144724D-02
 -0.50500237D-01 -0.93163076D-01 -0.15039409D+00 -0.19576842D+00 -0.16704955D+00
 -0.57678194D-01 -0.71964278D-01 -0.33168270D-01  0.93007291D-01  0.00000000D+00
  0.00000000D+00  0.00000000D+00  0.70001495D-01  0.53672707D-01  0.26786442D-01
 -0.40440890D-01 -0.31007510D-01 -0.15474921D-01  0.20988366D-01  0.00000000D+00
  0.11639793D-02 -0.67234574D-03 -0.11898698D-01  0.10262783D-02  0.26450019D-02
  0.00000000D+00  0.00000000D+00  0.27954401D-02  0.78777241D-02  0.13362111D-01
  0.15212291D-01  0.12662808D-02  0.00000000D+00  0.60754460D-02 -0.35078973D-02
 -0.50510046D-01 -0.93181172D-01 -0.15042330D+00 -0.19580645D+00 -0.16708200D+00
 -0.57689398D-01 -0.71982177D-01 -0.33176520D-01  0.93030424D-01  0.00000000D+00
  0.00000000D+00  0.00000000D+00  0.70059111D-01  0.53716883D-01  0.26808489D-01
  0.40415803D-01  0.30988275D-01  0.15465321D-01  0.20966628D-01  0.00000000D+00
  0.11501180D-02  0.66424661D-03 -0.11898407D-01  0.10296615D-02  0.26373363D-02
  0.00000000D+00  0.00000000D+00 -0.27960612D-02  0.78785945D-02  0.13363587D-01
  0.15213972D-01  0.12603298D-02  0.00000000D+00  0.60771631D-02  0.35086579D-02