 Entering Gaussian System, Link 0=/g100_work/pMI24_ChiCa/g09d1/g09d01/d01/build-node-6-2-59348/src/main/g09
 Input=geom.com
 Output=geom.log
 Initial command:
 /g100_work/pMI24_ChiCa/g09d1/g09d01/d01/build-node-6-2-59348/src/main/l1.exe "/g100_scratch/userexternal/ecabiati/g16_14420037/Gau-43961.inp" -scrdir="/g100_scratch/userexternal/ecabiati/g16_14420037/"
 Entering Link 1 = /g100_work/pMI24_ChiCa/g09d1/g09d01/d01/build-node-6-2-59348/src/main/l1.exe PID=     43962.
  
 Copyright (c) 1988,1990,1992,1993,1995,1998,2003,2009,2013,
            Gaussian, Inc.  All Rights Reserved.
  
 This is part of the Gaussian(R) 09 program.  It is based on
 the Gaussian(R) 03 system (copyright 2003, Gaussian, Inc.),
 the Gaussian(R) 98 system (copyright 1998, Gaussian, Inc.),
 the Gaussian(R) 94 system (copyright 1995, Gaussian, Inc.),
 the Gaussian 92(TM) system (copyright 1992, Gaussian, Inc.),
 the Gaussian 90(TM) system (copyright 1990, Gaussian, Inc.),
 the Gaussian 88(TM) system (copyright 1988, Gaussian, Inc.),
 the Gaussian 86(TM) system (copyright 1986, Carnegie Mellon
 University), and the Gaussian 82(TM) system (copyright 1983,
 Carnegie Mellon University). Gaussian is a federally registered
 trademark of Gaussian, Inc.
  
 This software contains proprietary and confidential information,
 including trade secrets, belonging to Gaussian, Inc.
  
 This software is provided under written license and may be
 used, copied, transmitted, or stored only in accord with that
 written license.
  
 The following legend is applicable only to US Government
 contracts under FAR:
  
                    RESTRICTED RIGHTS LEGEND
  
 Use, reproduction and disclosure by the US Government is
 subject to restrictions as set forth in subparagraphs (a)
 and (c) of the Commercial Computer Software - Restricted
 Rights clause in FAR 52.227-19.
  
 Gaussian, Inc.
 340 Quinnipiac St., Bldg. 40, Wallingford CT 06492
  
  
 ---------------------------------------------------------------
 Warning -- This program may not be used in any manner that
 competes with the business of Gaussian, Inc. or will provide
 assistance to any competitor of Gaussian, Inc.  The licensee
 of this program is prohibited from giving any competitor of
 Gaussian, Inc. access to this program.  By using this program,
 the user acknowledges that Gaussian, Inc. is engaged in the
 business of creating and licensing software in the field of
 computational chemistry and represents and warrants to the
 licensee that it is not a competitor of Gaussian, Inc. and that
 it will not use this program in any manner prohibited above.
 ---------------------------------------------------------------
  

 Cite this work as:
 Gaussian 09, Revision D.01,
 M. J. Frisch, G. W. Trucks, H. B. Schlegel, G. E. Scuseria, 
 M. A. Robb, J. R. Cheeseman, G. Scalmani, V. Barone, B. Mennucci, 
 G. A. Petersson, H. Nakatsuji, M. Caricato, X. Li, H. P. Hratchian, 
 A. F. Izmaylov, J. Bloino, G. Zheng, J. L. Sonnenberg, M. Hada, 
 M. Ehara, K. Toyota, R. Fukuda, J. Hasegawa, M. Ishida, T. Nakajima, 
 Y. Honda, O. Kitao, H. Nakai, T. Vreven, J. A. Montgomery, Jr., 
 J. E. Peralta, F. Ogliaro, M. Bearpark, J. J. Heyd, E. Brothers, 
 K. N. Kudin, V. N. Staroverov, T. Keith, R. Kobayashi, J. Normand, 
 K. Raghavachari, A. Rendell, J. C. Burant, S. S. Iyengar, J. Tomasi, 
 M. Cossi, N. Rega, J. M. Millam, M. Klene, J. E. Knox, J. B. Cross, 
 V. Bakken, C. Adamo, J. Jaramillo, R. Gomperts, R. E. Stratmann, 
 O. Yazyev, A. J. Austin, R. Cammi, C. Pomelli, J. W. Ochterski, 
 R. L. Martin, K. Morokuma, V. G. Zakrzewski, G. A. Voth, 
 P. Salvador, J. J. Dannenberg, S. Dapprich, A. D. Daniels, 
 O. Farkas, J. B. Foresman, J. V. Ortiz, J. Cioslowski, 
 and D. J. Fox, Gaussian, Inc., Wallingford CT, 2013.
 
 ******************************************
 Gaussian 09:  EM64L-G09RevD.01 24-Apr-2013
                17-Sep-2024 
 ******************************************
 %nproc=24
 Will use up to   24 processors via shared memory.
 %mem=2Gb
 -----------------------------
 #p B3LYP/6-31+g(d,p) opt freq
 -----------------------------
 1/14=-1,18=20,19=15,26=3,38=1/1,3;
 2/9=110,12=2,17=6,18=5,40=1/2;
 3/5=1,6=6,7=111,11=2,16=1,25=1,30=1,71=1,74=-5/1,2,3;
 4//1;
 5/5=2,38=5/2;
 6/7=2,8=2,9=2,10=2,28=1/1;
 7//1,2,3,16;
 1/14=-1,18=20,19=15,26=3/3(2);
 2/9=110/2;
 99//99;
 2/9=110/2;
 3/5=1,6=6,7=111,11=2,16=1,25=1,30=1,71=1,74=-5/1,2,3;
 4/5=5,16=3,69=1/1;
 5/5=2,38=5/2;
 7//1,2,3,16;
 1/14=-1,18=20,19=15,26=3/3(-5);
 2/9=110/2;
 6/7=2,8=2,9=2,10=2,19=2,28=1/1;
 99/9=1/99;
 Leave Link    1 at Tue Sep 17 19:28:09 2024, MaxMem=   268435456 cpu:         0.1
 (Enter /g100_work/pMI24_ChiCa/g09d1/g09d01/d01/build-node-6-2-59348/src/main/l101.exe)
 -----------
 ch3cooh gas
 -----------
 Symbolic Z-matrix:
 Charge =  0 Multiplicity = 1
 c
 o                    1    oc2
 o                    1    oc3      2    oco3
 h                    2    ho4      1    hoc4     3    dih4     0
 c                    1    cc5      3    cco5     2    dih5     0
 h                    5    hc6      1    hcc6     3    dih6     0
 h                    5    hc7      1    hcc7     6    dih7     0
 h                    5    hc8      1    hcc8     6    dih8     0
       Variables:
  oc2                   1.4                      
  oc3                   1.22                     
  oco3                120.                       
  ho4                   0.95                     
  hoc4                109.471                    
  dih4                  0.                       
  cc5                   1.5                      
  cco5                120.                       
  dih5                180.                       
  hc6                   1.07                     
  hcc6                109.471                    
  dih6                180.                       
  hc7                   1.07                     
  hcc7                109.471                    
  dih7                120.                       
  hc8                   1.07                     
  hcc8                109.471                    
  dih8                240.                       
 
     4 tetrahedral angles replaced.
 NAtoms=      8 NQM=        8 NQMF=       0 NMMI=      0 NMMIF=      0
                NMic=       0 NMicF=      0.
                    Isotopes and Nuclear Properties:
 (Nuclear quadrupole moments (NQMom) in fm**2, nuclear magnetic moments (NMagM)
  in nuclear magnetons)

  Atom         1           2           3           4           5           6           7           8
 IAtWgt=          12          16          16           1          12           1           1           1
 AtmWgt=  12.0000000  15.9949146  15.9949146   1.0078250  12.0000000   1.0078250   1.0078250   1.0078250
 NucSpn=           0           0           0           1           0           1           1           1
 AtZEff=   0.0000000   0.0000000   0.0000000   0.0000000   0.0000000   0.0000000   0.0000000   0.0000000
 NQMom=    0.0000000   0.0000000   0.0000000   0.0000000   0.0000000   0.0000000   0.0000000   0.0000000
 NMagM=    0.0000000   0.0000000   0.0000000   2.7928460   0.0000000   2.7928460   2.7928460   2.7928460
 AtZNuc=   6.0000000   8.0000000   8.0000000   1.0000000   6.0000000   1.0000000   1.0000000   1.0000000
 Leave Link  101 at Tue Sep 17 19:28:09 2024, MaxMem=   268435456 cpu:         0.2
 (Enter /g100_work/pMI24_ChiCa/g09d1/g09d01/d01/build-node-6-2-59348/src/main/l103.exe)

 GradGradGradGradGradGradGradGradGradGradGradGradGradGradGradGradGradGrad
 Berny optimization.
 Initialization pass.
                           ----------------------------
                           !    Initial Parameters    !
                           ! (Angstroms and Degrees)  !
 --------------------------                            --------------------------
 ! Name  Definition              Value          Derivative Info.                !
 --------------------------------------------------------------------------------
 ! R1    R(1,2)                  1.4            estimate D2E/DX2                !
 ! R2    R(1,3)                  1.22           estimate D2E/DX2                !
 ! R3    R(1,5)                  1.5            estimate D2E/DX2                !
 ! R4    R(2,4)                  0.95           estimate D2E/DX2                !
 ! R5    R(5,6)                  1.07           estimate D2E/DX2                !
 ! R6    R(5,7)                  1.07           estimate D2E/DX2                !
 ! R7    R(5,8)                  1.07           estimate D2E/DX2                !
 ! A1    A(2,1,3)              120.0            estimate D2E/DX2                !
 ! A2    A(2,1,5)              120.0            estimate D2E/DX2                !
 ! A3    A(3,1,5)              120.0            estimate D2E/DX2                !
 ! A4    A(1,2,4)              109.4712         estimate D2E/DX2                !
 ! A5    A(1,5,6)              109.4712         estimate D2E/DX2                !
 ! A6    A(1,5,7)              109.4712         estimate D2E/DX2                !
 ! A7    A(1,5,8)              109.4712         estimate D2E/DX2                !
 ! A8    A(6,5,7)              109.4712         estimate D2E/DX2                !
 ! A9    A(6,5,8)              109.4712         estimate D2E/DX2                !
 ! A10   A(7,5,8)              109.4712         estimate D2E/DX2                !
 ! D1    D(3,1,2,4)              0.0            estimate D2E/DX2                !
 ! D2    D(5,1,2,4)            180.0            estimate D2E/DX2                !
 ! D3    D(2,1,5,6)              0.0            estimate D2E/DX2                !
 ! D4    D(2,1,5,7)            120.0            estimate D2E/DX2                !
 ! D5    D(2,1,5,8)           -120.0            estimate D2E/DX2                !
 ! D6    D(3,1,5,6)            180.0            estimate D2E/DX2                !
 ! D7    D(3,1,5,7)            -60.0            estimate D2E/DX2                !
 ! D8    D(3,1,5,8)             60.0            estimate D2E/DX2                !
 --------------------------------------------------------------------------------
 Trust Radius=3.00D-01 FncErr=1.00D-07 GrdErr=1.00D-06
 Number of steps in this run=     35 maximum allowed number of steps=    100.
 GradGradGradGradGradGradGradGradGradGradGradGradGradGradGradGradGradGrad

 Leave Link  103 at Tue Sep 17 19:28:09 2024, MaxMem=   268435456 cpu:         0.1
 (Enter /g100_work/pMI24_ChiCa/g09d1/g09d01/d01/build-node-6-2-59348/src/main/l202.exe)
                          Input orientation:                          
 ---------------------------------------------------------------------
 Center     Atomic      Atomic             Coordinates (Angstroms)
 Number     Number       Type             X           Y           Z
 ---------------------------------------------------------------------
      1          6           0        0.000000    0.000000    0.000000
      2          8           0        0.000000    0.000000    1.400000
      3          8           0        1.056551    0.000000   -0.610000
      4          1           0        0.895669    0.000000    1.716667
      5          6           0       -1.299038    0.000000   -0.750000
      6          1           0       -2.112323    0.000000   -0.054682
      7          1           0       -1.355719    0.873651   -1.365159
      8          1           0       -1.355719   -0.873651   -1.365159
 ---------------------------------------------------------------------
                    Distance matrix (angstroms):
                    1          2          3          4          5
     1  C    0.000000
     2  O    1.400000   0.000000
     3  O    1.220000   2.270771   0.000000
     4  H    1.936276   0.950000   2.332222   0.000000
     5  C    1.500000   2.511971   2.359746   3.301694   0.000000
     6  H    2.113031   2.564763   3.217164   3.490801   1.070000
     7  H    2.113031   3.201147   2.674431   3.915311   1.070000
     8  H    2.113031   3.201147   2.674431   3.915311   1.070000
                    6          7          8
     6  H    0.000000
     7  H    1.747303   0.000000
     8  H    1.747303   1.747303   0.000000
 Stoichiometry    C2H4O2
 Framework group  CS[SG(C2H2O2),X(H2)]
 Deg. of freedom    12
 Full point group                 CS      NOp   2
 Largest Abelian subgroup         CS      NOp   2
 Largest concise Abelian subgroup CS      NOp   2
                         Standard orientation:                         
 ---------------------------------------------------------------------
 Center     Atomic      Atomic             Coordinates (Angstroms)
 Number     Number       Type             X           Y           Z
 ---------------------------------------------------------------------
      1          6           0        0.000000    0.104850   -0.000000
      2          8           0        1.364415   -0.208793    0.000000
      3          8           0       -0.357795    1.271204   -0.000000
      4          1           0        1.873690    0.593166   -0.000000
      5          6           0       -1.021961   -0.993146    0.000000
      6          1           0       -0.526517   -1.941532    0.000000
      7          1           0       -1.634182   -0.910572    0.873651
      8          1           0       -1.634182   -0.910572   -0.873651
 ---------------------------------------------------------------------
 Rotational constants (GHZ):     11.6874887      8.7882225      5.1743278
 Leave Link  202 at Tue Sep 17 19:28:09 2024, MaxMem=   268435456 cpu:         0.1
 (Enter /g100_work/pMI24_ChiCa/g09d1/g09d01/d01/build-node-6-2-59348/src/main/l301.exe)
 Standard basis: 6-31+G(d,p) (6D, 7F)
 Ernie: Thresh=  0.10000D-02 Tol=  0.10000D-05 Strict=F.
 There are    69 symmetry adapted cartesian basis functions of A'  symmetry.
 There are    27 symmetry adapted cartesian basis functions of A"  symmetry.
 There are    69 symmetry adapted basis functions of A'  symmetry.
 There are    27 symmetry adapted basis functions of A"  symmetry.
    96 basis functions,   156 primitive gaussians,    96 cartesian basis functions
    16 alpha electrons       16 beta electrons
       nuclear repulsion energy       119.8443557046 Hartrees.
 IExCor=  402 DFT=T Ex+Corr=B3LYP ExCW=0 ScaHFX=  0.200000
 ScaDFX=  0.800000  0.720000  1.000000  0.810000 ScalE2=  1.000000  1.000000
 IRadAn=      0 IRanWt=     -1 IRanGd=            0 ICorTp=0 IEmpDi=  4
 NAtoms=    8 NActive=    8 NUniq=    7 SFac= 1.31D+00 NAtFMM=   60 NAOKFM=F Big=F
 Integral buffers will be    131072 words long.
 Raffenetti 2 integral format.
 Two-electron integral symmetry is turned on.
 Leave Link  301 at Tue Sep 17 19:28:09 2024, MaxMem=   268435456 cpu:         0.1
 (Enter /g100_work/pMI24_ChiCa/g09d1/g09d01/d01/build-node-6-2-59348/src/main/l302.exe)
 NPDir=0 NMtPBC=     1 NCelOv=     1 NCel=       1 NClECP=     1 NCelD=      1
         NCelK=      1 NCelE2=     1 NClLst=     1 CellRange=     0.0.
 One-electron integrals computed using PRISM.
 One-electron integral symmetry used in STVInt
 NBasis=    96 RedAO= T EigKep=  3.11D-04  NBF=    69    27
 NBsUse=    96 1.00D-06 EigRej= -1.00D+00 NBFU=    69    27
 Precomputing XC quadrature grid using
 IXCGrd= 4 IRadAn=           0 IRanWt=          -1 IRanGd=           0 AccXCQ= 0.00D+00.
 Generated NRdTot=       0 NPtTot=           0 NUsed=           0 NTot=          32
 NSgBfM=    96    96    96    96    96 MxSgAt=     8 MxSgA2=     8.
 Leave Link  302 at Tue Sep 17 19:28:10 2024, MaxMem=   268435456 cpu:         1.4
 (Enter /g100_work/pMI24_ChiCa/g09d1/g09d01/d01/build-node-6-2-59348/src/main/l303.exe)
 DipDrv:  MaxL=1.
 Leave Link  303 at Tue Sep 17 19:28:10 2024, MaxMem=   268435456 cpu:         0.2
 (Enter /g100_work/pMI24_ChiCa/g09d1/g09d01/d01/build-node-6-2-59348/src/main/l401.exe)
 ExpMin= 4.38D-02 ExpMax= 5.48D+03 ExpMxC= 8.25D+02 IAcc=2 IRadAn=         4 AccDes= 0.00D+00
 Harris functional with IExCor=  402 and IRadAn=       4 diagonalized for initial guess.
 HarFok:  IExCor=  402 AccDes= 0.00D+00 IRadAn=         4 IDoV= 1 UseB2=F ITyADJ=14
 ICtDFT=  3500011 ScaDFX=  1.000000  1.000000  1.000000  1.000000
 FoFCou: FMM=F IPFlag=           0 FMFlag=      100000 FMFlg1=           0
         NFxFlg=           0 DoJE=T BraDBF=F KetDBF=T FulRan=T
         wScrn=  0.000000 ICntrl=     500 IOpCl=  0 I1Cent=   200000004 NGrid=           0
         NMat0=    1 NMatS0=      1 NMatT0=    0 NMatD0=    1 NMtDS0=    0 NMtDT0=    0
 Petite list used in FoFCou.
 Harris En= -229.134474518382    
 JPrj=0 DoOrth=F DoCkMO=F.
 Initial guess orbital symmetries:
       Occupied  (A') (A') (A') (A') (A') (A') (A') (A') (A') (A')
                 (A") (A') (A') (A") (A") (A')
       Virtual   (A") (A') (A') (A') (A") (A') (A') (A') (A") (A')
                 (A") (A') (A') (A') (A") (A') (A') (A') (A') (A")
                 (A') (A') (A') (A') (A') (A") (A') (A") (A') (A')
                 (A") (A') (A') (A') (A') (A") (A') (A") (A') (A')
                 (A") (A') (A') (A") (A') (A") (A') (A") (A') (A')
                 (A') (A") (A') (A") (A') (A") (A') (A") (A') (A')
                 (A') (A") (A') (A") (A') (A') (A") (A') (A") (A')
                 (A') (A') (A') (A") (A') (A') (A') (A') (A') (A')
 The electronic state of the initial guess is 1-A'.
 Leave Link  401 at Tue Sep 17 19:28:10 2024, MaxMem=   268435456 cpu:         1.5
 (Enter /g100_work/pMI24_ChiCa/g09d1/g09d01/d01/build-node-6-2-59348/src/main/l502.exe)
 Closed shell SCF:
 Using DIIS extrapolation, IDIIS=  1040.
 Integral symmetry usage will be decided dynamically.
 Keep R1 ints in memory in symmetry-blocked form, NReq=16539583.
 IVT=       49354 IEndB=       49354 NGot=   268435456 MDV=   262737466
 LenX=   262737466 LenY=   262727809
 Requested convergence on RMS density matrix=1.00D-08 within 128 cycles.
 Requested convergence on MAX density matrix=1.00D-06.
 Requested convergence on             energy=1.00D-06.
 No special actions if energy rises.
 FoFCou: FMM=F IPFlag=           0 FMFlag=           0 FMFlg1=           0
         NFxFlg=           0 DoJE=F BraDBF=F KetDBF=F FulRan=T
         wScrn=  0.000000 ICntrl=     600 IOpCl=  0 I1Cent=           0 NGrid=           0
         NMat0=    1 NMatS0=   4656 NMatT0=    0 NMatD0=    1 NMtDS0=    0 NMtDT0=    0
 Petite list used in FoFCou.

 Cycle   1  Pass 1  IDiag  1:
 E= -228.946248434040    
 DIIS: error= 3.68D-02 at cycle   1 NSaved=   1.
 NSaved= 1 IEnMin= 1 EnMin= -228.946248434040     IErMin= 1 ErrMin= 3.68D-02
 ErrMax= 3.68D-02  0.00D+00 EMaxC= 1.00D-01 BMatC= 1.86D-01 BMatP= 1.86D-01
 IDIUse=3 WtCom= 6.32D-01 WtEn= 3.68D-01
 Coeff-Com:  0.100D+01
 Coeff-En:   0.100D+01
 Coeff:      0.100D+01
 Gap=     0.149 Goal=   None    Shift=    0.000
 GapD=    0.149 DampG=1.000 DampE=0.500 DampFc=0.5000 IDamp=-1.
 Damping current iteration by 5.00D-01
 RMSDP=1.11D-02 MaxDP=2.06D-01              OVMax= 2.55D-01

 Cycle   2  Pass 1  IDiag  1:
 E= -228.980339281448     Delta-E=       -0.034090847408 Rises=F Damp=T
 DIIS: error= 1.55D-02 at cycle   2 NSaved=   2.
 NSaved= 2 IEnMin= 2 EnMin= -228.980339281448     IErMin= 2 ErrMin= 1.55D-02
 ErrMax= 1.55D-02  0.00D+00 EMaxC= 1.00D-01 BMatC= 3.09D-02 BMatP= 1.86D-01
 IDIUse=3 WtCom= 8.45D-01 WtEn= 1.55D-01
 Coeff-Com:  0.248D+00 0.752D+00
 Coeff-En:   0.387D+00 0.613D+00
 Coeff:      0.269D+00 0.731D+00
 Gap=     0.273 Goal=   None    Shift=    0.000
 RMSDP=3.50D-03 MaxDP=5.34D-02 DE=-3.41D-02 OVMax= 1.72D-01

 Cycle   3  Pass 1  IDiag  1:
 E= -229.077331277123     Delta-E=       -0.096991995675 Rises=F Damp=F
 DIIS: error= 1.68D-02 at cycle   3 NSaved=   3.
 NSaved= 3 IEnMin= 3 EnMin= -229.077331277123     IErMin= 2 ErrMin= 1.55D-02
 ErrMax= 1.68D-02  0.00D+00 EMaxC= 1.00D-01 BMatC= 2.56D-02 BMatP= 3.09D-02
 IDIUse=3 WtCom= 8.32D-01 WtEn= 1.68D-01
 Coeff-Com:  0.123D+00 0.476D+00 0.401D+00
 Coeff-En:   0.000D+00 0.000D+00 0.100D+01
 Coeff:      0.102D+00 0.396D+00 0.501D+00
 Gap=     0.265 Goal=   None    Shift=    0.000
 RMSDP=1.88D-03 MaxDP=4.30D-02 DE=-9.70D-02 OVMax= 8.06D-02

 Cycle   4  Pass 1  IDiag  1:
 E= -229.094010097766     Delta-E=       -0.016678820643 Rises=F Damp=F
 DIIS: error= 9.01D-03 at cycle   4 NSaved=   4.
 NSaved= 4 IEnMin= 4 EnMin= -229.094010097766     IErMin= 4 ErrMin= 9.01D-03
 ErrMax= 9.01D-03  0.00D+00 EMaxC= 1.00D-01 BMatC= 6.10D-03 BMatP= 2.56D-02
 IDIUse=3 WtCom= 9.10D-01 WtEn= 9.01D-02
 Coeff-Com:  0.299D-01 0.882D-01 0.324D+00 0.558D+00
 Coeff-En:   0.000D+00 0.000D+00 0.217D+00 0.783D+00
 Coeff:      0.272D-01 0.803D-01 0.314D+00 0.578D+00
 Gap=     0.270 Goal=   None    Shift=    0.000
 RMSDP=7.22D-04 MaxDP=1.60D-02 DE=-1.67D-02 OVMax= 3.03D-02

 Cycle   5  Pass 1  IDiag  1:
 E= -229.098234697177     Delta-E=       -0.004224599411 Rises=F Damp=F
 DIIS: error= 1.89D-03 at cycle   5 NSaved=   5.
 NSaved= 5 IEnMin= 5 EnMin= -229.098234697177     IErMin= 5 ErrMin= 1.89D-03
 ErrMax= 1.89D-03  0.00D+00 EMaxC= 1.00D-01 BMatC= 4.25D-04 BMatP= 6.10D-03
 IDIUse=3 WtCom= 9.81D-01 WtEn= 1.89D-02
 Coeff-Com:  0.370D-02-0.499D-02 0.145D+00 0.364D+00 0.492D+00
 Coeff-En:   0.000D+00 0.000D+00 0.000D+00 0.101D-01 0.990D+00
 Coeff:      0.363D-02-0.489D-02 0.142D+00 0.358D+00 0.502D+00
 Gap=     0.270 Goal=   None    Shift=    0.000
 RMSDP=1.75D-04 MaxDP=4.35D-03 DE=-4.22D-03 OVMax= 5.89D-03

 Cycle   6  Pass 1  IDiag  1:
 E= -229.098576873395     Delta-E=       -0.000342176218 Rises=F Damp=F
 DIIS: error= 2.55D-04 at cycle   6 NSaved=   6.
 NSaved= 6 IEnMin= 6 EnMin= -229.098576873395     IErMin= 6 ErrMin= 2.55D-04
 ErrMax= 2.55D-04  0.00D+00 EMaxC= 1.00D-01 BMatC= 5.22D-06 BMatP= 4.25D-04
 IDIUse=3 WtCom= 9.97D-01 WtEn= 2.55D-03
 Coeff-Com:  0.413D-03-0.410D-02 0.268D-01 0.626D-01 0.146D+00 0.768D+00
 Coeff-En:   0.000D+00 0.000D+00 0.000D+00 0.000D+00 0.000D+00 0.100D+01
 Coeff:      0.412D-03-0.409D-02 0.268D-01 0.624D-01 0.146D+00 0.769D+00
 Gap=     0.270 Goal=   None    Shift=    0.000
 RMSDP=2.63D-05 MaxDP=4.98D-04 DE=-3.42D-04 OVMax= 6.46D-04

 Cycle   7  Pass 1  IDiag  1:
 E= -229.098581089565     Delta-E=       -0.000004216171 Rises=F Damp=F
 DIIS: error= 2.64D-05 at cycle   7 NSaved=   7.
 NSaved= 7 IEnMin= 7 EnMin= -229.098581089565     IErMin= 7 ErrMin= 2.64D-05
 ErrMax= 2.64D-05  0.00D+00 EMaxC= 1.00D-01 BMatC= 1.15D-07 BMatP= 5.22D-06
 IDIUse=1 WtCom= 1.00D+00 WtEn= 0.00D+00
 Coeff-Com:  0.115D-03-0.128D-02 0.556D-02 0.111D-01 0.381D-01 0.270D+00
 Coeff-Com:  0.677D+00
 Coeff:      0.115D-03-0.128D-02 0.556D-02 0.111D-01 0.381D-01 0.270D+00
 Coeff:      0.677D+00
 Gap=     0.271 Goal=   None    Shift=    0.000
 RMSDP=4.90D-06 MaxDP=7.51D-05 DE=-4.22D-06 OVMax= 1.20D-04

 Cycle   8  Pass 1  IDiag  1:
 E= -229.098581185642     Delta-E=       -0.000000096077 Rises=F Damp=F
 DIIS: error= 9.95D-06 at cycle   8 NSaved=   8.
 NSaved= 8 IEnMin= 8 EnMin= -229.098581185642     IErMin= 8 ErrMin= 9.95D-06
 ErrMax= 9.95D-06  0.00D+00 EMaxC= 1.00D-01 BMatC= 1.13D-08 BMatP= 1.15D-07
 IDIUse=1 WtCom= 1.00D+00 WtEn= 0.00D+00
 Coeff-Com:  0.218D-04-0.640D-04-0.551D-03-0.205D-02-0.110D-02 0.114D-01
 Coeff-Com:  0.259D+00 0.733D+00
 Coeff:      0.218D-04-0.640D-04-0.551D-03-0.205D-02-0.110D-02 0.114D-01
 Coeff:      0.259D+00 0.733D+00
 Gap=     0.271 Goal=   None    Shift=    0.000
 RMSDP=1.26D-06 MaxDP=1.84D-05 DE=-9.61D-08 OVMax= 2.96D-05

 Cycle   9  Pass 1  IDiag  1:
 E= -229.098581196646     Delta-E=       -0.000000011004 Rises=F Damp=F
 DIIS: error= 1.07D-06 at cycle   9 NSaved=   9.
 NSaved= 9 IEnMin= 9 EnMin= -229.098581196646     IErMin= 9 ErrMin= 1.07D-06
 ErrMax= 1.07D-06  0.00D+00 EMaxC= 1.00D-01 BMatC= 9.10D-11 BMatP= 1.13D-08
 IDIUse=1 WtCom= 1.00D+00 WtEn= 0.00D+00
 Coeff-Com:  0.602D-07 0.136D-04-0.236D-03-0.651D-03-0.112D-02-0.477D-02
 Coeff-Com:  0.348D-01 0.142D+00 0.830D+00
 Coeff:      0.602D-07 0.136D-04-0.236D-03-0.651D-03-0.112D-02-0.477D-02
 Coeff:      0.348D-01 0.142D+00 0.830D+00
 Gap=     0.271 Goal=   None    Shift=    0.000
 RMSDP=3.03D-07 MaxDP=7.19D-06 DE=-1.10D-08 OVMax= 5.18D-06

 Cycle  10  Pass 1  IDiag  1:
 E= -229.098581196765     Delta-E=       -0.000000000119 Rises=F Damp=F
 DIIS: error= 1.67D-07 at cycle  10 NSaved=  10.
 NSaved=10 IEnMin=10 EnMin= -229.098581196765     IErMin=10 ErrMin= 1.67D-07
 ErrMax= 1.67D-07  0.00D+00 EMaxC= 1.00D-01 BMatC= 4.47D-12 BMatP= 9.10D-11
 IDIUse=1 WtCom= 1.00D+00 WtEn= 0.00D+00
 Coeff-Com: -0.160D-05 0.391D-05-0.187D-04-0.321D-04-0.170D-03-0.157D-02
 Coeff-Com: -0.386D-02-0.535D-02 0.154D+00 0.857D+00
 Coeff:     -0.160D-05 0.391D-05-0.187D-04-0.321D-04-0.170D-03-0.157D-02
 Coeff:     -0.386D-02-0.535D-02 0.154D+00 0.857D+00
 Gap=     0.271 Goal=   None    Shift=    0.000
 RMSDP=4.48D-08 MaxDP=1.00D-06 DE=-1.19D-10 OVMax= 1.09D-06

 Cycle  11  Pass 1  IDiag  1:
 E= -229.098581196767     Delta-E=       -0.000000000002 Rises=F Damp=F
 DIIS: error= 5.32D-08 at cycle  11 NSaved=  11.
 NSaved=11 IEnMin=11 EnMin= -229.098581196767     IErMin=11 ErrMin= 5.32D-08
 ErrMax= 5.32D-08  0.00D+00 EMaxC= 1.00D-01 BMatC= 3.45D-13 BMatP= 4.47D-12
 IDIUse=1 WtCom= 1.00D+00 WtEn= 0.00D+00
 Coeff-Com: -0.237D-06 0.278D-06 0.511D-05 0.129D-04 0.372D-05-0.183D-03
 Coeff-Com: -0.200D-02-0.625D-02-0.304D-02 0.139D+00 0.873D+00
 Coeff:     -0.237D-06 0.278D-06 0.511D-05 0.129D-04 0.372D-05-0.183D-03
 Coeff:     -0.200D-02-0.625D-02-0.304D-02 0.139D+00 0.873D+00
 Gap=     0.271 Goal=   None    Shift=    0.000
 RMSDP=9.34D-09 MaxDP=1.74D-07 DE=-2.16D-12 OVMax= 2.45D-07

 SCF Done:  E(RB3LYP) =  -229.098581197     A.U. after   11 cycles
            NFock= 11  Conv=0.93D-08     -V/T= 2.0092
 KE= 2.270183927730D+02 PE=-7.761932989187D+02 EE= 2.002319692444D+02
 Leave Link  502 at Tue Sep 17 19:28:10 2024, MaxMem=   268435456 cpu:         9.5
 (Enter /g100_work/pMI24_ChiCa/g09d1/g09d01/d01/build-node-6-2-59348/src/main/l601.exe)
 Copying SCF densities to generalized density rwf, IOpCl= 0 IROHF=0.

 **********************************************************************

            Population analysis using the SCF density.

 **********************************************************************

 Orbital symmetries:
       Occupied  (A') (A') (A') (A') (A') (A') (A') (A') (A') (A')
                 (A") (A') (A") (A') (A") (A')
       Virtual   (A") (A') (A') (A") (A') (A') (A') (A") (A') (A')
                 (A') (A") (A') (A') (A") (A') (A') (A') (A") (A')
                 (A') (A') (A') (A') (A") (A') (A') (A") (A') (A')
                 (A") (A') (A') (A') (A') (A") (A') (A") (A') (A')
                 (A") (A') (A') (A") (A') (A') (A") (A') (A") (A')
                 (A') (A") (A') (A") (A') (A") (A') (A") (A') (A')
                 (A') (A") (A') (A") (A') (A') (A") (A') (A") (A')
                 (A') (A') (A') (A") (A') (A') (A') (A') (A') (A')
 The electronic state is 1-A'.
 Alpha  occ. eigenvalues --  -19.21148 -19.15707 -10.34246 -10.20941  -1.10891
 Alpha  occ. eigenvalues --   -1.02603  -0.77507  -0.62790  -0.50573  -0.48281
 Alpha  occ. eigenvalues --   -0.47985  -0.43149  -0.40744  -0.40354  -0.33199
 Alpha  occ. eigenvalues --   -0.28843
 Alpha virt. eigenvalues --   -0.01792  -0.00451   0.02256   0.05144   0.05364
 Alpha virt. eigenvalues --    0.06349   0.07704   0.08575   0.11996   0.15465
 Alpha virt. eigenvalues --    0.16599   0.17112   0.19209   0.22118   0.22878
 Alpha virt. eigenvalues --    0.23690   0.25679   0.27923   0.27950   0.29281
 Alpha virt. eigenvalues --    0.32891   0.34207   0.36544   0.45751   0.62489
 Alpha virt. eigenvalues --    0.63010   0.66322   0.69325   0.75329   0.77430
 Alpha virt. eigenvalues --    0.90293   0.94106   0.97984   1.06103   1.08330
 Alpha virt. eigenvalues --    1.12437   1.12863   1.22510   1.24465   1.29066
 Alpha virt. eigenvalues --    1.30203   1.30729   1.32743   1.40018   1.49760
 Alpha virt. eigenvalues --    1.57290   1.57758   1.69243   1.70428   1.74999
 Alpha virt. eigenvalues --    1.80926   1.84399   1.92894   2.01812   2.03651
 Alpha virt. eigenvalues --    2.09987   2.14455   2.21593   2.21617   2.28903
 Alpha virt. eigenvalues --    2.42466   2.46541   2.52247   2.55205   2.67027
 Alpha virt. eigenvalues --    2.67621   2.71356   2.79298   2.89046   2.98126
 Alpha virt. eigenvalues --    3.09395   3.17989   3.31249   3.44175   3.46026
 Alpha virt. eigenvalues --    3.49937   4.13721   4.27193   4.34750   4.58527
          Condensed to atoms (all electrons):
               1          2          3          4          5          6
     1  C    4.776604   0.258288   0.478602  -0.013249   0.177000  -0.031742
     2  O    0.258288   8.293340  -0.134960   0.231190  -0.190907   0.002526
     3  O    0.478602  -0.134960   8.234233   0.005773  -0.137718   0.007662
     4  H   -0.013249   0.231190   0.005773   0.378703   0.034233  -0.000256
     5  C    0.177000  -0.190907  -0.137718   0.034233   5.371413   0.377797
     6  H   -0.031742   0.002526   0.007662  -0.000256   0.377797   0.524803
     7  H   -0.023721   0.002952  -0.008945  -0.000151   0.395444  -0.026587
     8  H   -0.023721   0.002952  -0.008945  -0.000151   0.395444  -0.026587
               7          8
     1  C   -0.023721  -0.023721
     2  O    0.002952   0.002952
     3  O   -0.008945  -0.008945
     4  H   -0.000151  -0.000151
     5  C    0.395444   0.395444
     6  H   -0.026587  -0.026587
     7  H    0.487407  -0.019177
     8  H   -0.019177   0.487407
 Mulliken charges:
               1
     1  C    0.401940
     2  O   -0.465382
     3  O   -0.435701
     4  H    0.363907
     5  C   -0.422706
     6  H    0.172384
     7  H    0.192778
     8  H    0.192778
 Sum of Mulliken charges =  -0.00000
 Mulliken charges with hydrogens summed into heavy atoms:
               1
     1  C    0.401940
     2  O   -0.101475
     3  O   -0.435701
     5  C    0.135235
 Electronic spatial extent (au):  <R**2>=            259.7593
 Charge=              0.0000 electrons
 Dipole moment (field-independent basis, Debye):
    X=              0.1535    Y=             -1.6368    Z=             -0.0000  Tot=              1.6439
 Quadrupole moment (field-independent basis, Debye-Ang):
   XX=            -21.1526   YY=            -26.8632   ZZ=            -23.3634
   XY=              5.1415   XZ=              0.0000   YZ=              0.0000
 Traceless Quadrupole moment (field-independent basis, Debye-Ang):
   XX=              2.6405   YY=             -3.0702   ZZ=              0.4297
   XY=              5.1415   XZ=              0.0000   YZ=              0.0000
 Octapole moment (field-independent basis, Debye-Ang**2):
  XXX=              8.6010  YYY=             -3.5641  ZZZ=             -0.0000  XYY=              3.3440
  XXY=              5.3825  XXZ=             -0.0000  XZZ=             -0.5136  YZZ=              0.8009
  YYZ=             -0.0000  XYZ=             -0.0000
 Hexadecapole moment (field-independent basis, Debye-Ang**3):
 XXXX=           -137.0707 YYYY=           -142.0700 ZZZZ=            -28.3030 XXXY=              1.2047
 XXXZ=              0.0000 YYYX=            -11.2740 YYYZ=              0.0000 ZZZX=              0.0000
 ZZZY=              0.0000 XXYY=            -48.2971 XXZZ=            -29.3277 YYZZ=            -28.1743
 XXYZ=              0.0000 YYXZ=              0.0000 ZZXY=             -3.0140
 N-N= 1.198443557046D+02 E-N=-7.761932978930D+02  KE= 2.270183927730D+02
 Symmetry A'   KE= 2.167548807649D+02
 Symmetry A"   KE= 1.026351200808D+01
 No NMR shielding tensors so no spin-rotation constants.
 Leave Link  601 at Tue Sep 17 19:28:10 2024, MaxMem=   268435456 cpu:         1.5
 (Enter /g100_work/pMI24_ChiCa/g09d1/g09d01/d01/build-node-6-2-59348/src/main/l701.exe)
 Compute integral first derivatives.
 ... and contract with generalized density number  0.
 Leave Link  701 at Tue Sep 17 19:28:11 2024, MaxMem=   268435456 cpu:         1.5
 (Enter /g100_work/pMI24_ChiCa/g09d1/g09d01/d01/build-node-6-2-59348/src/main/l702.exe)
 L702 exits ... SP integral derivatives will be done elsewhere.
 Leave Link  702 at Tue Sep 17 19:28:11 2024, MaxMem=   268435456 cpu:         0.1
 (Enter /g100_work/pMI24_ChiCa/g09d1/g09d01/d01/build-node-6-2-59348/src/main/l703.exe)
 Compute integral first derivatives, UseDBF=F ICtDFT=           0.
 Integral derivatives from FoFJK, PRISM(SPDF).
 Calling FoFJK, ICntrl=      2127 FMM=F ISym2X=1 I1Cent= 0 IOpClX= 0 NMat=1 NMatS=1 NMatT=0.
 FoFJK:  IHMeth= 1 ICntrl=    2127 DoSepK=F KAlg= 0 I1Cent=   0 FoldK=F
 IRaf=         0 NMat=   1 IRICut=       1 DoRegI=T DoRafI=F ISym2E= 1.
 FoFCou: FMM=F IPFlag=           0 FMFlag=      100000 FMFlg1=         800
         NFxFlg=           0 DoJE=F BraDBF=F KetDBF=F FulRan=T
         wScrn=  0.000000 ICntrl=    2127 IOpCl=  0 I1Cent=           0 NGrid=           0
         NMat0=    1 NMatS0=      1 NMatT0=    0 NMatD0=    1 NMtDS0=    0 NMtDT0=    0
 Petite list used in FoFCou.
 Leave Link  703 at Tue Sep 17 19:28:11 2024, MaxMem=   268435456 cpu:         3.8
 (Enter /g100_work/pMI24_ChiCa/g09d1/g09d01/d01/build-node-6-2-59348/src/main/l716.exe)
 Dipole        = 6.03795544D-02-6.43951955D-01-2.22044605D-16
 ***** Axes restored to original set *****
 -------------------------------------------------------------------
 Center     Atomic                   Forces (Hartrees/Bohr)
 Number     Number              X              Y              Z
 -------------------------------------------------------------------
      1        6           0.036887708    0.000000000    0.005657616
      2        8          -0.041817817   -0.000000000   -0.034140120
      3        8          -0.004059816    0.000000000    0.008728314
      4        1           0.022353420   -0.000000000    0.000260567
      5        6          -0.000593483   -0.000000000    0.030965207
      6        1          -0.015883667   -0.000000000    0.007165288
      7        1           0.001556828    0.012211699   -0.009318435
      8        1           0.001556828   -0.012211699   -0.009318435
 -------------------------------------------------------------------
 Cartesian Forces:  Max     0.041817817 RMS     0.016632037
 Leave Link  716 at Tue Sep 17 19:28:11 2024, MaxMem=   268435456 cpu:         0.1
 (Enter /g100_work/pMI24_ChiCa/g09d1/g09d01/d01/build-node-6-2-59348/src/main/l103.exe)

 GradGradGradGradGradGradGradGradGradGradGradGradGradGradGradGradGradGrad
 Berny optimization.
 FormGI is forming the generalized inverse of G from B-inverse, IUseBI=4.
 Internal  Forces:  Max     0.033878872 RMS     0.012855500
 Search for a local minimum.
 Step number   1 out of a maximum of   35
 All quantities printed in internal units (Hartrees-Bohrs-Radians)
 RMS Force = .12855D-01 SwitMx=.10000D-02 MixMth= 1
 Mixed Optimization -- RFO/linear search
 Second derivative matrix not updated -- first step.
 ITU=  0
     Eigenvalues ---    0.00766   0.00997   0.01692   0.07537   0.07537
     Eigenvalues ---    0.16000   0.16000   0.16000   0.16000   0.25000
     Eigenvalues ---    0.25000   0.32377   0.37230   0.37230   0.37230
     Eigenvalues ---    0.45621   0.57681   0.95383
 RFO step:  Lambda=-1.25546032D-02 EMin= 7.65947438D-03
 Linear search not attempted -- first point.
 Iteration  1 RMS(Cart)=  0.05600643 RMS(Int)=  0.00163649
 Iteration  2 RMS(Cart)=  0.00177749 RMS(Int)=  0.00028494
 Iteration  3 RMS(Cart)=  0.00000201 RMS(Int)=  0.00028494
 Iteration  4 RMS(Cart)=  0.00000000 RMS(Int)=  0.00028494
 ITry= 1 IFail=0 DXMaxC= 1.14D-01 DCOld= 1.00D+10 DXMaxT= 3.00D-01 DXLimC= 3.00D+00 Rises=F
 ClnCor:  largest displacement from symmetrization is 3.73D-10 for atom     4.
 Variable       Old X    -DE/DX   Delta X   Delta X   Delta X     New X
                                 (Linear)    (Quad)   (Total)
    R1        2.64562  -0.03388   0.00000  -0.07227  -0.07227   2.57334
    R2        2.30547  -0.00788   0.00000  -0.00815  -0.00815   2.29731
    R3        2.83459   0.00183   0.00000   0.00543   0.00543   2.84002
    R4        1.79524   0.02116   0.00000   0.03591   0.03591   1.83115
    R5        2.02201   0.01673   0.00000   0.04347   0.04347   2.06547
    R6        2.02201   0.01525   0.00000   0.03961   0.03961   2.06162
    R7        2.02201   0.01525   0.00000   0.03961   0.03961   2.06162
    A1        2.09440   0.00861   0.00000   0.03278   0.03278   2.12717
    A2        2.09440  -0.02996   0.00000  -0.11411  -0.11411   1.98029
    A3        2.09440   0.02135   0.00000   0.08133   0.08133   2.17573
    A4        1.91063  -0.01293   0.00000  -0.07496  -0.07496   1.83568
    A5        1.91063   0.00901   0.00000   0.05973   0.05981   1.97044
    A6        1.91063  -0.00394   0.00000  -0.02659  -0.02698   1.88365
    A7        1.91063  -0.00394   0.00000  -0.02659  -0.02698   1.88365
    A8        1.91063  -0.00085   0.00000   0.00259   0.00267   1.91331
    A9        1.91063  -0.00085   0.00000   0.00259   0.00267   1.91331
   A10        1.91063   0.00057   0.00000  -0.01174  -0.01271   1.89793
    D1       -0.00000  -0.00000   0.00000  -0.00000   0.00000   0.00000
    D2        3.14159  -0.00000   0.00000  -0.00000   0.00000   3.14159
    D3        0.00000   0.00000   0.00000   0.00000  -0.00000   0.00000
    D4        2.09440   0.00206   0.00000   0.02347   0.02303   2.11743
    D5       -2.09440  -0.00206   0.00000  -0.02347  -0.02303  -2.11743
    D6        3.14159  -0.00000   0.00000  -0.00000   0.00000   3.14159
    D7       -1.04720   0.00206   0.00000   0.02347   0.02303  -1.02416
    D8        1.04720  -0.00206   0.00000  -0.02347  -0.02303   1.02416
         Item               Value     Threshold  Converged?
 Maximum Force            0.033879     0.000450     NO 
 RMS     Force            0.012855     0.000300     NO 
 Maximum Displacement     0.114422     0.001800     NO 
 RMS     Displacement     0.056380     0.001200     NO 
 Predicted change in Energy=-6.555402D-03
 Lowest energy point so far.  Saving SCF results.
 GradGradGradGradGradGradGradGradGradGradGradGradGradGradGradGradGradGrad

 Leave Link  103 at Tue Sep 17 19:28:11 2024, MaxMem=   268435456 cpu:         1.6
 (Enter /g100_work/pMI24_ChiCa/g09d1/g09d01/d01/build-node-6-2-59348/src/main/l202.exe)
                          Input orientation:                          
 ---------------------------------------------------------------------
 Center     Atomic      Atomic             Coordinates (Angstroms)
 Number     Number       Type             X           Y           Z
 ---------------------------------------------------------------------
      1          6           0        0.037918    0.000000   -0.018963
      2          8           0       -0.057418    0.000000    1.339450
      3          8           0        1.112662    0.000000   -0.587131
      4          1           0        0.857734    0.000000    1.657978
      5          6           0       -1.295429   -0.000000   -0.712372
      6          1           0       -2.137296   -0.000000   -0.015297
      7          1           0       -1.344376    0.886748   -1.345999
      8          1           0       -1.344376   -0.886748   -1.345999
 ---------------------------------------------------------------------
                    Distance matrix (angstroms):
                    1          2          3          4          5
     1  C    0.000000
     2  O    1.361755   0.000000
     3  O    1.215685   2.254063   0.000000
     4  H    1.866609   0.969000   2.259536   0.000000
     5  C    1.502873   2.396382   2.411345   3.202291   0.000000
     6  H    2.175216   2.482183   3.299881   3.430750   1.093002
     7  H    2.111417   3.107124   2.720153   3.828770   1.090963
     8  H    2.111417   3.107124   2.720153   3.828770   1.090963
                    6          7          8
     6  H    0.000000
     7  H    1.784884   0.000000
     8  H    1.784884   1.773495   0.000000
 Stoichiometry    C2H4O2
 Framework group  CS[SG(C2H2O2),X(H2)]
 Deg. of freedom    12
 Full point group                 CS      NOp   2
 RotChk:  IX=0 Diff= 6.30D-02
 Largest Abelian subgroup         CS      NOp   2
 Largest concise Abelian subgroup CS      NOp   2
                         Standard orientation:                         
 ---------------------------------------------------------------------
 Center     Atomic      Atomic             Coordinates (Angstroms)
 Number     Number       Type             X           Y           Z
 ---------------------------------------------------------------------
      1          6           0        0.000000    0.138951    0.000000
      2          8           0        1.283554   -0.315871    0.000000
      3          8           0       -0.260352    1.326431    0.000000
      4          1           0        1.835020    0.480902    0.000000
      5          6           0       -1.024455   -0.960648   -0.000000
      6          1           0       -0.577661   -1.958159   -0.000000
      7          1           0       -1.648124   -0.838517    0.886748
      8          1           0       -1.648124   -0.838517   -0.886748
 ---------------------------------------------------------------------
 Rotational constants (GHZ):     11.3193711      9.3440775      5.2884457
 Leave Link  202 at Tue Sep 17 19:28:11 2024, MaxMem=   268435456 cpu:         0.1
 (Enter /g100_work/pMI24_ChiCa/g09d1/g09d01/d01/build-node-6-2-59348/src/main/l301.exe)
 Standard basis: 6-31+G(d,p) (6D, 7F)
 Ernie: Thresh=  0.10000D-02 Tol=  0.10000D-05 Strict=F.
 There are    69 symmetry adapted cartesian basis functions of A'  symmetry.
 There are    27 symmetry adapted cartesian basis functions of A"  symmetry.
 There are    69 symmetry adapted basis functions of A'  symmetry.
 There are    27 symmetry adapted basis functions of A"  symmetry.
    96 basis functions,   156 primitive gaussians,    96 cartesian basis functions
    16 alpha electrons       16 beta electrons
       nuclear repulsion energy       120.6567048026 Hartrees.
 IExCor=  402 DFT=T Ex+Corr=B3LYP ExCW=0 ScaHFX=  0.200000
 ScaDFX=  0.800000  0.720000  1.000000  0.810000 ScalE2=  1.000000  1.000000
 IRadAn=      0 IRanWt=     -1 IRanGd=            0 ICorTp=0 IEmpDi=  4
 NAtoms=    8 NActive=    8 NUniq=    7 SFac= 1.31D+00 NAtFMM=   60 NAOKFM=F Big=F
 Integral buffers will be    131072 words long.
 Raffenetti 2 integral format.
 Two-electron integral symmetry is turned on.
 Leave Link  301 at Tue Sep 17 19:28:11 2024, MaxMem=   268435456 cpu:         0.1
 (Enter /g100_work/pMI24_ChiCa/g09d1/g09d01/d01/build-node-6-2-59348/src/main/l302.exe)
 NPDir=0 NMtPBC=     1 NCelOv=     1 NCel=       1 NClECP=     1 NCelD=      1
         NCelK=      1 NCelE2=     1 NClLst=     1 CellRange=     0.0.
 One-electron integrals computed using PRISM.
 One-electron integral symmetry used in STVInt
 NBasis=    96 RedAO= T EigKep=  3.12D-04  NBF=    69    27
 NBsUse=    96 1.00D-06 EigRej= -1.00D+00 NBFU=    69    27
 Precomputing XC quadrature grid using
 IXCGrd= 4 IRadAn=           0 IRanWt=          -1 IRanGd=           0 AccXCQ= 0.00D+00.
 Generated NRdTot=       0 NPtTot=           0 NUsed=           0 NTot=          32
 NSgBfM=    96    96    96    96    96 MxSgAt=     8 MxSgA2=     8.
 Leave Link  302 at Tue Sep 17 19:28:11 2024, MaxMem=   268435456 cpu:         1.3
 (Enter /g100_work/pMI24_ChiCa/g09d1/g09d01/d01/build-node-6-2-59348/src/main/l303.exe)
 DipDrv:  MaxL=1.
 Leave Link  303 at Tue Sep 17 19:28:11 2024, MaxMem=   268435456 cpu:         0.2
 (Enter /g100_work/pMI24_ChiCa/g09d1/g09d01/d01/build-node-6-2-59348/src/main/l401.exe)
 Initial guess from the checkpoint file:  "/g100_scratch/userexternal/ecabiati/g16_14420037/Gau-43962.chk"
 B after Tr=    -0.000000    0.000000    0.000000
         Rot=    0.999586   -0.000000    0.000000    0.028789 Ang=   3.30 deg.
 Guess basis will be translated and rotated to current coordinates.
 JPrj=2 DoOrth=T DoCkMO=T.
 Initial guess orbital symmetries:
       Occupied  (A') (A') (A') (A') (A') (A') (A') (A') (A') (A')
                 (A") (A') (A") (A') (A") (A')
       Virtual   (A') (A') (A') (A') (A') (A') (A') (A') (A') (A')
                 (A') (A') (A') (A') (A') (A') (A') (A') (A') (A')
                 (A') (A') (A') (A') (A') (A') (A') (A') (A') (A')
                 (A') (A') (A') (A') (A') (A') (A') (A') (A') (A')
                 (A') (A') (A') (A') (A') (A') (A') (A') (A') (A')
                 (A') (A') (A') (A') (A') (A') (A") (A") (A") (A")
                 (A") (A") (A") (A") (A") (A") (A") (A") (A") (A")
                 (A") (A") (A") (A") (A") (A") (A") (A") (A") (A")
 The electronic state of the initial guess is 1-A'.
 Generating alternative initial guess.
 ExpMin= 4.38D-02 ExpMax= 5.48D+03 ExpMxC= 8.25D+02 IAcc=2 IRadAn=         4 AccDes= 0.00D+00
 Harris functional with IExCor=  402 and IRadAn=       4 diagonalized for initial guess.
 HarFok:  IExCor=  402 AccDes= 0.00D+00 IRadAn=         4 IDoV= 1 UseB2=F ITyADJ=14
 ICtDFT=  3500011 ScaDFX=  1.000000  1.000000  1.000000  1.000000
 FoFCou: FMM=F IPFlag=           0 FMFlag=      100000 FMFlg1=           0
         NFxFlg=           0 DoJE=T BraDBF=F KetDBF=T FulRan=T
         wScrn=  0.000000 ICntrl=     500 IOpCl=  0 I1Cent=   200000004 NGrid=           0
         NMat0=    1 NMatS0=      1 NMatT0=    0 NMatD0=    1 NMtDS0=    0 NMtDT0=    0
 Petite list used in FoFCou.
 Harris En= -229.133816506030    
 Leave Link  401 at Tue Sep 17 19:28:12 2024, MaxMem=   268435456 cpu:         1.9
 (Enter /g100_work/pMI24_ChiCa/g09d1/g09d01/d01/build-node-6-2-59348/src/main/l502.exe)
 Closed shell SCF:
 Using DIIS extrapolation, IDIIS=  1040.
 Integral symmetry usage will be decided dynamically.
 Keep R1 ints in memory in symmetry-blocked form, NReq=16539583.
 IVT=       49354 IEndB=       49354 NGot=   268435456 MDV=   262737466
 LenX=   262737466 LenY=   262727809
 Requested convergence on RMS density matrix=1.00D-08 within 128 cycles.
 Requested convergence on MAX density matrix=1.00D-06.
 Requested convergence on             energy=1.00D-06.
 No special actions if energy rises.
 FoFCou: FMM=F IPFlag=           0 FMFlag=           0 FMFlg1=           0
         NFxFlg=           0 DoJE=F BraDBF=F KetDBF=F FulRan=T
         wScrn=  0.000000 ICntrl=     600 IOpCl=  0 I1Cent=           0 NGrid=           0
         NMat0=    1 NMatS0=   4656 NMatT0=    0 NMatD0=    1 NMtDS0=    0 NMtDT0=    0
 Petite list used in FoFCou.

 Cycle   1  Pass 1  IDiag  1:
 E= -229.102212277905    
 DIIS: error= 3.12D-03 at cycle   1 NSaved=   1.
 NSaved= 1 IEnMin= 1 EnMin= -229.102212277905     IErMin= 1 ErrMin= 3.12D-03
 ErrMax= 3.12D-03  0.00D+00 EMaxC= 1.00D-01 BMatC= 1.91D-03 BMatP= 1.91D-03
 IDIUse=3 WtCom= 9.69D-01 WtEn= 3.12D-02
 Coeff-Com:  0.100D+01
 Coeff-En:   0.100D+01
 Coeff:      0.100D+01
 Gap=     0.470 Goal=   None    Shift=    0.000
 GapD=    0.470 DampG=2.000 DampE=1.000 DampFc=2.0000 IDamp=-1.
 RMSDP=1.21D-03 MaxDP=2.45D-02              OVMax= 1.97D-02

 Cycle   2  Pass 1  IDiag  1:
 E= -229.104548905202     Delta-E=       -0.002336627297 Rises=F Damp=F
 DIIS: error= 2.41D-03 at cycle   2 NSaved=   2.
 NSaved= 2 IEnMin= 2 EnMin= -229.104548905202     IErMin= 2 ErrMin= 2.41D-03
 ErrMax= 2.41D-03  0.00D+00 EMaxC= 1.00D-01 BMatC= 6.17D-04 BMatP= 1.91D-03
 IDIUse=3 WtCom= 9.76D-01 WtEn= 2.41D-02
 Coeff-Com:  0.280D+00 0.720D+00
 Coeff-En:   0.000D+00 0.100D+01
 Coeff:      0.273D+00 0.727D+00
 Gap=     0.278 Goal=   None    Shift=    0.000
 RMSDP=4.75D-04 MaxDP=1.08D-02 DE=-2.34D-03 OVMax= 1.82D-02

 Cycle   3  Pass 1  IDiag  1:
 E= -229.104358840619     Delta-E=        0.000190064583 Rises=F Damp=F
 DIIS: error= 3.42D-03 at cycle   3 NSaved=   3.
 NSaved= 3 IEnMin= 2 EnMin= -229.104548905202     IErMin= 2 ErrMin= 2.41D-03
 ErrMax= 3.42D-03  0.00D+00 EMaxC= 1.00D-01 BMatC= 9.16D-04 BMatP= 6.17D-04
 IDIUse=3 WtCom= 1.46D-01 WtEn= 8.54D-01
 Coeff-Com:  0.116D-01 0.547D+00 0.442D+00
 Coeff-En:   0.000D+00 0.562D+00 0.438D+00
 Coeff:      0.169D-02 0.559D+00 0.439D+00
 Gap=     0.283 Goal=   None    Shift=    0.000
 RMSDP=2.55D-04 MaxDP=7.10D-03 DE= 1.90D-04 OVMax= 1.17D-02

 Cycle   4  Pass 1  IDiag  1:
 E= -229.105036785171     Delta-E=       -0.000677944552 Rises=F Damp=F
 DIIS: error= 4.26D-04 at cycle   4 NSaved=   4.
 NSaved= 4 IEnMin= 4 EnMin= -229.105036785171     IErMin= 4 ErrMin= 4.26D-04
 ErrMax= 4.26D-04  0.00D+00 EMaxC= 1.00D-01 BMatC= 3.53D-05 BMatP= 6.17D-04
 IDIUse=3 WtCom= 9.96D-01 WtEn= 4.26D-03
 Coeff-Com: -0.187D-01 0.270D+00 0.247D+00 0.502D+00
 Coeff-En:   0.000D+00 0.000D+00 0.000D+00 0.100D+01
 Coeff:     -0.186D-01 0.269D+00 0.246D+00 0.504D+00
 Gap=     0.282 Goal=   None    Shift=    0.000
 RMSDP=5.39D-05 MaxDP=1.02D-03 DE=-6.78D-04 OVMax= 1.40D-03

 Cycle   5  Pass 1  IDiag  1:
 E= -229.105066507623     Delta-E=       -0.000029722452 Rises=F Damp=F
 DIIS: error= 4.41D-05 at cycle   5 NSaved=   5.
 NSaved= 5 IEnMin= 5 EnMin= -229.105066507623     IErMin= 5 ErrMin= 4.41D-05
 ErrMax= 4.41D-05  0.00D+00 EMaxC= 1.00D-01 BMatC= 4.33D-07 BMatP= 3.53D-05
 IDIUse=1 WtCom= 1.00D+00 WtEn= 0.00D+00
 Coeff-Com: -0.558D-02 0.579D-01 0.537D-01 0.165D+00 0.729D+00
 Coeff:     -0.558D-02 0.579D-01 0.537D-01 0.165D+00 0.729D+00
 Gap=     0.282 Goal=   None    Shift=    0.000
 RMSDP=7.89D-06 MaxDP=1.20D-04 DE=-2.97D-05 OVMax= 1.83D-04

 Cycle   6  Pass 1  IDiag  1:
 E= -229.105066886320     Delta-E=       -0.000000378698 Rises=F Damp=F
 DIIS: error= 1.96D-05 at cycle   6 NSaved=   6.
 NSaved= 6 IEnMin= 6 EnMin= -229.105066886320     IErMin= 6 ErrMin= 1.96D-05
 ErrMax= 1.96D-05  0.00D+00 EMaxC= 1.00D-01 BMatC= 2.60D-08 BMatP= 4.33D-07
 IDIUse=1 WtCom= 1.00D+00 WtEn= 0.00D+00
 Coeff-Com: -0.139D-02 0.117D-01 0.116D-01 0.437D-01 0.285D+00 0.650D+00
 Coeff:     -0.139D-02 0.117D-01 0.116D-01 0.437D-01 0.285D+00 0.650D+00
 Gap=     0.282 Goal=   None    Shift=    0.000
 RMSDP=2.12D-06 MaxDP=4.70D-05 DE=-3.79D-07 OVMax= 4.20D-05

 Cycle   7  Pass 1  IDiag  1:
 E= -229.105066898947     Delta-E=       -0.000000012627 Rises=F Damp=F
 DIIS: error= 1.08D-05 at cycle   7 NSaved=   7.
 NSaved= 7 IEnMin= 7 EnMin= -229.105066898947     IErMin= 7 ErrMin= 1.08D-05
 ErrMax= 1.08D-05  0.00D+00 EMaxC= 1.00D-01 BMatC= 8.67D-09 BMatP= 2.60D-08
 IDIUse=1 WtCom= 1.00D+00 WtEn= 0.00D+00
 Coeff-Com: -0.165D-04-0.194D-02-0.106D-02 0.228D-03 0.548D-01 0.393D+00
 Coeff-Com:  0.555D+00
 Coeff:     -0.165D-04-0.194D-02-0.106D-02 0.228D-03 0.548D-01 0.393D+00
 Coeff:      0.555D+00
 Gap=     0.282 Goal=   None    Shift=    0.000
 RMSDP=7.58D-07 MaxDP=1.98D-05 DE=-1.26D-08 OVMax= 2.22D-05

 Cycle   8  Pass 1  IDiag  1:
 E= -229.105066905128     Delta-E=       -0.000000006181 Rises=F Damp=F
 DIIS: error= 1.19D-06 at cycle   8 NSaved=   8.
 NSaved= 8 IEnMin= 8 EnMin= -229.105066905128     IErMin= 8 ErrMin= 1.19D-06
 ErrMax= 1.19D-06  0.00D+00 EMaxC= 1.00D-01 BMatC= 1.72D-10 BMatP= 8.67D-09
 IDIUse=1 WtCom= 1.00D+00 WtEn= 0.00D+00
 Coeff-Com:  0.217D-04-0.113D-02-0.665D-03-0.106D-02 0.167D-01 0.156D+00
 Coeff-Com:  0.245D+00 0.585D+00
 Coeff:      0.217D-04-0.113D-02-0.665D-03-0.106D-02 0.167D-01 0.156D+00
 Coeff:      0.245D+00 0.585D+00
 Gap=     0.282 Goal=   None    Shift=    0.000
 RMSDP=1.47D-07 MaxDP=2.53D-06 DE=-6.18D-09 OVMax= 4.23D-06

 Cycle   9  Pass 1  IDiag  1:
 E= -229.105066905286     Delta-E=       -0.000000000159 Rises=F Damp=F
 DIIS: error= 2.26D-07 at cycle   9 NSaved=   9.
 NSaved= 9 IEnMin= 9 EnMin= -229.105066905286     IErMin= 9 ErrMin= 2.26D-07
 ErrMax= 2.26D-07  0.00D+00 EMaxC= 1.00D-01 BMatC= 1.00D-11 BMatP= 1.72D-10
 IDIUse=1 WtCom= 1.00D+00 WtEn= 0.00D+00
 Coeff-Com:  0.164D-04-0.214D-03-0.128D-03-0.581D-03-0.149D-02 0.619D-02
 Coeff-Com:  0.130D-01 0.195D+00 0.788D+00
 Coeff:      0.164D-04-0.214D-03-0.128D-03-0.581D-03-0.149D-02 0.619D-02
 Coeff:      0.130D-01 0.195D+00 0.788D+00
 Gap=     0.282 Goal=   None    Shift=    0.000
 RMSDP=5.86D-08 MaxDP=1.46D-06 DE=-1.59D-10 OVMax= 1.01D-06

 Cycle  10  Pass 1  IDiag  1:
 E= -229.105066905297     Delta-E=       -0.000000000010 Rises=F Damp=F
 DIIS: error= 2.82D-08 at cycle  10 NSaved=  10.
 NSaved=10 IEnMin=10 EnMin= -229.105066905297     IErMin=10 ErrMin= 2.82D-08
 ErrMax= 2.82D-08  0.00D+00 EMaxC= 1.00D-01 BMatC= 9.06D-14 BMatP= 1.00D-11
 IDIUse=1 WtCom= 1.00D+00 WtEn= 0.00D+00
 Coeff-Com:  0.199D-05-0.101D-04-0.364D-05-0.814D-04-0.553D-03-0.207D-02
 Coeff-Com: -0.316D-02 0.195D-01 0.142D+00 0.845D+00
 Coeff:      0.199D-05-0.101D-04-0.364D-05-0.814D-04-0.553D-03-0.207D-02
 Coeff:     -0.316D-02 0.195D-01 0.142D+00 0.845D+00
 Gap=     0.282 Goal=   None    Shift=    0.000
 RMSDP=7.73D-09 MaxDP=1.90D-07 DE=-1.02D-11 OVMax= 9.32D-08

 SCF Done:  E(RB3LYP) =  -229.105066905     A.U. after   10 cycles
            NFock= 10  Conv=0.77D-08     -V/T= 2.0093
 KE= 2.270031314245D+02 PE=-7.777775600457D+02 EE= 2.010126569133D+02
 Leave Link  502 at Tue Sep 17 19:28:12 2024, MaxMem=   268435456 cpu:         9.0
 (Enter /g100_work/pMI24_ChiCa/g09d1/g09d01/d01/build-node-6-2-59348/src/main/l701.exe)
 Compute integral first derivatives.
 ... and contract with generalized density number  0.
 Leave Link  701 at Tue Sep 17 19:28:12 2024, MaxMem=   268435456 cpu:         1.5
 (Enter /g100_work/pMI24_ChiCa/g09d1/g09d01/d01/build-node-6-2-59348/src/main/l702.exe)
 L702 exits ... SP integral derivatives will be done elsewhere.
 Leave Link  702 at Tue Sep 17 19:28:12 2024, MaxMem=   268435456 cpu:         0.1
 (Enter /g100_work/pMI24_ChiCa/g09d1/g09d01/d01/build-node-6-2-59348/src/main/l703.exe)
 Compute integral first derivatives, UseDBF=F ICtDFT=           0.
 Integral derivatives from FoFJK, PRISM(SPDF).
 Calling FoFJK, ICntrl=      2127 FMM=F ISym2X=1 I1Cent= 0 IOpClX= 0 NMat=1 NMatS=1 NMatT=0.
 FoFJK:  IHMeth= 1 ICntrl=    2127 DoSepK=F KAlg= 0 I1Cent=   0 FoldK=F
 IRaf=         0 NMat=   1 IRICut=       1 DoRegI=T DoRafI=F ISym2E= 1.
 FoFCou: FMM=F IPFlag=           0 FMFlag=      100000 FMFlg1=         800
         NFxFlg=           0 DoJE=F BraDBF=F KetDBF=F FulRan=T
         wScrn=  0.000000 ICntrl=    2127 IOpCl=  0 I1Cent=           0 NGrid=           0
         NMat0=    1 NMatS0=      1 NMatT0=    0 NMatD0=    1 NMtDS0=    0 NMtDT0=    0
 Petite list used in FoFCou.
 Leave Link  703 at Tue Sep 17 19:28:13 2024, MaxMem=   268435456 cpu:         3.8
 (Enter /g100_work/pMI24_ChiCa/g09d1/g09d01/d01/build-node-6-2-59348/src/main/l716.exe)
 Dipole        = 9.58380062D-02-6.60642996D-01 4.44089210D-16
 ***** Axes restored to original set *****
 -------------------------------------------------------------------
 Center     Atomic                   Forces (Hartrees/Bohr)
 Number     Number              X              Y              Z
 -------------------------------------------------------------------
      1        6           0.003494770    0.000000000    0.001354885
      2        8          -0.002061491   -0.000000000   -0.006356940
      3        8          -0.002816034    0.000000000    0.002160037
      4        1           0.003311398    0.000000000    0.004049240
      5        6          -0.002400688   -0.000000000    0.003930352
      6        1           0.002117222    0.000000000   -0.000126266
      7        1          -0.000822588    0.000162840   -0.002505654
      8        1          -0.000822588   -0.000162840   -0.002505654
 -------------------------------------------------------------------
 Cartesian Forces:  Max     0.006356940 RMS     0.002400864
 Leave Link  716 at Tue Sep 17 19:28:13 2024, MaxMem=   268435456 cpu:         0.1
 (Enter /g100_work/pMI24_ChiCa/g09d1/g09d01/d01/build-node-6-2-59348/src/main/l103.exe)

 GradGradGradGradGradGradGradGradGradGradGradGradGradGradGradGradGradGrad
 Berny optimization.
 Using GEDIIS/GDIIS optimizer.
 FormGI is forming the generalized inverse of G from B-inverse, IUseBI=4.
 Internal  Forces:  Max     0.005009444 RMS     0.002030514
 Search for a local minimum.
 Step number   2 out of a maximum of   35
 All quantities printed in internal units (Hartrees-Bohrs-Radians)
 RMS Force = .20305D-02 SwitMx=.10000D-02 MixMth= 1
 Mixed Optimization -- RFO/linear search
 Update second derivatives using D2CorX and points    1    2
 DE= -6.49D-03 DEPred=-6.56D-03 R= 9.89D-01
 TightC=F SS=  1.41D+00  RLast= 2.13D-01 DXNew= 5.0454D-01 6.3848D-01
 Trust test= 9.89D-01 RLast= 2.13D-01 DXMaxT set to 5.05D-01
 ITU=  1  0
 Use linear search instead of GDIIS.
     Eigenvalues ---    0.00766   0.00987   0.01692   0.07184   0.07768
     Eigenvalues ---    0.15971   0.16000   0.16000   0.17442   0.24647
     Eigenvalues ---    0.25044   0.32335   0.36605   0.37230   0.37938
     Eigenvalues ---    0.44695   0.56633   0.95095
 RFO step:  Lambda=-4.23187170D-04 EMin= 7.65947438D-03
 Quartic linear search produced a step of  0.01775.
 Iteration  1 RMS(Cart)=  0.01571677 RMS(Int)=  0.00025075
 Iteration  2 RMS(Cart)=  0.00025402 RMS(Int)=  0.00001905
 Iteration  3 RMS(Cart)=  0.00000007 RMS(Int)=  0.00001905
 ITry= 1 IFail=0 DXMaxC= 4.39D-02 DCOld= 1.00D+10 DXMaxT= 5.05D-01 DXLimC= 3.00D+00 Rises=F
 ClnCor:  largest displacement from symmetrization is 5.73D-10 for atom     4.
 Variable       Old X    -DE/DX   Delta X   Delta X   Delta X     New X
                                 (Linear)    (Quad)   (Total)
    R1        2.57334  -0.00239  -0.00128  -0.00651  -0.00780   2.56555
    R2        2.29731  -0.00350  -0.00014  -0.00387  -0.00401   2.29330
    R3        2.84002   0.00227   0.00010   0.00721   0.00730   2.84732
    R4        1.83115   0.00446   0.00064   0.00846   0.00910   1.84024
    R5        2.06547  -0.00171   0.00077  -0.00397  -0.00320   2.06228
    R6        2.06162   0.00162   0.00070   0.00508   0.00578   2.06740
    R7        2.06162   0.00162   0.00070   0.00508   0.00578   2.06740
    A1        2.12717   0.00028   0.00058   0.00167   0.00225   2.12942
    A2        1.98029  -0.00193  -0.00202  -0.00964  -0.01166   1.96863
    A3        2.17573   0.00165   0.00144   0.00797   0.00941   2.18514
    A4        1.83568   0.00501  -0.00133   0.03068   0.02935   1.86503
    A5        1.97044  -0.00230   0.00106  -0.01239  -0.01130   1.95915
    A6        1.88365   0.00207  -0.00048   0.01209   0.01161   1.89526
    A7        1.88365   0.00207  -0.00048   0.01209   0.01161   1.89526
    A8        1.91331   0.00028   0.00005   0.00316   0.00324   1.91655
    A9        1.91331   0.00028   0.00005   0.00316   0.00324   1.91655
   A10        1.89793  -0.00242  -0.00023  -0.01849  -0.01876   1.87917
    D1        0.00000   0.00000   0.00000  -0.00000   0.00000   0.00000
    D2        3.14159   0.00000   0.00000   0.00000   0.00000   3.14159
    D3        0.00000  -0.00000   0.00000  -0.00000  -0.00000   0.00000
    D4        2.11743   0.00032   0.00041   0.00446   0.00484   2.12227
    D5       -2.11743  -0.00032  -0.00041  -0.00446  -0.00484  -2.12227
    D6        3.14159   0.00000   0.00000  -0.00000   0.00000   3.14159
    D7       -1.02416   0.00032   0.00041   0.00446   0.00484  -1.01933
    D8        1.02416  -0.00032  -0.00041  -0.00446  -0.00484   1.01933
         Item               Value     Threshold  Converged?
 Maximum Force            0.005009     0.000450     NO 
 RMS     Force            0.002031     0.000300     NO 
 Maximum Displacement     0.043895     0.001800     NO 
 RMS     Displacement     0.015816     0.001200     NO 
 Predicted change in Energy=-2.140851D-04
 Lowest energy point so far.  Saving SCF results.
 GradGradGradGradGradGradGradGradGradGradGradGradGradGradGradGradGradGrad

 Leave Link  103 at Tue Sep 17 19:28:13 2024, MaxMem=   268435456 cpu:         1.1
 (Enter /g100_work/pMI24_ChiCa/g09d1/g09d01/d01/build-node-6-2-59348/src/main/l202.exe)
                          Input orientation:                          
 ---------------------------------------------------------------------
 Center     Atomic      Atomic             Coordinates (Angstroms)
 Number     Number       Type             X           Y           Z
 ---------------------------------------------------------------------
      1          6           0        0.046144    0.000000   -0.024930
      2          8           0       -0.057053    0.000000    1.328771
      3          8           0        1.121140    0.000000   -0.588056
      4          1           0        0.850748    0.000000    1.681206
      5          6           0       -1.294531   -0.000000   -0.712570
      6          1           0       -2.123188   -0.000000   -0.002438
      7          1           0       -1.356920    0.883217   -1.355158
      8          1           0       -1.356920   -0.883217   -1.355158
 ---------------------------------------------------------------------
                    Distance matrix (angstroms):
                    1          2          3          4          5
     1  C    0.000000
     2  O    1.357628   0.000000
     3  O    1.213560   2.249970   0.000000
     4  H    1.886342   0.973814   2.285315   0.000000
     5  C    1.506738   2.387137   2.418878   3.214403   0.000000
     6  H    2.169449   2.457851   3.296759   3.417448   1.091311
     7  H    2.125598   3.110177   2.740310   3.856602   1.094022
     8  H    2.125598   3.110177   2.740310   3.856602   1.094022
                    6          7          8
     6  H    0.000000
     7  H    1.788042   0.000000
     8  H    1.788042   1.766434   0.000000
 Stoichiometry    C2H4O2
 Framework group  CS[SG(C2H2O2),X(H2)]
 Deg. of freedom    12
 Full point group                 CS      NOp   2
 RotChk:  IX=0 Diff= 1.05D-02
 Largest Abelian subgroup         CS      NOp   2
 Largest concise Abelian subgroup CS      NOp   2
                         Standard orientation:                         
 ---------------------------------------------------------------------
 Center     Atomic      Atomic             Coordinates (Angstroms)
 Number     Number       Type             X           Y           Z
 ---------------------------------------------------------------------
      1          6           0       -0.000000    0.144303    0.000000
      2          8           0        1.273441   -0.326337   -0.000000
      3          8           0       -0.246580    1.332549    0.000000
      4          1           0        1.861418    0.449934    0.000000
      5          6           0       -1.029083   -0.956264   -0.000000
      6          1           0       -0.573552   -1.947955   -0.000000
      7          1           0       -1.664130   -0.839956    0.883217
      8          1           0       -1.664130   -0.839956   -0.883217
 ---------------------------------------------------------------------
 Rotational constants (GHZ):     11.3256850      9.3428639      5.2880404
 Leave Link  202 at Tue Sep 17 19:28:13 2024, MaxMem=   268435456 cpu:         0.1
 (Enter /g100_work/pMI24_ChiCa/g09d1/g09d01/d01/build-node-6-2-59348/src/main/l301.exe)
 Standard basis: 6-31+G(d,p) (6D, 7F)
 Ernie: Thresh=  0.10000D-02 Tol=  0.10000D-05 Strict=F.
 There are    69 symmetry adapted cartesian basis functions of A'  symmetry.
 There are    27 symmetry adapted cartesian basis functions of A"  symmetry.
 There are    69 symmetry adapted basis functions of A'  symmetry.
 There are    27 symmetry adapted basis functions of A"  symmetry.
    96 basis functions,   156 primitive gaussians,    96 cartesian basis functions
    16 alpha electrons       16 beta electrons
       nuclear repulsion energy       120.6520931427 Hartrees.
 IExCor=  402 DFT=T Ex+Corr=B3LYP ExCW=0 ScaHFX=  0.200000
 ScaDFX=  0.800000  0.720000  1.000000  0.810000 ScalE2=  1.000000  1.000000
 IRadAn=      0 IRanWt=     -1 IRanGd=            0 ICorTp=0 IEmpDi=  4
 NAtoms=    8 NActive=    8 NUniq=    7 SFac= 1.31D+00 NAtFMM=   60 NAOKFM=F Big=F
 Integral buffers will be    131072 words long.
 Raffenetti 2 integral format.
 Two-electron integral symmetry is turned on.
 Leave Link  301 at Tue Sep 17 19:28:13 2024, MaxMem=   268435456 cpu:         0.1
 (Enter /g100_work/pMI24_ChiCa/g09d1/g09d01/d01/build-node-6-2-59348/src/main/l302.exe)
 NPDir=0 NMtPBC=     1 NCelOv=     1 NCel=       1 NClECP=     1 NCelD=      1
         NCelK=      1 NCelE2=     1 NClLst=     1 CellRange=     0.0.
 One-electron integrals computed using PRISM.
 One-electron integral symmetry used in STVInt
 NBasis=    96 RedAO= T EigKep=  3.15D-04  NBF=    69    27
 NBsUse=    96 1.00D-06 EigRej= -1.00D+00 NBFU=    69    27
 Precomputing XC quadrature grid using
 IXCGrd= 4 IRadAn=           0 IRanWt=          -1 IRanGd=           0 AccXCQ= 0.00D+00.
 Generated NRdTot=       0 NPtTot=           0 NUsed=           0 NTot=          32
 NSgBfM=    96    96    96    96    96 MxSgAt=     8 MxSgA2=     8.
 Leave Link  302 at Tue Sep 17 19:28:13 2024, MaxMem=   268435456 cpu:         1.4
 (Enter /g100_work/pMI24_ChiCa/g09d1/g09d01/d01/build-node-6-2-59348/src/main/l303.exe)
 DipDrv:  MaxL=1.
 Leave Link  303 at Tue Sep 17 19:28:13 2024, MaxMem=   268435456 cpu:         0.2
 (Enter /g100_work/pMI24_ChiCa/g09d1/g09d01/d01/build-node-6-2-59348/src/main/l401.exe)
 Initial guess from the checkpoint file:  "/g100_scratch/userexternal/ecabiati/g16_14420037/Gau-43962.chk"
 B after Tr=    -0.000000   -0.000000   -0.000000
         Rot=    0.999992   -0.000000   -0.000000    0.003941 Ang=   0.45 deg.
 Guess basis will be translated and rotated to current coordinates.
 JPrj=2 DoOrth=T DoCkMO=T.
 Initial guess orbital symmetries:
       Occupied  (A') (A') (A') (A') (A') (A') (A') (A') (A') (A')
                 (A") (A') (A') (A") (A") (A')
       Virtual   (A') (A') (A') (A') (A') (A') (A') (A') (A') (A')
                 (A') (A') (A') (A') (A') (A') (A') (A') (A') (A')
                 (A') (A') (A') (A') (A') (A') (A') (A') (A') (A')
                 (A') (A') (A') (A') (A') (A') (A') (A') (A') (A')
                 (A') (A') (A') (A') (A') (A') (A') (A') (A') (A')
                 (A') (A') (A') (A') (A') (A') (A") (A") (A") (A")
                 (A") (A") (A") (A") (A") (A") (A") (A") (A") (A")
                 (A") (A") (A") (A") (A") (A") (A") (A") (A") (A")
 The electronic state of the initial guess is 1-A'.
 Generating alternative initial guess.
 ExpMin= 4.38D-02 ExpMax= 5.48D+03 ExpMxC= 8.25D+02 IAcc=2 IRadAn=         4 AccDes= 0.00D+00
 Harris functional with IExCor=  402 and IRadAn=       4 diagonalized for initial guess.
 HarFok:  IExCor=  402 AccDes= 0.00D+00 IRadAn=         4 IDoV= 1 UseB2=F ITyADJ=14
 ICtDFT=  3500011 ScaDFX=  1.000000  1.000000  1.000000  1.000000
 FoFCou: FMM=F IPFlag=           0 FMFlag=      100000 FMFlg1=           0
         NFxFlg=           0 DoJE=T BraDBF=F KetDBF=T FulRan=T
         wScrn=  0.000000 ICntrl=     500 IOpCl=  0 I1Cent=   200000004 NGrid=           0
         NMat0=    1 NMatS0=      1 NMatT0=    0 NMatD0=    1 NMtDS0=    0 NMtDT0=    0
 Petite list used in FoFCou.
 Harris En= -229.134060609412    
 Leave Link  401 at Tue Sep 17 19:28:13 2024, MaxMem=   268435456 cpu:         1.8
 (Enter /g100_work/pMI24_ChiCa/g09d1/g09d01/d01/build-node-6-2-59348/src/main/l502.exe)
 Closed shell SCF:
 Using DIIS extrapolation, IDIIS=  1040.
 Integral symmetry usage will be decided dynamically.
 Keep R1 ints in memory in symmetry-blocked form, NReq=16539583.
 IVT=       49354 IEndB=       49354 NGot=   268435456 MDV=   262737466
 LenX=   262737466 LenY=   262727809
 Requested convergence on RMS density matrix=1.00D-08 within 128 cycles.
 Requested convergence on MAX density matrix=1.00D-06.
 Requested convergence on             energy=1.00D-06.
 No special actions if energy rises.
 FoFCou: FMM=F IPFlag=           0 FMFlag=           0 FMFlg1=           0
         NFxFlg=           0 DoJE=F BraDBF=F KetDBF=F FulRan=T
         wScrn=  0.000000 ICntrl=     600 IOpCl=  0 I1Cent=           0 NGrid=           0
         NMat0=    1 NMatS0=   4656 NMatT0=    0 NMatD0=    1 NMtDS0=    0 NMtDT0=    0
 Petite list used in FoFCou.

 Cycle   1  Pass 1  IDiag  1:
 E= -229.105088862501    
 DIIS: error= 9.04D-04 at cycle   1 NSaved=   1.
 NSaved= 1 IEnMin= 1 EnMin= -229.105088862501     IErMin= 1 ErrMin= 9.04D-04
 ErrMax= 9.04D-04  0.00D+00 EMaxC= 1.00D-01 BMatC= 1.52D-04 BMatP= 1.52D-04
 IDIUse=3 WtCom= 9.91D-01 WtEn= 9.04D-03
 Coeff-Com:  0.100D+01
 Coeff-En:   0.100D+01
 Coeff:      0.100D+01
 Gap=     0.466 Goal=   None    Shift=    0.000
 RMSDP=2.37D-04 MaxDP=3.96D-03              OVMax= 4.13D-03

 Cycle   2  Pass 1  IDiag  1:
 E= -229.105288257429     Delta-E=       -0.000199394928 Rises=F Damp=F
 DIIS: error= 2.70D-04 at cycle   2 NSaved=   2.
 NSaved= 2 IEnMin= 2 EnMin= -229.105288257429     IErMin= 2 ErrMin= 2.70D-04
 ErrMax= 2.70D-04  0.00D+00 EMaxC= 1.00D-01 BMatC= 8.66D-06 BMatP= 1.52D-04
 IDIUse=3 WtCom= 9.97D-01 WtEn= 2.70D-03
 Coeff-Com:  0.286D-01 0.971D+00
 Coeff-En:   0.000D+00 0.100D+01
 Coeff:      0.285D-01 0.971D+00
 Gap=     0.281 Goal=   None    Shift=    0.000
 RMSDP=6.26D-05 MaxDP=1.54D-03 DE=-1.99D-04 OVMax= 2.73D-03

 Cycle   3  Pass 1  IDiag  1:
 E= -229.105273955541     Delta-E=        0.000014301888 Rises=F Damp=F
 DIIS: error= 5.98D-04 at cycle   3 NSaved=   3.
 NSaved= 3 IEnMin= 2 EnMin= -229.105288257429     IErMin= 2 ErrMin= 2.70D-04
 ErrMax= 5.98D-04  0.00D+00 EMaxC= 1.00D-01 BMatC= 2.85D-05 BMatP= 8.66D-06
 IDIUse=3 WtCom= 2.90D-01 WtEn= 7.10D-01
 Coeff-Com: -0.330D-01 0.673D+00 0.360D+00
 Coeff-En:   0.000D+00 0.715D+00 0.285D+00
 Coeff:     -0.958D-02 0.703D+00 0.307D+00
 Gap=     0.282 Goal=   None    Shift=    0.000
 RMSDP=3.95D-05 MaxDP=1.04D-03 DE= 1.43D-05 OVMax= 1.77D-03

 Cycle   4  Pass 1  IDiag  1:
 E= -229.105295577347     Delta-E=       -0.000021621806 Rises=F Damp=F
 DIIS: error= 6.18D-05 at cycle   4 NSaved=   4.
 NSaved= 4 IEnMin= 4 EnMin= -229.105295577347     IErMin= 4 ErrMin= 6.18D-05
 ErrMax= 6.18D-05  0.00D+00 EMaxC= 1.00D-01 BMatC= 3.72D-07 BMatP= 8.66D-06
 IDIUse=1 WtCom= 1.00D+00 WtEn= 0.00D+00
 Coeff-Com: -0.185D-01 0.273D+00 0.108D+00 0.637D+00
 Coeff:     -0.185D-01 0.273D+00 0.108D+00 0.637D+00
 Gap=     0.282 Goal=   None    Shift=    0.000
 RMSDP=7.14D-06 MaxDP=1.73D-04 DE=-2.16D-05 OVMax= 2.08D-04

 Cycle   5  Pass 1  IDiag  1:
 E= -229.105295908711     Delta-E=       -0.000000331364 Rises=F Damp=F
 DIIS: error= 1.41D-05 at cycle   5 NSaved=   5.
 NSaved= 5 IEnMin= 5 EnMin= -229.105295908711     IErMin= 5 ErrMin= 1.41D-05
 ErrMax= 1.41D-05  0.00D+00 EMaxC= 1.00D-01 BMatC= 2.73D-08 BMatP= 3.72D-07
 IDIUse=1 WtCom= 1.00D+00 WtEn= 0.00D+00
 Coeff-Com: -0.512D-02 0.635D-01 0.176D-01 0.275D+00 0.649D+00
 Coeff:     -0.512D-02 0.635D-01 0.176D-01 0.275D+00 0.649D+00
 Gap=     0.282 Goal=   None    Shift=    0.000
 RMSDP=1.70D-06 MaxDP=3.84D-05 DE=-3.31D-07 OVMax= 4.18D-05

 Cycle   6  Pass 1  IDiag  1:
 E= -229.105295933348     Delta-E=       -0.000000024637 Rises=F Damp=F
 DIIS: error= 2.33D-06 at cycle   6 NSaved=   6.
 NSaved= 6 IEnMin= 6 EnMin= -229.105295933348     IErMin= 6 ErrMin= 2.33D-06
 ErrMax= 2.33D-06  0.00D+00 EMaxC= 1.00D-01 BMatC= 6.71D-10 BMatP= 2.73D-08
 IDIUse=1 WtCom= 1.00D+00 WtEn= 0.00D+00
 Coeff-Com: -0.213D-03-0.836D-03-0.333D-02 0.352D-01 0.173D+00 0.796D+00
 Coeff:     -0.213D-03-0.836D-03-0.333D-02 0.352D-01 0.173D+00 0.796D+00
 Gap=     0.282 Goal=   None    Shift=    0.000
 RMSDP=3.32D-07 MaxDP=5.31D-06 DE=-2.46D-08 OVMax= 7.98D-06

 Cycle   7  Pass 1  IDiag  1:
 E= -229.105295933784     Delta-E=       -0.000000000437 Rises=F Damp=F
 DIIS: error= 1.30D-06 at cycle   7 NSaved=   7.
 NSaved= 7 IEnMin= 7 EnMin= -229.105295933784     IErMin= 7 ErrMin= 1.30D-06
 ErrMax= 1.30D-06  0.00D+00 EMaxC= 1.00D-01 BMatC= 2.21D-10 BMatP= 6.71D-10
 IDIUse=1 WtCom= 1.00D+00 WtEn= 0.00D+00
 Coeff-Com:  0.129D-03-0.386D-02-0.305D-02 0.739D-02 0.697D-01 0.470D+00
 Coeff-Com:  0.460D+00
 Coeff:      0.129D-03-0.386D-02-0.305D-02 0.739D-02 0.697D-01 0.470D+00
 Coeff:      0.460D+00
 Gap=     0.282 Goal=   None    Shift=    0.000
 RMSDP=1.29D-07 MaxDP=2.96D-06 DE=-4.37D-10 OVMax= 3.51D-06

 Cycle   8  Pass 1  IDiag  1:
 E= -229.105295933942     Delta-E=       -0.000000000158 Rises=F Damp=F
 DIIS: error= 2.28D-07 at cycle   8 NSaved=   8.
 NSaved= 8 IEnMin= 8 EnMin= -229.105295933942     IErMin= 8 ErrMin= 2.28D-07
 ErrMax= 2.28D-07  0.00D+00 EMaxC= 1.00D-01 BMatC= 5.72D-12 BMatP= 2.21D-10
 IDIUse=1 WtCom= 1.00D+00 WtEn= 0.00D+00
 Coeff-Com:  0.727D-04-0.151D-02-0.103D-02 0.391D-04 0.123D-01 0.119D+00
 Coeff-Com:  0.186D+00 0.686D+00
 Coeff:      0.727D-04-0.151D-02-0.103D-02 0.391D-04 0.123D-01 0.119D+00
 Coeff:      0.186D+00 0.686D+00
 Gap=     0.282 Goal=   None    Shift=    0.000
 RMSDP=3.55D-08 MaxDP=8.58D-07 DE=-1.58D-10 OVMax= 4.57D-07

 Cycle   9  Pass 1  IDiag  1:
 E= -229.105295933954     Delta-E=       -0.000000000012 Rises=F Damp=F
 DIIS: error= 5.12D-08 at cycle   9 NSaved=   9.
 NSaved= 9 IEnMin= 9 EnMin= -229.105295933954     IErMin= 9 ErrMin= 5.12D-08
 ErrMax= 5.12D-08  0.00D+00 EMaxC= 1.00D-01 BMatC= 3.02D-13 BMatP= 5.72D-12
 IDIUse=1 WtCom= 1.00D+00 WtEn= 0.00D+00
 Coeff-Com:  0.158D-04-0.281D-03-0.225D-03-0.179D-03 0.623D-03 0.175D-01
 Coeff-Com:  0.417D-01 0.233D+00 0.708D+00
 Coeff:      0.158D-04-0.281D-03-0.225D-03-0.179D-03 0.623D-03 0.175D-01
 Coeff:      0.417D-01 0.233D+00 0.708D+00
 Gap=     0.282 Goal=   None    Shift=    0.000
 RMSDP=6.79D-09 MaxDP=1.26D-07 DE=-1.16D-11 OVMax= 1.73D-07

 SCF Done:  E(RB3LYP) =  -229.105295934     A.U. after    9 cycles
            NFock=  9  Conv=0.68D-08     -V/T= 2.0093
 KE= 2.269949558924D+02 PE=-7.777757281705D+02 EE= 2.010233832016D+02
 Leave Link  502 at Tue Sep 17 19:28:14 2024, MaxMem=   268435456 cpu:         8.2
 (Enter /g100_work/pMI24_ChiCa/g09d1/g09d01/d01/build-node-6-2-59348/src/main/l701.exe)
 Compute integral first derivatives.
 ... and contract with generalized density number  0.
 Leave Link  701 at Tue Sep 17 19:28:14 2024, MaxMem=   268435456 cpu:         1.6
 (Enter /g100_work/pMI24_ChiCa/g09d1/g09d01/d01/build-node-6-2-59348/src/main/l702.exe)
 L702 exits ... SP integral derivatives will be done elsewhere.
 Leave Link  702 at Tue Sep 17 19:28:14 2024, MaxMem=   268435456 cpu:         0.1
 (Enter /g100_work/pMI24_ChiCa/g09d1/g09d01/d01/build-node-6-2-59348/src/main/l703.exe)
 Compute integral first derivatives, UseDBF=F ICtDFT=           0.
 Integral derivatives from FoFJK, PRISM(SPDF).
 Calling FoFJK, ICntrl=      2127 FMM=F ISym2X=1 I1Cent= 0 IOpClX= 0 NMat=1 NMatS=1 NMatT=0.
 FoFJK:  IHMeth= 1 ICntrl=    2127 DoSepK=F KAlg= 0 I1Cent=   0 FoldK=F
 IRaf=         0 NMat=   1 IRICut=       1 DoRegI=T DoRafI=F ISym2E= 1.
 FoFCou: FMM=F IPFlag=           0 FMFlag=      100000 FMFlg1=         800
         NFxFlg=           0 DoJE=F BraDBF=F KetDBF=F FulRan=T
         wScrn=  0.000000 ICntrl=    2127 IOpCl=  0 I1Cent=           0 NGrid=           0
         NMat0=    1 NMatS0=      1 NMatT0=    0 NMatD0=    1 NMtDS0=    0 NMtDT0=    0
 Petite list used in FoFCou.
 Leave Link  703 at Tue Sep 17 19:28:14 2024, MaxMem=   268435456 cpu:         3.8
 (Enter /g100_work/pMI24_ChiCa/g09d1/g09d01/d01/build-node-6-2-59348/src/main/l716.exe)
 Dipole        = 1.14762369D-01-6.67187682D-01 2.22044605D-16
 ***** Axes restored to original set *****
 -------------------------------------------------------------------
 Center     Atomic                   Forces (Hartrees/Bohr)
 Number     Number              X              Y              Z
 -------------------------------------------------------------------
      1        6           0.001401982    0.000000000    0.000179623
      2        8           0.000090731   -0.000000000    0.000406044
      3        8          -0.000515786    0.000000000   -0.000285926
      4        1          -0.000838626   -0.000000000   -0.000260902
      5        6          -0.000880298    0.000000000    0.000451265
      6        1           0.000803946    0.000000000   -0.000204880
      7        1          -0.000030975   -0.000450998   -0.000142612
      8        1          -0.000030975    0.000450998   -0.000142612
 -------------------------------------------------------------------
 Cartesian Forces:  Max     0.001401982 RMS     0.000474620
 Leave Link  716 at Tue Sep 17 19:28:14 2024, MaxMem=   268435456 cpu:         0.1
 (Enter /g100_work/pMI24_ChiCa/g09d1/g09d01/d01/build-node-6-2-59348/src/main/l103.exe)

 GradGradGradGradGradGradGradGradGradGradGradGradGradGradGradGradGradGrad
 Berny optimization.
 Using GEDIIS/GDIIS optimizer.
 FormGI is forming the generalized inverse of G from B-inverse, IUseBI=4.
 Internal  Forces:  Max     0.001042941 RMS     0.000421461
 Search for a local minimum.
 Step number   3 out of a maximum of   35
 All quantities printed in internal units (Hartrees-Bohrs-Radians)
 RMS Force = .42146D-03 SwitMx=.10000D-02 MixMth= 2
 Mixed Optimization -- En-DIIS/RFO-DIIS
 Update second derivatives using D2CorX and points    1    2    3
 DE= -2.29D-04 DEPred=-2.14D-04 R= 1.07D+00
 TightC=F SS=  1.41D+00  RLast= 4.74D-02 DXNew= 8.4853D-01 1.4214D-01
 Trust test= 1.07D+00 RLast= 4.74D-02 DXMaxT set to 5.05D-01
 ITU=  1  1  0
 Use linear search instead of GDIIS.
     Eigenvalues ---    0.00766   0.00985   0.01692   0.07189   0.07548
     Eigenvalues ---    0.14595   0.16000   0.16035   0.16637   0.24249
     Eigenvalues ---    0.25562   0.32471   0.37117   0.37230   0.37956
     Eigenvalues ---    0.45429   0.59415   0.94798
 RFO step:  Lambda=-1.67181086D-05 EMin= 7.65947438D-03
 Quartic linear search produced a step of  0.08149.
 Iteration  1 RMS(Cart)=  0.00404664 RMS(Int)=  0.00000973
 Iteration  2 RMS(Cart)=  0.00001062 RMS(Int)=  0.00000209
 Iteration  3 RMS(Cart)=  0.00000000 RMS(Int)=  0.00000209
 ITry= 1 IFail=0 DXMaxC= 1.05D-02 DCOld= 1.00D+10 DXMaxT= 5.05D-01 DXLimC= 3.00D+00 Rises=F
 ClnCor:  largest displacement from symmetrization is 1.05D-11 for atom     4.
 Variable       Old X    -DE/DX   Delta X   Delta X   Delta X     New X
                                 (Linear)    (Quad)   (Total)
    R1        2.56555   0.00020  -0.00064   0.00054  -0.00009   2.56545
    R2        2.29330  -0.00032  -0.00033  -0.00022  -0.00055   2.29275
    R3        2.84732   0.00014   0.00060   0.00017   0.00077   2.84809
    R4        1.84024  -0.00088   0.00074  -0.00190  -0.00116   1.83908
    R5        2.06228  -0.00074  -0.00026  -0.00186  -0.00212   2.06016
    R6        2.06740  -0.00028   0.00047  -0.00091  -0.00044   2.06697
    R7        2.06740  -0.00028   0.00047  -0.00091  -0.00044   2.06697
    A1        2.12942   0.00104   0.00018   0.00453   0.00471   2.13413
    A2        1.96863  -0.00096  -0.00095  -0.00406  -0.00501   1.96362
    A3        2.18514  -0.00009   0.00077  -0.00047   0.00030   2.18543
    A4        1.86503   0.00011   0.00239  -0.00078   0.00161   1.86664
    A5        1.95915  -0.00057  -0.00092  -0.00275  -0.00366   1.95549
    A6        1.89526   0.00031   0.00095   0.00129   0.00224   1.89750
    A7        1.89526   0.00031   0.00095   0.00129   0.00224   1.89750
    A8        1.91655   0.00019   0.00026   0.00148   0.00175   1.91830
    A9        1.91655   0.00019   0.00026   0.00148   0.00175   1.91830
   A10        1.87917  -0.00041  -0.00153  -0.00283  -0.00436   1.87480
    D1       -0.00000   0.00000   0.00000  -0.00000   0.00000   0.00000
    D2        3.14159   0.00000   0.00000  -0.00000   0.00000   3.14159
    D3        0.00000   0.00000   0.00000   0.00000   0.00000   0.00000
    D4        2.12227   0.00008   0.00039   0.00098   0.00137   2.12363
    D5       -2.12227  -0.00008  -0.00039  -0.00098  -0.00137  -2.12363
    D6        3.14159   0.00000   0.00000   0.00000   0.00000   3.14159
    D7       -1.01933   0.00008   0.00039   0.00098   0.00137  -1.01796
    D8        1.01933  -0.00008  -0.00039  -0.00098  -0.00137   1.01796
         Item               Value     Threshold  Converged?
 Maximum Force            0.001043     0.000450     NO 
 RMS     Force            0.000421     0.000300     NO 
 Maximum Displacement     0.010463     0.001800     NO 
 RMS     Displacement     0.004048     0.001200     NO 
 Predicted change in Energy=-9.628181D-06
 Lowest energy point so far.  Saving SCF results.
 GradGradGradGradGradGradGradGradGradGradGradGradGradGradGradGradGradGrad

 Leave Link  103 at Tue Sep 17 19:28:14 2024, MaxMem=   268435456 cpu:         1.4
 (Enter /g100_work/pMI24_ChiCa/g09d1/g09d01/d01/build-node-6-2-59348/src/main/l202.exe)
                          Input orientation:                          
[...]
     12 -0.981043D-01  0.431818D-02  0.000000D+00  0.864845D-02  0.165371D+00
     13 -0.655908D-02 -0.460314D-01  0.000000D+00 -0.516711D-02  0.208652D-02
     14  0.000000D+00  0.000000D+00  0.182853D-01  0.000000D+00  0.000000D+00
     15 -0.301081D-01  0.177875D-01  0.000000D+00  0.169818D-01  0.628509D-03
     16 -0.111563D-02 -0.756734D-02  0.000000D+00 -0.450436D-02  0.498358D-03
     17  0.000000D+00  0.000000D+00  0.265436D-02  0.000000D+00  0.000000D+00
     18 -0.544843D-03 -0.562354D-02  0.000000D+00 -0.652567D-03  0.284377D-03
     19 -0.208426D-02  0.172163D-03 -0.388989D-02  0.837202D-03 -0.844491D-04
     20 -0.107899D-02  0.365283D-03  0.867691D-03 -0.438881D-03 -0.136461D-03
     21 -0.117380D-02  0.195203D-02 -0.160862D-02  0.736204D-03 -0.400294D-03
     22 -0.208426D-02  0.172163D-03  0.388989D-02  0.837202D-03 -0.844491D-04
     23  0.107899D-02 -0.365283D-03  0.867691D-03  0.438881D-03  0.136461D-03
     24 -0.117380D-02  0.195203D-02  0.160862D-02  0.736204D-03 -0.400294D-03
               11            12            13            14            15 
     11  0.146336D-01
     12  0.000000D+00  0.121958D+00
     13  0.000000D+00  0.272795D-02  0.521157D+00
     14  0.726425D-02  0.000000D+00  0.000000D+00  0.542386D+00
     15  0.000000D+00 -0.524070D-02 -0.600608D-01  0.000000D+00  0.571385D+00
     16  0.000000D+00  0.446659D-03 -0.205235D+00  0.000000D+00  0.133616D+00
     17 -0.938065D-04  0.000000D+00  0.000000D+00 -0.485198D-01  0.000000D+00
     18  0.000000D+00  0.438762D-03  0.140926D+00  0.000000D+00 -0.171850D+00
     19 -0.883091D-03 -0.840991D-03 -0.484849D-01  0.131652D-01 -0.719843D-02
     20 -0.338986D-03 -0.153368D-03  0.133064D-01 -0.221094D+00  0.131371D+00
     21 -0.804428D-03 -0.756870D-03 -0.735144D-02  0.132270D+00 -0.136859D+00
     22  0.883091D-03 -0.840991D-03 -0.484849D-01 -0.131652D-01 -0.719843D-02
     23 -0.338986D-03  0.153368D-03 -0.133064D-01 -0.221094D+00 -0.131371D+00
     24  0.804428D-03 -0.756870D-03 -0.735144D-02 -0.132270D+00 -0.136859D+00
               16            17            18            19            20 
     16  0.221248D+00
     17  0.000000D+00  0.461931D-01
     18 -0.148522D+00  0.000000D+00  0.181308D+00
     19  0.322005D-02 -0.210384D-01  0.126226D-01  0.491709D-01
     20 -0.736951D-03  0.176517D-02 -0.220323D-02 -0.130281D-01  0.238462D+00
     21 -0.302872D-02  0.159306D-01 -0.106673D-01  0.115135D-01 -0.142376D+00
     22  0.322005D-02  0.210384D-01  0.126226D-01 -0.330838D-03  0.156489D-02
     23  0.736951D-03  0.176517D-02  0.220323D-02 -0.156489D-02 -0.206289D-01
     24 -0.302872D-02 -0.159306D-01 -0.106673D-01  0.165087D-02  0.161878D-01
               21            22            23            24 
     21  0.147796D+00
     22  0.165087D-02  0.491709D-01
     23 -0.161878D-01  0.130281D-01  0.238462D+00
     24  0.125327D-01  0.115135D-01  0.142376D+00  0.147796D+00
 FormGI is forming the generalized inverse of G from B-inverse, IUseBI=4.
 Force constants in internal coordinates: 
                1             2             3             4             5 
      1  0.385316D+00
      2  0.888552D-01  0.844788D+00
      3  0.253156D-01  0.359645D-01  0.292735D+00
      4  0.972218D-02 -0.600182D-02 -0.148549D-02  0.504433D+00
      5  0.648906D-03  0.422820D-03  0.114815D-02 -0.191490D-03  0.351129D+00
      6  0.151056D-03 -0.376804D-03  0.370138D-02  0.260401D-03  0.170743D-02
      7  0.151056D-03 -0.376804D-03  0.370138D-02  0.260401D-03  0.170743D-02
      8  0.176602D-01  0.394411D-01 -0.324290D-01 -0.112588D-01 -0.435299D-03
      9  0.276550D-01 -0.491453D-01  0.240453D-01  0.903648D-02 -0.734765D-02
     10 -0.453152D-01  0.970415D-02  0.838368D-02  0.222236D-02  0.778295D-02
     11  0.320263D-01  0.394901D-02  0.415299D-02  0.268801D-01  0.520650D-04
     12 -0.647420D-03  0.982319D-02  0.158185D-01 -0.133893D-02  0.212761D-02
     13  0.400875D-02 -0.206681D-02  0.134657D-01  0.936363D-03 -0.565143D-02
     14  0.400875D-02 -0.206681D-02  0.134657D-01  0.936363D-03 -0.565143D-02
     15 -0.184358D-02 -0.355114D-02 -0.139455D-01  0.176308D-03  0.494813D-02
     16 -0.184358D-02 -0.355114D-02 -0.139455D-01  0.176308D-03  0.494813D-02
     17 -0.370896D-02  0.109964D-02 -0.156553D-01 -0.856622D-03 -0.106213D-02
     18  0.000000D+00  0.000000D+00  0.000000D+00  0.000000D+00  0.000000D+00
     19  0.000000D+00  0.000000D+00  0.000000D+00  0.000000D+00  0.000000D+00
     20  0.000000D+00  0.000000D+00  0.000000D+00  0.000000D+00  0.000000D+00
     21  0.558736D-05  0.480674D-03  0.192099D-02 -0.447694D-05  0.373562D-02
     22 -0.558733D-05 -0.480674D-03 -0.192099D-02  0.447694D-05 -0.373562D-02
     23  0.000000D+00  0.000000D+00  0.000000D+00  0.000000D+00  0.000000D+00
     24  0.558734D-05  0.480674D-03  0.192099D-02 -0.447694D-05  0.373562D-02
     25 -0.558735D-05 -0.480674D-03 -0.192099D-02  0.447695D-05 -0.373562D-02
                6             7             8             9            10 
      6  0.343553D+00
      7  0.235203D-02  0.343553D+00
      8 -0.682019D-03 -0.682019D-03  0.197357D+00
      9  0.399971D-02  0.399971D-02 -0.106235D+00  0.163881D+00
     10 -0.331769D-02 -0.331769D-02 -0.911216D-01 -0.576462D-01  0.148768D+00
     11  0.531586D-03  0.531586D-03 -0.307009D-01  0.274190D-01  0.328189D-02
     12 -0.558646D-02 -0.558646D-02 -0.671924D-02 -0.135026D-01  0.202218D-01
     13  0.428099D-02 -0.621920D-02 -0.113902D-02  0.103150D-01 -0.917596D-02
     14 -0.621920D-02  0.428099D-02 -0.113902D-02  0.103150D-01 -0.917596D-02
     15  0.432543D-02 -0.118454D-02  0.333100D-02  0.790174D-03 -0.412117D-02
     16 -0.118454D-02  0.432543D-02  0.333100D-02  0.790174D-03 -0.412117D-02
     17  0.477140D-02  0.477140D-02  0.263390D-02 -0.835813D-02  0.572423D-02
     18 -0.340644D-03  0.340644D-03  0.000000D+00  0.000000D+00  0.000000D+00
     19  0.810960D-03 -0.810960D-03  0.000000D+00  0.000000D+00  0.000000D+00
     20 -0.482728D-02  0.482728D-02  0.000000D+00  0.000000D+00  0.000000D+00
     21 -0.720083D-04 -0.454216D-02 -0.941826D-03 -0.691047D-03  0.163287D-02
     22  0.454216D-02  0.720083D-04  0.941826D-03  0.691047D-03 -0.163287D-02
     23 -0.363551D-02  0.363551D-02  0.000000D+00  0.000000D+00  0.000000D+00
     24  0.111976D-02 -0.573393D-02 -0.941826D-03 -0.691047D-03  0.163287D-02
     25  0.573393D-02 -0.111976D-02  0.941826D-03  0.691047D-03 -0.163287D-02
               11            12            13            14            15 
     11  0.172012D+00
     12 -0.192504D-02  0.106740D+00
     13  0.227979D-02 -0.215703D-01  0.101424D+00
     14  0.227979D-02 -0.215703D-01 -0.131732D-01  0.101424D+00
     15 -0.435714D-03 -0.380235D-01 -0.388062D-01  0.874296D-02  0.551433D-01
     16 -0.435714D-03 -0.380235D-01  0.874296D-02 -0.388062D-01  0.729028D-02
     17 -0.170991D-02  0.891597D-02 -0.362246D-01 -0.362246D-01  0.655498D-02
     18  0.000000D+00  0.000000D+00 -0.138819D-02  0.138819D-02  0.733574D-03
     19  0.000000D+00  0.000000D+00  0.513829D-02 -0.513829D-02 -0.141587D-02
     20  0.000000D+00  0.000000D+00 -0.953801D-02  0.953801D-02 -0.867232D-02
     21 -0.234485D-03  0.654020D-02 -0.289602D-02 -0.245696D-02  0.951214D-02
     22  0.234485D-03 -0.654020D-02  0.245696D-02  0.289602D-02  0.803624D-03
     23  0.000000D+00  0.000000D+00 -0.278389D-02  0.278389D-02 -0.108967D-01
     24 -0.234485D-03  0.654020D-02  0.385810D-02 -0.921109D-02  0.728772D-02
     25  0.234485D-03 -0.654020D-02  0.921109D-02 -0.385810D-02 -0.142080D-02
               16            17            18            19            20 
     16  0.551433D-01
     17  0.655498D-02  0.515466D-01
     18 -0.733574D-03  0.000000D+00  0.168908D-01
     19  0.141587D-02  0.000000D+00  0.540620D-02  0.170417D-01
     20  0.867232D-02  0.000000D+00  0.594552D-02 -0.668666D-02  0.183166D-01
     21 -0.803624D-03 -0.107801D-01  0.591808D-02 -0.494980D-02  0.871022D-03
     22 -0.951214D-02  0.107801D-01  0.591808D-02 -0.494980D-02  0.871022D-03
     23  0.108967D-01  0.000000D+00 -0.593961D-02  0.535473D-02  0.524379D-02
     24  0.142080D-02 -0.107801D-01 -0.596705D-02  0.709158D-02 -0.122018D-01
     25 -0.728772D-02  0.107801D-01 -0.596705D-02  0.709158D-02 -0.122018D-01
               21            22            23            24            25 
     21  0.150965D-01
     22 -0.672909D-03  0.150965D-01
     23 -0.103759D-01 -0.103759D-01  0.169321D-01
     24  0.384950D-02 -0.119199D-01  0.131235D-02  0.173636D-01
     25 -0.119199D-01  0.384950D-02  0.131235D-02  0.159426D-02  0.173636D-01
 Leave Link  716 at Tue Sep 17 19:28:21 2024, MaxMem=   268435456 cpu:         0.2
 (Enter /g100_work/pMI24_ChiCa/g09d1/g09d01/d01/build-node-6-2-59348/src/main/l103.exe)

 GradGradGradGradGradGradGradGradGradGradGradGradGradGradGradGradGradGrad
 Berny optimization.
 Red2BG is reusing G-inverse.
 Internal  Forces:  Max     0.000324679 RMS     0.000131477
 Search for a local minimum.
 Step number   1 out of a maximum of    2
 All quantities printed in internal units (Hartrees-Bohrs-Radians)
 Second derivative matrix not updated -- analytic derivatives used.
 ITU=  0
     Eigenvalues ---   -0.00047   0.02220   0.04553   0.05531   0.05693
     Eigenvalues ---    0.12513   0.13355   0.14137   0.15296   0.20467
     Eigenvalues ---    0.25521   0.33997   0.34227   0.34711   0.35313
     Eigenvalues ---    0.39833   0.50964   0.87021
 Eigenvalue     1 is  -4.74D-04 should be greater than     0.000000 Eigenvector:
                          D5        D4        D8        D7        D3
   1                    0.43228   0.43228   0.40440   0.40440   0.39848
                          D6        D2        A8        A9        D1
   1                    0.37059  -0.04115   0.02202  -0.02202  -0.01421
 Angle between quadratic step and forces=  24.81 degrees.
 Linear search not attempted -- first point.
 Iteration  1 RMS(Cart)=  0.00036379 RMS(Int)=  0.00000012
 Iteration  2 RMS(Cart)=  0.00000013 RMS(Int)=  0.00000003
 ITry= 1 IFail=0 DXMaxC= 9.20D-04 DCOld= 1.00D+10 DXMaxT= 3.00D-01 DXLimC= 3.00D+00 Rises=F
 ClnCor:  largest displacement from symmetrization is 2.05D-11 for atom     8.
 Variable       Old X    -DE/DX   Delta X   Delta X   Delta X     New X
                                 (Linear)    (Quad)   (Total)
    R1        2.56545   0.00026   0.00000   0.00085   0.00085   2.56631
    R2        2.29275  -0.00027   0.00000  -0.00038  -0.00038   2.29237
    R3        2.84809   0.00017   0.00000   0.00045   0.00045   2.84854
    R4        1.83908  -0.00025   0.00000  -0.00058  -0.00058   1.83850
    R5        2.06016  -0.00005   0.00000  -0.00018  -0.00018   2.05998
    R6        2.06697  -0.00009   0.00000  -0.00027  -0.00027   2.06670
    R7        2.06697  -0.00009   0.00000  -0.00027  -0.00027   2.06670
    A1        2.13413  -0.00032   0.00000  -0.00105  -0.00105   2.13308
    A2        1.96362   0.00016   0.00000   0.00023   0.00023   1.96385
    A3        2.18543   0.00017   0.00000   0.00082   0.00082   2.18625
    A4        1.86664   0.00013   0.00000   0.00045   0.00045   1.86709
    A5        1.95549   0.00001   0.00000  -0.00007  -0.00007   1.95542
    A6        1.89750  -0.00003   0.00000  -0.00030  -0.00030   1.89720
    A7        1.89750  -0.00003   0.00000  -0.00030  -0.00030   1.89720
    A8        1.91830   0.00002   0.00000   0.00035   0.00035   1.91865
    A9        1.91830   0.00002   0.00000   0.00035   0.00035   1.91865
   A10        1.87480   0.00000   0.00000  -0.00004  -0.00004   1.87476
    D1        0.00000  -0.00000   0.00000   0.00000   0.00000   0.00000
    D2        3.14159  -0.00000   0.00000   0.00000   0.00000   3.14159
    D3       -0.00000   0.00000   0.00000  -0.00000   0.00000   0.00000
    D4        2.12363   0.00001   0.00000   0.00019   0.00019   2.12382
    D5       -2.12363  -0.00001   0.00000  -0.00019  -0.00019  -2.12382
    D6        3.14159  -0.00000   0.00000  -0.00000   0.00000   3.14159
    D7       -1.01796   0.00001   0.00000   0.00019   0.00019  -1.01777
    D8        1.01796  -0.00001   0.00000  -0.00019  -0.00019   1.01777
         Item               Value     Threshold  Converged?
 Maximum Force            0.000325     0.000450     YES
 RMS     Force            0.000131     0.000300     YES
 Maximum Displacement     0.000920     0.001800     YES
 RMS     Displacement     0.000364     0.001200     YES
 Predicted change in Energy=-6.099826D-07
 Optimization completed.
    -- Stationary point found.
                           ----------------------------
                           !   Optimized Parameters   !
                           ! (Angstroms and Degrees)  !
 --------------------------                            --------------------------
 ! Name  Definition              Value          Derivative Info.                !
 --------------------------------------------------------------------------------
 ! R1    R(1,2)                  1.3576         -DE/DX =    0.0003              !
 ! R2    R(1,3)                  1.2133         -DE/DX =   -0.0003              !
 ! R3    R(1,5)                  1.5071         -DE/DX =    0.0002              !
 ! R4    R(2,4)                  0.9732         -DE/DX =   -0.0003              !
 ! R5    R(5,6)                  1.0902         -DE/DX =    0.0                 !
 ! R6    R(5,7)                  1.0938         -DE/DX =   -0.0001              !
 ! R7    R(5,8)                  1.0938         -DE/DX =   -0.0001              !
 ! A1    A(2,1,3)              122.2768         -DE/DX =   -0.0003              !
 ! A2    A(2,1,5)              112.507          -DE/DX =    0.0002              !
 ! A3    A(3,1,5)              125.2162         -DE/DX =    0.0002              !
 ! A4    A(1,2,4)              106.9504         -DE/DX =    0.0001              !
 ! A5    A(1,5,6)              112.0411         -DE/DX =    0.0                 !
 ! A6    A(1,5,7)              108.7188         -DE/DX =    0.0                 !
 ! A7    A(1,5,8)              108.7188         -DE/DX =    0.0                 !
 ! A8    A(6,5,7)              109.9103         -DE/DX =    0.0                 !
 ! A9    A(6,5,8)              109.9103         -DE/DX =    0.0                 !
 ! A10   A(7,5,8)              107.4182         -DE/DX =    0.0                 !
 ! D1    D(3,1,2,4)              0.0            -DE/DX =    0.0                 !
 ! D2    D(5,1,2,4)            180.0            -DE/DX =    0.0                 !
 ! D3    D(2,1,5,6)              0.0            -DE/DX =    0.0                 !
 ! D4    D(2,1,5,7)            121.6753         -DE/DX =    0.0                 !
 ! D5    D(2,1,5,8)           -121.6753         -DE/DX =    0.0                 !
 ! D6    D(3,1,5,6)            180.0            -DE/DX =    0.0                 !
 ! D7    D(3,1,5,7)            -58.3247         -DE/DX =    0.0                 !
 ! D8    D(3,1,5,8)             58.3247         -DE/DX =    0.0                 !
 --------------------------------------------------------------------------------
 GradGradGradGradGradGradGradGradGradGradGradGradGradGradGradGradGradGrad

 Leave Link  103 at Tue Sep 17 19:28:21 2024, MaxMem=   268435456 cpu:         0.8
 (Enter /g100_work/pMI24_ChiCa/g09d1/g09d01/d01/build-node-6-2-59348/src/main/l9999.exe)
 1\1\GINC-R500N002\Freq\RB3LYP\6-31+G(d,p)\C2H4O2\ECABIATI\17-Sep-2024\
 0\\#P Geom=AllCheck Guess=TCheck SCRF=Check GenChk RB3LYP/6-31+G(d,p) 
 Freq\\ch3cooh gas\\0,1\C,0.0485472699,0.,-0.0262402065\O,-0.0593138349
 ,0.,1.3270481596\O,1.1225730762,0.,-0.5905896535\H,0.8461229054,0.,1.6
 838445702\C,-1.2935626427,0.,-0.7119694287\H,-2.1176516726,0.,0.001749
 5401\H,-1.358647562,0.881620239,-1.3560881573\H,-1.358647562,-0.881620
 239,-1.3560881573\\Version=EM64L-G09RevD.01\State=1-A'\HF=-229.105305\
 RMSD=2.546e-09\RMSF=1.953e-04\ZeroPoint=0.0616327\Thermal=0.0653947\Di
 pole=-0.6074919,0.,0.2988098\DipoleDeriv=1.4695908,0.,-0.1975099,0.,0.
 2687677,0.,-0.1837573,0.,1.8212017,-0.3914148,0.,-0.0756526,0.,-0.3867
 209,0.,0.1441513,0.,-1.3992849,-1.1373966,0.,0.3778012,0.,-0.3869676,0
 .,0.1344059,0.,-0.8008883,0.1748369,0.,0.0058414,0.,0.357509,0.,0.0282
 75,0.,0.3324046,-0.1743702,0.,-0.1378184,0.,0.0453273,0.,-0.2057875,0.
 ,-0.0807535,-0.0368172,0.,0.032708,0.,0.0955727,0.,0.0878692,0.,0.0126
 02,0.0477856,-0.0250385,-0.0026848,0.0107336,0.0032559,0.0769397,-0.00
 25783,0.0631989,0.0573592,0.0477856,0.0250385,-0.0026848,-0.0107336,0.
 0032559,-0.0769397,-0.0025783,-0.0631989,0.0573592\Polar=36.0601447,0.
 ,23.7130224,0.1548242,0.,35.5594108\PG=CS [SG(C2H2O2),X(H2)]\NImag=1\\
 0.92975727,0.,0.22587128,-0.13801009,0.,0.63548447,-0.12524978,0.,-0.0
 2201185,0.56533336,0.,-0.06199063,0.,0.,0.04050020,0.00472032,0.,-0.26
 101803,0.10852394,0.,0.46056082,-0.61481683,0.,0.23196153,-0.00063420,
 0.,0.06137006,0.67317939,0.,-0.07767419,0.,0.,0.02943672,0.,0.,0.03159
 229,0.24553523,0.,-0.23024908,0.07098141,0.,-0.06843796,-0.31371774,0.
 ,0.27223695,0.00304327,0.,-0.00791057,-0.43446439,0.,-0.16277109,-0.00
 447390,0.,0.00519817,0.43347903,0.,0.00389823,0.,0.,-0.01899439,0.,0.,
 -0.00602989,0.,0.,0.01463358,-0.05617144,0.,-0.02618605,-0.11501056,0.
 ,-0.09810433,0.00431818,0.,0.00864845,0.16537120,0.,0.12195762,-0.1734
 2671,0.,-0.05716417,-0.00158141,0.,-0.00655908,-0.04603143,0.,-0.00516
 711,0.00208652,0.,0.00272795,0.52115747,0.,-0.08943446,0.,0.,0.0122076
 5,0.,0.,0.01828531,0.,0.,0.00726425,0.,0.,0.54238568,-0.04234723,0.,-0
 .10744994,-0.03522753,0.,-0.03010805,0.01778746,0.,0.01698180,0.000628
 51,0.,-0.00524070,-0.06006081,0.,0.57138478,-0.01766964,0.,0.02613612,
 0.00228478,0.,-0.00111563,-0.00756734,0.,-0.00450436,0.00049836,0.,0.0
 0044666,-0.20523472,0.,0.13361646,0.22124846,0.,-0.00364770,0.,0.,-0.0
 0011651,0.,0.,0.00265436,0.,0.,-0.00009381,0.,0.,-0.04851982,0.,0.,0.0
 4619315,-0.01109535,0.,0.01263568,-0.00121491,0.,-0.00054484,-0.005623
 54,0.,-0.00065257,0.00028438,0.,0.00043876,0.14092610,0.,-0.17185021,-
 0.14852182,0.,0.18130783,-0.00081879,0.02853768,-0.01650049,-0.0028441
 8,-0.00129843,-0.00208426,0.00017216,-0.00388989,0.00083720,-0.0000844
 5,-0.00088309,-0.00084099,-0.04848486,0.01316517,-0.00719843,0.0032200
 5,-0.02103842,0.01262257,0.04917091,-0.00123789,0.00148873,-0.00130822
 ,-0.00009719,-0.00052152,-0.00107899,0.00036528,0.00086769,-0.00043888
 ,-0.00013646,-0.00033899,-0.00015337,0.01330645,-0.22109431,0.13137078
 ,-0.00073695,0.00176517,-0.00220323,-0.01302813,0.23846210,-0.00131572
 ,0.01342748,-0.01160853,-0.00302025,-0.00065178,-0.00117380,0.00195203
 ,-0.00160862,0.00073620,-0.00040029,-0.00080443,-0.00075687,-0.0073514
 4,0.13227043,-0.13685884,-0.00302872,0.01593056,-0.01066733,0.01151353
 ,-0.14237587,0.14779645,-0.00081879,-0.02853768,-0.01650049,-0.0028441
 8,0.00129843,-0.00208426,0.00017216,0.00388989,0.00083720,-0.00008445,
 0.00088309,-0.00084099,-0.04848486,-0.01316517,-0.00719843,0.00322005,
 0.02103842,0.01262257,-0.00033084,0.00156489,0.00165087,0.04917091,0.0
 0123789,0.00148873,0.00130822,0.00009719,-0.00052152,0.00107899,-0.000
 36528,0.00086769,0.00043888,0.00013646,-0.00033899,0.00015337,-0.01330
 645,-0.22109431,-0.13137078,0.00073695,0.00176517,0.00220323,-0.001564
 89,-0.02062888,-0.01618778,0.01302813,0.23846210,-0.00131572,-0.013427
 48,-0.01160853,-0.00302025,0.00065178,-0.00117380,0.00195203,0.0016086
 2,0.00073620,-0.00040029,0.00080443,-0.00075687,-0.00735144,-0.1322704
 3,-0.13685884,-0.00302872,-0.01593056,-0.01066733,0.00165087,0.0161877
 8,0.01253271,0.01151353,0.14237587,0.14779645\\-0.00008369,0.,0.000539
 72,-0.00047953,0.,-0.00030787,0.00013913,0.,-0.00031462,0.00026105,0.,
 0.00002850,0.00026625,0.,0.00011372,-0.00004112,0.,0.00002662,-0.00003
 105,0.00008001,-0.00004304,-0.00003105,-0.00008001,-0.00004304\\\@


 THE HURRIEDER I GO, THE BEHINDER I GET.
 Job cpu time:       0 days  0 hours  0 minutes 59.8 seconds.
 File lengths (MBytes):  RWF=     11 Int=      0 D2E=      0 Chk=      2 Scr=      1
 Normal termination of Gaussian 09 at Tue Sep 17 19:28:21 2024.
