 Entering Gaussian System, Link 0=/g100_work/pMI24_ChiCa/g09d1/g09d01/d01/build-node-6-2-59348/src/main/g09
 Input=geom.com
 Output=geom.log
 Initial command:
 /g100_work/pMI24_ChiCa/g09d1/g09d01/d01/build-node-6-2-59348/src/main/l1.exe "/g100_scratch/userexternal/ecabiati/g16_14416544/Gau-13288.inp" -scrdir="/g100_scratch/userexternal/ecabiati/g16_14416544/"
 Entering Link 1 = /g100_work/pMI24_ChiCa/g09d1/g09d01/d01/build-node-6-2-59348/src/main/l1.exe PID=     13289.
  
 Copyright (c) 1988,1990,1992,1993,1995,1998,2003,2009,2013,
            Gaussian, Inc.  All Rights Reserved.
  
 This is part of the Gaussian(R) 09 program.  It is based on
 the Gaussian(R) 03 system (copyright 2003, Gaussian, Inc.),
 the Gaussian(R) 98 system (copyright 1998, Gaussian, Inc.),
 the Gaussian(R) 94 system (copyright 1995, Gaussian, Inc.),
 the Gaussian 92(TM) system (copyright 1992, Gaussian, Inc.),
 the Gaussian 90(TM) system (copyright 1990, Gaussian, Inc.),
 the Gaussian 88(TM) system (copyright 1988, Gaussian, Inc.),
 the Gaussian 86(TM) system (copyright 1986, Carnegie Mellon
 University), and the Gaussian 82(TM) system (copyright 1983,
 Carnegie Mellon University). Gaussian is a federally registered
 trademark of Gaussian, Inc.
  
 This software contains proprietary and confidential information,
 including trade secrets, belonging to Gaussian, Inc.
  
 This software is provided under written license and may be
 used, copied, transmitted, or stored only in accord with that
 written license.
  
 The following legend is applicable only to US Government
 contracts under FAR:
  
                    RESTRICTED RIGHTS LEGEND
  
 Use, reproduction and disclosure by the US Government is
 subject to restrictions as set forth in subparagraphs (a)
 and (c) of the Commercial Computer Software - Restricted
 Rights clause in FAR 52.227-19.
  
 Gaussian, Inc.
 340 Quinnipiac St., Bldg. 40, Wallingford CT 06492
  
  
 ---------------------------------------------------------------
 Warning -- This program may not be used in any manner that
 competes with the business of Gaussian, Inc. or will provide
 assistance to any competitor of Gaussian, Inc.  The licensee
 of this program is prohibited from giving any competitor of
 Gaussian, Inc. access to this program.  By using this program,
 the user acknowledges that Gaussian, Inc. is engaged in the
 business of creating and licensing software in the field of
 computational chemistry and represents and warrants to the
 licensee that it is not a competitor of Gaussian, Inc. and that
 it will not use this program in any manner prohibited above.
 ---------------------------------------------------------------
  

 Cite this work as:
 Gaussian 09, Revision D.01,
 M. J. Frisch, G. W. Trucks, H. B. Schlegel, G. E. Scuseria, 
 M. A. Robb, J. R. Cheeseman, G. Scalmani, V. Barone, B. Mennucci, 
 G. A. Petersson, H. Nakatsuji, M. Caricato, X. Li, H. P. Hratchian, 
 A. F. Izmaylov, J. Bloino, G. Zheng, J. L. Sonnenberg, M. Hada, 
 M. Ehara, K. Toyota, R. Fukuda, J. Hasegawa, M. Ishida, T. Nakajima, 
 Y. Honda, O. Kitao, H. Nakai, T. Vreven, J. A. Montgomery, Jr., 
 J. E. Peralta, F. Ogliaro, M. Bearpark, J. J. Heyd, E. Brothers, 
 K. N. Kudin, V. N. Staroverov, T. Keith, R. Kobayashi, J. Normand, 
 K. Raghavachari, A. Rendell, J. C. Burant, S. S. Iyengar, J. Tomasi, 
 M. Cossi, N. Rega, J. M. Millam, M. Klene, J. E. Knox, J. B. Cross, 
 V. Bakken, C. Adamo, J. Jaramillo, R. Gomperts, R. E. Stratmann, 
 O. Yazyev, A. J. Austin, R. Cammi, C. Pomelli, J. W. Ochterski, 
 R. L. Martin, K. Morokuma, V. G. Zakrzewski, G. A. Voth, 
 P. Salvador, J. J. Dannenberg, S. Dapprich, A. D. Daniels, 
 O. Farkas, J. B. Foresman, J. V. Ortiz, J. Cioslowski, 
 and D. J. Fox, Gaussian, Inc., Wallingford CT, 2013.
 
 ******************************************
 Gaussian 09:  EM64L-G09RevD.01 24-Apr-2013
                17-Sep-2024 
 ******************************************
 %nproc=24
 Will use up to   24 processors via shared memory.
 %mem=2Gb
 -------------------------------------------------
 #p B3LYP/6-31+g(d,p) opt scrf=(smd,solvent=water)
 -------------------------------------------------
 1/14=-1,18=20,19=15,26=3,38=1/1,3;
 2/9=110,12=2,17=6,18=5,40=1/2;
 3/5=1,6=6,7=111,11=2,16=1,25=1,30=1,70=32201,71=1,72=1,74=-5/1,2,3;
 4//1;
 5/5=2,38=5,53=1/2;
 6/7=2,8=2,9=2,10=2,28=1/1;
 7//1,2,3,16;
 1/14=-1,18=20,19=15,26=3/3(2);
 2/9=110/2;
 99//99;
 2/9=110/2;
 3/5=1,6=6,7=111,11=2,16=1,25=1,30=1,70=32205,71=1,72=1,74=-5/1,2,3;
 4/5=5,16=3,69=1/1;
 5/5=2,38=5,53=1/2;
 7//1,2,3,16;
 1/14=-1,18=20,19=15,26=3/3(-5);
 2/9=110/2;
 6/7=2,8=2,9=2,10=2,19=2,28=1/1;
 99/9=1/99;
 Leave Link    1 at Tue Sep 17 13:14:29 2024, MaxMem=   268435456 cpu:         0.2
 (Enter /g100_work/pMI24_ChiCa/g09d1/g09d01/d01/build-node-6-2-59348/src/main/l101.exe)
 -----------
 ch3cooh sol
 -----------
 Symbolic Z-matrix:
 Charge =  0 Multiplicity = 1
 c
 o                    1    oc2
 o                    1    oc3      2    oco3
 h                    2    ho4      1    hoc4     3    dih4     0
 c                    1    cc5      3    cco5     2    dih5     0
 h                    5    hc6      1    hcc6     3    dih6     0
 h                    5    hc7      1    hcc7     6    dih7     0
 h                    5    hc8      1    hcc8     6    dih8     0
       Variables:
  oc2                   1.4                      
  oc3                   1.22                     
  oco3                120.                       
  ho4                   0.95                     
  hoc4                109.471                    
  dih4                  0.                       
  cc5                   1.5                      
  cco5                120.                       
  dih5                180.                       
  hc6                   1.07                     
  hcc6                109.471                    
  dih6                180.                       
  hc7                   1.07                     
  hcc7                109.471                    
  dih7                120.                       
  hc8                   1.07                     
  hcc8                109.471                    
  dih8                240.                       
 
     4 tetrahedral angles replaced.
 NAtoms=      8 NQM=        8 NQMF=       0 NMMI=      0 NMMIF=      0
                NMic=       0 NMicF=      0.
                    Isotopes and Nuclear Properties:
 (Nuclear quadrupole moments (NQMom) in fm**2, nuclear magnetic moments (NMagM)
  in nuclear magnetons)

  Atom         1           2           3           4           5           6           7           8
 IAtWgt=          12          16          16           1          12           1           1           1
 AtmWgt=  12.0000000  15.9949146  15.9949146   1.0078250  12.0000000   1.0078250   1.0078250   1.0078250
 NucSpn=           0           0           0           1           0           1           1           1
 AtZEff=   0.0000000   0.0000000   0.0000000   0.0000000   0.0000000   0.0000000   0.0000000   0.0000000
 NQMom=    0.0000000   0.0000000   0.0000000   0.0000000   0.0000000   0.0000000   0.0000000   0.0000000
 NMagM=    0.0000000   0.0000000   0.0000000   2.7928460   0.0000000   2.7928460   2.7928460   2.7928460
 AtZNuc=   6.0000000   8.0000000   8.0000000   1.0000000   6.0000000   1.0000000   1.0000000   1.0000000
 Leave Link  101 at Tue Sep 17 13:14:29 2024, MaxMem=   268435456 cpu:         0.2
 (Enter /g100_work/pMI24_ChiCa/g09d1/g09d01/d01/build-node-6-2-59348/src/main/l103.exe)

 GradGradGradGradGradGradGradGradGradGradGradGradGradGradGradGradGradGrad
 Berny optimization.
 Initialization pass.
                           ----------------------------
                           !    Initial Parameters    !
                           ! (Angstroms and Degrees)  !
 --------------------------                            --------------------------
 ! Name  Definition              Value          Derivative Info.                !
 --------------------------------------------------------------------------------
 ! R1    R(1,2)                  1.4            estimate D2E/DX2                !
 ! R2    R(1,3)                  1.22           estimate D2E/DX2                !
 ! R3    R(1,5)                  1.5            estimate D2E/DX2                !
 ! R4    R(2,4)                  0.95           estimate D2E/DX2                !
 ! R5    R(5,6)                  1.07           estimate D2E/DX2                !
 ! R6    R(5,7)                  1.07           estimate D2E/DX2                !
 ! R7    R(5,8)                  1.07           estimate D2E/DX2                !
 ! A1    A(2,1,3)              120.0            estimate D2E/DX2                !
 ! A2    A(2,1,5)              120.0            estimate D2E/DX2                !
 ! A3    A(3,1,5)              120.0            estimate D2E/DX2                !
 ! A4    A(1,2,4)              109.4712         estimate D2E/DX2                !
 ! A5    A(1,5,6)              109.4712         estimate D2E/DX2                !
 ! A6    A(1,5,7)              109.4712         estimate D2E/DX2                !
 ! A7    A(1,5,8)              109.4712         estimate D2E/DX2                !
 ! A8    A(6,5,7)              109.4712         estimate D2E/DX2                !
 ! A9    A(6,5,8)              109.4712         estimate D2E/DX2                !
 ! A10   A(7,5,8)              109.4712         estimate D2E/DX2                !
 ! D1    D(3,1,2,4)              0.0            estimate D2E/DX2                !
 ! D2    D(5,1,2,4)            180.0            estimate D2E/DX2                !
 ! D3    D(2,1,5,6)              0.0            estimate D2E/DX2                !
 ! D4    D(2,1,5,7)            120.0            estimate D2E/DX2                !
 ! D5    D(2,1,5,8)           -120.0            estimate D2E/DX2                !
 ! D6    D(3,1,5,6)            180.0            estimate D2E/DX2                !
 ! D7    D(3,1,5,7)            -60.0            estimate D2E/DX2                !
 ! D8    D(3,1,5,8)             60.0            estimate D2E/DX2                !
 --------------------------------------------------------------------------------
 Trust Radius=3.00D-01 FncErr=1.00D-07 GrdErr=1.00D-06
 Number of steps in this run=     35 maximum allowed number of steps=    100.
 GradGradGradGradGradGradGradGradGradGradGradGradGradGradGradGradGradGrad

 Leave Link  103 at Tue Sep 17 13:14:29 2024, MaxMem=   268435456 cpu:         0.1
 (Enter /g100_work/pMI24_ChiCa/g09d1/g09d01/d01/build-node-6-2-59348/src/main/l202.exe)
                          Input orientation:                          
 ---------------------------------------------------------------------
 Center     Atomic      Atomic             Coordinates (Angstroms)
 Number     Number       Type             X           Y           Z
 ---------------------------------------------------------------------
      1          6           0        0.000000    0.000000    0.000000
      2          8           0        0.000000    0.000000    1.400000
      3          8           0        1.056551    0.000000   -0.610000
      4          1           0        0.895669    0.000000    1.716667
      5          6           0       -1.299038    0.000000   -0.750000
      6          1           0       -2.112323    0.000000   -0.054682
      7          1           0       -1.355719    0.873651   -1.365159
      8          1           0       -1.355719   -0.873651   -1.365159
 ---------------------------------------------------------------------
                    Distance matrix (angstroms):
                    1          2          3          4          5
     1  C    0.000000
     2  O    1.400000   0.000000
     3  O    1.220000   2.270771   0.000000
     4  H    1.936276   0.950000   2.332222   0.000000
     5  C    1.500000   2.511971   2.359746   3.301694   0.000000
     6  H    2.113031   2.564763   3.217164   3.490801   1.070000
     7  H    2.113031   3.201147   2.674431   3.915311   1.070000
     8  H    2.113031   3.201147   2.674431   3.915311   1.070000
                    6          7          8
     6  H    0.000000
     7  H    1.747303   0.000000
     8  H    1.747303   1.747303   0.000000
 Stoichiometry    C2H4O2
 Framework group  CS[SG(C2H2O2),X(H2)]
 Deg. of freedom    12
 Full point group                 CS      NOp   2
 Largest Abelian subgroup         CS      NOp   2
 Largest concise Abelian subgroup CS      NOp   2
                         Standard orientation:                         
 ---------------------------------------------------------------------
 Center     Atomic      Atomic             Coordinates (Angstroms)
 Number     Number       Type             X           Y           Z
 ---------------------------------------------------------------------
      1          6           0        0.000000    0.104850   -0.000000
      2          8           0        1.364415   -0.208793    0.000000
      3          8           0       -0.357795    1.271204   -0.000000
      4          1           0        1.873690    0.593166   -0.000000
      5          6           0       -1.021961   -0.993146    0.000000
      6          1           0       -0.526517   -1.941532    0.000000
      7          1           0       -1.634182   -0.910572    0.873651
      8          1           0       -1.634182   -0.910572   -0.873651
 ---------------------------------------------------------------------
 Rotational constants (GHZ):     11.6874887      8.7882225      5.1743278
 Leave Link  202 at Tue Sep 17 13:14:29 2024, MaxMem=   268435456 cpu:         0.1
 (Enter /g100_work/pMI24_ChiCa/g09d1/g09d01/d01/build-node-6-2-59348/src/main/l301.exe)
 Standard basis: 6-31+G(d,p) (6D, 7F)
 Ernie: Thresh=  0.10000D-02 Tol=  0.10000D-05 Strict=F.
 There are    69 symmetry adapted cartesian basis functions of A'  symmetry.
 There are    27 symmetry adapted cartesian basis functions of A"  symmetry.
 There are    69 symmetry adapted basis functions of A'  symmetry.
 There are    27 symmetry adapted basis functions of A"  symmetry.
    96 basis functions,   156 primitive gaussians,    96 cartesian basis functions
    16 alpha electrons       16 beta electrons
       nuclear repulsion energy       119.8443557046 Hartrees.
 IExCor=  402 DFT=T Ex+Corr=B3LYP ExCW=0 ScaHFX=  0.200000
 ScaDFX=  0.800000  0.720000  1.000000  0.810000 ScalE2=  1.000000  1.000000
 IRadAn=      0 IRanWt=     -1 IRanGd=            0 ICorTp=0 IEmpDi=  4
 NAtoms=    8 NActive=    8 NUniq=    7 SFac= 1.31D+00 NAtFMM=   60 NAOKFM=F Big=F
 Integral buffers will be    131072 words long.
 Raffenetti 2 integral format.
 Two-electron integral symmetry is turned on.
 ------------------------------------------------------------------------------
 Polarizable Continuum Model (PCM)
 =================================
 Model                : PCM (using non-symmetric T matrix).
 Atomic radii         : SMD-Coulomb.
 Polarization charges : Total charges.
 Charge compensation  : None.
 Solution method      : On-the-fly selection.
 Cavity type          : VdW (van der Waals Surface) (Alpha=1.000).
 Cavity algorithm     : GePol (No added spheres)
                        Default sphere list used, NSphG=    8.
                        Lebedev-Laikov grids with approx.  5.0 points / Ang**2.
                        Smoothing algorithm: Karplus/York (Gamma=1.0000).
                        Polarization charges: spherical gaussians, with
                                              point-specific exponents (IZeta= 3).
                        Self-potential: point-specific (ISelfS= 7).
                        Self-field    : sphere-specific E.n sum rule (ISelfD= 2).
 1st derivatives      : Analytical E(r).r(x)/FMM algorithm (CHGder, D1EAlg=3).
                        Cavity 1st derivative terms included.
 Solvent              : Water, Eps=  78.355300 Eps(inf)=   1.777849
 ------------------------------------------------------------------------------
 Spheres list:
 ISph  on   Nord     Re0    Alpha      Xe            Ye            Ze
    1   C      1    1.8500  1.000     -0.000000      0.104850     -0.000000
    2   O      2    1.5200  1.000      1.364415     -0.208793      0.000000
    3   O      3    1.5200  1.000     -0.357795      1.271204     -0.000000
    4   H      4    1.2000  1.000      1.873690      0.593166     -0.000000
    5   C      5    1.8500  1.000     -1.021961     -0.993146      0.000000
    6   H      6    1.2000  1.000     -0.526517     -1.941532      0.000000
    7   H      7    1.2000  1.000     -1.634182     -0.910572      0.873651
    8   H      8    1.2000  1.000     -1.634182     -0.910572     -0.873651
 ------------------------------------------------------------------------------
 GePol: Number of generator spheres                  =       8
 GePol: Total number of spheres                      =       8
 GePol: Number of exposed spheres                    =       8 (100.00%)
 GePol: Number of points                             =     655
 GePol: Average weight of points                     =       0.13
 GePol: Minimum weight of points                     =   0.12D-05
 GePol: Maximum weight of points                     =    0.21991
 GePol: Number of points with low weight             =      33
 GePol: Fraction of low-weight points (<1% of avg)   =       5.04%
 GePol: Cavity surface area                          =     83.829 Ang**2
 GePol: Cavity volume                                =     59.269 Ang**3
 ------------------------------------------------------------------------------
 Atomic radii for non-electrostatic terms: SMD-CDS.
 ------------------------------------------------------------------------------
 PCM non-electrostatic energy =         0.0057222953 Hartrees.
 Nuclear repulsion after PCM non-electrostatic terms =      119.8500779999 Hartrees.
 Leave Link  301 at Tue Sep 17 13:14:29 2024, MaxMem=   268435456 cpu:         0.2
 (Enter /g100_work/pMI24_ChiCa/g09d1/g09d01/d01/build-node-6-2-59348/src/main/l302.exe)
 NPDir=0 NMtPBC=     1 NCelOv=     1 NCel=       1 NClECP=     1 NCelD=      1
         NCelK=      1 NCelE2=     1 NClLst=     1 CellRange=     0.0.
 One-electron integrals computed using PRISM.
 One-electron integral symmetry used in STVInt
 NBasis=    96 RedAO= T EigKep=  3.11D-04  NBF=    69    27
 NBsUse=    96 1.00D-06 EigRej= -1.00D+00 NBFU=    69    27
 Precomputing XC quadrature grid using
 IXCGrd= 4 IRadAn=           0 IRanWt=          -1 IRanGd=           0 AccXCQ= 0.00D+00.
 Generated NRdTot=       0 NPtTot=           0 NUsed=           0 NTot=          32
 NSgBfM=    96    96    96    96    96 MxSgAt=     8 MxSgA2=     8.
 Leave Link  302 at Tue Sep 17 13:14:29 2024, MaxMem=   268435456 cpu:         1.4
 (Enter /g100_work/pMI24_ChiCa/g09d1/g09d01/d01/build-node-6-2-59348/src/main/l303.exe)
 DipDrv:  MaxL=1.
 Leave Link  303 at Tue Sep 17 13:14:29 2024, MaxMem=   268435456 cpu:         0.2
 (Enter /g100_work/pMI24_ChiCa/g09d1/g09d01/d01/build-node-6-2-59348/src/main/l401.exe)
 ExpMin= 4.38D-02 ExpMax= 5.48D+03 ExpMxC= 8.25D+02 IAcc=2 IRadAn=         4 AccDes= 0.00D+00
 Harris functional with IExCor=  402 and IRadAn=       4 diagonalized for initial guess.
 HarFok:  IExCor=  402 AccDes= 0.00D+00 IRadAn=         4 IDoV= 1 UseB2=F ITyADJ=14
 ICtDFT=  3500011 ScaDFX=  1.000000  1.000000  1.000000  1.000000
 FoFCou: FMM=F IPFlag=           0 FMFlag=      100000 FMFlg1=           0
         NFxFlg=           0 DoJE=T BraDBF=F KetDBF=T FulRan=T
         wScrn=  0.000000 ICntrl=     500 IOpCl=  0 I1Cent=   200000004 NGrid=           0
         NMat0=    1 NMatS0=      1 NMatT0=    0 NMatD0=    1 NMtDS0=    0 NMtDT0=    0
 Petite list used in FoFCou.
 Harris En= -229.128752223035    
 JPrj=0 DoOrth=F DoCkMO=F.
 Initial guess orbital symmetries:
       Occupied  (A') (A') (A') (A') (A') (A') (A') (A') (A') (A')
                 (A") (A') (A') (A") (A") (A')
       Virtual   (A") (A') (A') (A') (A") (A') (A') (A') (A") (A')
                 (A") (A') (A') (A') (A") (A') (A') (A') (A') (A")
                 (A') (A') (A') (A') (A') (A") (A') (A") (A') (A')
                 (A") (A') (A') (A') (A') (A") (A') (A") (A') (A')
                 (A") (A') (A') (A") (A') (A") (A') (A") (A') (A')
                 (A') (A") (A') (A") (A') (A") (A') (A") (A') (A')
                 (A') (A") (A') (A") (A') (A') (A") (A') (A") (A')
                 (A') (A') (A') (A") (A') (A') (A') (A') (A') (A')
 The electronic state of the initial guess is 1-A'.
 Leave Link  401 at Tue Sep 17 13:14:30 2024, MaxMem=   268435456 cpu:         1.5
 (Enter /g100_work/pMI24_ChiCa/g09d1/g09d01/d01/build-node-6-2-59348/src/main/l502.exe)
 Closed shell SCF:
 Using DIIS extrapolation, IDIIS=  1040.
 Integral symmetry usage will be decided dynamically.
 Keep R1 ints in memory in symmetry-blocked form, NReq=16539583.
 IVT=       49354 IEndB=       49354 NGot=   268435456 MDV=   262737466
 LenX=   262737466 LenY=   262727809
 Requested convergence on RMS density matrix=1.00D-08 within 128 cycles.
 Requested convergence on MAX density matrix=1.00D-06.
 Requested convergence on             energy=1.00D-06.
 No special actions if energy rises.
 FoFCou: FMM=F IPFlag=           0 FMFlag=           0 FMFlg1=           0
         NFxFlg=           0 DoJE=F BraDBF=F KetDBF=F FulRan=T
         wScrn=  0.000000 ICntrl=     600 IOpCl=  0 I1Cent=           0 NGrid=           0
         NMat0=    1 NMatS0=   4656 NMatT0=    0 NMatD0=    1 NMtDS0=    0 NMtDT0=    0
 Petite list used in FoFCou.

 Cycle   1  Pass 1  IDiag  1:
 Inv3:  Mode=1 IEnd=     1287075.
 Iteration    1 A*A^-1 deviation from unit magnitude is 5.00D-15 for     66.
 Iteration    1 A*A^-1 deviation from orthogonality  is 4.61D-15 for    505     88.
 Iteration    1 A^-1*A deviation from unit magnitude is 3.11D-15 for     86.
 Iteration    1 A^-1*A deviation from orthogonality  is 7.08D-14 for    622    562.
 E= -228.967950244545    
 DIIS: error= 3.68D-02 at cycle   1 NSaved=   1.
 NSaved= 1 IEnMin= 1 EnMin= -228.967950244545     IErMin= 1 ErrMin= 3.68D-02
 ErrMax= 3.68D-02  0.00D+00 EMaxC= 1.00D-01 BMatC= 1.77D-01 BMatP= 1.77D-01
 IDIUse=3 WtCom= 6.32D-01 WtEn= 3.68D-01
 Coeff-Com:  0.100D+01
 Coeff-En:   0.100D+01
 Coeff:      0.100D+01
 Gap=     0.174 Goal=   None    Shift=    0.000
 GapD=    0.174 DampG=1.000 DampE=0.500 DampFc=0.5000 IDamp=-1.
 Damping current iteration by 5.00D-01
 RMSDP=7.62D-03 MaxDP=1.78D-01              OVMax= 2.01D-01

 Cycle   2  Pass 1  IDiag  1:
 E= -229.013101697982     Delta-E=       -0.045151453437 Rises=F Damp=T
 DIIS: error= 1.11D-02 at cycle   2 NSaved=   2.
 NSaved= 2 IEnMin= 2 EnMin= -229.013101697982     IErMin= 2 ErrMin= 1.11D-02
 ErrMax= 1.11D-02  0.00D+00 EMaxC= 1.00D-01 BMatC= 1.84D-02 BMatP= 1.77D-01
 IDIUse=3 WtCom= 8.89D-01 WtEn= 1.11D-01
 Coeff-Com:  0.197D+00 0.803D+00
 Coeff-En:   0.313D+00 0.687D+00
 Coeff:      0.210D+00 0.790D+00
 Gap=     0.283 Goal=   None    Shift=    0.000
 RMSDP=2.05D-03 MaxDP=4.15D-02 DE=-4.52D-02 OVMax= 1.49D-01

 Cycle   3  Pass 1  IDiag  1:
 E= -229.100322227194     Delta-E=       -0.087220529212 Rises=F Damp=F
 DIIS: error= 8.93D-03 at cycle   3 NSaved=   3.
 NSaved= 3 IEnMin= 3 EnMin= -229.100322227194     IErMin= 3 ErrMin= 8.93D-03
 ErrMax= 8.93D-03  0.00D+00 EMaxC= 1.00D-01 BMatC= 1.19D-02 BMatP= 1.84D-02
 IDIUse=3 WtCom= 9.11D-01 WtEn= 8.93D-02
 Coeff-Com:  0.825D-01 0.462D+00 0.456D+00
 Coeff-En:   0.000D+00 0.000D+00 0.100D+01
 Coeff:      0.751D-01 0.420D+00 0.505D+00
 Gap=     0.276 Goal=   None    Shift=    0.000
 RMSDP=1.05D-03 MaxDP=2.78D-02 DE=-8.72D-02 OVMax= 4.31D-02

 Cycle   4  Pass 1  IDiag  1:
 E= -229.109068768947     Delta-E=       -0.008746541753 Rises=F Damp=F
 DIIS: error= 4.20D-03 at cycle   4 NSaved=   4.
 NSaved= 4 IEnMin= 4 EnMin= -229.109068768947     IErMin= 4 ErrMin= 4.20D-03
 ErrMax= 4.20D-03  0.00D+00 EMaxC= 1.00D-01 BMatC= 1.53D-03 BMatP= 1.19D-02
 IDIUse=3 WtCom= 9.58D-01 WtEn= 4.20D-02
 Coeff-Com:  0.974D-02 0.788D-01 0.273D+00 0.638D+00
 Coeff-En:   0.000D+00 0.000D+00 0.914D-01 0.909D+00
 Coeff:      0.933D-02 0.755D-01 0.266D+00 0.649D+00
 Gap=     0.279 Goal=   None    Shift=    0.000
 RMSDP=3.61D-04 MaxDP=9.17D-03 DE=-8.75D-03 OVMax= 1.61D-02

 Cycle   5  Pass 1  IDiag  1:
 E= -229.110000794763     Delta-E=       -0.000932025816 Rises=F Damp=F
 DIIS: error= 1.57D-03 at cycle   5 NSaved=   5.
 NSaved= 5 IEnMin= 5 EnMin= -229.110000794763     IErMin= 5 ErrMin= 1.57D-03
 ErrMax= 1.57D-03  0.00D+00 EMaxC= 1.00D-01 BMatC= 2.67D-04 BMatP= 1.53D-03
 IDIUse=3 WtCom= 9.84D-01 WtEn= 1.57D-02
 Coeff-Com: -0.116D-02 0.591D-02 0.124D+00 0.416D+00 0.455D+00
 Coeff-En:   0.000D+00 0.000D+00 0.000D+00 0.126D+00 0.874D+00
 Coeff:     -0.114D-02 0.582D-02 0.122D+00 0.411D+00 0.462D+00
 Gap=     0.278 Goal=   None    Shift=    0.000
 RMSDP=1.22D-04 MaxDP=3.46D-03 DE=-9.32D-04 OVMax= 4.52D-03

 Cycle   6  Pass 1  IDiag  1:
 E= -229.110208535762     Delta-E=       -0.000207740998 Rises=F Damp=F
 DIIS: error= 9.52D-05 at cycle   6 NSaved=   6.
 NSaved= 6 IEnMin= 6 EnMin= -229.110208535762     IErMin= 6 ErrMin= 9.52D-05
 ErrMax= 9.52D-05  0.00D+00 EMaxC= 1.00D-01 BMatC= 1.68D-06 BMatP= 2.67D-04
 IDIUse=1 WtCom= 1.00D+00 WtEn= 0.00D+00
 Coeff-Com: -0.673D-03-0.849D-03 0.276D-01 0.957D-01 0.145D+00 0.733D+00
 Coeff:     -0.673D-03-0.849D-03 0.276D-01 0.957D-01 0.145D+00 0.733D+00
 Gap=     0.279 Goal=   None    Shift=    0.000
 RMSDP=1.33D-05 MaxDP=2.63D-04 DE=-2.08D-04 OVMax= 3.17D-04

 Cycle   7  Pass 1  IDiag  1:
 E= -229.110209732302     Delta-E=       -0.000001196540 Rises=F Damp=F
 DIIS: error= 2.81D-05 at cycle   7 NSaved=   7.
 NSaved= 7 IEnMin= 7 EnMin= -229.110209732302     IErMin= 7 ErrMin= 2.81D-05
 ErrMax= 2.81D-05  0.00D+00 EMaxC= 1.00D-01 BMatC= 1.48D-07 BMatP= 1.68D-06
 IDIUse=1 WtCom= 1.00D+00 WtEn= 0.00D+00
 Coeff-Com: -0.223D-03-0.581D-03 0.609D-02 0.203D-01 0.417D-01 0.329D+00
 Coeff-Com:  0.603D+00
 Coeff:     -0.223D-03-0.581D-03 0.609D-02 0.203D-01 0.417D-01 0.329D+00
 Coeff:      0.603D+00
 Gap=     0.279 Goal=   None    Shift=    0.000
 RMSDP=4.26D-06 MaxDP=7.10D-05 DE=-1.20D-06 OVMax= 9.38D-05

 Cycle   8  Pass 1  IDiag  1:
 E= -229.110209870749     Delta-E=       -0.000000138447 Rises=F Damp=F
 DIIS: error= 3.24D-06 at cycle   8 NSaved=   8.
 NSaved= 8 IEnMin= 8 EnMin= -229.110209870749     IErMin= 8 ErrMin= 3.24D-06
 ErrMax= 3.24D-06  0.00D+00 EMaxC= 1.00D-01 BMatC= 1.45D-09 BMatP= 1.48D-07
 IDIUse=1 WtCom= 1.00D+00 WtEn= 0.00D+00
 Coeff-Com:  0.114D-04-0.356D-04-0.763D-03-0.316D-02-0.259D-02 0.340D-02
 Coeff-Com:  0.829D-01 0.920D+00
 Coeff:      0.114D-04-0.356D-04-0.763D-03-0.316D-02-0.259D-02 0.340D-02
 Coeff:      0.829D-01 0.920D+00
 Gap=     0.279 Goal=   None    Shift=    0.000
 RMSDP=1.03D-06 MaxDP=1.99D-05 DE=-1.38D-07 OVMax= 1.39D-05

 Cycle   9  Pass 1  IDiag  1:
 E= -229.110209872305     Delta-E=       -0.000000001556 Rises=F Damp=F
 DIIS: error= 4.44D-07 at cycle   9 NSaved=   9.
 NSaved= 9 IEnMin= 9 EnMin= -229.110209872305     IErMin= 9 ErrMin= 4.44D-07
 ErrMax= 4.44D-07  0.00D+00 EMaxC= 1.00D-01 BMatC= 2.18D-11 BMatP= 1.45D-09
 IDIUse=1 WtCom= 1.00D+00 WtEn= 0.00D+00
 Coeff-Com: -0.281D-06 0.860D-05-0.162D-03-0.539D-03-0.730D-03-0.335D-02
 Coeff-Com:  0.302D-02 0.866D-01 0.915D+00
 Coeff:     -0.281D-06 0.860D-05-0.162D-03-0.539D-03-0.730D-03-0.335D-02
 Coeff:      0.302D-02 0.866D-01 0.915D+00
 Gap=     0.279 Goal=   None    Shift=    0.000
 RMSDP=1.06D-07 MaxDP=2.32D-06 DE=-1.56D-09 OVMax= 1.67D-06

 Cycle  10  Pass 1  IDiag  1:
 E= -229.110209872322     Delta-E=       -0.000000000017 Rises=F Damp=F
 DIIS: error= 6.58D-08 at cycle  10 NSaved=  10.
 NSaved=10 IEnMin=10 EnMin= -229.110209872322     IErMin=10 ErrMin= 6.58D-08
 ErrMax= 6.58D-08  0.00D+00 EMaxC= 1.00D-01 BMatC= 5.74D-13 BMatP= 2.18D-11
 IDIUse=1 WtCom= 1.00D+00 WtEn= 0.00D+00
 Coeff-Com: -0.939D-06 0.276D-05-0.106D-04-0.182D-04-0.735D-04-0.673D-03
 Coeff-Com: -0.123D-02-0.926D-02 0.121D+00 0.890D+00
 Coeff:     -0.939D-06 0.276D-05-0.106D-04-0.182D-04-0.735D-04-0.673D-03
 Coeff:     -0.123D-02-0.926D-02 0.121D+00 0.890D+00
 Gap=     0.279 Goal=   None    Shift=    0.000
 RMSDP=1.32D-08 MaxDP=2.60D-07 DE=-1.72D-11 OVMax= 2.96D-07

 Cycle  11  Pass 1  IDiag  1:
 E= -229.110209872326     Delta-E=       -0.000000000004 Rises=F Damp=F
 DIIS: error= 6.87D-09 at cycle  11 NSaved=  11.
 NSaved=11 IEnMin=11 EnMin= -229.110209872326     IErMin=11 ErrMin= 6.87D-09
 ErrMax= 6.87D-09  0.00D+00 EMaxC= 1.00D-01 BMatC= 6.38D-15 BMatP= 5.74D-13
 IDIUse=1 WtCom= 1.00D+00 WtEn= 0.00D+00
 Coeff-Com: -0.142D-06 0.157D-06 0.205D-05 0.681D-05 0.575D-05 0.962D-05
 Coeff-Com: -0.139D-03-0.226D-02-0.731D-02 0.936D-01 0.916D+00
 Coeff:     -0.142D-06 0.157D-06 0.205D-05 0.681D-05 0.575D-05 0.962D-05
 Coeff:     -0.139D-03-0.226D-02-0.731D-02 0.936D-01 0.916D+00
 Gap=     0.279 Goal=   None    Shift=    0.000
 RMSDP=1.42D-09 MaxDP=3.10D-08 DE=-4.21D-12 OVMax= 2.46D-08

 Error on total polarization charges =  0.03995
 SCF Done:  E(RB3LYP) =  -229.110209872     A.U. after   11 cycles
            NFock= 11  Conv=0.14D-08     -V/T= 2.0093
 KE= 2.269998404361D+02 PE=-7.762404193778D+02 EE= 2.002802910694D+02
 SMD-CDS (non-electrostatic) energy       (kcal/mol) =       3.59
 (included in total energy above)
 Leave Link  502 at Tue Sep 17 13:14:31 2024, MaxMem=   268435456 cpu:        21.9
 (Enter /g100_work/pMI24_ChiCa/g09d1/g09d01/d01/build-node-6-2-59348/src/main/l601.exe)
 Copying SCF densities to generalized density rwf, IOpCl= 0 IROHF=0.

 **********************************************************************

            Population analysis using the SCF density.

 **********************************************************************

 Orbital symmetries:
       Occupied  (A') (A') (A') (A') (A') (A') (A') (A') (A') (A')
                 (A") (A') (A') (A") (A") (A')
       Virtual   (A") (A') (A') (A') (A") (A') (A') (A") (A') (A')
                 (A') (A") (A') (A') (A") (A') (A') (A") (A') (A')
                 (A') (A') (A') (A') (A") (A') (A') (A") (A') (A')
                 (A") (A') (A') (A') (A') (A") (A') (A") (A') (A')
                 (A') (A") (A') (A") (A') (A') (A") (A') (A") (A')
                 (A') (A") (A') (A") (A') (A") (A') (A") (A') (A')
                 (A') (A") (A') (A") (A') (A') (A") (A') (A") (A')
                 (A') (A') (A') (A") (A') (A') (A') (A') (A') (A')
 The electronic state is 1-A'.
 Alpha  occ. eigenvalues --  -19.20792 -19.16332 -10.34503 -10.19088  -1.10851
 Alpha  occ. eigenvalues --   -1.02836  -0.76122  -0.61844  -0.50862  -0.48289
 Alpha  occ. eigenvalues --   -0.47191  -0.41395  -0.40478  -0.39643  -0.33642
 Alpha  occ. eigenvalues --   -0.29612
 Alpha virt. eigenvalues --   -0.01748   0.00788   0.04026   0.05444   0.06295
 Alpha virt. eigenvalues --    0.07857   0.08189   0.09518   0.12991   0.15907
 Alpha virt. eigenvalues --    0.17289   0.17708   0.20088   0.22583   0.24047
 Alpha virt. eigenvalues --    0.24498   0.25646   0.27454   0.27648   0.29010
 Alpha virt. eigenvalues --    0.33614   0.34596   0.36665   0.45825   0.63905
 Alpha virt. eigenvalues --    0.64649   0.67793   0.70290   0.75833   0.77614
 Alpha virt. eigenvalues --    0.92315   0.95993   0.99875   1.06543   1.10386
 Alpha virt. eigenvalues --    1.12400   1.13087   1.22173   1.24573   1.27696
 Alpha virt. eigenvalues --    1.30409   1.30622   1.32101   1.39877   1.50095
 Alpha virt. eigenvalues --    1.57361   1.58223   1.69911   1.70663   1.75357
 Alpha virt. eigenvalues --    1.80487   1.84007   1.92866   2.04017   2.04356
 Alpha virt. eigenvalues --    2.11993   2.15843   2.22033   2.22741   2.29900
 Alpha virt. eigenvalues --    2.44058   2.47207   2.53397   2.56390   2.67822
 Alpha virt. eigenvalues --    2.69503   2.72269   2.80381   2.90942   2.98398
 Alpha virt. eigenvalues --    3.09823   3.18053   3.33166   3.46274   3.47857
 Alpha virt. eigenvalues --    3.51654   4.13133   4.27680   4.34614   4.59653
          Condensed to atoms (all electrons):
               1          2          3          4          5          6
     1  C    4.675200   0.258780   0.458284  -0.014287   0.219044  -0.039146
     2  O    0.258780   8.286781  -0.129873   0.252596  -0.154508   0.001116
     3  O    0.458284  -0.129873   8.359247   0.004146  -0.135878   0.008062
     4  H   -0.014287   0.252596   0.004146   0.316764   0.025466  -0.000060
     5  C    0.219044  -0.154508  -0.135878   0.025466   5.326918   0.388647
     6  H   -0.039146   0.001116   0.008062  -0.000060   0.388647   0.501889
     7  H   -0.026262   0.002798  -0.008319  -0.000134   0.395962  -0.023974
     8  H   -0.026262   0.002798  -0.008319  -0.000134   0.395962  -0.023974
               7          8
     1  C   -0.026262  -0.026262
     2  O    0.002798   0.002798
     3  O   -0.008319  -0.008319
     4  H   -0.000134  -0.000134
     5  C    0.395962   0.395962
     6  H   -0.023974  -0.023974
     7  H    0.463049  -0.018980
     8  H   -0.018980   0.463049
 Mulliken charges:
               1
     1  C    0.494649
     2  O   -0.520487
     3  O   -0.547351
     4  H    0.415643
     5  C   -0.461613
     6  H    0.187439
     7  H    0.215860
     8  H    0.215860
 Sum of Mulliken charges =  -0.00000
 Mulliken charges with hydrogens summed into heavy atoms:
               1
     1  C    0.494649
     2  O   -0.104844
     3  O   -0.547351
     5  C    0.157547
 Electronic spatial extent (au):  <R**2>=            259.5886
 Charge=             -0.0000 electrons
 Dipole moment (field-independent basis, Debye):
    X=              0.3311    Y=             -2.2210    Z=             -0.0000  Tot=              2.2456
 Quadrupole moment (field-independent basis, Debye-Ang):
   XX=            -20.4868   YY=            -27.4178   ZZ=            -23.2449
   XY=              6.0896   XZ=              0.0000   YZ=              0.0000
 Traceless Quadrupole moment (field-independent basis, Debye-Ang):
   XX=              3.2297   YY=             -3.7013   ZZ=              0.4716
   XY=              6.0896   XZ=              0.0000   YZ=              0.0000
 Octapole moment (field-independent basis, Debye-Ang**2):
  XXX=              9.1561  YYY=             -6.4249  ZZZ=             -0.0000  XYY=              3.4789
  XXY=              5.0659  XXZ=             -0.0000  XZZ=             -0.6510  YZZ=              0.3942
  YYZ=             -0.0000  XYZ=             -0.0000
 Hexadecapole moment (field-independent basis, Debye-Ang**3):
 XXXX=           -132.9418 YYYY=           -144.3866 ZZZZ=            -27.9099 XXXY=              4.1836
 XXXZ=              0.0000 YYYX=             -8.7555 YYYZ=              0.0000 ZZZX=             -0.0000
 ZZZY=              0.0000 XXYY=            -47.7979 XXZZ=            -28.6884 YYZZ=            -28.3454
 XXYZ=              0.0000 YYXZ=              0.0000 ZZXY=             -2.4198
 N-N= 1.198500779999D+02 E-N=-7.762404189566D+02  KE= 2.269998404361D+02
 Symmetry A'   KE= 2.167100698740D+02
 Symmetry A"   KE= 1.028977056211D+01
 No NMR shielding tensors so no spin-rotation constants.
 Leave Link  601 at Tue Sep 17 13:14:31 2024, MaxMem=   268435456 cpu:         1.5
 (Enter /g100_work/pMI24_ChiCa/g09d1/g09d01/d01/build-node-6-2-59348/src/main/l701.exe)
 Compute integral first derivatives.
 ... and contract with generalized density number  0.
 D1PCM: PCM CHGder 1st derivatives, ID1Alg=3 FixD1E=F DoIter=F DoCFld=F I1PDM=0.
 GePol: Maximum number of non-zero 1st derivatives   =     265
 Leave Link  701 at Tue Sep 17 13:14:31 2024, MaxMem=   268435456 cpu:         4.3
 (Enter /g100_work/pMI24_ChiCa/g09d1/g09d01/d01/build-node-6-2-59348/src/main/l702.exe)
 L702 exits ... SP integral derivatives will be done elsewhere.
 Leave Link  702 at Tue Sep 17 13:14:31 2024, MaxMem=   268435456 cpu:         0.1
 (Enter /g100_work/pMI24_ChiCa/g09d1/g09d01/d01/build-node-6-2-59348/src/main/l703.exe)
 Compute integral first derivatives, UseDBF=F ICtDFT=           0.
 Integral derivatives from FoFJK, PRISM(SPDF).
 Calling FoFJK, ICntrl=      2127 FMM=F ISym2X=1 I1Cent= 0 IOpClX= 0 NMat=1 NMatS=1 NMatT=0.
 FoFJK:  IHMeth= 1 ICntrl=    2127 DoSepK=F KAlg= 0 I1Cent=   0 FoldK=F
 IRaf=         0 NMat=   1 IRICut=       1 DoRegI=T DoRafI=F ISym2E= 1.
 FoFCou: FMM=F IPFlag=           0 FMFlag=      100000 FMFlg1=         800
         NFxFlg=           0 DoJE=F BraDBF=F KetDBF=F FulRan=T
         wScrn=  0.000000 ICntrl=    2127 IOpCl=  0 I1Cent=           0 NGrid=           0
         NMat0=    1 NMatS0=      1 NMatT0=    0 NMatD0=    1 NMtDS0=    0 NMtDT0=    0
 Petite list used in FoFCou.
 Leave Link  703 at Tue Sep 17 13:14:32 2024, MaxMem=   268435456 cpu:         3.8
 (Enter /g100_work/pMI24_ChiCa/g09d1/g09d01/d01/build-node-6-2-59348/src/main/l716.exe)
 Dipole        = 1.30249880D-01-8.73816091D-01-2.22044605D-16
 ***** Axes restored to original set *****
 -------------------------------------------------------------------
 Center     Atomic                   Forces (Hartrees/Bohr)
 Number     Number              X              Y              Z
 -------------------------------------------------------------------
      1        6           0.014878618    0.000000000    0.011709308
      2        8          -0.040348867   -0.000000000   -0.038262511
      3        8           0.009776119    0.000000000    0.002078435
      4        1           0.025049637   -0.000000000    0.004016731
      5        6           0.003031211   -0.000000000    0.031926627
      6        1          -0.015326075   -0.000000000    0.007002262
      7        1           0.001469679    0.012854739   -0.009235426
      8        1           0.001469679   -0.012854739   -0.009235426
 -------------------------------------------------------------------
 Cartesian Forces:  Max     0.040348867 RMS     0.015827002
 Leave Link  716 at Tue Sep 17 13:14:32 2024, MaxMem=   268435456 cpu:         0.1
 (Enter /g100_work/pMI24_ChiCa/g09d1/g09d01/d01/build-node-6-2-59348/src/main/l103.exe)

 GradGradGradGradGradGradGradGradGradGradGradGradGradGradGradGradGradGrad
 Berny optimization.
 FormGI is forming the generalized inverse of G from B-inverse, IUseBI=4.
 Internal  Forces:  Max     0.034191531 RMS     0.012654504
 Search for a local minimum.
 Step number   1 out of a maximum of   35
 All quantities printed in internal units (Hartrees-Bohrs-Radians)
 RMS Force = .12655D-01 SwitMx=.10000D-02 MixMth= 1
 Mixed Optimization -- RFO/linear search
 Second derivative matrix not updated -- first step.
 ITU=  0
     Eigenvalues ---    0.00766   0.00997   0.01692   0.07537   0.07537
     Eigenvalues ---    0.16000   0.16000   0.16000   0.16000   0.25000
     Eigenvalues ---    0.25000   0.32377   0.37230   0.37230   0.37230
     Eigenvalues ---    0.45621   0.57681   0.95383
 RFO step:  Lambda=-1.14591907D-02 EMin= 7.65947438D-03
 Linear search not attempted -- first point.
 Iteration  1 RMS(Cart)=  0.05250137 RMS(Int)=  0.00137721
 Iteration  2 RMS(Cart)=  0.00145226 RMS(Int)=  0.00027168
 Iteration  3 RMS(Cart)=  0.00000167 RMS(Int)=  0.00027168
 Iteration  4 RMS(Cart)=  0.00000000 RMS(Int)=  0.00027168
 ITry= 1 IFail=0 DXMaxC= 1.19D-01 DCOld= 1.00D+10 DXMaxT= 3.00D-01 DXLimC= 3.00D+00 Rises=F
 ClnCor:  largest displacement from symmetrization is 4.05D-10 for atom     4.
 Variable       Old X    -DE/DX   Delta X   Delta X   Delta X     New X
                                 (Linear)    (Quad)   (Total)
    R1        2.64562  -0.03419   0.00000  -0.07311  -0.07311   2.57251
    R2        2.30547   0.00742   0.00000   0.00768   0.00768   2.31315
    R3        2.83459  -0.00214   0.00000  -0.00639  -0.00639   2.82819
    R4        1.79524   0.02492   0.00000   0.04236   0.04236   1.83760
    R5        2.02201   0.01617   0.00000   0.04214   0.04214   2.06415
    R6        2.02201   0.01574   0.00000   0.04101   0.04101   2.06302
    R7        2.02201   0.01574   0.00000   0.04101   0.04101   2.06302
    A1        2.09440   0.00570   0.00000   0.02181   0.02181   2.11621
    A2        2.09440  -0.02693   0.00000  -0.10300  -0.10300   1.99140
    A3        2.09440   0.02123   0.00000   0.08118   0.08118   2.17558
    A4        1.91063  -0.00809   0.00000  -0.04720  -0.04720   1.86343
    A5        1.91063   0.00864   0.00000   0.05728   0.05740   1.96803
    A6        1.91063  -0.00402   0.00000  -0.02687  -0.02722   1.88341
    A7        1.91063  -0.00402   0.00000  -0.02687  -0.02722   1.88341
    A8        1.91063  -0.00080   0.00000   0.00218   0.00230   1.91293
    A9        1.91063  -0.00080   0.00000   0.00218   0.00230   1.91293
   A10        1.91063   0.00100   0.00000  -0.00791  -0.00881   1.90182
    D1       -0.00000   0.00000   0.00000   0.00000   0.00000   0.00000
    D2        3.14159   0.00000   0.00000   0.00000   0.00000   3.14159
    D3        0.00000  -0.00000   0.00000  -0.00000  -0.00000   0.00000
    D4        2.09440   0.00185   0.00000   0.02130   0.02087   2.11526
    D5       -2.09440  -0.00185   0.00000  -0.02130  -0.02087  -2.11526
    D6        3.14159  -0.00000   0.00000  -0.00000   0.00000   3.14159
    D7       -1.04720   0.00185   0.00000   0.02130   0.02087  -1.02633
    D8        1.04720  -0.00185   0.00000  -0.02130  -0.02087   1.02633
         Item               Value     Threshold  Converged?
 Maximum Force            0.034192     0.000450     NO 
 RMS     Force            0.012655     0.000300     NO 
 Maximum Displacement     0.119024     0.001800     NO 
 RMS     Displacement     0.052610     0.001200     NO 
 Predicted change in Energy=-5.946880D-03
 Lowest energy point so far.  Saving SCF results.
 GradGradGradGradGradGradGradGradGradGradGradGradGradGradGradGradGradGrad

 Leave Link  103 at Tue Sep 17 13:14:32 2024, MaxMem=   268435456 cpu:         1.6
 (Enter /g100_work/pMI24_ChiCa/g09d1/g09d01/d01/build-node-6-2-59348/src/main/l202.exe)
                          Input orientation:                          
 ---------------------------------------------------------------------
 Center     Atomic      Atomic             Coordinates (Angstroms)
 Number     Number       Type             X           Y           Z
 ---------------------------------------------------------------------
      1          6           0        0.030461    0.000000   -0.021813
      2          8           0       -0.051718    0.000000    1.337015
      3          8           0        1.113357    0.000000   -0.592491
      4          1           0        0.860727    0.000000    1.673229
      5          6           0       -1.296333   -0.000000   -0.714256
      6          1           0       -2.136987   -0.000000   -0.016818
      7          1           0       -1.345044    0.888586   -1.346599
      8          1           0       -1.345044   -0.888586   -1.346599
 ---------------------------------------------------------------------
                    Distance matrix (angstroms):
                    1          2          3          4          5
     1  C    0.000000
     2  O    1.361311   0.000000
     3  O    1.224066   2.253973   0.000000
     4  H    1.887461   0.972417   2.279760   0.000000
     5  C    1.496616   2.399330   2.412765   3.217607   0.000000
     6  H    2.167454   2.486204   3.300929   3.441300   1.092300
     7  H    2.106337   3.108708   2.720661   3.843744   1.091703
     8  H    2.106337   3.108708   2.720661   3.843744   1.091703
                    6          7          8
     6  H    0.000000
     7  H    1.784679   0.000000
     8  H    1.784679   1.777172   0.000000
 Stoichiometry    C2H4O2
 Framework group  CS[SG(C2H2O2),X(H2)]
 Deg. of freedom    12
 Full point group                 CS      NOp   2
 RotChk:  IX=0 Diff= 8.88D-02
 Largest Abelian subgroup         CS      NOp   2
 Largest concise Abelian subgroup CS      NOp   2
                         Standard orientation:                         
 ---------------------------------------------------------------------
 Center     Atomic      Atomic             Coordinates (Angstroms)
 Number     Number       Type             X           Y           Z
 ---------------------------------------------------------------------
      1          6           0        0.000000    0.131807   -0.000000
      2          8           0        1.279177   -0.333891    0.000000
      3          8           0       -0.238703    1.332373   -0.000000
      4          1           0        1.861287    0.445046    0.000000
      5          6           0       -1.041578   -0.942891   -0.000000
      6          1           0       -0.612384   -1.947337   -0.000000
      7          1           0       -1.661614   -0.809528    0.888586
      8          1           0       -1.661614   -0.809528   -0.888586
 ---------------------------------------------------------------------
 Rotational constants (GHZ):     11.3175192      9.3186809      5.2806240
 Leave Link  202 at Tue Sep 17 13:14:32 2024, MaxMem=   268435456 cpu:         0.1
 (Enter /g100_work/pMI24_ChiCa/g09d1/g09d01/d01/build-node-6-2-59348/src/main/l301.exe)
 Standard basis: 6-31+G(d,p) (6D, 7F)
 Ernie: Thresh=  0.10000D-02 Tol=  0.10000D-05 Strict=F.
 There are    69 symmetry adapted cartesian basis functions of A'  symmetry.
 There are    27 symmetry adapted cartesian basis functions of A"  symmetry.
 There are    69 symmetry adapted basis functions of A'  symmetry.
 There are    27 symmetry adapted basis functions of A"  symmetry.
    96 basis functions,   156 primitive gaussians,    96 cartesian basis functions
    16 alpha electrons       16 beta electrons
       nuclear repulsion energy       120.5017803941 Hartrees.
 IExCor=  402 DFT=T Ex+Corr=B3LYP ExCW=0 ScaHFX=  0.200000
 ScaDFX=  0.800000  0.720000  1.000000  0.810000 ScalE2=  1.000000  1.000000
 IRadAn=      0 IRanWt=     -1 IRanGd=            0 ICorTp=0 IEmpDi=  4
 NAtoms=    8 NActive=    8 NUniq=    7 SFac= 1.31D+00 NAtFMM=   60 NAOKFM=F Big=F
 Integral buffers will be    131072 words long.
 Raffenetti 2 integral format.
 Two-electron integral symmetry is turned on.
 ------------------------------------------------------------------------------
 Polarizable Continuum Model (PCM)
 =================================
 Model                : PCM (using non-symmetric T matrix).
 Atomic radii         : SMD-Coulomb.
 Polarization charges : Total charges.
 Charge compensation  : None.
 Solution method      : On-the-fly selection.
 Cavity type          : VdW (van der Waals Surface) (Alpha=1.000).
 Cavity algorithm     : GePol (No added spheres)
                        Default sphere list used, NSphG=    8.
                        Lebedev-Laikov grids with approx.  5.0 points / Ang**2.
                        Smoothing algorithm: Karplus/York (Gamma=1.0000).
                        Polarization charges: spherical gaussians, with
                                              point-specific exponents (IZeta= 3).
                        Self-potential: point-specific (ISelfS= 7).
                        Self-field    : sphere-specific E.n sum rule (ISelfD= 2).
 1st derivatives      : Analytical E(r).r(x)/FMM algorithm (CHGder, D1EAlg=3).
                        Cavity 1st derivative terms included.
 Solvent              : Water, Eps=  78.355300 Eps(inf)=   1.777849
 ------------------------------------------------------------------------------
 Spheres list:
 ISph  on   Nord     Re0    Alpha      Xe            Ye            Ze
    1   C      1    1.8500  1.000      0.000000      0.131807     -0.000000
    2   O      2    1.5200  1.000      1.279177     -0.333891      0.000000
    3   O      3    1.5200  1.000     -0.238703      1.332373     -0.000000
    4   H      4    1.2000  1.000      1.861287      0.445046      0.000000
    5   C      5    1.8500  1.000     -1.041578     -0.942891     -0.000000
    6   H      6    1.2000  1.000     -0.612384     -1.947337     -0.000000
    7   H      7    1.2000  1.000     -1.661614     -0.809528      0.888586
    8   H      8    1.2000  1.000     -1.661614     -0.809528     -0.888586
 ------------------------------------------------------------------------------
 GePol: Number of generator spheres                  =       8
 GePol: Total number of spheres                      =       8
 GePol: Number of exposed spheres                    =       8 (100.00%)
 GePol: Number of points                             =     649
 GePol: Average weight of points                     =       0.13
 GePol: Minimum weight of points                     =   0.45D-09
 GePol: Maximum weight of points                     =    0.21991
 GePol: Number of points with low weight             =      36
 GePol: Fraction of low-weight points (<1% of avg)   =       5.55%
 GePol: Cavity surface area                          =     84.099 Ang**2
 GePol: Cavity volume                                =     59.467 Ang**3
 ------------------------------------------------------------------------------
 Atomic radii for non-electrostatic terms: SMD-CDS.
 ------------------------------------------------------------------------------
 PCM non-electrostatic energy =         0.0060988046 Hartrees.
 Nuclear repulsion after PCM non-electrostatic terms =      120.5078791988 Hartrees.
 Leave Link  301 at Tue Sep 17 13:14:32 2024, MaxMem=   268435456 cpu:         0.1
 (Enter /g100_work/pMI24_ChiCa/g09d1/g09d01/d01/build-node-6-2-59348/src/main/l302.exe)
 NPDir=0 NMtPBC=     1 NCelOv=     1 NCel=       1 NClECP=     1 NCelD=      1
         NCelK=      1 NCelE2=     1 NClLst=     1 CellRange=     0.0.
 One-electron integrals computed using PRISM.
 One-electron integral symmetry used in STVInt
 NBasis=    96 RedAO= T EigKep=  3.05D-04  NBF=    69    27
 NBsUse=    96 1.00D-06 EigRej= -1.00D+00 NBFU=    69    27
 Precomputing XC quadrature grid using
 IXCGrd= 4 IRadAn=           0 IRanWt=          -1 IRanGd=           0 AccXCQ= 0.00D+00.
 Generated NRdTot=       0 NPtTot=           0 NUsed=           0 NTot=          32
 NSgBfM=    96    96    96    96    96 MxSgAt=     8 MxSgA2=     8.
 Leave Link  302 at Tue Sep 17 13:14:32 2024, MaxMem=   268435456 cpu:         1.4
 (Enter /g100_work/pMI24_ChiCa/g09d1/g09d01/d01/build-node-6-2-59348/src/main/l303.exe)
 DipDrv:  MaxL=1.
 Leave Link  303 at Tue Sep 17 13:14:32 2024, MaxMem=   268435456 cpu:         0.2
 (Enter /g100_work/pMI24_ChiCa/g09d1/g09d01/d01/build-node-6-2-59348/src/main/l401.exe)
 Initial guess from the checkpoint file:  "/g100_scratch/userexternal/ecabiati/g16_14416544/Gau-13289.chk"
 B after Tr=    -0.000000   -0.000000   -0.000000
         Rot=    0.999312    0.000000    0.000000    0.037091 Ang=   4.25 deg.
 Guess basis will be translated and rotated to current coordinates.
 JPrj=2 DoOrth=T DoCkMO=T.
 Initial guess orbital symmetries:
       Occupied  (A') (A') (A') (A') (A') (A') (A') (A') (A') (A')
                 (A") (A') (A') (A") (A") (A')
       Virtual   (A') (A') (A') (A') (A') (A') (A') (A') (A') (A')
                 (A') (A') (A') (A') (A') (A') (A') (A') (A') (A')
                 (A') (A') (A') (A') (A') (A') (A') (A') (A') (A')
                 (A') (A') (A') (A') (A') (A') (A') (A') (A') (A')
                 (A') (A') (A') (A') (A') (A') (A') (A') (A') (A')
                 (A') (A') (A') (A') (A') (A') (A") (A") (A") (A")
                 (A") (A") (A") (A") (A") (A") (A") (A") (A") (A")
                 (A") (A") (A") (A") (A") (A") (A") (A") (A") (A")
 The electronic state of the initial guess is 1-A'.
 Generating alternative initial guess.
 ExpMin= 4.38D-02 ExpMax= 5.48D+03 ExpMxC= 8.25D+02 IAcc=2 IRadAn=         4 AccDes= 0.00D+00
 Harris functional with IExCor=  402 and IRadAn=       4 diagonalized for initial guess.
 HarFok:  IExCor=  402 AccDes= 0.00D+00 IRadAn=         4 IDoV= 1 UseB2=F ITyADJ=14
 ICtDFT=  3500011 ScaDFX=  1.000000  1.000000  1.000000  1.000000
 FoFCou: FMM=F IPFlag=           0 FMFlag=      100000 FMFlg1=           0
         NFxFlg=           0 DoJE=T BraDBF=F KetDBF=T FulRan=T
         wScrn=  0.000000 ICntrl=     500 IOpCl=  0 I1Cent=   200000004 NGrid=           0
         NMat0=    1 NMatS0=      1 NMatT0=    0 NMatD0=    1 NMtDS0=    0 NMtDT0=    0
 Petite list used in FoFCou.
 Harris En= -229.127922117128    
 Leave Link  401 at Tue Sep 17 13:14:32 2024, MaxMem=   268435456 cpu:         1.8
 (Enter /g100_work/pMI24_ChiCa/g09d1/g09d01/d01/build-node-6-2-59348/src/main/l502.exe)
 Closed shell SCF:
 Using DIIS extrapolation, IDIIS=  1040.
 Integral symmetry usage will be decided dynamically.
 Keep R1 ints in memory in symmetry-blocked form, NReq=16539583.
 IVT=       49354 IEndB=       49354 NGot=   268435456 MDV=   262737466
 LenX=   262737466 LenY=   262727809
 Requested convergence on RMS density matrix=1.00D-08 within 128 cycles.
 Requested convergence on MAX density matrix=1.00D-06.
 Requested convergence on             energy=1.00D-06.
 No special actions if energy rises.
 FoFCou: FMM=F IPFlag=           0 FMFlag=           0 FMFlg1=           0
         NFxFlg=           0 DoJE=F BraDBF=F KetDBF=F FulRan=T
         wScrn=  0.000000 ICntrl=     600 IOpCl=  0 I1Cent=           0 NGrid=           0
         NMat0=    1 NMatS0=   4656 NMatT0=    0 NMatD0=    1 NMtDS0=    0 NMtDT0=    0
 Petite list used in FoFCou.

 Cycle   1  Pass 1  IDiag  1:
 Inv3:  Mode=1 IEnd=     1263603.
 Iteration    1 A*A^-1 deviation from unit magnitude is 4.11D-15 for    412.
 Iteration    1 A*A^-1 deviation from orthogonality  is 3.31D-15 for    377    201.
 Iteration    1 A^-1*A deviation from unit magnitude is 3.33D-15 for     70.
 Iteration    1 A^-1*A deviation from orthogonality  is 1.84D-12 for    416    412.
 E= -229.113413745507    
 DIIS: error= 2.99D-03 at cycle   1 NSaved=   1.
 NSaved= 1 IEnMin= 1 EnMin= -229.113413745507     IErMin= 1 ErrMin= 2.99D-03
 ErrMax= 2.99D-03  0.00D+00 EMaxC= 1.00D-01 BMatC= 1.75D-03 BMatP= 1.75D-03
 IDIUse=3 WtCom= 9.70D-01 WtEn= 2.99D-02
 Coeff-Com:  0.100D+01
 Coeff-En:   0.100D+01
 Coeff:      0.100D+01
 Gap=     0.480 Goal=   None    Shift=    0.000
 GapD=    0.480 DampG=2.000 DampE=1.000 DampFc=2.0000 IDamp=-1.
 RMSDP=9.15D-04 MaxDP=1.42D-02              OVMax= 1.79D-02

 Cycle   2  Pass 1  IDiag  1:
 E= -229.115820185848     Delta-E=       -0.002406440341 Rises=F Damp=F
 DIIS: error= 1.33D-03 at cycle   2 NSaved=   2.
 NSaved= 2 IEnMin= 2 EnMin= -229.115820185848     IErMin= 2 ErrMin= 1.33D-03
 ErrMax= 1.33D-03  0.00D+00 EMaxC= 1.00D-01 BMatC= 3.15D-04 BMatP= 1.75D-03
 IDIUse=3 WtCom= 9.87D-01 WtEn= 1.33D-02
 Coeff-Com:  0.178D+00 0.822D+00
 Coeff-En:   0.000D+00 0.100D+01
 Coeff:      0.176D+00 0.824D+00
 Gap=     0.285 Goal=   None    Shift=    0.000
 RMSDP=2.92D-04 MaxDP=6.37D-03 DE=-2.41D-03 OVMax= 1.06D-02

 Cycle   3  Pass 1  IDiag  1:
 E= -229.115747454258     Delta-E=        0.000072731590 Rises=F Damp=F
 DIIS: error= 2.24D-03 at cycle   3 NSaved=   3.
 NSaved= 3 IEnMin= 2 EnMin= -229.115820185848     IErMin= 2 ErrMin= 1.33D-03
 ErrMax= 2.24D-03  0.00D+00 EMaxC= 1.00D-01 BMatC= 4.44D-04 BMatP= 3.15D-04
 IDIUse=3 WtCom= 1.74D-01 WtEn= 8.26D-01
 Coeff-Com: -0.429D-02 0.547D+00 0.458D+00
 Coeff-En:   0.000D+00 0.551D+00 0.449D+00
 Coeff:     -0.748D-03 0.550D+00 0.450D+00
 Gap=     0.288 Goal=   None    Shift=    0.000
 RMSDP=1.67D-04 MaxDP=4.84D-03 DE= 7.27D-05 OVMax= 8.00D-03

 Cycle   4  Pass 1  IDiag  1:
 E= -229.116075939072     Delta-E=       -0.000328484814 Rises=F Damp=F
 DIIS: error= 4.36D-04 at cycle   4 NSaved=   4.
 NSaved= 4 IEnMin= 4 EnMin= -229.116075939072     IErMin= 4 ErrMin= 4.36D-04
 ErrMax= 4.36D-04  0.00D+00 EMaxC= 1.00D-01 BMatC= 2.22D-05 BMatP= 3.15D-04
 IDIUse=3 WtCom= 9.96D-01 WtEn= 4.36D-03
 Coeff-Com: -0.182D-01 0.261D+00 0.262D+00 0.495D+00
 Coeff-En:   0.000D+00 0.000D+00 0.000D+00 0.100D+01
 Coeff:     -0.181D-01 0.260D+00 0.261D+00 0.497D+00
 Gap=     0.287 Goal=   None    Shift=    0.000
 RMSDP=3.93D-05 MaxDP=8.54D-04 DE=-3.28D-04 OVMax= 1.21D-03

 Cycle   5  Pass 1  IDiag  1:
 E= -229.116093189327     Delta-E=       -0.000017250255 Rises=F Damp=F
 DIIS: error= 4.91D-05 at cycle   5 NSaved=   5.
 NSaved= 5 IEnMin= 5 EnMin= -229.116093189327     IErMin= 5 ErrMin= 4.91D-05
 ErrMax= 4.91D-05  0.00D+00 EMaxC= 1.00D-01 BMatC= 5.08D-07 BMatP= 2.22D-05
 IDIUse=1 WtCom= 1.00D+00 WtEn= 0.00D+00
 Coeff-Com: -0.531D-02 0.519D-01 0.576D-01 0.185D+00 0.710D+00
 Coeff:     -0.531D-02 0.519D-01 0.576D-01 0.185D+00 0.710D+00
 Gap=     0.287 Goal=   None    Shift=    0.000
 RMSDP=7.56D-06 MaxDP=1.34D-04 DE=-1.73D-05 OVMax= 2.00D-04

 Cycle   6  Pass 1  IDiag  1:
 E= -229.116093604764     Delta-E=       -0.000000415437 Rises=F Damp=F
 DIIS: error= 1.92D-05 at cycle   6 NSaved=   6.
 NSaved= 6 IEnMin= 6 EnMin= -229.116093604764     IErMin= 6 ErrMin= 1.92D-05
 ErrMax= 1.92D-05  0.00D+00 EMaxC= 1.00D-01 BMatC= 2.74D-08 BMatP= 5.08D-07
 IDIUse=1 WtCom= 1.00D+00 WtEn= 0.00D+00
 Coeff-Com: -0.148D-02 0.116D-01 0.143D-01 0.574D-01 0.291D+00 0.628D+00
 Coeff:     -0.148D-02 0.116D-01 0.143D-01 0.574D-01 0.291D+00 0.628D+00
 Gap=     0.287 Goal=   None    Shift=    0.000
 RMSDP=1.92D-06 MaxDP=4.85D-05 DE=-4.15D-07 OVMax= 4.60D-05

 Cycle   7  Pass 1  IDiag  1:
 E= -229.116093618839     Delta-E=       -0.000000014076 Rises=F Damp=F
 DIIS: error= 1.06D-05 at cycle   7 NSaved=   7.
 NSaved= 7 IEnMin= 7 EnMin= -229.116093618839     IErMin= 7 ErrMin= 1.06D-05
 ErrMax= 1.06D-05  0.00D+00 EMaxC= 1.00D-01 BMatC= 8.46D-09 BMatP= 2.74D-08
 IDIUse=1 WtCom= 1.00D+00 WtEn= 0.00D+00
 Coeff-Com:  0.922D-04-0.327D-02-0.241D-02-0.166D-02 0.390D-01 0.376D+00
 Coeff-Com:  0.593D+00
 Coeff:      0.922D-04-0.327D-02-0.241D-02-0.166D-02 0.390D-01 0.376D+00
 Coeff:      0.593D+00
 Gap=     0.287 Goal=   None    Shift=    0.000
 RMSDP=6.99D-07 MaxDP=1.76D-05 DE=-1.41D-08 OVMax= 1.85D-05

 Cycle   8  Pass 1  IDiag  1:
 E= -229.116093624937     Delta-E=       -0.000000006097 Rises=F Damp=F
 DIIS: error= 1.00D-06 at cycle   8 NSaved=   8.
 NSaved= 8 IEnMin= 8 EnMin= -229.116093624937     IErMin= 8 ErrMin= 1.00D-06
 ErrMax= 1.00D-06  0.00D+00 EMaxC= 1.00D-01 BMatC= 1.11D-10 BMatP= 8.46D-09
 IDIUse=1 WtCom= 1.00D+00 WtEn= 0.00D+00
 Coeff-Com:  0.665D-04-0.133D-02-0.953D-03-0.233D-02 0.444D-02 0.993D-01
 Coeff-Com:  0.184D+00 0.717D+00
 Coeff:      0.665D-04-0.133D-02-0.953D-03-0.233D-02 0.444D-02 0.993D-01
 Coeff:      0.184D+00 0.717D+00
 Gap=     0.287 Goal=   None    Shift=    0.000
 RMSDP=1.41D-07 MaxDP=2.25D-06 DE=-6.10D-09 OVMax= 3.55D-06

 Cycle   9  Pass 1  IDiag  1:
 E= -229.116093625034     Delta-E=       -0.000000000097 Rises=F Damp=F
 DIIS: error= 2.76D-07 at cycle   9 NSaved=   9.
 NSaved= 9 IEnMin= 9 EnMin= -229.116093625034     IErMin= 9 ErrMin= 2.76D-07
 ErrMax= 2.76D-07  0.00D+00 EMaxC= 1.00D-01 BMatC= 1.29D-11 BMatP= 1.11D-10
 IDIUse=1 WtCom= 1.00D+00 WtEn= 0.00D+00
 Coeff-Com:  0.240D-04-0.278D-03-0.161D-03-0.969D-03-0.190D-02 0.697D-02
 Coeff-Com:  0.197D-01 0.290D+00 0.687D+00
 Coeff:      0.240D-04-0.278D-03-0.161D-03-0.969D-03-0.190D-02 0.697D-02
 Coeff:      0.197D-01 0.290D+00 0.687D+00
 Gap=     0.287 Goal=   None    Shift=    0.000
 RMSDP=4.43D-08 MaxDP=7.51D-07 DE=-9.70D-11 OVMax= 9.90D-07

 Cycle  10  Pass 1  IDiag  1:
 E= -229.116093625046     Delta-E=       -0.000000000012 Rises=F Damp=F
 DIIS: error= 4.64D-08 at cycle  10 NSaved=  10.
 NSaved=10 IEnMin=10 EnMin= -229.116093625046     IErMin=10 ErrMin= 4.64D-08
 ErrMax= 4.64D-08  0.00D+00 EMaxC= 1.00D-01 BMatC= 2.38D-13 BMatP= 1.29D-11
 IDIUse=1 WtCom= 1.00D+00 WtEn= 0.00D+00
 Coeff-Com:  0.141D-05 0.632D-05 0.168D-04-0.105D-03-0.511D-03-0.315D-02
 Coeff-Com: -0.518D-02 0.142D-01 0.121D+00 0.873D+00
 Coeff:      0.141D-05 0.632D-05 0.168D-04-0.105D-03-0.511D-03-0.315D-02
 Coeff:     -0.518D-02 0.142D-01 0.121D+00 0.873D+00
 Gap=     0.287 Goal=   None    Shift=    0.000
 RMSDP=7.44D-09 MaxDP=1.16D-07 DE=-1.17D-11 OVMax= 1.38D-07

 Error on total polarization charges =  0.04023
 SCF Done:  E(RB3LYP) =  -229.116093625     A.U. after   10 cycles
            NFock= 10  Conv=0.74D-08     -V/T= 2.0095
 KE= 2.269515924179D+02 PE=-7.775085740061D+02 EE= 2.009330087643D+02
 SMD-CDS (non-electrostatic) energy       (kcal/mol) =       3.83
 (included in total energy above)
 Leave Link  502 at Tue Sep 17 13:14:33 2024, MaxMem=   268435456 cpu:        20.5
 (Enter /g100_work/pMI24_ChiCa/g09d1/g09d01/d01/build-node-6-2-59348/src/main/l701.exe)
 Compute integral first derivatives.
 ... and contract with generalized density number  0.
 D1PCM: PCM CHGder 1st derivatives, ID1Alg=3 FixD1E=F DoIter=F DoCFld=F I1PDM=0.
 GePol: Maximum number of non-zero 1st derivatives   =     247
 Leave Link  701 at Tue Sep 17 13:14:34 2024, MaxMem=   268435456 cpu:         4.2
 (Enter /g100_work/pMI24_ChiCa/g09d1/g09d01/d01/build-node-6-2-59348/src/main/l702.exe)
 L702 exits ... SP integral derivatives will be done elsewhere.
 Leave Link  702 at Tue Sep 17 13:14:34 2024, MaxMem=   268435456 cpu:         0.1
 (Enter /g100_work/pMI24_ChiCa/g09d1/g09d01/d01/build-node-6-2-59348/src/main/l703.exe)
 Compute integral first derivatives, UseDBF=F ICtDFT=           0.
 Integral derivatives from FoFJK, PRISM(SPDF).
 Calling FoFJK, ICntrl=      2127 FMM=F ISym2X=1 I1Cent= 0 IOpClX= 0 NMat=1 NMatS=1 NMatT=0.
 FoFJK:  IHMeth= 1 ICntrl=    2127 DoSepK=F KAlg= 0 I1Cent=   0 FoldK=F
 IRaf=         0 NMat=   1 IRICut=       1 DoRegI=T DoRafI=F ISym2E= 1.
 FoFCou: FMM=F IPFlag=           0 FMFlag=      100000 FMFlg1=         800
         NFxFlg=           0 DoJE=F BraDBF=F KetDBF=F FulRan=T
         wScrn=  0.000000 ICntrl=    2127 IOpCl=  0 I1Cent=           0 NGrid=           0
         NMat0=    1 NMatS0=      1 NMatT0=    0 NMatD0=    1 NMtDS0=    0 NMtDT0=    0
 Petite list used in FoFCou.
 Leave Link  703 at Tue Sep 17 13:14:34 2024, MaxMem=   268435456 cpu:         3.7
 (Enter /g100_work/pMI24_ChiCa/g09d1/g09d01/d01/build-node-6-2-59348/src/main/l716.exe)
 Dipole        = 1.66219887D-01-9.37809150D-01-2.22044605D-16
 ***** Axes restored to original set *****
 -------------------------------------------------------------------
 Center     Atomic                   Forces (Hartrees/Bohr)
 Number     Number              X              Y              Z
 -------------------------------------------------------------------
      1        6          -0.001653215   -0.000000000    0.006297940
      2        8          -0.001240563    0.000000000   -0.008490549
      3        8           0.000914758   -0.000000000   -0.000767757
      4        1           0.002531218    0.000000000    0.004077144
      5        6          -0.000744360   -0.000000000    0.003724740
      6        1           0.001845324    0.000000000   -0.000191208
      7        1          -0.000826581    0.000138857   -0.002325155
      8        1          -0.000826581   -0.000138857   -0.002325155
 -------------------------------------------------------------------
 Cartesian Forces:  Max     0.008490549 RMS     0.002665905
 Leave Link  716 at Tue Sep 17 13:14:34 2024, MaxMem=   268435456 cpu:         0.1
 (Enter /g100_work/pMI24_ChiCa/g09d1/g09d01/d01/build-node-6-2-59348/src/main/l103.exe)

 GradGradGradGradGradGradGradGradGradGradGradGradGradGradGradGradGradGrad
 Berny optimization.
 Using GEDIIS/GDIIS optimizer.
 FormGI is forming the generalized inverse of G from B-inverse, IUseBI=4.
 Internal  Forces:  Max     0.005360702 RMS     0.001940820
 Search for a local minimum.
 Step number   2 out of a maximum of   35
 All quantities printed in internal units (Hartrees-Bohrs-Radians)
 RMS Force = .19408D-02 SwitMx=.10000D-02 MixMth= 1
 Mixed Optimization -- RFO/linear search
 Update second derivatives using D2CorX and points    1    2
 DE= -5.88D-03 DEPred=-5.95D-03 R= 9.89D-01
 TightC=F SS=  1.41D+00  RLast= 1.97D-01 DXNew= 5.0454D-01 5.9161D-01
 Trust test= 9.89D-01 RLast= 1.97D-01 DXMaxT set to 5.05D-01
 ITU=  1  0
 Use linear search instead of GDIIS.
     Eigenvalues ---    0.00766   0.00984   0.01692   0.07210   0.07769
     Eigenvalues ---    0.15932   0.16000   0.16000   0.17108   0.24786
     Eigenvalues ---    0.25567   0.32427   0.36515   0.37230   0.37988
     Eigenvalues ---    0.43597   0.56580   0.95261
 RFO step:  Lambda=-4.15236812D-04 EMin= 7.65947438D-03
 Quartic linear search produced a step of  0.03012.
 Iteration  1 RMS(Cart)=  0.01524656 RMS(Int)=  0.00027659
 Iteration  2 RMS(Cart)=  0.00026660 RMS(Int)=  0.00002031
 Iteration  3 RMS(Cart)=  0.00000008 RMS(Int)=  0.00002031
 ITry= 1 IFail=0 DXMaxC= 4.52D-02 DCOld= 1.00D+10 DXMaxT= 5.05D-01 DXLimC= 3.00D+00 Rises=F
 ClnCor:  largest displacement from symmetrization is 8.43D-11 for atom     2.
 Variable       Old X    -DE/DX   Delta X   Delta X   Delta X     New X
                                 (Linear)    (Quad)   (Total)
    R1        2.57251  -0.00452  -0.00220  -0.01070  -0.01290   2.55961
    R2        2.31315   0.00117   0.00023   0.00132   0.00155   2.31470
    R3        2.82819   0.00102  -0.00019   0.00319   0.00300   2.83120
    R4        1.83760   0.00381   0.00128   0.00709   0.00836   1.84597
    R5        2.06415  -0.00153   0.00127  -0.00393  -0.00266   2.06148
    R6        2.06302   0.00149   0.00124   0.00439   0.00563   2.06865
    R7        2.06302   0.00149   0.00124   0.00439   0.00563   2.06865
    A1        2.11621   0.00108   0.00066   0.00458   0.00524   2.12145
    A2        1.99140  -0.00151  -0.00310  -0.00687  -0.00997   1.98143
    A3        2.17558   0.00043   0.00245   0.00228   0.00473   2.18031
    A4        1.86343   0.00536  -0.00142   0.03415   0.03273   1.89616
    A5        1.96803  -0.00202   0.00173  -0.01143  -0.00967   1.95836
    A6        1.88341   0.00200  -0.00082   0.01209   0.01126   1.89467
    A7        1.88341   0.00200  -0.00082   0.01209   0.01126   1.89467
    A8        1.91293   0.00015   0.00007   0.00221   0.00231   1.91524
    A9        1.91293   0.00015   0.00007   0.00221   0.00231   1.91524
   A10        1.90182  -0.00229  -0.00027  -0.01748  -0.01780   1.88402
    D1       -0.00000  -0.00000   0.00000  -0.00000   0.00000   0.00000
    D2        3.14159   0.00000   0.00000   0.00000   0.00000   3.14159
    D3        0.00000   0.00000   0.00000  -0.00000  -0.00000   0.00000
    D4        2.11526   0.00029   0.00063   0.00385   0.00444   2.11971
    D5       -2.11526  -0.00029  -0.00063  -0.00385  -0.00444  -2.11971
    D6        3.14159   0.00000   0.00000   0.00000   0.00000   3.14159
    D7       -1.02633   0.00029   0.00063   0.00385   0.00444  -1.02189
    D8        1.02633  -0.00029  -0.00063  -0.00385  -0.00444   1.02189
         Item               Value     Threshold  Converged?
 Maximum Force            0.005361     0.000450     NO 
 RMS     Force            0.001941     0.000300     NO 
 Maximum Displacement     0.045249     0.001800     NO 
 RMS     Displacement     0.015345     0.001200     NO 
 Predicted change in Energy=-2.130157D-04
 Lowest energy point so far.  Saving SCF results.
 GradGradGradGradGradGradGradGradGradGradGradGradGradGradGradGradGradGrad

 Leave Link  103 at Tue Sep 17 13:14:34 2024, MaxMem=   268435456 cpu:         1.2
 (Enter /g100_work/pMI24_ChiCa/g09d1/g09d01/d01/build-node-6-2-59348/src/main/l202.exe)
                          Input orientation:                          
 ---------------------------------------------------------------------
 Center     Atomic      Atomic             Coordinates (Angstroms)
 Number     Number       Type             X           Y           Z
 ---------------------------------------------------------------------
      1          6           0        0.037316    0.000000   -0.026567
      2          8           0       -0.051328    0.000000    1.325015
      3          8           0        1.120852    0.000000   -0.597795
      4          1           0        0.851844    0.000000    1.697173
      5          6           0       -1.294254   -0.000000   -0.713254
      6          1           0       -2.123596   -0.000000   -0.004570
      7          1           0       -1.355707    0.885313   -1.354168
      8          1           0       -1.355707   -0.885313   -1.354168
 ---------------------------------------------------------------------
                    Distance matrix (angstroms):
                    1          2          3          4          5
     1  C    0.000000
     2  O    1.354486   0.000000
     3  O    1.224888   2.251933   0.000000
     4  H    1.906499   0.976843   2.310681   0.000000
     5  C    1.498205   2.387342   2.417864   3.227367   0.000000
     6  H    2.161024   2.462131   3.298235   3.427707   1.090890
     7  H    2.118210   3.108569   2.736644   3.868817   1.094681
     8  H    2.118210   3.108569   2.736644   3.868817   1.094681
                    6          7          8
     6  H    0.000000
     7  H    1.787414   0.000000
     8  H    1.787414   1.770627   0.000000
 Stoichiometry    C2H4O2
 Framework group  CS[SG(C2H2O2),X(H2)]
 Deg. of freedom    12
 Full point group                 CS      NOp   2
 RotChk:  IX=0 Diff= 7.27D-03
 Largest Abelian subgroup         CS      NOp   2
 Largest concise Abelian subgroup CS      NOp   2
                         Standard orientation:                         
 ---------------------------------------------------------------------
 Center     Atomic      Atomic             Coordinates (Angstroms)
 Number     Number       Type             X           Y           Z
 ---------------------------------------------------------------------
      1          6           0        0.000000    0.135498    0.000000
      2          8           0        1.272788   -0.327798    0.000000
      3          8           0       -0.245221    1.335588    0.000000
      4          1           0        1.882801    0.435161    0.000000
      5          6           0       -1.031849   -0.950737   -0.000000
      6          1           0       -0.583536   -1.945250   -0.000000
      7          1           0       -1.664356   -0.830398    0.885313
      8          1           0       -1.664356   -0.830398   -0.885313
 ---------------------------------------------------------------------
 Rotational constants (GHZ):     11.3036782      9.3450302      5.2847563
 Leave Link  202 at Tue Sep 17 13:14:34 2024, MaxMem=   268435456 cpu:         0.1
 (Enter /g100_work/pMI24_ChiCa/g09d1/g09d01/d01/build-node-6-2-59348/src/main/l301.exe)
 Standard basis: 6-31+G(d,p) (6D, 7F)
 Ernie: Thresh=  0.10000D-02 Tol=  0.10000D-05 Strict=F.
 There are    69 symmetry adapted cartesian basis functions of A'  symmetry.
 There are    27 symmetry adapted cartesian basis functions of A"  symmetry.
 There are    69 symmetry adapted basis functions of A'  symmetry.
 There are    27 symmetry adapted basis functions of A"  symmetry.
    96 basis functions,   156 primitive gaussians,    96 cartesian basis functions
    16 alpha electrons       16 beta electrons
       nuclear repulsion energy       120.5226490493 Hartrees.
 IExCor=  402 DFT=T Ex+Corr=B3LYP ExCW=0 ScaHFX=  0.200000
 ScaDFX=  0.800000  0.720000  1.000000  0.810000 ScalE2=  1.000000  1.000000
 IRadAn=      0 IRanWt=     -1 IRanGd=            0 ICorTp=0 IEmpDi=  4
 NAtoms=    8 NActive=    8 NUniq=    7 SFac= 1.31D+00 NAtFMM=   60 NAOKFM=F Big=F
 Integral buffers will be    131072 words long.
 Raffenetti 2 integral format.
 Two-electron integral symmetry is turned on.
 ------------------------------------------------------------------------------
 Polarizable Continuum Model (PCM)
 =================================
 Model                : PCM (using non-symmetric T matrix).
 Atomic radii         : SMD-Coulomb.
 Polarization charges : Total charges.
 Charge compensation  : None.
 Solution method      : On-the-fly selection.
 Cavity type          : VdW (van der Waals Surface) (Alpha=1.000).
 Cavity algorithm     : GePol (No added spheres)
                        Default sphere list used, NSphG=    8.
                        Lebedev-Laikov grids with approx.  5.0 points / Ang**2.
                        Smoothing algorithm: Karplus/York (Gamma=1.0000).
                        Polarization charges: spherical gaussians, with
                                              point-specific exponents (IZeta= 3).
                        Self-potential: point-specific (ISelfS= 7).
                        Self-field    : sphere-specific E.n sum rule (ISelfD= 2).
 1st derivatives      : Analytical E(r).r(x)/FMM algorithm (CHGder, D1EAlg=3).
                        Cavity 1st derivative terms included.
 Solvent              : Water, Eps=  78.355300 Eps(inf)=   1.777849
 ------------------------------------------------------------------------------
 Spheres list:
 ISph  on   Nord     Re0    Alpha      Xe            Ye            Ze
    1   C      1    1.8500  1.000      0.000000      0.135498      0.000000
    2   O      2    1.5200  1.000      1.272788     -0.327798      0.000000
    3   O      3    1.5200  1.000     -0.245221      1.335588      0.000000
    4   H      4    1.2000  1.000      1.882801      0.435161      0.000000
    5   C      5    1.8500  1.000     -1.031849     -0.950737     -0.000000
    6   H      6    1.2000  1.000     -0.583536     -1.945250     -0.000000
    7   H      7    1.2000  1.000     -1.664356     -0.830398      0.885313
    8   H      8    1.2000  1.000     -1.664356     -0.830398     -0.885313
 ------------------------------------------------------------------------------
 GePol: Number of generator spheres                  =       8
 GePol: Total number of spheres                      =       8
 GePol: Number of exposed spheres                    =       8 (100.00%)
 GePol: Number of points                             =     649
 GePol: Average weight of points                     =       0.13
 GePol: Minimum weight of points                     =   0.66D-11
 GePol: Maximum weight of points                     =    0.21991
 GePol: Number of points with low weight             =      33
 GePol: Fraction of low-weight points (<1% of avg)   =       5.08%
 GePol: Cavity surface area                          =     84.115 Ang**2
 GePol: Cavity volume                                =     59.458 Ang**3
 ------------------------------------------------------------------------------
 Atomic radii for non-electrostatic terms: SMD-CDS.
 ------------------------------------------------------------------------------
 PCM non-electrostatic energy =         0.0061812370 Hartrees.
 Nuclear repulsion after PCM non-electrostatic terms =      120.5288302862 Hartrees.
 Leave Link  301 at Tue Sep 17 13:14:34 2024, MaxMem=   268435456 cpu:         0.1
 (Enter /g100_work/pMI24_ChiCa/g09d1/g09d01/d01/build-node-6-2-59348/src/main/l302.exe)
 NPDir=0 NMtPBC=     1 NCelOv=     1 NCel=       1 NClECP=     1 NCelD=      1
         NCelK=      1 NCelE2=     1 NClLst=     1 CellRange=     0.0.
 One-electron integrals computed using PRISM.
 One-electron integral symmetry used in STVInt
 NBasis=    96 RedAO= T EigKep=  3.07D-04  NBF=    69    27
 NBsUse=    96 1.00D-06 EigRej= -1.00D+00 NBFU=    69    27
 Precomputing XC quadrature grid using
 IXCGrd= 4 IRadAn=           0 IRanWt=          -1 IRanGd=           0 AccXCQ= 0.00D+00.
 Generated NRdTot=       0 NPtTot=           0 NUsed=           0 NTot=          32
 NSgBfM=    96    96    96    96    96 MxSgAt=     8 MxSgA2=     8.
 Leave Link  302 at Tue Sep 17 13:14:34 2024, MaxMem=   268435456 cpu:         1.4
 (Enter /g100_work/pMI24_ChiCa/g09d1/g09d01/d01/build-node-6-2-59348/src/main/l303.exe)
 DipDrv:  MaxL=1.
 Leave Link  303 at Tue Sep 17 13:14:35 2024, MaxMem=   268435456 cpu:         0.2
 (Enter /g100_work/pMI24_ChiCa/g09d1/g09d01/d01/build-node-6-2-59348/src/main/l401.exe)
 Initial guess from the checkpoint file:  "/g100_scratch/userexternal/ecabiati/g16_14416544/Gau-13289.chk"
 B after Tr=    -0.000000    0.000000   -0.000000
         Rot=    0.999996    0.000000   -0.000000   -0.002756 Ang=  -0.32 deg.
 Guess basis will be translated and rotated to current coordinates.
 JPrj=2 DoOrth=T DoCkMO=T.
 Initial guess orbital symmetries:
       Occupied  (A') (A') (A') (A') (A') (A') (A') (A') (A') (A')
                 (A") (A') (A') (A") (A") (A')
       Virtual   (A') (A') (A') (A') (A') (A') (A') (A') (A') (A')
                 (A') (A') (A') (A') (A') (A') (A') (A') (A') (A')
                 (A') (A') (A') (A') (A') (A') (A') (A') (A') (A')
                 (A') (A') (A') (A') (A') (A') (A') (A') (A') (A')
                 (A') (A') (A') (A') (A') (A') (A') (A') (A') (A')
                 (A') (A') (A') (A') (A') (A') (A") (A") (A") (A")
                 (A") (A") (A") (A") (A") (A") (A") (A") (A") (A")
                 (A") (A") (A") (A") (A") (A") (A") (A") (A") (A")
 The electronic state of the initial guess is 1-A'.
 Generating alternative initial guess.
 ExpMin= 4.38D-02 ExpMax= 5.48D+03 ExpMxC= 8.25D+02 IAcc=2 IRadAn=         4 AccDes= 0.00D+00
 Harris functional with IExCor=  402 and IRadAn=       4 diagonalized for initial guess.
 HarFok:  IExCor=  402 AccDes= 0.00D+00 IRadAn=         4 IDoV= 1 UseB2=F ITyADJ=14
 ICtDFT=  3500011 ScaDFX=  1.000000  1.000000  1.000000  1.000000
 FoFCou: FMM=F IPFlag=           0 FMFlag=      100000 FMFlg1=           0
         NFxFlg=           0 DoJE=T BraDBF=F KetDBF=T FulRan=T
         wScrn=  0.000000 ICntrl=     500 IOpCl=  0 I1Cent=   200000004 NGrid=           0
         NMat0=    1 NMatS0=      1 NMatT0=    0 NMatD0=    1 NMtDS0=    0 NMtDT0=    0
 Petite list used in FoFCou.
 Harris En= -229.128056872012    
 Leave Link  401 at Tue Sep 17 13:14:35 2024, MaxMem=   268435456 cpu:         1.9
 (Enter /g100_work/pMI24_ChiCa/g09d1/g09d01/d01/build-node-6-2-59348/src/main/l502.exe)
 Closed shell SCF:
 Using DIIS extrapolation, IDIIS=  1040.
 Integral symmetry usage will be decided dynamically.
 Keep R1 ints in memory in symmetry-blocked form, NReq=16539583.
 IVT=       49354 IEndB=       49354 NGot=   268435456 MDV=   262737466
 LenX=   262737466 LenY=   262727809
 Requested convergence on RMS density matrix=1.00D-08 within 128 cycles.
 Requested convergence on MAX density matrix=1.00D-06.
 Requested convergence on             energy=1.00D-06.
 No special actions if energy rises.
 FoFCou: FMM=F IPFlag=           0 FMFlag=           0 FMFlg1=           0
         NFxFlg=           0 DoJE=F BraDBF=F KetDBF=F FulRan=T
         wScrn=  0.000000 ICntrl=     600 IOpCl=  0 I1Cent=           0 NGrid=           0
         NMat0=    1 NMatS0=   4656 NMatT0=    0 NMatD0=    1 NMtDS0=    0 NMtDT0=    0
 Petite list used in FoFCou.

 Cycle   1  Pass 1  IDiag  1:
 Inv3:  Mode=1 IEnd=     1263603.
 Iteration    1 A*A^-1 deviation from unit magnitude is 2.89D-15 for     24.
 Iteration    1 A*A^-1 deviation from orthogonality  is 3.58D-15 for    505     89.
 Iteration    1 A^-1*A deviation from unit magnitude is 3.11D-15 for    351.
 Iteration    1 A^-1*A deviation from orthogonality  is 2.01D-15 for    608    470.
 E= -229.116125084023    
 DIIS: error= 8.91D-04 at cycle   1 NSaved=   1.
 NSaved= 1 IEnMin= 1 EnMin= -229.116125084023     IErMin= 1 ErrMin= 8.91D-04
 ErrMax= 8.91D-04  0.00D+00 EMaxC= 1.00D-01 BMatC= 1.53D-04 BMatP= 1.53D-04
 IDIUse=3 WtCom= 9.91D-01 WtEn= 8.91D-03
 Coeff-Com:  0.100D+01
 Coeff-En:   0.100D+01
 Coeff:      0.100D+01
 Gap=     0.477 Goal=   None    Shift=    0.000
 RMSDP=2.04D-04 MaxDP=4.20D-03              OVMax= 4.16D-03

 Cycle   2  Pass 1  IDiag  1:
 E= -229.116327171005     Delta-E=       -0.000202086982 Rises=F Damp=F
 DIIS: error= 1.49D-04 at cycle   2 NSaved=   2.
 NSaved= 2 IEnMin= 2 EnMin= -229.116327171005     IErMin= 2 ErrMin= 1.49D-04
 ErrMax= 1.49D-04  0.00D+00 EMaxC= 1.00D-01 BMatC= 3.94D-06 BMatP= 1.53D-04
 IDIUse=3 WtCom= 9.99D-01 WtEn= 1.49D-03
 Coeff-Com: -0.236D-01 0.102D+01
 Coeff-En:   0.000D+00 0.100D+01
 Coeff:     -0.236D-01 0.102D+01
 Gap=     0.286 Goal=   None    Shift=    0.000
 RMSDP=3.81D-05 MaxDP=6.70D-04 DE=-2.02D-04 OVMax= 1.29D-03

 Cycle   3  Pass 1  IDiag  1:
 E= -229.116325175765     Delta-E=        0.000001995240 Rises=F Damp=F
 DIIS: error= 2.86D-04 at cycle   3 NSaved=   3.
 NSaved= 3 IEnMin= 2 EnMin= -229.116327171005     IErMin= 2 ErrMin= 1.49D-04
 ErrMax= 2.86D-04  0.00D+00 EMaxC= 1.00D-01 BMatC= 7.60D-06 BMatP= 3.94D-06
[...]
 Compute integral first derivatives.
 ... and contract with generalized density number  0.
 D1PCM: PCM CHGder 1st derivatives, ID1Alg=3 FixD1E=F DoIter=F DoCFld=F I1PDM=0.
 GePol: Maximum number of non-zero 1st derivatives   =     250
 Leave Link  701 at Tue Sep 17 13:14:41 2024, MaxMem=   268435456 cpu:         4.2
 (Enter /g100_work/pMI24_ChiCa/g09d1/g09d01/d01/build-node-6-2-59348/src/main/l702.exe)
 L702 exits ... SP integral derivatives will be done elsewhere.
 Leave Link  702 at Tue Sep 17 13:14:41 2024, MaxMem=   268435456 cpu:         0.1
 (Enter /g100_work/pMI24_ChiCa/g09d1/g09d01/d01/build-node-6-2-59348/src/main/l703.exe)
 Compute integral first derivatives, UseDBF=F ICtDFT=           0.
 Integral derivatives from FoFJK, PRISM(SPDF).
 Calling FoFJK, ICntrl=      2127 FMM=F ISym2X=1 I1Cent= 0 IOpClX= 0 NMat=1 NMatS=1 NMatT=0.
 FoFJK:  IHMeth= 1 ICntrl=    2127 DoSepK=F KAlg= 0 I1Cent=   0 FoldK=F
 IRaf=         0 NMat=   1 IRICut=       1 DoRegI=T DoRafI=F ISym2E= 1.
 FoFCou: FMM=F IPFlag=           0 FMFlag=      100000 FMFlg1=         800
         NFxFlg=           0 DoJE=F BraDBF=F KetDBF=F FulRan=T
         wScrn=  0.000000 ICntrl=    2127 IOpCl=  0 I1Cent=           0 NGrid=           0
         NMat0=    1 NMatS0=      1 NMatT0=    0 NMatD0=    1 NMtDS0=    0 NMtDT0=    0
 Petite list used in FoFCou.
 Leave Link  703 at Tue Sep 17 13:14:41 2024, MaxMem=   268435456 cpu:         3.7
 (Enter /g100_work/pMI24_ChiCa/g09d1/g09d01/d01/build-node-6-2-59348/src/main/l716.exe)
 Dipole        = 2.49764222D-01-9.62229543D-01 2.22044605D-16
 ***** Axes restored to original set *****
 -------------------------------------------------------------------
 Center     Atomic                   Forces (Hartrees/Bohr)
 Number     Number              X              Y              Z
 -------------------------------------------------------------------
      1        6          -0.000251848    0.000000000    0.000291646
      2        8           0.000019283   -0.000000000   -0.000041363
      3        8           0.000181947   -0.000000000   -0.000113217
      4        1          -0.000089202    0.000000000   -0.000028148
      5        6           0.000070907    0.000000000   -0.000128226
      6        1          -0.000040562    0.000000000   -0.000022684
      7        1           0.000054738    0.000012743    0.000020996
      8        1           0.000054738   -0.000012743    0.000020996
 -------------------------------------------------------------------
 Cartesian Forces:  Max     0.000291646 RMS     0.000099177
 Leave Link  716 at Tue Sep 17 13:14:41 2024, MaxMem=   268435456 cpu:         0.1
 (Enter /g100_work/pMI24_ChiCa/g09d1/g09d01/d01/build-node-6-2-59348/src/main/l103.exe)

 GradGradGradGradGradGradGradGradGradGradGradGradGradGradGradGradGradGrad
 Berny optimization.
 Using GEDIIS/GDIIS optimizer.
 FormGI is forming the generalized inverse of G from B-inverse, IUseBI=4.
 Internal  Forces:  Max     0.000222243 RMS     0.000065380
 Search for a local minimum.
 Step number   5 out of a maximum of   35
 All quantities printed in internal units (Hartrees-Bohrs-Radians)
 RMS Force = .65380D-04 SwitMx=.10000D-02 MixMth= 2
 Mixed Optimization -- En-DIIS/RFO-DIIS
 Swapping is turned off.
 Update second derivatives using D2CorX and points    1    2    3    4    5
 DE=  1.21D-06 DEPred=-9.80D-07 R=-1.24D+00
 Trust test=-1.24D+00 RLast= 2.49D-03 DXMaxT set to 2.52D-01
 ITU= -1  0  1  1  0
     Eigenvalues ---    0.00766   0.00986   0.01692   0.07204   0.07534
     Eigenvalues ---    0.15267   0.16000   0.16085   0.16425   0.19252
     Eigenvalues ---    0.28270   0.34536   0.35534   0.37222   0.37230
     Eigenvalues ---    0.40143   0.57566   0.90446
 En-DIIS/RFO-DIIS IScMMF=        0 using points:     5    4    3
 RFO step:  Lambda=-1.92394824D-07.
 NNeg= 0 NP= 3 Switch=  2.50D-03 Rises=F DC=  2.96D-06 SmlDif=  1.00D-05
 RMS Error=  0.1245819074D-03 NUsed= 3 EDIIS=F
 DidBck=F Rises=F RFO-DIIS coefs:    1.30284   -0.30700    0.00417
 Iteration  1 RMS(Cart)=  0.00048535 RMS(Int)=  0.00000016
 Iteration  2 RMS(Cart)=  0.00000020 RMS(Int)=  0.00000001
 ITry= 1 IFail=0 DXMaxC= 9.57D-04 DCOld= 1.00D+10 DXMaxT= 2.52D-01 DXLimC= 3.00D+00 Rises=F
 ClnCor:  largest displacement from symmetrization is 1.64D-10 for atom     2.
 Variable       Old X    -DE/DX   Delta X   Delta X   Delta X     New X
                                 (Linear)    (Quad)   (Total)
    R1        2.55311  -0.00011  -0.00024  -0.00022  -0.00046   2.55265
    R2        2.31633   0.00022   0.00012   0.00024   0.00035   2.31669
    R3        2.83223  -0.00006   0.00012  -0.00028  -0.00016   2.83207
    R4        1.84450  -0.00007  -0.00019  -0.00002  -0.00021   1.84429
    R5        2.05942   0.00004  -0.00003   0.00011   0.00007   2.05950
    R6        2.06759  -0.00002  -0.00012   0.00002  -0.00010   2.06749
    R7        2.06759  -0.00002  -0.00012   0.00002  -0.00010   2.06749
    A1        2.12527   0.00002  -0.00025   0.00029   0.00004   2.12531
    A2        1.98055   0.00009   0.00052   0.00014   0.00067   1.98122
    A3        2.17736  -0.00011  -0.00028  -0.00043  -0.00071   2.17666
    A4        1.90063  -0.00007   0.00001  -0.00039  -0.00039   1.90025
    A5        1.95544   0.00003   0.00004   0.00011   0.00015   1.95559
    A6        1.89789  -0.00005  -0.00003  -0.00029  -0.00032   1.89757
    A7        1.89789  -0.00005  -0.00003  -0.00029  -0.00032   1.89757
    A8        1.91651   0.00001   0.00001   0.00002   0.00004   1.91654
    A9        1.91651   0.00001   0.00001   0.00002   0.00004   1.91654
   A10        1.87783   0.00006  -0.00000   0.00042   0.00042   1.87824
    D1        0.00000   0.00000   0.00000  -0.00000  -0.00000   0.00000
    D2        3.14159   0.00000   0.00000   0.00000   0.00000   3.14159
    D3       -0.00000   0.00000   0.00000  -0.00000   0.00000   0.00000
    D4        2.12162  -0.00001   0.00002  -0.00009  -0.00007   2.12154
    D5       -2.12162   0.00001  -0.00002   0.00009   0.00007  -2.12154
    D6        3.14159   0.00000   0.00000   0.00000   0.00000   3.14159
    D7       -1.01998  -0.00001   0.00002  -0.00009  -0.00007  -1.02005
    D8        1.01998   0.00001  -0.00002   0.00009   0.00007   1.02005
         Item               Value     Threshold  Converged?
 Maximum Force            0.000222     0.000450     YES
 RMS     Force            0.000065     0.000300     YES
 Maximum Displacement     0.000957     0.001800     YES
 RMS     Displacement     0.000485     0.001200     YES
 Predicted change in Energy=-1.940074D-07
 Optimization completed.
    -- Stationary point found.
                           ----------------------------
                           !   Optimized Parameters   !
                           ! (Angstroms and Degrees)  !
 --------------------------                            --------------------------
 ! Name  Definition              Value          Derivative Info.                !
 --------------------------------------------------------------------------------
 ! R1    R(1,2)                  1.351          -DE/DX =   -0.0001              !
 ! R2    R(1,3)                  1.2258         -DE/DX =    0.0002              !
 ! R3    R(1,5)                  1.4988         -DE/DX =   -0.0001              !
 ! R4    R(2,4)                  0.9761         -DE/DX =   -0.0001              !
 ! R5    R(5,6)                  1.0898         -DE/DX =    0.0                 !
 ! R6    R(5,7)                  1.0941         -DE/DX =    0.0                 !
 ! R7    R(5,8)                  1.0941         -DE/DX =    0.0                 !
 ! A1    A(2,1,3)              121.769          -DE/DX =    0.0                 !
 ! A2    A(2,1,5)              113.4774         -DE/DX =    0.0001              !
 ! A3    A(3,1,5)              124.7537         -DE/DX =   -0.0001              !
 ! A4    A(1,2,4)              108.8982         -DE/DX =   -0.0001              !
 ! A5    A(1,5,6)              112.0382         -DE/DX =    0.0                 !
 ! A6    A(1,5,7)              108.7412         -DE/DX =   -0.0001              !
 ! A7    A(1,5,8)              108.7412         -DE/DX =   -0.0001              !
 ! A8    A(6,5,7)              109.8077         -DE/DX =    0.0                 !
 ! A9    A(6,5,8)              109.8077         -DE/DX =    0.0                 !
 ! A10   A(7,5,8)              107.5915         -DE/DX =    0.0001              !
 ! D1    D(3,1,2,4)              0.0            -DE/DX =    0.0                 !
 ! D2    D(5,1,2,4)            180.0            -DE/DX =    0.0                 !
 ! D3    D(2,1,5,6)              0.0            -DE/DX =    0.0                 !
 ! D4    D(2,1,5,7)            121.5597         -DE/DX =    0.0                 !
 ! D5    D(2,1,5,8)           -121.5597         -DE/DX =    0.0                 !
 ! D6    D(3,1,5,6)            180.0            -DE/DX =    0.0                 !
 ! D7    D(3,1,5,7)            -58.4403         -DE/DX =    0.0                 !
 ! D8    D(3,1,5,8)             58.4403         -DE/DX =    0.0                 !
 --------------------------------------------------------------------------------
 GradGradGradGradGradGradGradGradGradGradGradGradGradGradGradGradGradGrad

 Largest change from initial coordinates is atom    4       0.057 Angstoms.
 Leave Link  103 at Tue Sep 17 13:14:41 2024, MaxMem=   268435456 cpu:         1.7
 (Enter /g100_work/pMI24_ChiCa/g09d1/g09d01/d01/build-node-6-2-59348/src/main/l202.exe)
                          Input orientation:                          
 ---------------------------------------------------------------------
 Center     Atomic      Atomic             Coordinates (Angstroms)
 Number     Number       Type             X           Y           Z
 ---------------------------------------------------------------------
      1          6           0        0.038475   -0.000000   -0.025221
      2          8           0       -0.051436    0.000000    1.322830
      3          8           0        1.121219   -0.000000   -0.599790
      4          1           0        0.848931   -0.000000    1.699722
      5          6           0       -1.293423    0.000000   -0.712464
      6          1           0       -2.120027    0.000000   -0.002260
      7          1           0       -1.357160    0.882866   -1.355575
      8          1           0       -1.357160   -0.882866   -1.355575
 ---------------------------------------------------------------------
                    Distance matrix (angstroms):
                    1          2          3          4          5
     1  C    0.000000
     2  O    1.351046   0.000000
     3  O    1.225750   2.252019   0.000000
     4  H    1.905850   0.976068   2.315577   0.000000
     5  C    1.498751   2.384314   2.417269   3.226193   0.000000
     6  H    2.158624   2.456610   3.295863   3.422200   1.089800
     7  H    2.120635   3.107768   2.737339   3.870546   1.094124
     8  H    2.120635   3.107768   2.737339   3.870546   1.094124
                    6          7          8
     6  H    0.000000
     7  H    1.786863   0.000000
     8  H    1.786863   1.765733   0.000000
 Stoichiometry    C2H4O2
 Framework group  CS[SG(C2H2O2),X(H2)]
 Deg. of freedom    12
 Full point group                 CS      NOp   2
 RotChk:  IX=0 Diff= 9.97D-16
 Largest Abelian subgroup         CS      NOp   2
 Largest concise Abelian subgroup CS      NOp   2
                         Standard orientation:                         
 ---------------------------------------------------------------------
 Center     Atomic      Atomic             Coordinates (Angstroms)
 Number     Number       Type             X           Y           Z
 ---------------------------------------------------------------------
      1          6           0        0.000000    0.135734   -0.000000
      2          8           0        1.275970   -0.308369   -0.000000
      3          8           0       -0.266938    1.332065   -0.000000
      4          1           0        1.878088    0.459850   -0.000000
      5          6           0       -1.015775   -0.966289    0.000000
      6          1           0       -0.550146   -1.951608    0.000000
      7          1           0       -1.652769   -0.857237    0.882866
      8          1           0       -1.652769   -0.857237   -0.882866
 ---------------------------------------------------------------------
 Rotational constants (GHZ):     11.3013080      9.3621428      5.2887399
 Leave Link  202 at Tue Sep 17 13:14:41 2024, MaxMem=   268435456 cpu:         0.1
 (Enter /g100_work/pMI24_ChiCa/g09d1/g09d01/d01/build-node-6-2-59348/src/main/l601.exe)
 Copying SCF densities to generalized density rwf, IOpCl= 0 IROHF=0.

 **********************************************************************

            Population analysis using the SCF density.

 **********************************************************************

 Orbital symmetries:
       Occupied  (A') (A') (A') (A') (A') (A') (A') (A') (A') (A')
                 (A") (A') (A') (A") (A") (A')
       Virtual   (A") (A') (A') (A') (A") (A') (A') (A") (A') (A')
                 (A") (A') (A') (A') (A") (A') (A') (A") (A') (A')
                 (A') (A') (A') (A') (A") (A') (A') (A") (A') (A')
                 (A") (A') (A') (A') (A') (A") (A') (A") (A') (A')
                 (A') (A") (A') (A") (A') (A') (A") (A") (A') (A')
                 (A') (A") (A') (A") (A') (A") (A') (A') (A") (A')
                 (A') (A") (A') (A") (A') (A") (A') (A') (A") (A')
                 (A') (A') (A') (A") (A') (A') (A') (A') (A') (A')
 The electronic state is 1-A'.
 Alpha  occ. eigenvalues --  -19.21245 -19.16124 -10.34187 -10.19361  -1.11744
 Alpha  occ. eigenvalues --   -1.02824  -0.75859  -0.61902  -0.50799  -0.48514
 Alpha  occ. eigenvalues --   -0.47337  -0.40982  -0.40009  -0.39208  -0.33628
 Alpha  occ. eigenvalues --   -0.29803
 Alpha virt. eigenvalues --   -0.01133   0.00769   0.03953   0.05384   0.06306
 Alpha virt. eigenvalues --    0.07632   0.08199   0.09476   0.13122   0.15788
 Alpha virt. eigenvalues --    0.17151   0.18272   0.19670   0.23115   0.23458
 Alpha virt. eigenvalues --    0.24183   0.25567   0.27461   0.27702   0.30068
 Alpha virt. eigenvalues --    0.33138   0.34562   0.38081   0.46498   0.64628
 Alpha virt. eigenvalues --    0.65179   0.68481   0.69674   0.75281   0.77531
 Alpha virt. eigenvalues --    0.91598   0.94951   0.99366   1.06550   1.08438
 Alpha virt. eigenvalues --    1.12395   1.12408   1.22230   1.26477   1.27146
 Alpha virt. eigenvalues --    1.29329   1.31204   1.34439   1.38664   1.49884
 Alpha virt. eigenvalues --    1.56827   1.57569   1.71530   1.72950   1.75499
 Alpha virt. eigenvalues --    1.82185   1.85687   1.92219   2.03211   2.03692
 Alpha virt. eigenvalues --    2.09785   2.11805   2.21832   2.22610   2.29817
 Alpha virt. eigenvalues --    2.43741   2.45974   2.52770   2.54199   2.66377
 Alpha virt. eigenvalues --    2.71295   2.74412   2.79245   2.86961   2.96359
 Alpha virt. eigenvalues --    3.07293   3.19001   3.28681   3.42366   3.43495
 Alpha virt. eigenvalues --    3.49449   4.13723   4.28240   4.35851   4.60573
          Condensed to atoms (all electrons):
               1          2          3          4          5          6
     1  C    4.651423   0.272231   0.436984  -0.014136   0.236976  -0.035767
     2  O    0.272231   8.270345  -0.131393   0.246269  -0.176613  -0.001489
     3  O    0.436984  -0.131393   8.399068   0.003764  -0.120444   0.006178
     4  H   -0.014136   0.246269   0.003764   0.317869   0.026580   0.000062
     5  C    0.236976  -0.176613  -0.120444   0.026580   5.336472   0.391737
     6  H   -0.035767  -0.001489   0.006178   0.000062   0.391737   0.493696
     7  H   -0.028397   0.003135  -0.005584  -0.000190   0.389629  -0.022614
     8  H   -0.028397   0.003135  -0.005584  -0.000190   0.389629  -0.022614
               7          8
     1  C   -0.028397  -0.028397
     2  O    0.003135   0.003135
     3  O   -0.005584  -0.005584
     4  H   -0.000190  -0.000190
     5  C    0.389629   0.389629
     6  H   -0.022614  -0.022614
     7  H    0.472173  -0.019502
     8  H   -0.019502   0.472173
 Mulliken charges:
               1
     1  C    0.509085
     2  O   -0.485620
     3  O   -0.582989
     4  H    0.419973
     5  C   -0.473965
     6  H    0.190812
     7  H    0.211352
     8  H    0.211352
 Sum of Mulliken charges =  -0.00000
 Mulliken charges with hydrogens summed into heavy atoms:
               1
     1  C    0.509085
     2  O   -0.065647
     3  O   -0.582989
     5  C    0.139551
 Electronic spatial extent (au):  <R**2>=            255.9202
 Charge=              0.0000 electrons
 Dipole moment (field-independent basis, Debye):
    X=              0.6348    Y=             -2.4457    Z=              0.0000  Tot=              2.5268
 Quadrupole moment (field-independent basis, Debye-Ang):
   XX=            -19.5972   YY=            -28.4933   ZZ=            -23.3263
   XY=              5.3492   XZ=             -0.0000   YZ=              0.0000
 Traceless Quadrupole moment (field-independent basis, Debye-Ang):
   XX=              4.2084   YY=             -4.6877   ZZ=              0.4793
   XY=              5.3492   XZ=             -0.0000   YZ=              0.0000
 Octapole moment (field-independent basis, Debye-Ang**2):
  XXX=             11.7886  YYY=             -8.2377  ZZZ=              0.0000  XYY=              2.7102
  XXY=              4.3955  XXZ=              0.0000  XZZ=             -0.2819  YZZ=              0.4273
  YYZ=             -0.0000  XYZ=              0.0000
 Hexadecapole moment (field-independent basis, Debye-Ang**3):
 XXXX=           -120.6593 YYYY=           -151.3315 ZZZZ=            -28.3926 XXXY=              1.7217
 XXXZ=             -0.0000 YYYX=             -8.5920 YYYZ=              0.0000 ZZZX=             -0.0000
 ZZZY=              0.0000 XXYY=            -49.1122 XXZZ=            -27.0458 YYZZ=            -29.7484
 XXYZ=             -0.0000 YYXZ=              0.0000 ZZXY=             -2.3904
 N-N= 1.205833164708D+02 E-N=-7.776708025708D+02  KE= 2.269485121952D+02
 Symmetry A'   KE= 2.166841153439D+02
 Symmetry A"   KE= 1.026439685125D+01
 No NMR shielding tensors so no spin-rotation constants.
 Leave Link  601 at Tue Sep 17 13:14:41 2024, MaxMem=   268435456 cpu:         1.5
 (Enter /g100_work/pMI24_ChiCa/g09d1/g09d01/d01/build-node-6-2-59348/src/main/l9999.exe)
 B after Tr=    -0.018717    0.000000    0.022164
         Rot=    0.999985   -0.000000   -0.005386   -0.000000 Ang=  -0.62 deg.
 Final structure in terms of initial Z-matrix:
 C
 O,1,oc2
 O,1,oc3,2,oco3
 H,2,ho4,1,hoc4,3,dih4,0
 C,1,cc5,3,cco5,2,dih5,0
 H,5,hc6,1,hcc6,3,dih6,0
 H,5,hc7,1,hcc7,6,dih7,0
 H,5,hc8,1,hcc8,6,dih8,0
      Variables:
 oc2=1.35104646
 oc3=1.22575041
 oco3=121.76895374
 ho4=0.97606756
 hoc4=108.898228
 dih4=0.
 cc5=1.49875111
 cco5=124.75367826
 dih5=180.
 hc6=1.08979989
 hcc6=112.03820907
 dih6=180.
 hc7=1.09412378
 hcc7=108.74122312
 dih7=121.55972191
 hc8=1.09412378
 hcc8=108.74122312
 dih8=-121.55972191
 1\1\GINC-R500N002\FOpt\RB3LYP\6-31+G(d,p)\C2H4O2\ECABIATI\17-Sep-2024\
 0\\#p B3LYP/6-31+g(d,p) opt scrf=(smd,solvent=water)\\ch3cooh sol\\0,1
 \C,0.0385964922,0.,-0.0242262104\O,-0.0513149187,0.,1.323825149\O,1.12
 13402394,0.,-0.5987956474\H,0.8490521845,0.,1.7007163379\C,-1.29330125
 3,0.,-0.7114694706\H,-2.1199053128,0.,-0.0012656071\H,-1.3570383831,0.
 8828664796,-1.3545800453\H,-1.3570383831,-0.8828664796,-1.3545800453\\
 Version=EM64L-G09RevD.01\State=1-A'\HF=-229.1163329\RMSD=1.554e-09\RMS
 F=9.918e-05\Dipole=-0.8615736,0.,0.4959423\Quadrupole=-0.9869109,0.356
 36,0.6305508,0.,5.1086957,0.\PG=CS [SG(C2H2O2),X(H2)]\\@


 WOE UNTO THEM THAT CALL EVIL GOOD, AND GOOD EVIL      
 Job cpu time:       0 days  0 hours  2 minutes 48.4 seconds.
 File lengths (MBytes):  RWF=     14 Int=      0 D2E=      0 Chk=      2 Scr=      1
 Normal termination of Gaussian 09 at Tue Sep 17 13:14:41 2024.
