 Entering Gaussian System, Link 0=/g100_work/pMI24_ChiCa/g09d1/g09d01/d01/build-node-6-2-59348/src/main/g09
 Input=geom.com
 Output=geom.log
 Initial command:
 /g100_work/pMI24_ChiCa/g09d1/g09d01/d01/build-node-6-2-59348/src/main/l1.exe "/g100_scratch/userexternal/ecabiati/g16_14420038/Gau-53347.inp" -scrdir="/g100_scratch/userexternal/ecabiati/g16_14420038/"
 Entering Link 1 = /g100_work/pMI24_ChiCa/g09d1/g09d01/d01/build-node-6-2-59348/src/main/l1.exe PID=     53348.
  
 Copyright (c) 1988,1990,1992,1993,1995,1998,2003,2009,2013,
            Gaussian, Inc.  All Rights Reserved.
  
 This is part of the Gaussian(R) 09 program.  It is based on
 the Gaussian(R) 03 system (copyright 2003, Gaussian, Inc.),
 the Gaussian(R) 98 system (copyright 1998, Gaussian, Inc.),
 the Gaussian(R) 94 system (copyright 1995, Gaussian, Inc.),
 the Gaussian 92(TM) system (copyright 1992, Gaussian, Inc.),
 the Gaussian 90(TM) system (copyright 1990, Gaussian, Inc.),
 the Gaussian 88(TM) system (copyright 1988, Gaussian, Inc.),
 the Gaussian 86(TM) system (copyright 1986, Carnegie Mellon
 University), and the Gaussian 82(TM) system (copyright 1983,
 Carnegie Mellon University). Gaussian is a federally registered
 trademark of Gaussian, Inc.
  
 This software contains proprietary and confidential information,
 including trade secrets, belonging to Gaussian, Inc.
  
 This software is provided under written license and may be
 used, copied, transmitted, or stored only in accord with that
 written license.
  
 The following legend is applicable only to US Government
 contracts under FAR:
  
                    RESTRICTED RIGHTS LEGEND
  
 Use, reproduction and disclosure by the US Government is
 subject to restrictions as set forth in subparagraphs (a)
 and (c) of the Commercial Computer Software - Restricted
 Rights clause in FAR 52.227-19.
  
 Gaussian, Inc.
 340 Quinnipiac St., Bldg. 40, Wallingford CT 06492
  
  
 ---------------------------------------------------------------
 Warning -- This program may not be used in any manner that
 competes with the business of Gaussian, Inc. or will provide
 assistance to any competitor of Gaussian, Inc.  The licensee
 of this program is prohibited from giving any competitor of
 Gaussian, Inc. access to this program.  By using this program,
 the user acknowledges that Gaussian, Inc. is engaged in the
 business of creating and licensing software in the field of
 computational chemistry and represents and warrants to the
 licensee that it is not a competitor of Gaussian, Inc. and that
 it will not use this program in any manner prohibited above.
 ---------------------------------------------------------------
  

 Cite this work as:
 Gaussian 09, Revision D.01,
 M. J. Frisch, G. W. Trucks, H. B. Schlegel, G. E. Scuseria, 
 M. A. Robb, J. R. Cheeseman, G. Scalmani, V. Barone, B. Mennucci, 
 G. A. Petersson, H. Nakatsuji, M. Caricato, X. Li, H. P. Hratchian, 
 A. F. Izmaylov, J. Bloino, G. Zheng, J. L. Sonnenberg, M. Hada, 
 M. Ehara, K. Toyota, R. Fukuda, J. Hasegawa, M. Ishida, T. Nakajima, 
 Y. Honda, O. Kitao, H. Nakai, T. Vreven, J. A. Montgomery, Jr., 
 J. E. Peralta, F. Ogliaro, M. Bearpark, J. J. Heyd, E. Brothers, 
 K. N. Kudin, V. N. Staroverov, T. Keith, R. Kobayashi, J. Normand, 
 K. Raghavachari, A. Rendell, J. C. Burant, S. S. Iyengar, J. Tomasi, 
 M. Cossi, N. Rega, J. M. Millam, M. Klene, J. E. Knox, J. B. Cross, 
 V. Bakken, C. Adamo, J. Jaramillo, R. Gomperts, R. E. Stratmann, 
 O. Yazyev, A. J. Austin, R. Cammi, C. Pomelli, J. W. Ochterski, 
 R. L. Martin, K. Morokuma, V. G. Zakrzewski, G. A. Voth, 
 P. Salvador, J. J. Dannenberg, S. Dapprich, A. D. Daniels, 
 O. Farkas, J. B. Foresman, J. V. Ortiz, J. Cioslowski, 
 and D. J. Fox, Gaussian, Inc., Wallingford CT, 2013.
 
 ******************************************
 Gaussian 09:  EM64L-G09RevD.01 24-Apr-2013
                17-Sep-2024 
 ******************************************
 %nproc=24
 Will use up to   24 processors via shared memory.
 %mem=2Gb
 ------------------------------------------------------
 #p B3LYP/6-31+g(d,p) opt freq scrf=(smd,solvent=water)
 ------------------------------------------------------
 1/14=-1,18=20,19=15,26=3,38=1/1,3;
 2/9=110,12=2,17=6,18=5,40=1/2;
 3/5=1,6=6,7=111,11=2,16=1,25=1,30=1,70=32201,71=1,72=1,74=-5/1,2,3;
 4//1;
 5/5=2,38=5,53=1/2;
 6/7=2,8=2,9=2,10=2,28=1/1;
 7//1,2,3,16;
 1/14=-1,18=20,19=15,26=3/3(2);
 2/9=110/2;
 99//99;
 2/9=110/2;
 3/5=1,6=6,7=111,11=2,16=1,25=1,30=1,70=32205,71=1,72=1,74=-5/1,2,3;
 4/5=5,16=3,69=1/1;
 5/5=2,38=5,53=1/2;
 7//1,2,3,16;
 1/14=-1,18=20,19=15,26=3/3(-5);
 2/9=110/2;
 6/7=2,8=2,9=2,10=2,19=2,28=1/1;
 99/9=1/99;
 Leave Link    1 at Tue Sep 17 19:28:51 2024, MaxMem=   268435456 cpu:         0.2
 (Enter /g100_work/pMI24_ChiCa/g09d1/g09d01/d01/build-node-6-2-59348/src/main/l101.exe)
 -----------
 ch3cooh sol
 -----------
 Symbolic Z-matrix:
 Charge =  0 Multiplicity = 1
 c
 o                    1    oc2
 o                    1    oc3      2    oco3
 h                    2    ho4      1    hoc4     3    dih4     0
 c                    1    cc5      3    cco5     2    dih5     0
 h                    5    hc6      1    hcc6     3    dih6     0
 h                    5    hc7      1    hcc7     6    dih7     0
 h                    5    hc8      1    hcc8     6    dih8     0
       Variables:
  oc2                   1.4                      
  oc3                   1.22                     
  oco3                120.                       
  ho4                   0.95                     
  hoc4                109.471                    
  dih4                  0.                       
  cc5                   1.5                      
  cco5                120.                       
  dih5                180.                       
  hc6                   1.07                     
  hcc6                109.471                    
  dih6                180.                       
  hc7                   1.07                     
  hcc7                109.471                    
  dih7                120.                       
  hc8                   1.07                     
  hcc8                109.471                    
  dih8                240.                       
 
     4 tetrahedral angles replaced.
 NAtoms=      8 NQM=        8 NQMF=       0 NMMI=      0 NMMIF=      0
                NMic=       0 NMicF=      0.
                    Isotopes and Nuclear Properties:
 (Nuclear quadrupole moments (NQMom) in fm**2, nuclear magnetic moments (NMagM)
  in nuclear magnetons)

  Atom         1           2           3           4           5           6           7           8
 IAtWgt=          12          16          16           1          12           1           1           1
 AtmWgt=  12.0000000  15.9949146  15.9949146   1.0078250  12.0000000   1.0078250   1.0078250   1.0078250
 NucSpn=           0           0           0           1           0           1           1           1
 AtZEff=   0.0000000   0.0000000   0.0000000   0.0000000   0.0000000   0.0000000   0.0000000   0.0000000
 NQMom=    0.0000000   0.0000000   0.0000000   0.0000000   0.0000000   0.0000000   0.0000000   0.0000000
 NMagM=    0.0000000   0.0000000   0.0000000   2.7928460   0.0000000   2.7928460   2.7928460   2.7928460
 AtZNuc=   6.0000000   8.0000000   8.0000000   1.0000000   6.0000000   1.0000000   1.0000000   1.0000000
 Leave Link  101 at Tue Sep 17 19:28:51 2024, MaxMem=   268435456 cpu:         0.2
 (Enter /g100_work/pMI24_ChiCa/g09d1/g09d01/d01/build-node-6-2-59348/src/main/l103.exe)

 GradGradGradGradGradGradGradGradGradGradGradGradGradGradGradGradGradGrad
 Berny optimization.
 Initialization pass.
                           ----------------------------
                           !    Initial Parameters    !
                           ! (Angstroms and Degrees)  !
 --------------------------                            --------------------------
 ! Name  Definition              Value          Derivative Info.                !
 --------------------------------------------------------------------------------
 ! R1    R(1,2)                  1.4            estimate D2E/DX2                !
 ! R2    R(1,3)                  1.22           estimate D2E/DX2                !
 ! R3    R(1,5)                  1.5            estimate D2E/DX2                !
 ! R4    R(2,4)                  0.95           estimate D2E/DX2                !
 ! R5    R(5,6)                  1.07           estimate D2E/DX2                !
 ! R6    R(5,7)                  1.07           estimate D2E/DX2                !
 ! R7    R(5,8)                  1.07           estimate D2E/DX2                !
 ! A1    A(2,1,3)              120.0            estimate D2E/DX2                !
 ! A2    A(2,1,5)              120.0            estimate D2E/DX2                !
 ! A3    A(3,1,5)              120.0            estimate D2E/DX2                !
 ! A4    A(1,2,4)              109.4712         estimate D2E/DX2                !
 ! A5    A(1,5,6)              109.4712         estimate D2E/DX2                !
 ! A6    A(1,5,7)              109.4712         estimate D2E/DX2                !
 ! A7    A(1,5,8)              109.4712         estimate D2E/DX2                !
 ! A8    A(6,5,7)              109.4712         estimate D2E/DX2                !
 ! A9    A(6,5,8)              109.4712         estimate D2E/DX2                !
 ! A10   A(7,5,8)              109.4712         estimate D2E/DX2                !
 ! D1    D(3,1,2,4)              0.0            estimate D2E/DX2                !
 ! D2    D(5,1,2,4)            180.0            estimate D2E/DX2                !
 ! D3    D(2,1,5,6)              0.0            estimate D2E/DX2                !
 ! D4    D(2,1,5,7)            120.0            estimate D2E/DX2                !
 ! D5    D(2,1,5,8)           -120.0            estimate D2E/DX2                !
 ! D6    D(3,1,5,6)            180.0            estimate D2E/DX2                !
 ! D7    D(3,1,5,7)            -60.0            estimate D2E/DX2                !
 ! D8    D(3,1,5,8)             60.0            estimate D2E/DX2                !
 --------------------------------------------------------------------------------
 Trust Radius=3.00D-01 FncErr=1.00D-07 GrdErr=1.00D-06
 Number of steps in this run=     35 maximum allowed number of steps=    100.
 GradGradGradGradGradGradGradGradGradGradGradGradGradGradGradGradGradGrad

 Leave Link  103 at Tue Sep 17 19:28:51 2024, MaxMem=   268435456 cpu:         0.1
 (Enter /g100_work/pMI24_ChiCa/g09d1/g09d01/d01/build-node-6-2-59348/src/main/l202.exe)
                          Input orientation:                          
 ---------------------------------------------------------------------
 Center     Atomic      Atomic             Coordinates (Angstroms)
 Number     Number       Type             X           Y           Z
 ---------------------------------------------------------------------
      1          6           0        0.000000    0.000000    0.000000
      2          8           0        0.000000    0.000000    1.400000
      3          8           0        1.056551    0.000000   -0.610000
      4          1           0        0.895669    0.000000    1.716667
      5          6           0       -1.299038    0.000000   -0.750000
      6          1           0       -2.112323    0.000000   -0.054682
      7          1           0       -1.355719    0.873651   -1.365159
      8          1           0       -1.355719   -0.873651   -1.365159
 ---------------------------------------------------------------------
                    Distance matrix (angstroms):
                    1          2          3          4          5
     1  C    0.000000
     2  O    1.400000   0.000000
     3  O    1.220000   2.270771   0.000000
     4  H    1.936276   0.950000   2.332222   0.000000
     5  C    1.500000   2.511971   2.359746   3.301694   0.000000
     6  H    2.113031   2.564763   3.217164   3.490801   1.070000
     7  H    2.113031   3.201147   2.674431   3.915311   1.070000
     8  H    2.113031   3.201147   2.674431   3.915311   1.070000
                    6          7          8
     6  H    0.000000
     7  H    1.747303   0.000000
     8  H    1.747303   1.747303   0.000000
 Stoichiometry    C2H4O2
 Framework group  CS[SG(C2H2O2),X(H2)]
 Deg. of freedom    12
 Full point group                 CS      NOp   2
 Largest Abelian subgroup         CS      NOp   2
 Largest concise Abelian subgroup CS      NOp   2
                         Standard orientation:                         
 ---------------------------------------------------------------------
 Center     Atomic      Atomic             Coordinates (Angstroms)
 Number     Number       Type             X           Y           Z
 ---------------------------------------------------------------------
      1          6           0        0.000000    0.104850   -0.000000
      2          8           0        1.364415   -0.208793    0.000000
      3          8           0       -0.357795    1.271204   -0.000000
      4          1           0        1.873690    0.593166   -0.000000
      5          6           0       -1.021961   -0.993146    0.000000
      6          1           0       -0.526517   -1.941532    0.000000
      7          1           0       -1.634182   -0.910572    0.873651
      8          1           0       -1.634182   -0.910572   -0.873651
 ---------------------------------------------------------------------
 Rotational constants (GHZ):     11.6874887      8.7882225      5.1743278
 Leave Link  202 at Tue Sep 17 19:28:51 2024, MaxMem=   268435456 cpu:         0.2
 (Enter /g100_work/pMI24_ChiCa/g09d1/g09d01/d01/build-node-6-2-59348/src/main/l301.exe)
 Standard basis: 6-31+G(d,p) (6D, 7F)
 Ernie: Thresh=  0.10000D-02 Tol=  0.10000D-05 Strict=F.
 There are    69 symmetry adapted cartesian basis functions of A'  symmetry.
 There are    27 symmetry adapted cartesian basis functions of A"  symmetry.
 There are    69 symmetry adapted basis functions of A'  symmetry.
 There are    27 symmetry adapted basis functions of A"  symmetry.
    96 basis functions,   156 primitive gaussians,    96 cartesian basis functions
    16 alpha electrons       16 beta electrons
       nuclear repulsion energy       119.8443557046 Hartrees.
 IExCor=  402 DFT=T Ex+Corr=B3LYP ExCW=0 ScaHFX=  0.200000
 ScaDFX=  0.800000  0.720000  1.000000  0.810000 ScalE2=  1.000000  1.000000
 IRadAn=      0 IRanWt=     -1 IRanGd=            0 ICorTp=0 IEmpDi=  4
 NAtoms=    8 NActive=    8 NUniq=    7 SFac= 1.31D+00 NAtFMM=   60 NAOKFM=F Big=F
 Integral buffers will be    131072 words long.
 Raffenetti 2 integral format.
 Two-electron integral symmetry is turned on.
 ------------------------------------------------------------------------------
 Polarizable Continuum Model (PCM)
 =================================
 Model                : PCM (using non-symmetric T matrix).
 Atomic radii         : SMD-Coulomb.
 Polarization charges : Total charges.
 Charge compensation  : None.
 Solution method      : On-the-fly selection.
 Cavity type          : VdW (van der Waals Surface) (Alpha=1.000).
 Cavity algorithm     : GePol (No added spheres)
                        Default sphere list used, NSphG=    8.
                        Lebedev-Laikov grids with approx.  5.0 points / Ang**2.
                        Smoothing algorithm: Karplus/York (Gamma=1.0000).
                        Polarization charges: spherical gaussians, with
                                              point-specific exponents (IZeta= 3).
                        Self-potential: point-specific (ISelfS= 7).
                        Self-field    : sphere-specific E.n sum rule (ISelfD= 2).
 1st derivatives      : Analytical E(r).r(x)/FMM algorithm (CHGder, D1EAlg=3).
                        Cavity 1st derivative terms included.
 Solvent              : Water, Eps=  78.355300 Eps(inf)=   1.777849
 ------------------------------------------------------------------------------
 Spheres list:
 ISph  on   Nord     Re0    Alpha      Xe            Ye            Ze
    1   C      1    1.8500  1.000     -0.000000      0.104850     -0.000000
    2   O      2    1.5200  1.000      1.364415     -0.208793      0.000000
    3   O      3    1.5200  1.000     -0.357795      1.271204     -0.000000
    4   H      4    1.2000  1.000      1.873690      0.593166     -0.000000
    5   C      5    1.8500  1.000     -1.021961     -0.993146      0.000000
    6   H      6    1.2000  1.000     -0.526517     -1.941532      0.000000
    7   H      7    1.2000  1.000     -1.634182     -0.910572      0.873651
    8   H      8    1.2000  1.000     -1.634182     -0.910572     -0.873651
 ------------------------------------------------------------------------------
 GePol: Number of generator spheres                  =       8
 GePol: Total number of spheres                      =       8
 GePol: Number of exposed spheres                    =       8 (100.00%)
 GePol: Number of points                             =     655
 GePol: Average weight of points                     =       0.13
 GePol: Minimum weight of points                     =   0.12D-05
 GePol: Maximum weight of points                     =    0.21991
 GePol: Number of points with low weight             =      33
 GePol: Fraction of low-weight points (<1% of avg)   =       5.04%
 GePol: Cavity surface area                          =     83.829 Ang**2
 GePol: Cavity volume                                =     59.269 Ang**3
 ------------------------------------------------------------------------------
 Atomic radii for non-electrostatic terms: SMD-CDS.
 ------------------------------------------------------------------------------
 PCM non-electrostatic energy =         0.0057222953 Hartrees.
 Nuclear repulsion after PCM non-electrostatic terms =      119.8500779999 Hartrees.
 Leave Link  301 at Tue Sep 17 19:28:51 2024, MaxMem=   268435456 cpu:         0.1
 (Enter /g100_work/pMI24_ChiCa/g09d1/g09d01/d01/build-node-6-2-59348/src/main/l302.exe)
 NPDir=0 NMtPBC=     1 NCelOv=     1 NCel=       1 NClECP=     1 NCelD=      1
         NCelK=      1 NCelE2=     1 NClLst=     1 CellRange=     0.0.
 One-electron integrals computed using PRISM.
 One-electron integral symmetry used in STVInt
 NBasis=    96 RedAO= T EigKep=  3.11D-04  NBF=    69    27
 NBsUse=    96 1.00D-06 EigRej= -1.00D+00 NBFU=    69    27
 Precomputing XC quadrature grid using
 IXCGrd= 4 IRadAn=           0 IRanWt=          -1 IRanGd=           0 AccXCQ= 0.00D+00.
 Generated NRdTot=       0 NPtTot=           0 NUsed=           0 NTot=          32
 NSgBfM=    96    96    96    96    96 MxSgAt=     8 MxSgA2=     8.
 Leave Link  302 at Tue Sep 17 19:28:51 2024, MaxMem=   268435456 cpu:         1.4
 (Enter /g100_work/pMI24_ChiCa/g09d1/g09d01/d01/build-node-6-2-59348/src/main/l303.exe)
 DipDrv:  MaxL=1.
 Leave Link  303 at Tue Sep 17 19:28:52 2024, MaxMem=   268435456 cpu:         0.2
 (Enter /g100_work/pMI24_ChiCa/g09d1/g09d01/d01/build-node-6-2-59348/src/main/l401.exe)
 ExpMin= 4.38D-02 ExpMax= 5.48D+03 ExpMxC= 8.25D+02 IAcc=2 IRadAn=         4 AccDes= 0.00D+00
 Harris functional with IExCor=  402 and IRadAn=       4 diagonalized for initial guess.
 HarFok:  IExCor=  402 AccDes= 0.00D+00 IRadAn=         4 IDoV= 1 UseB2=F ITyADJ=14
 ICtDFT=  3500011 ScaDFX=  1.000000  1.000000  1.000000  1.000000
 FoFCou: FMM=F IPFlag=           0 FMFlag=      100000 FMFlg1=           0
         NFxFlg=           0 DoJE=T BraDBF=F KetDBF=T FulRan=T
         wScrn=  0.000000 ICntrl=     500 IOpCl=  0 I1Cent=   200000004 NGrid=           0
         NMat0=    1 NMatS0=      1 NMatT0=    0 NMatD0=    1 NMtDS0=    0 NMtDT0=    0
 Petite list used in FoFCou.
 Harris En= -229.128752223035    
 JPrj=0 DoOrth=F DoCkMO=F.
 Initial guess orbital symmetries:
       Occupied  (A') (A') (A') (A') (A') (A') (A') (A') (A') (A')
                 (A") (A') (A') (A") (A") (A')
       Virtual   (A") (A') (A') (A') (A") (A') (A') (A') (A") (A')
                 (A") (A') (A') (A') (A") (A') (A') (A') (A') (A")
                 (A') (A') (A') (A') (A') (A") (A') (A") (A') (A')
                 (A") (A') (A') (A') (A') (A") (A') (A") (A') (A')
                 (A") (A') (A') (A") (A') (A") (A') (A") (A') (A')
                 (A') (A") (A') (A") (A') (A") (A') (A") (A') (A')
                 (A') (A") (A') (A") (A') (A') (A") (A') (A") (A')
                 (A') (A') (A') (A") (A') (A') (A') (A') (A') (A')
 The electronic state of the initial guess is 1-A'.
 Leave Link  401 at Tue Sep 17 19:28:52 2024, MaxMem=   268435456 cpu:         1.5
 (Enter /g100_work/pMI24_ChiCa/g09d1/g09d01/d01/build-node-6-2-59348/src/main/l502.exe)
 Closed shell SCF:
 Using DIIS extrapolation, IDIIS=  1040.
 Integral symmetry usage will be decided dynamically.
 Keep R1 ints in memory in symmetry-blocked form, NReq=16539583.
 IVT=       49354 IEndB=       49354 NGot=   268435456 MDV=   262737466
 LenX=   262737466 LenY=   262727809
 Requested convergence on RMS density matrix=1.00D-08 within 128 cycles.
 Requested convergence on MAX density matrix=1.00D-06.
 Requested convergence on             energy=1.00D-06.
 No special actions if energy rises.
 FoFCou: FMM=F IPFlag=           0 FMFlag=           0 FMFlg1=           0
         NFxFlg=           0 DoJE=F BraDBF=F KetDBF=F FulRan=T
         wScrn=  0.000000 ICntrl=     600 IOpCl=  0 I1Cent=           0 NGrid=           0
         NMat0=    1 NMatS0=   4656 NMatT0=    0 NMatD0=    1 NMtDS0=    0 NMtDT0=    0
 Petite list used in FoFCou.

 Cycle   1  Pass 1  IDiag  1:
 Inv3:  Mode=1 IEnd=     1287075.
 Iteration    1 A*A^-1 deviation from unit magnitude is 5.00D-15 for     66.
 Iteration    1 A*A^-1 deviation from orthogonality  is 4.16D-15 for    505     88.
 Iteration    1 A^-1*A deviation from unit magnitude is 3.33D-15 for     86.
 Iteration    1 A^-1*A deviation from orthogonality  is 8.58D-14 for    571    563.
 E= -228.967950244546    
 DIIS: error= 3.68D-02 at cycle   1 NSaved=   1.
 NSaved= 1 IEnMin= 1 EnMin= -228.967950244546     IErMin= 1 ErrMin= 3.68D-02
 ErrMax= 3.68D-02  0.00D+00 EMaxC= 1.00D-01 BMatC= 1.77D-01 BMatP= 1.77D-01
 IDIUse=3 WtCom= 6.32D-01 WtEn= 3.68D-01
 Coeff-Com:  0.100D+01
 Coeff-En:   0.100D+01
 Coeff:      0.100D+01
 Gap=     0.174 Goal=   None    Shift=    0.000
 GapD=    0.174 DampG=1.000 DampE=0.500 DampFc=0.5000 IDamp=-1.
 Damping current iteration by 5.00D-01
 RMSDP=7.62D-03 MaxDP=1.78D-01              OVMax= 2.01D-01

 Cycle   2  Pass 1  IDiag  1:
 E= -229.013101697979     Delta-E=       -0.045151453434 Rises=F Damp=T
 DIIS: error= 1.11D-02 at cycle   2 NSaved=   2.
 NSaved= 2 IEnMin= 2 EnMin= -229.013101697979     IErMin= 2 ErrMin= 1.11D-02
 ErrMax= 1.11D-02  0.00D+00 EMaxC= 1.00D-01 BMatC= 1.84D-02 BMatP= 1.77D-01
 IDIUse=3 WtCom= 8.89D-01 WtEn= 1.11D-01
 Coeff-Com:  0.197D+00 0.803D+00
 Coeff-En:   0.313D+00 0.687D+00
 Coeff:      0.210D+00 0.790D+00
 Gap=     0.283 Goal=   None    Shift=    0.000
 RMSDP=2.05D-03 MaxDP=4.15D-02 DE=-4.52D-02 OVMax= 1.49D-01

 Cycle   3  Pass 1  IDiag  1:
 E= -229.100322227195     Delta-E=       -0.087220529216 Rises=F Damp=F
 DIIS: error= 8.93D-03 at cycle   3 NSaved=   3.
 NSaved= 3 IEnMin= 3 EnMin= -229.100322227195     IErMin= 3 ErrMin= 8.93D-03
 ErrMax= 8.93D-03  0.00D+00 EMaxC= 1.00D-01 BMatC= 1.19D-02 BMatP= 1.84D-02
 IDIUse=3 WtCom= 9.11D-01 WtEn= 8.93D-02
 Coeff-Com:  0.825D-01 0.462D+00 0.456D+00
 Coeff-En:   0.000D+00 0.000D+00 0.100D+01
 Coeff:      0.751D-01 0.420D+00 0.505D+00
 Gap=     0.276 Goal=   None    Shift=    0.000
 RMSDP=1.05D-03 MaxDP=2.78D-02 DE=-8.72D-02 OVMax= 4.31D-02

 Cycle   4  Pass 1  IDiag  1:
 E= -229.109068768946     Delta-E=       -0.008746541751 Rises=F Damp=F
 DIIS: error= 4.20D-03 at cycle   4 NSaved=   4.
 NSaved= 4 IEnMin= 4 EnMin= -229.109068768946     IErMin= 4 ErrMin= 4.20D-03
 ErrMax= 4.20D-03  0.00D+00 EMaxC= 1.00D-01 BMatC= 1.53D-03 BMatP= 1.19D-02
 IDIUse=3 WtCom= 9.58D-01 WtEn= 4.20D-02
 Coeff-Com:  0.974D-02 0.788D-01 0.273D+00 0.638D+00
 Coeff-En:   0.000D+00 0.000D+00 0.914D-01 0.909D+00
 Coeff:      0.933D-02 0.755D-01 0.266D+00 0.649D+00
 Gap=     0.279 Goal=   None    Shift=    0.000
 RMSDP=3.61D-04 MaxDP=9.17D-03 DE=-8.75D-03 OVMax= 1.61D-02

 Cycle   5  Pass 1  IDiag  1:
 E= -229.110000794765     Delta-E=       -0.000932025819 Rises=F Damp=F
 DIIS: error= 1.57D-03 at cycle   5 NSaved=   5.
 NSaved= 5 IEnMin= 5 EnMin= -229.110000794765     IErMin= 5 ErrMin= 1.57D-03
 ErrMax= 1.57D-03  0.00D+00 EMaxC= 1.00D-01 BMatC= 2.67D-04 BMatP= 1.53D-03
 IDIUse=3 WtCom= 9.84D-01 WtEn= 1.57D-02
 Coeff-Com: -0.116D-02 0.591D-02 0.124D+00 0.416D+00 0.455D+00
 Coeff-En:   0.000D+00 0.000D+00 0.000D+00 0.126D+00 0.874D+00
 Coeff:     -0.114D-02 0.582D-02 0.122D+00 0.411D+00 0.462D+00
 Gap=     0.278 Goal=   None    Shift=    0.000
 RMSDP=1.22D-04 MaxDP=3.46D-03 DE=-9.32D-04 OVMax= 4.52D-03

 Cycle   6  Pass 1  IDiag  1:
 E= -229.110208535761     Delta-E=       -0.000207740996 Rises=F Damp=F
 DIIS: error= 9.52D-05 at cycle   6 NSaved=   6.
 NSaved= 6 IEnMin= 6 EnMin= -229.110208535761     IErMin= 6 ErrMin= 9.52D-05
 ErrMax= 9.52D-05  0.00D+00 EMaxC= 1.00D-01 BMatC= 1.68D-06 BMatP= 2.67D-04
 IDIUse=1 WtCom= 1.00D+00 WtEn= 0.00D+00
 Coeff-Com: -0.673D-03-0.849D-03 0.276D-01 0.957D-01 0.145D+00 0.733D+00
 Coeff:     -0.673D-03-0.849D-03 0.276D-01 0.957D-01 0.145D+00 0.733D+00
 Gap=     0.279 Goal=   None    Shift=    0.000
 RMSDP=1.33D-05 MaxDP=2.63D-04 DE=-2.08D-04 OVMax= 3.17D-04

 Cycle   7  Pass 1  IDiag  1:
 E= -229.110209732302     Delta-E=       -0.000001196541 Rises=F Damp=F
 DIIS: error= 2.81D-05 at cycle   7 NSaved=   7.
 NSaved= 7 IEnMin= 7 EnMin= -229.110209732302     IErMin= 7 ErrMin= 2.81D-05
 ErrMax= 2.81D-05  0.00D+00 EMaxC= 1.00D-01 BMatC= 1.48D-07 BMatP= 1.68D-06
 IDIUse=1 WtCom= 1.00D+00 WtEn= 0.00D+00
 Coeff-Com: -0.223D-03-0.581D-03 0.609D-02 0.203D-01 0.417D-01 0.329D+00
 Coeff-Com:  0.603D+00
 Coeff:     -0.223D-03-0.581D-03 0.609D-02 0.203D-01 0.417D-01 0.329D+00
 Coeff:      0.603D+00
 Gap=     0.279 Goal=   None    Shift=    0.000
 RMSDP=4.26D-06 MaxDP=7.10D-05 DE=-1.20D-06 OVMax= 9.38D-05

 Cycle   8  Pass 1  IDiag  1:
 E= -229.110209870750     Delta-E=       -0.000000138448 Rises=F Damp=F
 DIIS: error= 3.24D-06 at cycle   8 NSaved=   8.
 NSaved= 8 IEnMin= 8 EnMin= -229.110209870750     IErMin= 8 ErrMin= 3.24D-06
 ErrMax= 3.24D-06  0.00D+00 EMaxC= 1.00D-01 BMatC= 1.45D-09 BMatP= 1.48D-07
 IDIUse=1 WtCom= 1.00D+00 WtEn= 0.00D+00
 Coeff-Com:  0.114D-04-0.356D-04-0.763D-03-0.316D-02-0.259D-02 0.340D-02
 Coeff-Com:  0.829D-01 0.920D+00
 Coeff:      0.114D-04-0.356D-04-0.763D-03-0.316D-02-0.259D-02 0.340D-02
 Coeff:      0.829D-01 0.920D+00
 Gap=     0.279 Goal=   None    Shift=    0.000
 RMSDP=1.03D-06 MaxDP=1.99D-05 DE=-1.38D-07 OVMax= 1.39D-05

 Cycle   9  Pass 1  IDiag  1:
 E= -229.110209872307     Delta-E=       -0.000000001557 Rises=F Damp=F
 DIIS: error= 4.44D-07 at cycle   9 NSaved=   9.
 NSaved= 9 IEnMin= 9 EnMin= -229.110209872307     IErMin= 9 ErrMin= 4.44D-07
 ErrMax= 4.44D-07  0.00D+00 EMaxC= 1.00D-01 BMatC= 2.18D-11 BMatP= 1.45D-09
 IDIUse=1 WtCom= 1.00D+00 WtEn= 0.00D+00
 Coeff-Com: -0.281D-06 0.860D-05-0.162D-03-0.539D-03-0.730D-03-0.335D-02
 Coeff-Com:  0.302D-02 0.866D-01 0.915D+00
 Coeff:     -0.281D-06 0.860D-05-0.162D-03-0.539D-03-0.730D-03-0.335D-02
 Coeff:      0.302D-02 0.866D-01 0.915D+00
 Gap=     0.279 Goal=   None    Shift=    0.000
 RMSDP=1.06D-07 MaxDP=2.32D-06 DE=-1.56D-09 OVMax= 1.67D-06

 Cycle  10  Pass 1  IDiag  1:
 E= -229.110209872322     Delta-E=       -0.000000000015 Rises=F Damp=F
 DIIS: error= 6.58D-08 at cycle  10 NSaved=  10.
 NSaved=10 IEnMin=10 EnMin= -229.110209872322     IErMin=10 ErrMin= 6.58D-08
 ErrMax= 6.58D-08  0.00D+00 EMaxC= 1.00D-01 BMatC= 5.74D-13 BMatP= 2.18D-11
 IDIUse=1 WtCom= 1.00D+00 WtEn= 0.00D+00
 Coeff-Com: -0.939D-06 0.276D-05-0.106D-04-0.182D-04-0.735D-04-0.673D-03
 Coeff-Com: -0.123D-02-0.926D-02 0.121D+00 0.890D+00
 Coeff:     -0.939D-06 0.276D-05-0.106D-04-0.182D-04-0.735D-04-0.673D-03
 Coeff:     -0.123D-02-0.926D-02 0.121D+00 0.890D+00
 Gap=     0.279 Goal=   None    Shift=    0.000
 RMSDP=1.32D-08 MaxDP=2.60D-07 DE=-1.53D-11 OVMax= 2.96D-07

 Cycle  11  Pass 1  IDiag  1:
 E= -229.110209872325     Delta-E=       -0.000000000002 Rises=F Damp=F
 DIIS: error= 6.87D-09 at cycle  11 NSaved=  11.
 NSaved=11 IEnMin=11 EnMin= -229.110209872325     IErMin=11 ErrMin= 6.87D-09
 ErrMax= 6.87D-09  0.00D+00 EMaxC= 1.00D-01 BMatC= 6.38D-15 BMatP= 5.74D-13
 IDIUse=1 WtCom= 1.00D+00 WtEn= 0.00D+00
 Coeff-Com: -0.142D-06 0.157D-06 0.205D-05 0.681D-05 0.575D-05 0.962D-05
 Coeff-Com: -0.139D-03-0.226D-02-0.731D-02 0.936D-01 0.916D+00
 Coeff:     -0.142D-06 0.157D-06 0.205D-05 0.681D-05 0.575D-05 0.962D-05
 Coeff:     -0.139D-03-0.226D-02-0.731D-02 0.936D-01 0.916D+00
 Gap=     0.279 Goal=   None    Shift=    0.000
 RMSDP=1.42D-09 MaxDP=3.10D-08 DE=-2.05D-12 OVMax= 2.46D-08

 Error on total polarization charges =  0.03995
 SCF Done:  E(RB3LYP) =  -229.110209872     A.U. after   11 cycles
            NFock= 11  Conv=0.14D-08     -V/T= 2.0093
 KE= 2.269998404361D+02 PE=-7.762404193778D+02 EE= 2.002802910694D+02
 SMD-CDS (non-electrostatic) energy       (kcal/mol) =       3.59
 (included in total energy above)
 Leave Link  502 at Tue Sep 17 19:28:53 2024, MaxMem=   268435456 cpu:        22.1
 (Enter /g100_work/pMI24_ChiCa/g09d1/g09d01/d01/build-node-6-2-59348/src/main/l601.exe)
 Copying SCF densities to generalized density rwf, IOpCl= 0 IROHF=0.

 **********************************************************************

            Population analysis using the SCF density.

 **********************************************************************

 Orbital symmetries:
       Occupied  (A') (A') (A') (A') (A') (A') (A') (A') (A') (A')
                 (A") (A') (A') (A") (A") (A')
       Virtual   (A") (A') (A') (A') (A") (A') (A') (A") (A') (A')
                 (A') (A") (A') (A') (A") (A') (A') (A") (A') (A')
                 (A') (A') (A') (A') (A") (A') (A') (A") (A') (A')
                 (A") (A') (A') (A') (A') (A") (A') (A") (A') (A')
                 (A') (A") (A') (A") (A') (A') (A") (A') (A") (A')
                 (A') (A") (A') (A") (A') (A") (A') (A") (A') (A')
                 (A') (A") (A') (A") (A') (A') (A") (A') (A") (A')
                 (A') (A') (A') (A") (A') (A') (A') (A') (A') (A')
 The electronic state is 1-A'.
 Alpha  occ. eigenvalues --  -19.20792 -19.16332 -10.34503 -10.19088  -1.10851
 Alpha  occ. eigenvalues --   -1.02836  -0.76122  -0.61844  -0.50862  -0.48289
 Alpha  occ. eigenvalues --   -0.47191  -0.41395  -0.40478  -0.39643  -0.33642
 Alpha  occ. eigenvalues --   -0.29612
 Alpha virt. eigenvalues --   -0.01748   0.00788   0.04026   0.05444   0.06295
 Alpha virt. eigenvalues --    0.07857   0.08189   0.09518   0.12991   0.15907
 Alpha virt. eigenvalues --    0.17289   0.17708   0.20088   0.22583   0.24047
 Alpha virt. eigenvalues --    0.24498   0.25646   0.27454   0.27648   0.29010
 Alpha virt. eigenvalues --    0.33614   0.34596   0.36665   0.45825   0.63905
 Alpha virt. eigenvalues --    0.64649   0.67793   0.70290   0.75833   0.77614
 Alpha virt. eigenvalues --    0.92315   0.95993   0.99875   1.06543   1.10386
 Alpha virt. eigenvalues --    1.12400   1.13087   1.22173   1.24573   1.27696
 Alpha virt. eigenvalues --    1.30409   1.30622   1.32101   1.39877   1.50095
 Alpha virt. eigenvalues --    1.57361   1.58223   1.69911   1.70663   1.75357
 Alpha virt. eigenvalues --    1.80487   1.84007   1.92866   2.04017   2.04356
 Alpha virt. eigenvalues --    2.11993   2.15843   2.22033   2.22741   2.29900
 Alpha virt. eigenvalues --    2.44058   2.47207   2.53397   2.56390   2.67822
 Alpha virt. eigenvalues --    2.69503   2.72269   2.80381   2.90942   2.98398
 Alpha virt. eigenvalues --    3.09823   3.18053   3.33166   3.46274   3.47857
 Alpha virt. eigenvalues --    3.51654   4.13133   4.27680   4.34614   4.59653
          Condensed to atoms (all electrons):
               1          2          3          4          5          6
     1  C    4.675200   0.258780   0.458284  -0.014287   0.219044  -0.039146
     2  O    0.258780   8.286781  -0.129873   0.252596  -0.154508   0.001116
     3  O    0.458284  -0.129873   8.359247   0.004146  -0.135878   0.008062
     4  H   -0.014287   0.252596   0.004146   0.316764   0.025466  -0.000060
     5  C    0.219044  -0.154508  -0.135878   0.025466   5.326918   0.388647
     6  H   -0.039146   0.001116   0.008062  -0.000060   0.388647   0.501889
     7  H   -0.026262   0.002798  -0.008319  -0.000134   0.395962  -0.023974
     8  H   -0.026262   0.002798  -0.008319  -0.000134   0.395962  -0.023974
               7          8
     1  C   -0.026262  -0.026262
     2  O    0.002798   0.002798
     3  O   -0.008319  -0.008319
     4  H   -0.000134  -0.000134
     5  C    0.395962   0.395962
     6  H   -0.023974  -0.023974
     7  H    0.463049  -0.018980
     8  H   -0.018980   0.463049
 Mulliken charges:
               1
     1  C    0.494649
     2  O   -0.520487
     3  O   -0.547351
     4  H    0.415643
     5  C   -0.461613
     6  H    0.187439
     7  H    0.215860
     8  H    0.215860
 Sum of Mulliken charges =   0.00000
 Mulliken charges with hydrogens summed into heavy atoms:
               1
     1  C    0.494649
     2  O   -0.104844
     3  O   -0.547351
     5  C    0.157547
 Electronic spatial extent (au):  <R**2>=            259.5886
 Charge=             -0.0000 electrons
 Dipole moment (field-independent basis, Debye):
    X=              0.3311    Y=             -2.2210    Z=             -0.0000  Tot=              2.2456
 Quadrupole moment (field-independent basis, Debye-Ang):
   XX=            -20.4868   YY=            -27.4178   ZZ=            -23.2449
   XY=              6.0896   XZ=              0.0000   YZ=              0.0000
 Traceless Quadrupole moment (field-independent basis, Debye-Ang):
   XX=              3.2297   YY=             -3.7013   ZZ=              0.4716
   XY=              6.0896   XZ=              0.0000   YZ=              0.0000
 Octapole moment (field-independent basis, Debye-Ang**2):
  XXX=              9.1561  YYY=             -6.4249  ZZZ=             -0.0000  XYY=              3.4789
  XXY=              5.0659  XXZ=             -0.0000  XZZ=             -0.6510  YZZ=              0.3942
  YYZ=             -0.0000  XYZ=             -0.0000
 Hexadecapole moment (field-independent basis, Debye-Ang**3):
 XXXX=           -132.9418 YYYY=           -144.3866 ZZZZ=            -27.9099 XXXY=              4.1836
 XXXZ=              0.0000 YYYX=             -8.7555 YYYZ=              0.0000 ZZZX=              0.0000
 ZZZY=              0.0000 XXYY=            -47.7979 XXZZ=            -28.6884 YYZZ=            -28.3454
 XXYZ=              0.0000 YYXZ=              0.0000 ZZXY=             -2.4198
 N-N= 1.198500779999D+02 E-N=-7.762404189566D+02  KE= 2.269998404361D+02
 Symmetry A'   KE= 2.167100698740D+02
 Symmetry A"   KE= 1.028977056211D+01
 No NMR shielding tensors so no spin-rotation constants.
 Leave Link  601 at Tue Sep 17 19:28:53 2024, MaxMem=   268435456 cpu:         1.5
 (Enter /g100_work/pMI24_ChiCa/g09d1/g09d01/d01/build-node-6-2-59348/src/main/l701.exe)
 Compute integral first derivatives.
 ... and contract with generalized density number  0.
 D1PCM: PCM CHGder 1st derivatives, ID1Alg=3 FixD1E=F DoIter=F DoCFld=F I1PDM=0.
 GePol: Maximum number of non-zero 1st derivatives   =     265
 Leave Link  701 at Tue Sep 17 19:28:53 2024, MaxMem=   268435456 cpu:         4.2
 (Enter /g100_work/pMI24_ChiCa/g09d1/g09d01/d01/build-node-6-2-59348/src/main/l702.exe)
 L702 exits ... SP integral derivatives will be done elsewhere.
 Leave Link  702 at Tue Sep 17 19:28:53 2024, MaxMem=   268435456 cpu:         0.1
 (Enter /g100_work/pMI24_ChiCa/g09d1/g09d01/d01/build-node-6-2-59348/src/main/l703.exe)
 Compute integral first derivatives, UseDBF=F ICtDFT=           0.
 Integral derivatives from FoFJK, PRISM(SPDF).
 Calling FoFJK, ICntrl=      2127 FMM=F ISym2X=1 I1Cent= 0 IOpClX= 0 NMat=1 NMatS=1 NMatT=0.
 FoFJK:  IHMeth= 1 ICntrl=    2127 DoSepK=F KAlg= 0 I1Cent=   0 FoldK=F
 IRaf=         0 NMat=   1 IRICut=       1 DoRegI=T DoRafI=F ISym2E= 1.
 FoFCou: FMM=F IPFlag=           0 FMFlag=      100000 FMFlg1=         800
         NFxFlg=           0 DoJE=F BraDBF=F KetDBF=F FulRan=T
         wScrn=  0.000000 ICntrl=    2127 IOpCl=  0 I1Cent=           0 NGrid=           0
         NMat0=    1 NMatS0=      1 NMatT0=    0 NMatD0=    1 NMtDS0=    0 NMtDT0=    0
 Petite list used in FoFCou.
 Leave Link  703 at Tue Sep 17 19:28:54 2024, MaxMem=   268435456 cpu:         3.8
 (Enter /g100_work/pMI24_ChiCa/g09d1/g09d01/d01/build-node-6-2-59348/src/main/l716.exe)
 Dipole        = 1.30249880D-01-8.73816091D-01-2.22044605D-16
 ***** Axes restored to original set *****
 -------------------------------------------------------------------
 Center     Atomic                   Forces (Hartrees/Bohr)
 Number     Number              X              Y              Z
 -------------------------------------------------------------------
      1        6           0.014878618    0.000000000    0.011709308
      2        8          -0.040348867   -0.000000000   -0.038262511
      3        8           0.009776119    0.000000000    0.002078435
      4        1           0.025049637   -0.000000000    0.004016731
      5        6           0.003031211   -0.000000000    0.031926627
      6        1          -0.015326075   -0.000000000    0.007002262
      7        1           0.001469679    0.012854739   -0.009235426
      8        1           0.001469679   -0.012854739   -0.009235426
 -------------------------------------------------------------------
 Cartesian Forces:  Max     0.040348867 RMS     0.015827002
 Leave Link  716 at Tue Sep 17 19:28:54 2024, MaxMem=   268435456 cpu:         0.1
 (Enter /g100_work/pMI24_ChiCa/g09d1/g09d01/d01/build-node-6-2-59348/src/main/l103.exe)

 GradGradGradGradGradGradGradGradGradGradGradGradGradGradGradGradGradGrad
 Berny optimization.
 FormGI is forming the generalized inverse of G from B-inverse, IUseBI=4.
 Internal  Forces:  Max     0.034191531 RMS     0.012654504
 Search for a local minimum.
 Step number   1 out of a maximum of   35
 All quantities printed in internal units (Hartrees-Bohrs-Radians)
 RMS Force = .12655D-01 SwitMx=.10000D-02 MixMth= 1
 Mixed Optimization -- RFO/linear search
 Second derivative matrix not updated -- first step.
 ITU=  0
     Eigenvalues ---    0.00766   0.00997   0.01692   0.07537   0.07537
     Eigenvalues ---    0.16000   0.16000   0.16000   0.16000   0.25000
     Eigenvalues ---    0.25000   0.32377   0.37230   0.37230   0.37230
     Eigenvalues ---    0.45621   0.57681   0.95383
 RFO step:  Lambda=-1.14591907D-02 EMin= 7.65947438D-03
 Linear search not attempted -- first point.
 Iteration  1 RMS(Cart)=  0.05250137 RMS(Int)=  0.00137721
 Iteration  2 RMS(Cart)=  0.00145226 RMS(Int)=  0.00027168
 Iteration  3 RMS(Cart)=  0.00000167 RMS(Int)=  0.00027168
 Iteration  4 RMS(Cart)=  0.00000000 RMS(Int)=  0.00027168
 ITry= 1 IFail=0 DXMaxC= 1.19D-01 DCOld= 1.00D+10 DXMaxT= 3.00D-01 DXLimC= 3.00D+00 Rises=F
 ClnCor:  largest displacement from symmetrization is 3.57D-10 for atom     4.
 Variable       Old X    -DE/DX   Delta X   Delta X   Delta X     New X
                                 (Linear)    (Quad)   (Total)
    R1        2.64562  -0.03419   0.00000  -0.07311  -0.07311   2.57251
    R2        2.30547   0.00742   0.00000   0.00768   0.00768   2.31315
    R3        2.83459  -0.00214   0.00000  -0.00639  -0.00639   2.82819
    R4        1.79524   0.02492   0.00000   0.04236   0.04236   1.83760
    R5        2.02201   0.01617   0.00000   0.04214   0.04214   2.06415
    R6        2.02201   0.01574   0.00000   0.04101   0.04101   2.06302
    R7        2.02201   0.01574   0.00000   0.04101   0.04101   2.06302
    A1        2.09440   0.00570   0.00000   0.02181   0.02181   2.11621
    A2        2.09440  -0.02693   0.00000  -0.10300  -0.10300   1.99140
    A3        2.09440   0.02123   0.00000   0.08118   0.08118   2.17558
    A4        1.91063  -0.00809   0.00000  -0.04720  -0.04720   1.86343
    A5        1.91063   0.00864   0.00000   0.05728   0.05740   1.96803
    A6        1.91063  -0.00402   0.00000  -0.02687  -0.02722   1.88341
    A7        1.91063  -0.00402   0.00000  -0.02687  -0.02722   1.88341
    A8        1.91063  -0.00080   0.00000   0.00218   0.00230   1.91293
    A9        1.91063  -0.00080   0.00000   0.00218   0.00230   1.91293
   A10        1.91063   0.00100   0.00000  -0.00791  -0.00881   1.90182
    D1       -0.00000   0.00000   0.00000   0.00000   0.00000   0.00000
    D2        3.14159   0.00000   0.00000   0.00000   0.00000   3.14159
    D3        0.00000  -0.00000   0.00000  -0.00000   0.00000   0.00000
    D4        2.09440   0.00185   0.00000   0.02130   0.02087   2.11526
    D5       -2.09440  -0.00185   0.00000  -0.02130  -0.02087  -2.11526
    D6        3.14159  -0.00000   0.00000  -0.00000   0.00000   3.14159
    D7       -1.04720   0.00185   0.00000   0.02130   0.02087  -1.02633
    D8        1.04720  -0.00185   0.00000  -0.02130  -0.02087   1.02633
         Item               Value     Threshold  Converged?
 Maximum Force            0.034192     0.000450     NO 
 RMS     Force            0.012655     0.000300     NO 
 Maximum Displacement     0.119024     0.001800     NO 
 RMS     Displacement     0.052610     0.001200     NO 
 Predicted change in Energy=-5.946880D-03
 Lowest energy point so far.  Saving SCF results.
 GradGradGradGradGradGradGradGradGradGradGradGradGradGradGradGradGradGrad

 Leave Link  103 at Tue Sep 17 19:28:54 2024, MaxMem=   268435456 cpu:         1.6
 (Enter /g100_work/pMI24_ChiCa/g09d1/g09d01/d01/build-node-6-2-59348/src/main/l202.exe)
                          Input orientation:                          
 ---------------------------------------------------------------------
 Center     Atomic      Atomic             Coordinates (Angstroms)
 Number     Number       Type             X           Y           Z
 ---------------------------------------------------------------------
      1          6           0        0.030461    0.000000   -0.021813
      2          8           0       -0.051718    0.000000    1.337015
      3          8           0        1.113357    0.000000   -0.592491
      4          1           0        0.860727    0.000000    1.673229
      5          6           0       -1.296333   -0.000000   -0.714256
      6          1           0       -2.136987   -0.000000   -0.016818
      7          1           0       -1.345044    0.888586   -1.346599
      8          1           0       -1.345044   -0.888586   -1.346599
 ---------------------------------------------------------------------
                    Distance matrix (angstroms):
                    1          2          3          4          5
     1  C    0.000000
     2  O    1.361311   0.000000
     3  O    1.224066   2.253973   0.000000
     4  H    1.887461   0.972417   2.279760   0.000000
     5  C    1.496616   2.399330   2.412765   3.217607   0.000000
     6  H    2.167454   2.486204   3.300929   3.441300   1.092300
     7  H    2.106337   3.108708   2.720661   3.843744   1.091703
     8  H    2.106337   3.108708   2.720661   3.843744   1.091703
                    6          7          8
     6  H    0.000000
     7  H    1.784679   0.000000
     8  H    1.784679   1.777172   0.000000
 Stoichiometry    C2H4O2
 Framework group  CS[SG(C2H2O2),X(H2)]
 Deg. of freedom    12
 Full point group                 CS      NOp   2
 RotChk:  IX=0 Diff= 8.88D-02
 Largest Abelian subgroup         CS      NOp   2
 Largest concise Abelian subgroup CS      NOp   2
                         Standard orientation:                         
 ---------------------------------------------------------------------
 Center     Atomic      Atomic             Coordinates (Angstroms)
 Number     Number       Type             X           Y           Z
 ---------------------------------------------------------------------
      1          6           0        0.000000    0.131807   -0.000000
      2          8           0        1.279177   -0.333891    0.000000
      3          8           0       -0.238703    1.332373   -0.000000
      4          1           0        1.861287    0.445046   -0.000000
      5          6           0       -1.041578   -0.942891    0.000000
      6          1           0       -0.612384   -1.947337    0.000000
      7          1           0       -1.661614   -0.809528    0.888586
      8          1           0       -1.661614   -0.809528   -0.888586
 ---------------------------------------------------------------------
 Rotational constants (GHZ):     11.3175192      9.3186809      5.2806240
 Leave Link  202 at Tue Sep 17 19:28:54 2024, MaxMem=   268435456 cpu:         0.1
 (Enter /g100_work/pMI24_ChiCa/g09d1/g09d01/d01/build-node-6-2-59348/src/main/l301.exe)
 Standard basis: 6-31+G(d,p) (6D, 7F)
 Ernie: Thresh=  0.10000D-02 Tol=  0.10000D-05 Strict=F.
 There are    69 symmetry adapted cartesian basis functions of A'  symmetry.
 There are    27 symmetry adapted cartesian basis functions of A"  symmetry.
 There are    69 symmetry adapted basis functions of A'  symmetry.
 There are    27 symmetry adapted basis functions of A"  symmetry.
    96 basis functions,   156 primitive gaussians,    96 cartesian basis functions
    16 alpha electrons       16 beta electrons
       nuclear repulsion energy       120.5017803941 Hartrees.
 IExCor=  402 DFT=T Ex+Corr=B3LYP ExCW=0 ScaHFX=  0.200000
 ScaDFX=  0.800000  0.720000  1.000000  0.810000 ScalE2=  1.000000  1.000000
 IRadAn=      0 IRanWt=     -1 IRanGd=            0 ICorTp=0 IEmpDi=  4
 NAtoms=    8 NActive=    8 NUniq=    7 SFac= 1.31D+00 NAtFMM=   60 NAOKFM=F Big=F
 Integral buffers will be    131072 words long.
 Raffenetti 2 integral format.
 Two-electron integral symmetry is turned on.
 ------------------------------------------------------------------------------
 Polarizable Continuum Model (PCM)
 =================================
 Model                : PCM (using non-symmetric T matrix).
 Atomic radii         : SMD-Coulomb.
 Polarization charges : Total charges.
 Charge compensation  : None.
 Solution method      : On-the-fly selection.
 Cavity type          : VdW (van der Waals Surface) (Alpha=1.000).
 Cavity algorithm     : GePol (No added spheres)
                        Default sphere list used, NSphG=    8.
                        Lebedev-Laikov grids with approx.  5.0 points / Ang**2.
                        Smoothing algorithm: Karplus/York (Gamma=1.0000).
                        Polarization charges: spherical gaussians, with
                                              point-specific exponents (IZeta= 3).
                        Self-potential: point-specific (ISelfS= 7).
                        Self-field    : sphere-specific E.n sum rule (ISelfD= 2).
 1st derivatives      : Analytical E(r).r(x)/FMM algorithm (CHGder, D1EAlg=3).
                        Cavity 1st derivative terms included.
 Solvent              : Water, Eps=  78.355300 Eps(inf)=   1.777849
 ------------------------------------------------------------------------------
 Spheres list:
 ISph  on   Nord     Re0    Alpha      Xe            Ye            Ze
    1   C      1    1.8500  1.000      0.000000      0.131807     -0.000000
    2   O      2    1.5200  1.000      1.279177     -0.333891      0.000000
    3   O      3    1.5200  1.000     -0.238703      1.332373      0.000000
    4   H      4    1.2000  1.000      1.861287      0.445046      0.000000
    5   C      5    1.8500  1.000     -1.041578     -0.942891     -0.000000
    6   H      6    1.2000  1.000     -0.612384     -1.947337     -0.000000
    7   H      7    1.2000  1.000     -1.661614     -0.809528      0.888586
    8   H      8    1.2000  1.000     -1.661614     -0.809528     -0.888586
 ------------------------------------------------------------------------------
 GePol: Number of generator spheres                  =       8
 GePol: Total number of spheres                      =       8
 GePol: Number of exposed spheres                    =       8 (100.00%)
 GePol: Number of points                             =     649
 GePol: Average weight of points                     =       0.13
 GePol: Minimum weight of points                     =   0.45D-09
 GePol: Maximum weight of points                     =    0.21991
 GePol: Number of points with low weight             =      36
 GePol: Fraction of low-weight points (<1% of avg)   =       5.55%
 GePol: Cavity surface area                          =     84.099 Ang**2
 GePol: Cavity volume                                =     59.467 Ang**3
 ------------------------------------------------------------------------------
 Atomic radii for non-electrostatic terms: SMD-CDS.
 ------------------------------------------------------------------------------
 PCM non-electrostatic energy =         0.0060988046 Hartrees.
 Nuclear repulsion after PCM non-electrostatic terms =      120.5078791987 Hartrees.
 Leave Link  301 at Tue Sep 17 19:28:54 2024, MaxMem=   268435456 cpu:         0.1
 (Enter /g100_work/pMI24_ChiCa/g09d1/g09d01/d01/build-node-6-2-59348/src/main/l302.exe)
 NPDir=0 NMtPBC=     1 NCelOv=     1 NCel=       1 NClECP=     1 NCelD=      1
         NCelK=      1 NCelE2=     1 NClLst=     1 CellRange=     0.0.
 One-electron integrals computed using PRISM.
 One-electron integral symmetry used in STVInt
 NBasis=    96 RedAO= T EigKep=  3.05D-04  NBF=    69    27
 NBsUse=    96 1.00D-06 EigRej= -1.00D+00 NBFU=    69    27
 Precomputing XC quadrature grid using
 IXCGrd= 4 IRadAn=           0 IRanWt=          -1 IRanGd=           0 AccXCQ= 0.00D+00.
 Generated NRdTot=       0 NPtTot=           0 NUsed=           0 NTot=          32
 NSgBfM=    96    96    96    96    96 MxSgAt=     8 MxSgA2=     8.
 Leave Link  302 at Tue Sep 17 19:28:54 2024, MaxMem=   268435456 cpu:         1.4
 (Enter /g100_work/pMI24_ChiCa/g09d1/g09d01/d01/build-node-6-2-59348/src/main/l303.exe)
 DipDrv:  MaxL=1.
 Leave Link  303 at Tue Sep 17 19:28:54 2024, MaxMem=   268435456 cpu:         0.2
 (Enter /g100_work/pMI24_ChiCa/g09d1/g09d01/d01/build-node-6-2-59348/src/main/l401.exe)
 Initial guess from the checkpoint file:  "/g100_scratch/userexternal/ecabiati/g16_14420038/Gau-53348.chk"
 B after Tr=    -0.000000   -0.000000    0.000000
         Rot=    0.999312   -0.000000   -0.000000    0.037091 Ang=   4.25 deg.
 Guess basis will be translated and rotated to current coordinates.
 JPrj=2 DoOrth=T DoCkMO=T.
 Initial guess orbital symmetries:
       Occupied  (A') (A') (A') (A') (A') (A') (A') (A') (A') (A')
                 (A") (A') (A') (A") (A") (A')
       Virtual   (A') (A') (A') (A') (A') (A') (A') (A') (A') (A')
                 (A') (A') (A') (A') (A') (A') (A') (A') (A') (A')
                 (A') (A') (A') (A') (A') (A') (A') (A') (A') (A')
                 (A') (A') (A') (A') (A') (A') (A') (A') (A') (A')
                 (A') (A') (A') (A') (A') (A') (A') (A') (A') (A')
                 (A') (A') (A') (A') (A') (A') (A") (A") (A") (A")
                 (A") (A") (A") (A") (A") (A") (A") (A") (A") (A")
                 (A") (A") (A") (A") (A") (A") (A") (A") (A") (A")
 The electronic state of the initial guess is 1-A'.
 Generating alternative initial guess.
 ExpMin= 4.38D-02 ExpMax= 5.48D+03 ExpMxC= 8.25D+02 IAcc=2 IRadAn=         4 AccDes= 0.00D+00
 Harris functional with IExCor=  402 and IRadAn=       4 diagonalized for initial guess.
 HarFok:  IExCor=  402 AccDes= 0.00D+00 IRadAn=         4 IDoV= 1 UseB2=F ITyADJ=14
 ICtDFT=  3500011 ScaDFX=  1.000000  1.000000  1.000000  1.000000
 FoFCou: FMM=F IPFlag=           0 FMFlag=      100000 FMFlg1=           0
         NFxFlg=           0 DoJE=T BraDBF=F KetDBF=T FulRan=T
         wScrn=  0.000000 ICntrl=     500 IOpCl=  0 I1Cent=   200000004 NGrid=           0
         NMat0=    1 NMatS0=      1 NMatT0=    0 NMatD0=    1 NMtDS0=    0 NMtDT0=    0
 Petite list used in FoFCou.
 Harris En= -229.127922117128    
 Leave Link  401 at Tue Sep 17 19:28:54 2024, MaxMem=   268435456 cpu:         1.8
 (Enter /g100_work/pMI24_ChiCa/g09d1/g09d01/d01/build-node-6-2-59348/src/main/l502.exe)
 Closed shell SCF:
 Using DIIS extrapolation, IDIIS=  1040.
 Integral symmetry usage will be decided dynamically.
 Keep R1 ints in memory in symmetry-blocked form, NReq=16539583.
 IVT=       49354 IEndB=       49354 NGot=   268435456 MDV=   262737466
 LenX=   262737466 LenY=   262727809
 Requested convergence on RMS density matrix=1.00D-08 within 128 cycles.
 Requested convergence on MAX density matrix=1.00D-06.
 Requested convergence on             energy=1.00D-06.
 No special actions if energy rises.
 FoFCou: FMM=F IPFlag=           0 FMFlag=           0 FMFlg1=           0
         NFxFlg=           0 DoJE=F BraDBF=F KetDBF=F FulRan=T
         wScrn=  0.000000 ICntrl=     600 IOpCl=  0 I1Cent=           0 NGrid=           0
         NMat0=    1 NMatS0=   4656 NMatT0=    0 NMatD0=    1 NMtDS0=    0 NMtDT0=    0
 Petite list used in FoFCou.

 Cycle   1  Pass 1  IDiag  1:
 Inv3:  Mode=1 IEnd=     1263603.
 Iteration    1 A*A^-1 deviation from unit magnitude is 3.11D-15 for    104.
 Iteration    1 A*A^-1 deviation from orthogonality  is 2.46D-15 for    377    201.
 Iteration    1 A^-1*A deviation from unit magnitude is 4.22D-15 for    378.
 Iteration    1 A^-1*A deviation from orthogonality  is 1.45D-12 for    500    412.
 E= -229.113413745507    
 DIIS: error= 2.99D-03 at cycle   1 NSaved=   1.
 NSaved= 1 IEnMin= 1 EnMin= -229.113413745507     IErMin= 1 ErrMin= 2.99D-03
 ErrMax= 2.99D-03  0.00D+00 EMaxC= 1.00D-01 BMatC= 1.75D-03 BMatP= 1.75D-03
 IDIUse=3 WtCom= 9.70D-01 WtEn= 2.99D-02
 Coeff-Com:  0.100D+01
 Coeff-En:   0.100D+01
 Coeff:      0.100D+01
 Gap=     0.480 Goal=   None    Shift=    0.000
 GapD=    0.480 DampG=2.000 DampE=1.000 DampFc=2.0000 IDamp=-1.
 RMSDP=9.15D-04 MaxDP=1.42D-02              OVMax= 1.79D-02

 Cycle   2  Pass 1  IDiag  1:
 E= -229.115820185845     Delta-E=       -0.002406440337 Rises=F Damp=F
 DIIS: error= 1.33D-03 at cycle   2 NSaved=   2.
 NSaved= 2 IEnMin= 2 EnMin= -229.115820185845     IErMin= 2 ErrMin= 1.33D-03
 ErrMax= 1.33D-03  0.00D+00 EMaxC= 1.00D-01 BMatC= 3.15D-04 BMatP= 1.75D-03
 IDIUse=3 WtCom= 9.87D-01 WtEn= 1.33D-02
 Coeff-Com:  0.178D+00 0.822D+00
 Coeff-En:   0.000D+00 0.100D+01
 Coeff:      0.176D+00 0.824D+00
 Gap=     0.285 Goal=   None    Shift=    0.000
 RMSDP=2.92D-04 MaxDP=6.37D-03 DE=-2.41D-03 OVMax= 1.06D-02

 Cycle   3  Pass 1  IDiag  1:
 E= -229.115747454259     Delta-E=        0.000072731585 Rises=F Damp=F
 DIIS: error= 2.24D-03 at cycle   3 NSaved=   3.
 NSaved= 3 IEnMin= 2 EnMin= -229.115820185845     IErMin= 2 ErrMin= 1.33D-03
 ErrMax= 2.24D-03  0.00D+00 EMaxC= 1.00D-01 BMatC= 4.44D-04 BMatP= 3.15D-04
 IDIUse=3 WtCom= 1.74D-01 WtEn= 8.26D-01
 Coeff-Com: -0.429D-02 0.547D+00 0.458D+00
 Coeff-En:   0.000D+00 0.551D+00 0.449D+00
 Coeff:     -0.748D-03 0.550D+00 0.450D+00
 Gap=     0.288 Goal=   None    Shift=    0.000
 RMSDP=1.67D-04 MaxDP=4.84D-03 DE= 7.27D-05 OVMax= 8.00D-03

 Cycle   4  Pass 1  IDiag  1:
 E= -229.116075939075     Delta-E=       -0.000328484816 Rises=F Damp=F
 DIIS: error= 4.36D-04 at cycle   4 NSaved=   4.
 NSaved= 4 IEnMin= 4 EnMin= -229.116075939075     IErMin= 4 ErrMin= 4.36D-04
 ErrMax= 4.36D-04  0.00D+00 EMaxC= 1.00D-01 BMatC= 2.22D-05 BMatP= 3.15D-04
 IDIUse=3 WtCom= 9.96D-01 WtEn= 4.36D-03
 Coeff-Com: -0.182D-01 0.261D+00 0.262D+00 0.495D+00
 Coeff-En:   0.000D+00 0.000D+00 0.000D+00 0.100D+01
 Coeff:     -0.181D-01 0.260D+00 0.261D+00 0.497D+00
 Gap=     0.287 Goal=   None    Shift=    0.000
 RMSDP=3.93D-05 MaxDP=8.54D-04 DE=-3.28D-04 OVMax= 1.21D-03

 Cycle   5  Pass 1  IDiag  1:
 E= -229.116093189328     Delta-E=       -0.000017250252 Rises=F Damp=F
 DIIS: error= 4.91D-05 at cycle   5 NSaved=   5.
 NSaved= 5 IEnMin= 5 EnMin= -229.116093189328     IErMin= 5 ErrMin= 4.91D-05
 ErrMax= 4.91D-05  0.00D+00 EMaxC= 1.00D-01 BMatC= 5.08D-07 BMatP= 2.22D-05
 IDIUse=1 WtCom= 1.00D+00 WtEn= 0.00D+00
 Coeff-Com: -0.531D-02 0.519D-01 0.576D-01 0.185D+00 0.710D+00
 Coeff:     -0.531D-02 0.519D-01 0.576D-01 0.185D+00 0.710D+00
 Gap=     0.287 Goal=   None    Shift=    0.000
 RMSDP=7.56D-06 MaxDP=1.34D-04 DE=-1.73D-05 OVMax= 2.00D-04

 Cycle   6  Pass 1  IDiag  1:
 E= -229.116093604762     Delta-E=       -0.000000415434 Rises=F Damp=F
 DIIS: error= 1.92D-05 at cycle   6 NSaved=   6.
 NSaved= 6 IEnMin= 6 EnMin= -229.116093604762     IErMin= 6 ErrMin= 1.92D-05
 ErrMax= 1.92D-05  0.00D+00 EMaxC= 1.00D-01 BMatC= 2.74D-08 BMatP= 5.08D-07
 IDIUse=1 WtCom= 1.00D+00 WtEn= 0.00D+00
 Coeff-Com: -0.148D-02 0.116D-01 0.143D-01 0.574D-01 0.291D+00 0.628D+00
 Coeff:     -0.148D-02 0.116D-01 0.143D-01 0.574D-01 0.291D+00 0.628D+00
 Gap=     0.287 Goal=   None    Shift=    0.000
 RMSDP=1.92D-06 MaxDP=4.85D-05 DE=-4.15D-07 OVMax= 4.60D-05

 Cycle   7  Pass 1  IDiag  1:
 E= -229.116093618840     Delta-E=       -0.000000014079 Rises=F Damp=F
 DIIS: error= 1.06D-05 at cycle   7 NSaved=   7.
 NSaved= 7 IEnMin= 7 EnMin= -229.116093618840     IErMin= 7 ErrMin= 1.06D-05
 ErrMax= 1.06D-05  0.00D+00 EMaxC= 1.00D-01 BMatC= 8.46D-09 BMatP= 2.74D-08
 IDIUse=1 WtCom= 1.00D+00 WtEn= 0.00D+00
 Coeff-Com:  0.922D-04-0.327D-02-0.241D-02-0.166D-02 0.390D-01 0.376D+00
 Coeff-Com:  0.593D+00
 Coeff:      0.922D-04-0.327D-02-0.241D-02-0.166D-02 0.390D-01 0.376D+00
 Coeff:      0.593D+00
 Gap=     0.287 Goal=   None    Shift=    0.000
 RMSDP=6.99D-07 MaxDP=1.76D-05 DE=-1.41D-08 OVMax= 1.85D-05

 Cycle   8  Pass 1  IDiag  1:
 E= -229.116093624936     Delta-E=       -0.000000006096 Rises=F Damp=F
 DIIS: error= 1.00D-06 at cycle   8 NSaved=   8.
 NSaved= 8 IEnMin= 8 EnMin= -229.116093624936     IErMin= 8 ErrMin= 1.00D-06
 ErrMax= 1.00D-06  0.00D+00 EMaxC= 1.00D-01 BMatC= 1.11D-10 BMatP= 8.46D-09
 IDIUse=1 WtCom= 1.00D+00 WtEn= 0.00D+00
 Coeff-Com:  0.665D-04-0.133D-02-0.953D-03-0.233D-02 0.444D-02 0.993D-01
 Coeff-Com:  0.184D+00 0.717D+00
 Coeff:      0.665D-04-0.133D-02-0.953D-03-0.233D-02 0.444D-02 0.993D-01
 Coeff:      0.184D+00 0.717D+00
 Gap=     0.287 Goal=   None    Shift=    0.000
 RMSDP=1.41D-07 MaxDP=2.25D-06 DE=-6.10D-09 OVMax= 3.55D-06

 Cycle   9  Pass 1  IDiag  1:
 E= -229.116093625033     Delta-E=       -0.000000000097 Rises=F Damp=F
 DIIS: error= 2.76D-07 at cycle   9 NSaved=   9.
 NSaved= 9 IEnMin= 9 EnMin= -229.116093625033     IErMin= 9 ErrMin= 2.76D-07
 ErrMax= 2.76D-07  0.00D+00 EMaxC= 1.00D-01 BMatC= 1.29D-11 BMatP= 1.11D-10
 IDIUse=1 WtCom= 1.00D+00 WtEn= 0.00D+00
 Coeff-Com:  0.240D-04-0.278D-03-0.161D-03-0.969D-03-0.190D-02 0.697D-02
 Coeff-Com:  0.197D-01 0.290D+00 0.687D+00
 Coeff:      0.240D-04-0.278D-03-0.161D-03-0.969D-03-0.190D-02 0.697D-02
 Coeff:      0.197D-01 0.290D+00 0.687D+00
 Gap=     0.287 Goal=   None    Shift=    0.000
 RMSDP=4.43D-08 MaxDP=7.51D-07 DE=-9.69D-11 OVMax= 9.90D-07

 Cycle  10  Pass 1  IDiag  1:
 E= -229.116093625044     Delta-E=       -0.000000000011 Rises=F Damp=F
 DIIS: error= 4.64D-08 at cycle  10 NSaved=  10.
 NSaved=10 IEnMin=10 EnMin= -229.116093625044     IErMin=10 ErrMin= 4.64D-08
 ErrMax= 4.64D-08  0.00D+00 EMaxC= 1.00D-01 BMatC= 2.38D-13 BMatP= 1.29D-11
 IDIUse=1 WtCom= 1.00D+00 WtEn= 0.00D+00
 Coeff-Com:  0.141D-05 0.632D-05 0.168D-04-0.105D-03-0.511D-03-0.315D-02
 Coeff-Com: -0.518D-02 0.142D-01 0.121D+00 0.873D+00
 Coeff:      0.141D-05 0.632D-05 0.168D-04-0.105D-03-0.511D-03-0.315D-02
 Coeff:     -0.518D-02 0.142D-01 0.121D+00 0.873D+00
 Gap=     0.287 Goal=   None    Shift=    0.000
 RMSDP=7.44D-09 MaxDP=1.16D-07 DE=-1.13D-11 OVMax= 1.38D-07

 Error on total polarization charges =  0.04023
 SCF Done:  E(RB3LYP) =  -229.116093625     A.U. after   10 cycles
            NFock= 10  Conv=0.74D-08     -V/T= 2.0095
 KE= 2.269515924179D+02 PE=-7.775085740060D+02 EE= 2.009330087643D+02
 SMD-CDS (non-electrostatic) energy       (kcal/mol) =       3.83
 (included in total energy above)
 Leave Link  502 at Tue Sep 17 19:28:55 2024, MaxMem=   268435456 cpu:        20.5
 (Enter /g100_work/pMI24_ChiCa/g09d1/g09d01/d01/build-node-6-2-59348/src/main/l701.exe)
 Compute integral first derivatives.
 ... and contract with generalized density number  0.
 D1PCM: PCM CHGder 1st derivatives, ID1Alg=3 FixD1E=F DoIter=F DoCFld=F I1PDM=0.
 GePol: Maximum number of non-zero 1st derivatives   =     247
 Leave Link  701 at Tue Sep 17 19:28:56 2024, MaxMem=   268435456 cpu:         4.2
 (Enter /g100_work/pMI24_ChiCa/g09d1/g09d01/d01/build-node-6-2-59348/src/main/l702.exe)
 L702 exits ... SP integral derivatives will be done elsewhere.
 Leave Link  702 at Tue Sep 17 19:28:56 2024, MaxMem=   268435456 cpu:         0.1
 (Enter /g100_work/pMI24_ChiCa/g09d1/g09d01/d01/build-node-6-2-59348/src/main/l703.exe)
 Compute integral first derivatives, UseDBF=F ICtDFT=           0.
 Integral derivatives from FoFJK, PRISM(SPDF).
 Calling FoFJK, ICntrl=      2127 FMM=F ISym2X=1 I1Cent= 0 IOpClX= 0 NMat=1 NMatS=1 NMatT=0.
 FoFJK:  IHMeth= 1 ICntrl=    2127 DoSepK=F KAlg= 0 I1Cent=   0 FoldK=F
 IRaf=         0 NMat=   1 IRICut=       1 DoRegI=T DoRafI=F ISym2E= 1.
 FoFCou: FMM=F IPFlag=           0 FMFlag=      100000 FMFlg1=         800
         NFxFlg=           0 DoJE=F BraDBF=F KetDBF=F FulRan=T
         wScrn=  0.000000 ICntrl=    2127 IOpCl=  0 I1Cent=           0 NGrid=           0
         NMat0=    1 NMatS0=      1 NMatT0=    0 NMatD0=    1 NMtDS0=    0 NMtDT0=    0
 Petite list used in FoFCou.
 Leave Link  703 at Tue Sep 17 19:28:56 2024, MaxMem=   268435456 cpu:         3.7
 (Enter /g100_work/pMI24_ChiCa/g09d1/g09d01/d01/build-node-6-2-59348/src/main/l716.exe)
 Dipole        = 1.66219887D-01-9.37809150D-01 0.00000000D+00
 ***** Axes restored to original set *****
 -------------------------------------------------------------------
 Center     Atomic                   Forces (Hartrees/Bohr)
 Number     Number              X              Y              Z
 -------------------------------------------------------------------
      1        6          -0.001653215   -0.000000000    0.006297940
      2        8          -0.001240563    0.000000000   -0.008490549
      3        8           0.000914758   -0.000000000   -0.000767757
      4        1           0.002531218   -0.000000000    0.004077144
      5        6          -0.000744360    0.000000000    0.003724740
      6        1           0.001845324   -0.000000000   -0.000191208
      7        1          -0.000826581    0.000138857   -0.002325155
      8        1          -0.000826581   -0.000138857   -0.002325155
 -------------------------------------------------------------------
 Cartesian Forces:  Max     0.008490549 RMS     0.002665905
 Leave Link  716 at Tue Sep 17 19:28:56 2024, MaxMem=   268435456 cpu:         0.1
 (Enter /g100_work/pMI24_ChiCa/g09d1/g09d01/d01/build-node-6-2-59348/src/main/l103.exe)

 GradGradGradGradGradGradGradGradGradGradGradGradGradGradGradGradGradGrad
 Berny optimization.
 Using GEDIIS/GDIIS optimizer.
 FormGI is forming the generalized inverse of G from B-inverse, IUseBI=4.
 Internal  Forces:  Max     0.005360702 RMS     0.001940820
 Search for a local minimum.
 Step number   2 out of a maximum of   35
 All quantities printed in internal units (Hartrees-Bohrs-Radians)
 RMS Force = .19408D-02 SwitMx=.10000D-02 MixMth= 1
 Mixed Optimization -- RFO/linear search
 Update second derivatives using D2CorX and points    1    2
 DE= -5.88D-03 DEPred=-5.95D-03 R= 9.89D-01
 TightC=F SS=  1.41D+00  RLast= 1.97D-01 DXNew= 5.0454D-01 5.9161D-01
 Trust test= 9.89D-01 RLast= 1.97D-01 DXMaxT set to 5.05D-01
 ITU=  1  0
 Use linear search instead of GDIIS.
     Eigenvalues ---    0.00766   0.00984   0.01692   0.07210   0.07769
     Eigenvalues ---    0.15932   0.16000   0.16000   0.17108   0.24786
     Eigenvalues ---    0.25567   0.32427   0.36515   0.37230   0.37988
     Eigenvalues ---    0.43597   0.56580   0.95261
 RFO step:  Lambda=-4.15236811D-04 EMin= 7.65947438D-03
 Quartic linear search produced a step of  0.03012.
 Iteration  1 RMS(Cart)=  0.01524656 RMS(Int)=  0.00027659
 Iteration  2 RMS(Cart)=  0.00026660 RMS(Int)=  0.00002031
 Iteration  3 RMS(Cart)=  0.00000008 RMS(Int)=  0.00002031
 ITry= 1 IFail=0 DXMaxC= 4.52D-02 DCOld= 1.00D+10 DXMaxT= 5.05D-01 DXLimC= 3.00D+00 Rises=F
 ClnCor:  largest displacement from symmetrization is 5.52D-10 for atom     4.
 Variable       Old X    -DE/DX   Delta X   Delta X   Delta X     New X
                                 (Linear)    (Quad)   (Total)
    R1        2.57251  -0.00452  -0.00220  -0.01070  -0.01290   2.55961
    R2        2.31315   0.00117   0.00023   0.00132   0.00155   2.31470
    R3        2.82819   0.00102  -0.00019   0.00319   0.00300   2.83120
    R4        1.83760   0.00381   0.00128   0.00709   0.00836   1.84597
    R5        2.06415  -0.00153   0.00127  -0.00393  -0.00266   2.06148
    R6        2.06302   0.00149   0.00124   0.00439   0.00563   2.06865
    R7        2.06302   0.00149   0.00124   0.00439   0.00563   2.06865
    A1        2.11621   0.00108   0.00066   0.00458   0.00524   2.12145
    A2        1.99140  -0.00151  -0.00310  -0.00687  -0.00997   1.98143
    A3        2.17558   0.00043   0.00245   0.00228   0.00473   2.18031
    A4        1.86343   0.00536  -0.00142   0.03415   0.03273   1.89616
    A5        1.96803  -0.00202   0.00173  -0.01143  -0.00967   1.95836
    A6        1.88341   0.00200  -0.00082   0.01209   0.01126   1.89467
    A7        1.88341   0.00200  -0.00082   0.01209   0.01126   1.89467
    A8        1.91293   0.00015   0.00007   0.00221   0.00231   1.91524
    A9        1.91293   0.00015   0.00007   0.00221   0.00231   1.91524
   A10        1.90182  -0.00229  -0.00027  -0.01748  -0.01780   1.88402
    D1       -0.00000  -0.00000   0.00000  -0.00000   0.00000   0.00000
    D2        3.14159  -0.00000   0.00000  -0.00000   0.00000   3.14159
    D3       -0.00000   0.00000   0.00000   0.00000   0.00000   0.00000
    D4        2.11526   0.00029   0.00063   0.00385   0.00444   2.11971
    D5       -2.11526  -0.00029  -0.00063  -0.00385  -0.00444  -2.11971
    D6        3.14159   0.00000   0.00000   0.00000   0.00000   3.14159
    D7       -1.02633   0.00029   0.00063   0.00385   0.00444  -1.02189
    D8        1.02633  -0.00029  -0.00063  -0.00385  -0.00444   1.02189
         Item               Value     Threshold  Converged?
 Maximum Force            0.005361     0.000450     NO 
 RMS     Force            0.001941     0.000300     NO 
 Maximum Displacement     0.045249     0.001800     NO 
 RMS     Displacement     0.015345     0.001200     NO 
 Predicted change in Energy=-2.130157D-04
 Lowest energy point so far.  Saving SCF results.
 GradGradGradGradGradGradGradGradGradGradGradGradGradGradGradGradGradGrad

 Leave Link  103 at Tue Sep 17 19:28:56 2024, MaxMem=   268435456 cpu:         1.2
 (Enter /g100_work/pMI24_ChiCa/g09d1/g09d01/d01/build-node-6-2-59348/src/main/l202.exe)
                          Input orientation:                          
 ---------------------------------------------------------------------
 Center     Atomic      Atomic             Coordinates (Angstroms)
 Number     Number       Type             X           Y           Z
 ---------------------------------------------------------------------
      1          6           0        0.037316    0.000000   -0.026567
      2          8           0       -0.051328    0.000000    1.325015
      3          8           0        1.120852    0.000000   -0.597795
      4          1           0        0.851844    0.000000    1.697173
      5          6           0       -1.294254   -0.000000   -0.713254
      6          1           0       -2.123596   -0.000000   -0.004570
      7          1           0       -1.355707    0.885313   -1.354168
      8          1           0       -1.355707   -0.885313   -1.354168
 ---------------------------------------------------------------------
                    Distance matrix (angstroms):
                    1          2          3          4          5
     1  C    0.000000
     2  O    1.354486   0.000000
     3  O    1.224888   2.251933   0.000000
     4  H    1.906499   0.976843   2.310681   0.000000
     5  C    1.498205   2.387342   2.417864   3.227367   0.000000
     6  H    2.161024   2.462131   3.298235   3.427707   1.090890
     7  H    2.118210   3.108569   2.736644   3.868817   1.094681
     8  H    2.118210   3.108569   2.736644   3.868817   1.094681
                    6          7          8
     6  H    0.000000
     7  H    1.787414   0.000000
     8  H    1.787414   1.770627   0.000000
 Stoichiometry    C2H4O2
 Framework group  CS[SG(C2H2O2),X(H2)]
 Deg. of freedom    12
 Full point group                 CS      NOp   2
 RotChk:  IX=0 Diff= 7.27D-03
 Largest Abelian subgroup         CS      NOp   2
 Largest concise Abelian subgroup CS      NOp   2
                         Standard orientation:                         
 ---------------------------------------------------------------------
 Center     Atomic      Atomic             Coordinates (Angstroms)
 Number     Number       Type             X           Y           Z
 ---------------------------------------------------------------------
      1          6           0        0.000000    0.135498    0.000000
      2          8           0        1.272788   -0.327798   -0.000000
      3          8           0       -0.245221    1.335588    0.000000
      4          1           0        1.882801    0.435161   -0.000000
      5          6           0       -1.031849   -0.950737    0.000000
      6          1           0       -0.583536   -1.945250   -0.000000
      7          1           0       -1.664356   -0.830398    0.885313
      8          1           0       -1.664356   -0.830398   -0.885313
 ---------------------------------------------------------------------
 Rotational constants (GHZ):     11.3036782      9.3450302      5.2847563
 Leave Link  202 at Tue Sep 17 19:28:56 2024, MaxMem=   268435456 cpu:         0.1
 (Enter /g100_work/pMI24_ChiCa/g09d1/g09d01/d01/build-node-6-2-59348/src/main/l301.exe)
 Standard basis: 6-31+G(d,p) (6D, 7F)
 Ernie: Thresh=  0.10000D-02 Tol=  0.10000D-05 Strict=F.
 There are    69 symmetry adapted cartesian basis functions of A'  symmetry.
 There are    27 symmetry adapted cartesian basis functions of A"  symmetry.
 There are    69 symmetry adapted basis functions of A'  symmetry.
 There are    27 symmetry adapted basis functions of A"  symmetry.
    96 basis functions,   156 primitive gaussians,    96 cartesian basis functions
    16 alpha electrons       16 beta electrons
       nuclear repulsion energy       120.5226490494 Hartrees.
 IExCor=  402 DFT=T Ex+Corr=B3LYP ExCW=0 ScaHFX=  0.200000
 ScaDFX=  0.800000  0.720000  1.000000  0.810000 ScalE2=  1.000000  1.000000
 IRadAn=      0 IRanWt=     -1 IRanGd=            0 ICorTp=0 IEmpDi=  4
 NAtoms=    8 NActive=    8 NUniq=    7 SFac= 1.31D+00 NAtFMM=   60 NAOKFM=F Big=F
 Integral buffers will be    131072 words long.
 Raffenetti 2 integral format.
 Two-electron integral symmetry is turned on.
 ------------------------------------------------------------------------------
 Polarizable Continuum Model (PCM)
 =================================
 Model                : PCM (using non-symmetric T matrix).
 Atomic radii         : SMD-Coulomb.
 Polarization charges : Total charges.
 Charge compensation  : None.
 Solution method      : On-the-fly selection.
 Cavity type          : VdW (van der Waals Surface) (Alpha=1.000).
 Cavity algorithm     : GePol (No added spheres)
                        Default sphere list used, NSphG=    8.
                        Lebedev-Laikov grids with approx.  5.0 points / Ang**2.
                        Smoothing algorithm: Karplus/York (Gamma=1.0000).
                        Polarization charges: spherical gaussians, with
                                              point-specific exponents (IZeta= 3).
                        Self-potential: point-specific (ISelfS= 7).
                        Self-field    : sphere-specific E.n sum rule (ISelfD= 2).
 1st derivatives      : Analytical E(r).r(x)/FMM algorithm (CHGder, D1EAlg=3).
                        Cavity 1st derivative terms included.
 Solvent              : Water, Eps=  78.355300 Eps(inf)=   1.777849
 ------------------------------------------------------------------------------
 Spheres list:
 ISph  on   Nord     Re0    Alpha      Xe            Ye            Ze
    1   C      1    1.8500  1.000     -0.000000      0.135498      0.000000
    2   O      2    1.5200  1.000      1.272788     -0.327798     -0.000000
    3   O      3    1.5200  1.000     -0.245221      1.335588      0.000000
    4   H      4    1.2000  1.000      1.882801      0.435161      0.000000
    5   C      5    1.8500  1.000     -1.031849     -0.950737      0.000000
    6   H      6    1.2000  1.000     -0.583536     -1.945250     -0.000000
    7   H      7    1.2000  1.000     -1.664356     -0.830398      0.885313
    8   H      8    1.2000  1.000     -1.664356     -0.830398     -0.885313
 ------------------------------------------------------------------------------
 GePol: Number of generator spheres                  =       8
 GePol: Total number of spheres                      =       8
 GePol: Number of exposed spheres                    =       8 (100.00%)
 GePol: Number of points                             =     649
 GePol: Average weight of points                     =       0.13
 GePol: Minimum weight of points                     =   0.66D-11
 GePol: Maximum weight of points                     =    0.21991
 GePol: Number of points with low weight             =      33
 GePol: Fraction of low-weight points (<1% of avg)   =       5.08%
 GePol: Cavity surface area                          =     84.115 Ang**2
 GePol: Cavity volume                                =     59.458 Ang**3
 ------------------------------------------------------------------------------
 Atomic radii for non-electrostatic terms: SMD-CDS.
 ------------------------------------------------------------------------------
 PCM non-electrostatic energy =         0.0061812370 Hartrees.
 Nuclear repulsion after PCM non-electrostatic terms =      120.5288302864 Hartrees.
 Leave Link  301 at Tue Sep 17 19:28:56 2024, MaxMem=   268435456 cpu:         0.1
 (Enter /g100_work/pMI24_ChiCa/g09d1/g09d01/d01/build-node-6-2-59348/src/main/l302.exe)
 NPDir=0 NMtPBC=     1 NCelOv=     1 NCel=       1 NClECP=     1 NCelD=      1
         NCelK=      1 NCelE2=     1 NClLst=     1 CellRange=     0.0.
 One-electron integrals computed using PRISM.
 One-electron integral symmetry used in STVInt
 NBasis=    96 RedAO= T EigKep=  3.07D-04  NBF=    69    27
 NBsUse=    96 1.00D-06 EigRej= -1.00D+00 NBFU=    69    27
 Precomputing XC quadrature grid using
 IXCGrd= 4 IRadAn=           0 IRanWt=          -1 IRanGd=           0 AccXCQ= 0.00D+00.
 Generated NRdTot=       0 NPtTot=           0 NUsed=           0 NTot=          32
 NSgBfM=    96    96    96    96    96 MxSgAt=     8 MxSgA2=     8.
 Leave Link  302 at Tue Sep 17 19:28:56 2024, MaxMem=   268435456 cpu:         1.4
 (Enter /g100_work/pMI24_ChiCa/g09d1/g09d01/d01/build-node-6-2-59348/src/main/l303.exe)
 DipDrv:  MaxL=1.
 Leave Link  303 at Tue Sep 17 19:28:56 2024, MaxMem=   268435456 cpu:         0.2
 (Enter /g100_work/pMI24_ChiCa/g09d1/g09d01/d01/build-node-6-2-59348/src/main/l401.exe)
 Initial guess from the checkpoint file:  "/g100_scratch/userexternal/ecabiati/g16_14420038/Gau-53348.chk"
 B after Tr=    -0.000000    0.000000   -0.000000
         Rot=    0.999996    0.000000    0.000000   -0.002756 Ang=  -0.32 deg.
 Guess basis will be translated and rotated to current coordinates.
 JPrj=2 DoOrth=T DoCkMO=T.
 Initial guess orbital symmetries:
       Occupied  (A') (A') (A') (A') (A') (A') (A') (A') (A') (A')
                 (A") (A') (A') (A") (A") (A')
       Virtual   (A') (A') (A') (A') (A') (A') (A') (A') (A') (A')
                 (A') (A') (A') (A') (A') (A') (A') (A') (A') (A')
                 (A') (A') (A') (A') (A') (A') (A') (A') (A') (A')
                 (A') (A') (A') (A') (A') (A') (A') (A') (A') (A')
                 (A') (A') (A') (A') (A') (A') (A') (A') (A') (A')
                 (A') (A') (A') (A') (A') (A') (A") (A") (A") (A")
                 (A") (A") (A") (A") (A") (A") (A") (A") (A") (A")
                 (A") (A") (A") (A") (A") (A") (A") (A") (A") (A")
 The electronic state of the initial guess is 1-A'.
 Generating alternative initial guess.
 ExpMin= 4.38D-02 ExpMax= 5.48D+03 ExpMxC= 8.25D+02 IAcc=2 IRadAn=         4 AccDes= 0.00D+00
 Harris functional with IExCor=  402 and IRadAn=       4 diagonalized for initial guess.
 HarFok:  IExCor=  402 AccDes= 0.00D+00 IRadAn=         4 IDoV= 1 UseB2=F ITyADJ=14
 ICtDFT=  3500011 ScaDFX=  1.000000  1.000000  1.000000  1.000000
 FoFCou: FMM=F IPFlag=           0 FMFlag=      100000 FMFlg1=           0
         NFxFlg=           0 DoJE=T BraDBF=F KetDBF=T FulRan=T
         wScrn=  0.000000 ICntrl=     500 IOpCl=  0 I1Cent=   200000004 NGrid=           0
         NMat0=    1 NMatS0=      1 NMatT0=    0 NMatD0=    1 NMtDS0=    0 NMtDT0=    0
 Petite list used in FoFCou.
 Harris En= -229.128056872016    
 Leave Link  401 at Tue Sep 17 19:28:57 2024, MaxMem=   268435456 cpu:         1.9
 (Enter /g100_work/pMI24_ChiCa/g09d1/g09d01/d01/build-node-6-2-59348/src/main/l502.exe)
 Closed shell SCF:
 Using DIIS extrapolation, IDIIS=  1040.
 Integral symmetry usage will be decided dynamically.
 Keep R1 ints in memory in symmetry-blocked form, NReq=16539583.
 IVT=       49354 IEndB=       49354 NGot=   268435456 MDV=   262737466
 LenX=   262737466 LenY=   262727809
 Requested convergence on RMS density matrix=1.00D-08 within 128 cycles.
 Requested convergence on MAX density matrix=1.00D-06.
 Requested convergence on             energy=1.00D-06.
 No special actions if energy rises.
 FoFCou: FMM=F IPFlag=           0 FMFlag=           0 FMFlg1=           0
         NFxFlg=           0 DoJE=F BraDBF=F KetDBF=F FulRan=T
         wScrn=  0.000000 ICntrl=     600 IOpCl=  0 I1Cent=           0 NGrid=           0
         NMat0=    1 NMatS0=   4656 NMatT0=    0 NMatD0=    1 NMtDS0=    0 NMtDT0=    0
 Petite list used in FoFCou.

 Cycle   1  Pass 1  IDiag  1:
 Inv3:  Mode=1 IEnd=     1263603.
 Iteration    1 A*A^-1 deviation from unit magnitude is 3.89D-15 for     92.
 Iteration    1 A*A^-1 deviation from orthogonality  is 2.89D-15 for    506     90.
 Iteration    1 A^-1*A deviation from unit magnitude is 4.00D-15 for    447.
 Iteration    1 A^-1*A deviation from orthogonality  is 1.17D-15 for    346    299.
 E= -229.116125084024    
 DIIS: error= 8.91D-04 at cycle   1 NSaved=   1.
 NSaved= 1 IEnMin= 1 EnMin= -229.116125084024     IErMin= 1 ErrMin= 8.91D-04
 ErrMax= 8.91D-04  0.00D+00 EMaxC= 1.00D-01 BMatC= 1.53D-04 BMatP= 1.53D-04
 IDIUse=3 WtCom= 9.91D-01 WtEn= 8.91D-03
 Coeff-Com:  0.100D+01
 Coeff-En:   0.100D+01
 Coeff:      0.100D+01
 Gap=     0.477 Goal=   None    Shift=    0.000
 RMSDP=2.04D-04 MaxDP=4.20D-03              OVMax= 4.16D-03

 Cycle   2  Pass 1  IDiag  1:
 E= -229.116327171009     Delta-E=       -0.000202086985 Rises=F Damp=F
 DIIS: error= 1.49D-04 at cycle   2 NSaved=   2.
 NSaved= 2 IEnMin= 2 EnMin= -229.116327171009     IErMin= 2 ErrMin= 1.49D-04
 ErrMax= 1.49D-04  0.00D+00 EMaxC= 1.00D-01 BMatC= 3.94D-06 BMatP= 1.53D-04
 IDIUse=3 WtCom= 9.99D-01 WtEn= 1.49D-03
 Coeff-Com: -0.236D-01 0.102D+01
 Coeff-En:   0.000D+00 0.100D+01
 Coeff:     -0.236D-01 0.102D+01
 Gap=     0.286 Goal=   None    Shift=    0.000
 RMSDP=3.81D-05 MaxDP=6.70D-04 DE=-2.02D-04 OVMax= 1.29D-03

 Cycle   3  Pass 1  IDiag  1:
 E= -229.116325175765     Delta-E=        0.000001995244 Rises=F Damp=F
 DIIS: error= 2.86D-04 at cycle   3 NSaved=   3.
 NSaved= 3 IEnMin= 2 EnMin= -229.116327171009     IErMin= 2 ErrMin= 1.49D-04
 ErrMax= 2.86D-04  0.00D+00 EMaxC= 1.00D-01 BMatC= 7.60D-06 BMatP= 3.94D-06
[...]
     13 -0.585321D-02 -0.469260D-01  0.000000D+00 -0.473030D-02  0.195184D-02
     14  0.000000D+00  0.000000D+00  0.183327D-01  0.000000D+00  0.000000D+00
     15 -0.330692D-01  0.170666D-01  0.000000D+00  0.169414D-01  0.135204D-02
     16  0.237602D-03 -0.861598D-02  0.000000D+00 -0.335960D-02  0.412261D-03
     17  0.000000D+00  0.000000D+00  0.266776D-02  0.000000D+00  0.000000D+00
     18  0.251910D-03 -0.574567D-02  0.000000D+00 -0.486368D-03  0.169649D-03
     19 -0.276621D-02 -0.271346D-04 -0.339463D-02  0.304727D-03  0.907485D-04
     20 -0.935820D-03  0.902478D-04  0.918327D-03 -0.161071D-03 -0.988850D-04
     21 -0.124009D-02  0.250870D-02 -0.148537D-02  0.532515D-03 -0.239810D-03
     22 -0.276621D-02 -0.271346D-04  0.339463D-02  0.304727D-03  0.907485D-04
     23  0.935820D-03 -0.902478D-04  0.918327D-03  0.161071D-03  0.988850D-04
     24 -0.124009D-02  0.250870D-02  0.148537D-02  0.532515D-03 -0.239810D-03
               11            12            13            14            15 
     11  0.134768D-01
     12  0.000000D+00  0.122884D+00
     13  0.000000D+00  0.226022D-02  0.528466D+00
     14  0.746203D-02  0.000000D+00  0.000000D+00  0.543035D+00
     15  0.000000D+00 -0.416350D-02 -0.610680D-01  0.000000D+00  0.569704D+00
     16  0.000000D+00  0.376621D-03 -0.206969D+00  0.000000D+00  0.135355D+00
     17 -0.115326D-03  0.000000D+00  0.000000D+00 -0.451060D-01  0.000000D+00
     18  0.000000D+00  0.551047D-03  0.143947D+00  0.000000D+00 -0.171636D+00
     19 -0.950443D-03 -0.613271D-03 -0.470229D-01  0.124038D-01 -0.708029D-02
     20 -0.402799D-03 -0.123381D-03  0.135642D-01 -0.221416D+00  0.133827D+00
     21 -0.844464D-03 -0.604343D-03 -0.728982D-02  0.134047D+00 -0.135064D+00
     22  0.950443D-03 -0.613271D-03 -0.470229D-01 -0.124038D-01 -0.708029D-02
     23 -0.402799D-03  0.123381D-03 -0.135642D-01 -0.221416D+00 -0.133827D+00
     24  0.844464D-03 -0.604343D-03 -0.728982D-02 -0.134047D+00 -0.135064D+00
               16            17            18            19            20 
     16  0.222670D+00
     17  0.000000D+00  0.426660D-01
     18 -0.149900D+00  0.000000D+00  0.180131D+00
     19  0.325554D-02 -0.200897D-01  0.122042D-01  0.476791D-01
     20 -0.751986D-03  0.185106D-02 -0.204439D-02 -0.133607D-01  0.237399D+00
     21 -0.290676D-02  0.150576D-01 -0.101233D-01  0.115446D-01 -0.144134D+00
     22  0.325554D-02  0.200897D-01  0.122042D-01 -0.174947D-03  0.155085D-02
     23  0.751986D-03  0.185106D-02  0.204439D-02 -0.155085D-02 -0.194131D-01
     24 -0.290676D-02 -0.150576D-01 -0.101233D-01  0.158735D-02  0.153373D-01
               21            22            23            24 
     21  0.145920D+00
     22  0.158735D-02  0.476791D-01
     23 -0.153373D-01  0.133607D-01  0.237399D+00
     24  0.121272D-01  0.115446D-01  0.144134D+00  0.145920D+00
 FormGI is forming the generalized inverse of G from B-inverse, IUseBI=4.
 Force constants in internal coordinates: 
                1             2             3             4             5 
      1  0.356937D+00
      2  0.101489D+00  0.755704D+00
      3  0.257176D-01  0.375999D-01  0.301556D+00
      4  0.997157D-02 -0.677141D-02 -0.236628D-02  0.494378D+00
      5  0.197288D-03  0.137003D-02  0.579834D-03 -0.273145D-03  0.352746D+00
      6  0.331289D-03 -0.100281D-02  0.390855D-02  0.202622D-03  0.165855D-02
      7  0.331289D-03 -0.100281D-02  0.390855D-02  0.202622D-03  0.165855D-02
      8  0.259616D-01  0.356363D-01 -0.329939D-01 -0.111047D-01 -0.356276D-03
      9  0.236287D-01 -0.474230D-01  0.229295D-01  0.874238D-02 -0.686375D-02
     10 -0.495903D-01  0.117867D-01  0.100644D-01  0.236237D-02  0.722002D-02
     11  0.413556D-01 -0.487456D-02  0.382968D-02  0.192420D-01  0.107750D-03
     12 -0.297764D-02  0.115703D-01  0.168237D-01 -0.876984D-03  0.164929D-02
     13  0.482838D-02 -0.257494D-02  0.132566D-01  0.420897D-03 -0.525918D-02
     14  0.482838D-02 -0.257493D-02  0.132566D-01  0.420897D-03 -0.525918D-02
     15 -0.142734D-02 -0.405609D-02 -0.141728D-01  0.300633D-03  0.477245D-02
     16 -0.142734D-02 -0.405609D-02 -0.141728D-01  0.300633D-03  0.477245D-02
     17 -0.376877D-02  0.134310D-02 -0.158379D-01 -0.555605D-03 -0.957341D-03
     18  0.000000D+00  0.000000D+00  0.000000D+00  0.000000D+00  0.000000D+00
     19  0.000000D+00  0.000000D+00  0.000000D+00  0.000000D+00  0.000000D+00
     20  0.000000D+00  0.000000D+00  0.000000D+00  0.000000D+00  0.000000D+00
     21 -0.421358D-03  0.622002D-03  0.211478D-02  0.985764D-04  0.347545D-02
     22  0.421358D-03 -0.622002D-03 -0.211478D-02 -0.985764D-04 -0.347545D-02
     23  0.000000D+00  0.000000D+00  0.000000D+00  0.000000D+00  0.000000D+00
     24 -0.421358D-03  0.622002D-03  0.211478D-02  0.985764D-04  0.347545D-02
     25  0.421358D-03 -0.622002D-03 -0.211478D-02 -0.985764D-04 -0.347545D-02
                6             7             8             9            10 
      6  0.343949D+00
      7  0.221478D-02  0.343949D+00
      8 -0.640588D-03 -0.640588D-03  0.192582D+00
      9  0.369381D-02  0.369381D-02 -0.102871D+00  0.163319D+00
     10 -0.305323D-02 -0.305323D-02 -0.897105D-01 -0.604480D-01  0.150158D+00
     11  0.566717D-03  0.566717D-03 -0.273516D-01  0.256816D-01  0.167001D-02
     12 -0.538200D-02 -0.538200D-02 -0.605054D-02 -0.135758D-01  0.196263D-01
     13  0.490689D-02 -0.589407D-02 -0.191321D-02  0.104858D-01 -0.857257D-02
     14 -0.589407D-02  0.490689D-02 -0.191321D-02  0.104858D-01 -0.857257D-02
     15  0.377500D-02 -0.105664D-02  0.364099D-02  0.711606D-03 -0.435259D-02
     16 -0.105664D-02  0.377500D-02  0.364099D-02  0.711606D-03 -0.435259D-02
     17  0.399672D-02  0.399672D-02  0.284984D-02 -0.851315D-02  0.566330D-02
     18 -0.279698D-03  0.279698D-03  0.000000D+00  0.000000D+00  0.000000D+00
     19  0.692554D-03 -0.692554D-03  0.000000D+00  0.000000D+00  0.000000D+00
     20 -0.445295D-02  0.445295D-02  0.000000D+00  0.000000D+00  0.000000D+00
     21  0.168026D-03 -0.438575D-02 -0.641329D-03 -0.719306D-03  0.136064D-02
     22  0.438575D-02 -0.168026D-03  0.641329D-03  0.719306D-03 -0.136064D-02
     23 -0.344690D-02  0.344690D-02  0.000000D+00  0.000000D+00  0.000000D+00
     24  0.117408D-02 -0.539181D-02 -0.641329D-03 -0.719306D-03  0.136064D-02
     25  0.539181D-02 -0.117408D-02  0.641329D-03  0.719306D-03 -0.136064D-02
               11            12            13            14            15 
     11  0.168685D+00
     12 -0.804350D-03  0.104543D+00
     13  0.130510D-02 -0.211244D-01  0.984109D-01
     14  0.130510D-02 -0.211244D-01 -0.130967D-01  0.984109D-01
     15 -0.226499D-03 -0.370553D-01 -0.376897D-01  0.840545D-02  0.530794D-01
     16 -0.226499D-03 -0.370553D-01  0.840545D-02 -0.376897D-01  0.757753D-02
     17 -0.135553D-02  0.855293D-02 -0.346312D-01 -0.346312D-01  0.656857D-02
     18  0.000000D+00  0.000000D+00 -0.123638D-02  0.123638D-02  0.729361D-03
     19  0.000000D+00  0.000000D+00  0.575522D-02 -0.575522D-02 -0.157771D-02
     20  0.000000D+00  0.000000D+00 -0.100738D-01  0.100738D-01 -0.772103D-02
     21  0.868172D-04  0.657202D-02 -0.388561D-02 -0.196808D-02  0.931834D-02
     22 -0.868172D-04 -0.657202D-02  0.196808D-02  0.388561D-02  0.970670D-03
     23  0.000000D+00  0.000000D+00 -0.283908D-02  0.283908D-02 -0.101083D-01
     24  0.868172D-04  0.657202D-02  0.334910D-02 -0.920279D-02  0.693105D-02
     25 -0.868172D-04 -0.657202D-02  0.920279D-02 -0.334910D-02 -0.141662D-02
               16            17            18            19            20 
     16  0.530794D-01
     17  0.656857D-02  0.486750D-01
     18 -0.729361D-03  0.000000D+00  0.148493D-01
     19  0.157771D-02  0.000000D+00  0.397090D-02  0.167495D-01
     20  0.772103D-02  0.000000D+00  0.552643D-02 -0.741301D-02  0.177262D-01
     21 -0.970670D-03 -0.987465D-02  0.559885D-02 -0.546406D-02  0.112905D-02
     22 -0.931834D-02  0.987465D-02  0.559885D-02 -0.546406D-02  0.112905D-02
     23  0.101083D-01  0.000000D+00 -0.573023D-02  0.580988D-02  0.433686D-02
     24  0.141662D-02 -0.987465D-02 -0.565782D-02  0.775883D-02 -0.122603D-01
     25 -0.693105D-02  0.987465D-02 -0.565782D-02  0.775883D-02 -0.122603D-01
               21            22            23            24            25 
     21  0.144455D-01
     22 -0.555770D-03  0.144455D-01
     23 -0.103185D-01 -0.103185D-01  0.162782D-01
     24  0.299796D-02 -0.120033D-01  0.162284D-02  0.168811D-01
     25 -0.120033D-01  0.299796D-02  0.162284D-02  0.187980D-02  0.168811D-01
 Leave Link  716 at Tue Sep 17 19:29:09 2024, MaxMem=   268435456 cpu:         0.2
 (Enter /g100_work/pMI24_ChiCa/g09d1/g09d01/d01/build-node-6-2-59348/src/main/l103.exe)

 GradGradGradGradGradGradGradGradGradGradGradGradGradGradGradGradGradGrad
 Berny optimization.
 Red2BG is reusing G-inverse.
 Internal  Forces:  Max     0.000222215 RMS     0.000065374
 Search for a local minimum.
 Step number   1 out of a maximum of    2
 All quantities printed in internal units (Hartrees-Bohrs-Radians)
 Second derivative matrix not updated -- analytic derivatives used.
 ITU=  0
     Eigenvalues ---   -0.00150   0.01946   0.04547   0.05304   0.05403
     Eigenvalues ---    0.12135   0.13149   0.13777   0.14692   0.19918
     Eigenvalues ---    0.25290   0.34115   0.34275   0.34646   0.35418
     Eigenvalues ---    0.37575   0.49802   0.79000
 Eigenvalue     1 is  -1.50D-03 should be greater than     0.000000 Eigenvector:
                          D4        D5        D7        D8        D3
   1                    0.43420   0.43420   0.40334   0.40334   0.39866
                          D6        D2        A8        A9        A6
   1                    0.36780  -0.04272   0.01873  -0.01873   0.01753
 Angle between quadratic step and forces=  33.02 degrees.
 Linear search not attempted -- first point.
 Iteration  1 RMS(Cart)=  0.00054433 RMS(Int)=  0.00000020
 Iteration  2 RMS(Cart)=  0.00000023 RMS(Int)=  0.00000002
 ITry= 1 IFail=0 DXMaxC= 1.08D-03 DCOld= 1.00D+10 DXMaxT= 3.00D-01 DXLimC= 3.00D+00 Rises=F
 ClnCor:  largest displacement from symmetrization is 1.63D-11 for atom     4.
 Variable       Old X    -DE/DX   Delta X   Delta X   Delta X     New X
                                 (Linear)    (Quad)   (Total)
    R1        2.55311  -0.00011   0.00000  -0.00051  -0.00051   2.55260
    R2        2.31633   0.00022   0.00000   0.00041   0.00041   2.31675
    R3        2.83223  -0.00006   0.00000  -0.00017  -0.00017   2.83206
    R4        1.84450  -0.00007   0.00000  -0.00011  -0.00011   1.84439
    R5        2.05942   0.00004   0.00000   0.00013   0.00013   2.05955
    R6        2.06759  -0.00002   0.00000  -0.00006  -0.00006   2.06753
    R7        2.06759  -0.00002   0.00000  -0.00006  -0.00006   2.06753
    A1        2.12527   0.00002   0.00000   0.00003   0.00003   2.12530
    A2        1.98055   0.00009   0.00000   0.00070   0.00070   1.98125
    A3        2.17736  -0.00011   0.00000  -0.00072  -0.00072   2.17664
    A4        1.90063  -0.00007   0.00000  -0.00035  -0.00035   1.90028
    A5        1.95544   0.00003   0.00000   0.00029   0.00029   1.95573
    A6        1.89789  -0.00005   0.00000  -0.00039  -0.00039   1.89750
    A7        1.89789  -0.00005   0.00000  -0.00039  -0.00039   1.89750
    A8        1.91651   0.00001   0.00000  -0.00003  -0.00003   1.91647
    A9        1.91651   0.00001   0.00000  -0.00003  -0.00003   1.91647
   A10        1.87783   0.00006   0.00000   0.00056   0.00056   1.87839
    D1       -0.00000   0.00000   0.00000   0.00000   0.00000   0.00000
    D2        3.14159   0.00000   0.00000   0.00000   0.00000   3.14159
    D3       -0.00000  -0.00000   0.00000   0.00000   0.00000   0.00000
    D4        2.12162  -0.00001   0.00000  -0.00012  -0.00012   2.12150
    D5       -2.12162   0.00001   0.00000   0.00012   0.00012  -2.12150
    D6        3.14159   0.00000   0.00000   0.00000   0.00000   3.14159
    D7       -1.01998  -0.00001   0.00000  -0.00012  -0.00012  -1.02009
    D8        1.01998   0.00001   0.00000   0.00012   0.00012   1.02009
         Item               Value     Threshold  Converged?
 Maximum Force            0.000222     0.000450     YES
 RMS     Force            0.000065     0.000300     YES
 Maximum Displacement     0.001080     0.001800     YES
 RMS     Displacement     0.000544     0.001200     YES
 Predicted change in Energy=-2.122102D-07
 Optimization completed.
    -- Stationary point found.
                           ----------------------------
                           !   Optimized Parameters   !
                           ! (Angstroms and Degrees)  !
 --------------------------                            --------------------------
 ! Name  Definition              Value          Derivative Info.                !
 --------------------------------------------------------------------------------
 ! R1    R(1,2)                  1.351          -DE/DX =   -0.0001              !
 ! R2    R(1,3)                  1.2258         -DE/DX =    0.0002              !
 ! R3    R(1,5)                  1.4988         -DE/DX =   -0.0001              !
 ! R4    R(2,4)                  0.9761         -DE/DX =   -0.0001              !
 ! R5    R(5,6)                  1.0898         -DE/DX =    0.0                 !
 ! R6    R(5,7)                  1.0941         -DE/DX =    0.0                 !
 ! R7    R(5,8)                  1.0941         -DE/DX =    0.0                 !
 ! A1    A(2,1,3)              121.769          -DE/DX =    0.0                 !
 ! A2    A(2,1,5)              113.4774         -DE/DX =    0.0001              !
 ! A3    A(3,1,5)              124.7537         -DE/DX =   -0.0001              !
 ! A4    A(1,2,4)              108.8982         -DE/DX =   -0.0001              !
 ! A5    A(1,5,6)              112.0382         -DE/DX =    0.0                 !
 ! A6    A(1,5,7)              108.7412         -DE/DX =   -0.0001              !
 ! A7    A(1,5,8)              108.7412         -DE/DX =   -0.0001              !
 ! A8    A(6,5,7)              109.8077         -DE/DX =    0.0                 !
 ! A9    A(6,5,8)              109.8077         -DE/DX =    0.0                 !
 ! A10   A(7,5,8)              107.5915         -DE/DX =    0.0001              !
 ! D1    D(3,1,2,4)              0.0            -DE/DX =    0.0                 !
 ! D2    D(5,1,2,4)            180.0            -DE/DX =    0.0                 !
 ! D3    D(2,1,5,6)              0.0            -DE/DX =    0.0                 !
 ! D4    D(2,1,5,7)            121.5597         -DE/DX =    0.0                 !
 ! D5    D(2,1,5,8)           -121.5597         -DE/DX =    0.0                 !
 ! D6    D(3,1,5,6)            180.0            -DE/DX =    0.0                 !
 ! D7    D(3,1,5,7)            -58.4403         -DE/DX =    0.0                 !
 ! D8    D(3,1,5,8)             58.4403         -DE/DX =    0.0                 !
 --------------------------------------------------------------------------------
 GradGradGradGradGradGradGradGradGradGradGradGradGradGradGradGradGradGrad

 Leave Link  103 at Tue Sep 17 19:29:09 2024, MaxMem=   268435456 cpu:         0.9
 (Enter /g100_work/pMI24_ChiCa/g09d1/g09d01/d01/build-node-6-2-59348/src/main/l9999.exe)
 1\1\GINC-R500N002\Freq\RB3LYP\6-31+G(d,p)\C2H4O2\ECABIATI\17-Sep-2024\
 0\\#P Geom=AllCheck Guess=TCheck SCRF=Check GenChk RB3LYP/6-31+G(d,p) 
 Freq\\ch3cooh sol\\0,1\C,0.0384751562,0.,-0.0252209346\O,-0.0514362547
 ,0.,1.3228304248\O,1.1212189034,0.,-0.5997903716\H,0.8489308485,0.,1.6
 997216136\C,-1.293422589,0.,-0.7124641948\H,-2.1200266488,0.,-0.002260
 3314\H,-1.3571597191,0.8828664796,-1.3555747696\H,-1.3571597191,-0.882
 8664796,-1.3555747696\\Version=EM64L-G09RevD.01\State=1-A'\HF=-229.116
 3329\RMSD=7.691e-10\RMSF=9.917e-05\ZeroPoint=0.0607762\Thermal=0.06456
 24\Dipole=-0.8615735,0.,0.4959422\DipoleDeriv=2.0993655,0.,-0.3856307,
 0.,0.4058835,0.,-0.4122075,0.,2.5712471,-0.5896962,0.,-0.1498891,0.,-0
 .4890079,0.,0.2509611,0.,-1.8954586,-1.6504192,0.,0.6076624,0.,-0.5504
 54,0.,0.2768764,0.,-1.1542588,0.3086256,0.,0.0532331,0.,0.4666598,0.,0
 .0323218,0.,0.444898,-0.2700185,0.,-0.1665266,0.,-0.0292921,0.,-0.2678
 626,0.,-0.1772252,-0.0342369,0.,0.0495052,0.,0.1330425,0.,0.0978762,0.
 ,0.0181118,0.0681899,-0.031216,-0.0041771,-0.0008764,0.0315841,0.09257
 57,0.0110173,0.0787011,0.0963429,0.0681899,0.031216,-0.0041771,0.00087
 64,0.0315841,-0.0925757,0.0110173,-0.0787011,0.0963429\Polar=46.758131
 7,0.,30.8461359,-2.3205301,0.,47.1873407\PG=CS [SG(C2H2O2),X(H2)]\NIma
 g=1\\0.85612769,0.,0.22911897,-0.08977155,0.,0.56113771,-0.12225941,0.
 ,-0.02504519,0.55612907,0.,-0.05975792,0.,0.,0.03623559,-0.01543985,0.
 ,-0.21365099,0.11769829,0.,0.42586300,-0.53968625,0.,0.18832932,-0.003
 90149,0.,0.07452271,0.60241402,0.,-0.07535680,0.,0.,0.02789369,0.,0.,0
 .02884650,0.21206069,0.,-0.19608276,0.06909663,0.,-0.08137478,-0.27855
 135,0.,0.25036581,0.00464435,0.,-0.00627799,-0.42470931,0.,-0.16563312
 ,-0.00323003,0.,0.00487449,0.42074939,0.,0.00040966,0.,0.,-0.01620708,
 0.,0.,-0.00422052,0.,0.,0.01347684,-0.04890006,0.,-0.03209474,-0.11786
 580,0.,-0.09553978,-0.00063899,0.,0.00957167,0.16599455,0.,0.12288400,
 -0.18138008,0.,-0.05997624,-0.00109628,0.,-0.00585321,-0.04692599,0.,-
 0.00473030,0.00195184,0.,0.00226022,0.52846554,0.,-0.09360168,0.,0.,0.
 01271015,0.,0.,0.01833272,0.,0.,0.00746203,0.,0.,0.54303546,-0.0420819
 3,0.,-0.10764869,-0.03646310,0.,-0.03306919,0.01706658,0.,0.01694140,0
 .00135204,0.,-0.00416350,-0.06106795,0.,0.56970394,-0.01590854,0.,0.02
 310389,0.00190054,0.,0.00023760,-0.00861598,0.,-0.00335960,0.00041226,
 0.,0.00037662,-0.20696920,0.,0.13535493,0.22266985,0.,-0.00410427,0.,0
 .,0.00028963,0.,0.,0.00266776,0.,0.,-0.00011533,0.,0.,-0.04510596,0.,0
 .,0.04266605,-0.01169730,0.,0.01143439,-0.00118223,0.,0.00025191,-0.00
 574567,0.,-0.00048637,0.00016965,0.,0.00055105,0.14394712,0.,-0.171635
 81,-0.14989993,0.,0.18013140,-0.00076888,0.02844235,-0.01518113,-0.003
 03156,-0.00149987,-0.00276621,-0.00002713,-0.00339463,0.00030473,0.000
 09075,-0.00095044,-0.00061327,-0.04702292,0.01240379,-0.00708029,0.003
 25554,-0.02008967,0.01220418,0.04767914,-0.00076871,0.00164601,-0.0017
 6548,-0.00022508,-0.00058202,-0.00093582,0.00009025,0.00091833,-0.0001
 6107,-0.00009888,-0.00040280,-0.00012338,0.01356422,-0.22141636,0.1338
 2717,-0.00075199,0.00185106,-0.00204439,-0.01336066,0.23739892,-0.0020
 8500,0.01318357,-0.01154746,-0.00311930,-0.00048663,-0.00124009,0.0025
 0870,-0.00148537,0.00053251,-0.00023981,-0.00084446,-0.00060434,-0.007
 28982,0.13404696,-0.13506408,-0.00290676,0.01505759,-0.01012329,0.0115
 4463,-0.14413434,0.14591956,-0.00076888,-0.02844235,-0.01518113,-0.003
 03156,0.00149987,-0.00276621,-0.00002713,0.00339463,0.00030473,0.00009
 075,0.00095044,-0.00061327,-0.04702292,-0.01240379,-0.00708029,0.00325
 554,0.02008967,0.01220418,-0.00017495,0.00155085,0.00158735,0.04767914
 ,0.00076871,0.00164601,0.00176548,0.00022508,-0.00058202,0.00093582,-0
 .00009025,0.00091833,0.00016107,0.00009888,-0.00040280,0.00012338,-0.0
 1356422,-0.22141636,-0.13382717,0.00075199,0.00185106,0.00204439,-0.00
 155085,-0.01941314,-0.01533731,0.01336066,0.23739892,-0.00208500,-0.01
 318357,-0.01154746,-0.00311930,0.00048663,-0.00124009,0.00250870,0.001
 48537,0.00053251,-0.00023981,0.00084446,-0.00060434,-0.00728982,-0.134
 04696,-0.13506408,-0.00290676,-0.01505759,-0.01012329,0.00158735,0.015
 33731,0.01212719,0.01154463,0.14413434,0.14591956\\0.00025182,0.,-0.00
 029162,-0.00001928,0.,0.00004136,-0.00018192,0.,0.00011320,0.00008920,
 0.,0.00002815,-0.00007091,0.,0.00012822,0.00004056,0.,0.00002268,-0.00
 005474,-0.00001274,-0.00002100,-0.00005474,0.00001274,-0.00002100\\\@


 I LOVE THOSE WHO LONG FOR THE IMPOSSIBLE.

                                 -- GOETHE
 Job cpu time:       0 days  0 hours  1 minutes 36.2 seconds.
 File lengths (MBytes):  RWF=     19 Int=      0 D2E=      0 Chk=      4 Scr=      1
 Normal termination of Gaussian 09 at Tue Sep 17 19:29:09 2024.
