 Entering Gaussian System, Link 0=/g100_work/pMI24_ChiCa/g09d1/g09d01/d01/build-node-6-2-59348/src/main/g09
 Input=geom.com
 Output=geom.log
 Initial command:
 /g100_work/pMI24_ChiCa/g09d1/g09d01/d01/build-node-6-2-59348/src/main/l1.exe "/g100_scratch/userexternal/ecabiati/g16_14398980/Gau-45934.inp" -scrdir="/g100_scratch/userexternal/ecabiati/g16_14398980/"
 Entering Link 1 = /g100_work/pMI24_ChiCa/g09d1/g09d01/d01/build-node-6-2-59348/src/main/l1.exe PID=     45935.
  
 Copyright (c) 1988,1990,1992,1993,1995,1998,2003,2009,2013,
            Gaussian, Inc.  All Rights Reserved.
  
 This is part of the Gaussian(R) 09 program.  It is based on
 the Gaussian(R) 03 system (copyright 2003, Gaussian, Inc.),
 the Gaussian(R) 98 system (copyright 1998, Gaussian, Inc.),
 the Gaussian(R) 94 system (copyright 1995, Gaussian, Inc.),
 the Gaussian 92(TM) system (copyright 1992, Gaussian, Inc.),
 the Gaussian 90(TM) system (copyright 1990, Gaussian, Inc.),
 the Gaussian 88(TM) system (copyright 1988, Gaussian, Inc.),
 the Gaussian 86(TM) system (copyright 1986, Carnegie Mellon
 University), and the Gaussian 82(TM) system (copyright 1983,
 Carnegie Mellon University). Gaussian is a federally registered
 trademark of Gaussian, Inc.
  
 This software contains proprietary and confidential information,
 including trade secrets, belonging to Gaussian, Inc.
  
 This software is provided under written license and may be
 used, copied, transmitted, or stored only in accord with that
 written license.
  
 The following legend is applicable only to US Government
 contracts under FAR:
  
                    RESTRICTED RIGHTS LEGEND
  
 Use, reproduction and disclosure by the US Government is
 subject to restrictions as set forth in subparagraphs (a)
 and (c) of the Commercial Computer Software - Restricted
 Rights clause in FAR 52.227-19.
  
 Gaussian, Inc.
 340 Quinnipiac St., Bldg. 40, Wallingford CT 06492
  
  
 ---------------------------------------------------------------
 Warning -- This program may not be used in any manner that
 competes with the business of Gaussian, Inc. or will provide
 assistance to any competitor of Gaussian, Inc.  The licensee
 of this program is prohibited from giving any competitor of
 Gaussian, Inc. access to this program.  By using this program,
 the user acknowledges that Gaussian, Inc. is engaged in the
 business of creating and licensing software in the field of
 computational chemistry and represents and warrants to the
 licensee that it is not a competitor of Gaussian, Inc. and that
 it will not use this program in any manner prohibited above.
 ---------------------------------------------------------------
  

 Cite this work as:
 Gaussian 09, Revision D.01,
 M. J. Frisch, G. W. Trucks, H. B. Schlegel, G. E. Scuseria, 
 M. A. Robb, J. R. Cheeseman, G. Scalmani, V. Barone, B. Mennucci, 
 G. A. Petersson, H. Nakatsuji, M. Caricato, X. Li, H. P. Hratchian, 
 A. F. Izmaylov, J. Bloino, G. Zheng, J. L. Sonnenberg, M. Hada, 
 M. Ehara, K. Toyota, R. Fukuda, J. Hasegawa, M. Ishida, T. Nakajima, 
 Y. Honda, O. Kitao, H. Nakai, T. Vreven, J. A. Montgomery, Jr., 
 J. E. Peralta, F. Ogliaro, M. Bearpark, J. J. Heyd, E. Brothers, 
 K. N. Kudin, V. N. Staroverov, T. Keith, R. Kobayashi, J. Normand, 
 K. Raghavachari, A. Rendell, J. C. Burant, S. S. Iyengar, J. Tomasi, 
 M. Cossi, N. Rega, J. M. Millam, M. Klene, J. E. Knox, J. B. Cross, 
 V. Bakken, C. Adamo, J. Jaramillo, R. Gomperts, R. E. Stratmann, 
 O. Yazyev, A. J. Austin, R. Cammi, C. Pomelli, J. W. Ochterski, 
 R. L. Martin, K. Morokuma, V. G. Zakrzewski, G. A. Voth, 
 P. Salvador, J. J. Dannenberg, S. Dapprich, A. D. Daniels, 
 O. Farkas, J. B. Foresman, J. V. Ortiz, J. Cioslowski, 
 and D. J. Fox, Gaussian, Inc., Wallingford CT, 2013.
 
 ******************************************
 Gaussian 09:  EM64L-G09RevD.01 24-Apr-2013
                13-Sep-2024 
 ******************************************
 %nproc=24
 Will use up to   24 processors via shared memory.
 %mem=2Gb
 %chk=ts.chk
 ----------------------------------------------------------------------
 #p B3LYP/6-31g(d,p) opt=(Z-Matrix,ts,calcfc,noeigentest) nosym freq te
 mperature=300 pop=full gfinput
 ----------------------------------------------------------------------
 1/5=1,10=4,11=1,14=-1,18=40,26=3,38=1,112=300000/1,3;
 2/12=2,15=1,17=6,18=5,29=3,40=1/2;
 3/5=1,6=6,7=101,11=2,16=1,24=10,25=1,30=1,71=2,74=-5,140=1/1,2,3;
 4//1;
 5/5=2,38=5/2;
 8/6=4,10=90,11=11/1;
 11/6=1,8=1,9=11,15=111,16=1,31=1/1,2,10;
 10/6=1,13=1,31=1/2;
 6/7=3,28=1/1;
 7/10=1,18=20,25=1,30=1/1,2,3,16;
 1/5=1,10=4,11=1,14=-1,18=40,26=3/3(2);
 2/15=1,29=3/2;
 99//99;
 2/15=1,29=3/2;
 3/5=1,6=6,7=101,11=2,16=1,25=1,30=1,71=1,74=-5/1,2,3;
 4/5=5,16=3,69=1/1;
 5/5=2,38=5/2;
 7/30=1/1,2,3,16;
 1/5=1,11=1,14=-1,18=40,26=3/3(-5);
 2/15=1,29=3/2;
 6/7=3,19=2,28=1/1;
 99/9=1/99;
 Leave Link    1 at Fri Sep 13 21:10:46 2024, MaxMem=   268435456 cpu:         0.2
 (Enter /g100_work/pMI24_ChiCa/g09d1/g09d01/d01/build-node-6-2-59348/src/main/l101.exe)
 ------------------
 ch4+h to ch3+h2 ts
 ------------------
 Symbolic Z-matrix:
 Charge =  0 Multiplicity = 2
 c
 h                    1    hc2
 h                    1    hc3      2    hch3
 h                    1    hc4      2    hch4     3    dih4     0
 h                    1    hc5      2    hch5     3    dih5     0
 xx                   5    xxh6     1    xxhc6    4    dih6     0
 h                    5    hh7      6    hhxx7    1    dih7     0
       Variables:
  hc2                   1.0876                   
  hc3                   1.0877                   
  hch3                114.5554                   
  hc4                   1.0876                   
  hch4                114.57                     
  dih4                135.4125                   
  hc5                   1.3929                   
  hch5                103.6669                   
  dih5               -112.2117                   
  xxh6                  1.0317                   
  xxhc6                89.4183                   
  dih6                124.415                    
  hh7                   0.9098                   
  hhxx7                90.6659                   
  dih7                180.023                    
 
 NAtoms=      6 NQM=        6 NQMF=       0 NMMI=      0 NMMIF=      0
                NMic=       0 NMicF=      0.
                    Isotopes and Nuclear Properties:
 (Nuclear quadrupole moments (NQMom) in fm**2, nuclear magnetic moments (NMagM)
  in nuclear magnetons)

  Atom         1           2           3           4           5           6
 IAtWgt=          12           1           1           1           1           1
 AtmWgt=  12.0000000   1.0078250   1.0078250   1.0078250   1.0078250   1.0078250
 NucSpn=           0           1           1           1           1           1
 AtZEff=   0.0000000   0.0000000   0.0000000   0.0000000   0.0000000   0.0000000
 NQMom=    0.0000000   0.0000000   0.0000000   0.0000000   0.0000000   0.0000000
 NMagM=    0.0000000   2.7928460   2.7928460   2.7928460   2.7928460   2.7928460
 AtZNuc=   6.0000000   1.0000000   1.0000000   1.0000000   1.0000000   1.0000000
 Leave Link  101 at Fri Sep 13 21:10:46 2024, MaxMem=   268435456 cpu:         0.2
 (Enter /g100_work/pMI24_ChiCa/g09d1/g09d01/d01/build-node-6-2-59348/src/main/l103.exe)

 GradGradGradGradGradGradGradGradGradGradGradGradGradGradGradGradGradGrad
 Berny optimization.
 Initialization pass.
                       ----------------------------
                       !    Initial Parameters    !
                       ! (Angstroms and Degrees)  !
 ----------------------                            ----------------------
 !      Name          Value   Derivative information (Atomic Units)     !
 ------------------------------------------------------------------------
 !       hc2         1.0876   calculate D2E/DX2 analytically            !
 !       hc3         1.0877   calculate D2E/DX2 analytically            !
 !      hch3       114.5554   calculate D2E/DX2 analytically            !
 !       hc4         1.0876   calculate D2E/DX2 analytically            !
 !      hch4       114.57     calculate D2E/DX2 analytically            !
 !      dih4       135.4125   calculate D2E/DX2 analytically            !
 !       hc5         1.3929   calculate D2E/DX2 analytically            !
 !      hch5       103.6669   calculate D2E/DX2 analytically            !
 !      dih5      -112.2117   calculate D2E/DX2 analytically            !
 !      xxh6         1.0317   calculate D2E/DX2 analytically            !
 !      xxhc6       89.4183   calculate D2E/DX2 analytically            !
 !      dih6       124.415    calculate D2E/DX2 analytically            !
 !       hh7         0.9098   calculate D2E/DX2 analytically            !
 !      hhxx7       90.6659   calculate D2E/DX2 analytically            !
 !      dih7       180.023    calculate D2E/DX2 analytically            !
 ------------------------------------------------------------------------
 Trust Radius=3.00D-01 FncErr=1.00D-07 GrdErr=1.00D-06
 Number of steps in this run=     25 maximum allowed number of steps=    100.
 Search for a saddle point of order  1.
 GradGradGradGradGradGradGradGradGradGradGradGradGradGradGradGradGradGrad

 Leave Link  103 at Fri Sep 13 21:10:46 2024, MaxMem=   268435456 cpu:         0.1
 (Enter /g100_work/pMI24_ChiCa/g09d1/g09d01/d01/build-node-6-2-59348/src/main/l202.exe)
 ---------------------------------------------------------------------------------------------------
                            Z-MATRIX (ANGSTROMS AND DEGREES)
   CD    Cent   Atom    N1       Length/X        N2       Alpha/Y        N3        Beta/Z          J
 ---------------------------------------------------------------------------------------------------
      1      1  C 
      2      2  H        1   1.087600(     1)
      3      3  H        1   1.087700(     2)      2  114.555(     7)
      4      4  H        1   1.087600(     3)      2  114.570(     8)      3  135.412(    12)      0
      5      5  H        1   1.392900(     4)      2  103.667(     9)      3 -112.212(    13)      0
      6         X        5   1.031700(     5)      1   89.418(    10)      4  124.415(    14)      0
      7      6  H        5   0.909800(     6)      6   90.666(    11)      1  180.023(    15)      0
 ---------------------------------------------------------------------------------------------------
                         Z-Matrix orientation:                         
 ---------------------------------------------------------------------
 Center     Atomic      Atomic             Coordinates (Angstroms)
 Number     Number       Type             X           Y           Z
 ---------------------------------------------------------------------
      1          6           0        0.000000    0.000000    0.000000
      2          1           0        0.000000    0.000000    1.087600
      3          1           0        0.989328    0.000000   -0.452019
      4          1           0       -0.704432   -0.694361   -0.452229
      5          1           0       -0.511649    1.253025   -0.329110
      6         -1           0       -0.526403    1.498524    0.672847
      7          1           0       -0.845478    2.071264   -0.545397
 ---------------------------------------------------------------------
                    Distance matrix (angstroms):
                    1          2          3          4          5
     1  C    0.000000
     2  H    1.087600   0.000000
     3  H    1.087700   1.830081   0.000000
     4  H    1.087600   1.830147   1.830563   0.000000
     5  H    1.392900   1.959317   1.959110   1.960775   0.000000
     6  X    1.724934   1.641552   2.410049   2.471080   1.031700
     7  H    2.302699   2.769774   2.768640   2.770786   0.909800
                    6          7
     6  X    0.000000
     7  H    1.383459   0.000000
 Symmetry turned off by external request.
 Stoichiometry    CH5(2)
 Framework group  C1[X(CH5)]
 Deg. of freedom    12
 Full point group                 C1      NOp   1
 Rotational constants (GHZ):    149.6942537     58.2369536     58.2294993
 Leave Link  202 at Fri Sep 13 21:10:46 2024, MaxMem=   268435456 cpu:         0.2
 (Enter /g100_work/pMI24_ChiCa/g09d1/g09d01/d01/build-node-6-2-59348/src/main/l301.exe)
 Standard basis: 6-31G(d,p) (6D, 7F)
 Ernie: Thresh=  0.10000D-02 Tol=  0.10000D-05 Strict=F.
 AO basis set in the form of general basis input (Overlap normalization):
      1 0
 S   6 1.00       0.000000000000
      0.3047524880D+04  0.1834737132D-02
      0.4573695180D+03  0.1403732281D-01
      0.1039486850D+03  0.6884262226D-01
      0.2921015530D+02  0.2321844432D+00
      0.9286662960D+01  0.4679413484D+00
      0.3163926960D+01  0.3623119853D+00
 SP   3 1.00       0.000000000000
      0.7868272350D+01 -0.1193324198D+00  0.6899906659D-01
      0.1881288540D+01 -0.1608541517D+00  0.3164239610D+00
      0.5442492580D+00  0.1143456438D+01  0.7443082909D+00
 SP   1 1.00       0.000000000000
      0.1687144782D+00  0.1000000000D+01  0.1000000000D+01
 D   1 1.00       0.000000000000
      0.8000000000D+00  0.1000000000D+01
 ****
      2 0
 S   3 1.00       0.000000000000
      0.1873113696D+02  0.3349460434D-01
      0.2825394365D+01  0.2347269535D+00
      0.6401216923D+00  0.8137573261D+00
 S   1 1.00       0.000000000000
      0.1612777588D+00  0.1000000000D+01
 P   1 1.00       0.000000000000
      0.1100000000D+01  0.1000000000D+01
 ****
      3 0
 S   3 1.00       0.000000000000
      0.1873113696D+02  0.3349460434D-01
      0.2825394365D+01  0.2347269535D+00
      0.6401216923D+00  0.8137573261D+00
 S   1 1.00       0.000000000000
      0.1612777588D+00  0.1000000000D+01
 P   1 1.00       0.000000000000
      0.1100000000D+01  0.1000000000D+01
 ****
      4 0
 S   3 1.00       0.000000000000
      0.1873113696D+02  0.3349460434D-01
      0.2825394365D+01  0.2347269535D+00
      0.6401216923D+00  0.8137573261D+00
 S   1 1.00       0.000000000000
      0.1612777588D+00  0.1000000000D+01
 P   1 1.00       0.000000000000
      0.1100000000D+01  0.1000000000D+01
 ****
      5 0
 S   3 1.00       0.000000000000
      0.1873113696D+02  0.3349460434D-01
      0.2825394365D+01  0.2347269535D+00
      0.6401216923D+00  0.8137573261D+00
 S   1 1.00       0.000000000000
      0.1612777588D+00  0.1000000000D+01
 P   1 1.00       0.000000000000
      0.1100000000D+01  0.1000000000D+01
 ****
      6 0
 S   3 1.00       0.000000000000
      0.1873113696D+02  0.3349460434D-01
      0.2825394365D+01  0.2347269535D+00
      0.6401216923D+00  0.8137573261D+00
 S   1 1.00       0.000000000000
      0.1612777588D+00  0.1000000000D+01
 P   1 1.00       0.000000000000
      0.1100000000D+01  0.1000000000D+01
 ****

    40 basis functions,    63 primitive gaussians,    40 cartesian basis functions
     6 alpha electrons        5 beta electrons
       nuclear repulsion energy        15.2482943612 Hartrees.
 IExCor=  402 DFT=T Ex+Corr=B3LYP ExCW=0 ScaHFX=  0.200000
 ScaDFX=  0.800000  0.720000  1.000000  0.810000 ScalE2=  1.000000  1.000000
 IRadAn=      0 IRanWt=     -1 IRanGd=            0 ICorTp=0 IEmpDi=  4
 NAtoms=    6 NActive=    6 NUniq=    6 SFac= 1.00D+00 NAtFMM=   60 NAOKFM=F Big=F
 Integral buffers will be    131072 words long.
 Raffenetti 2 integral format.
 Two-electron integral symmetry is turned off.
 Leave Link  301 at Fri Sep 13 21:10:46 2024, MaxMem=   268435456 cpu:         0.1
 (Enter /g100_work/pMI24_ChiCa/g09d1/g09d01/d01/build-node-6-2-59348/src/main/l302.exe)
 NPDir=0 NMtPBC=     1 NCelOv=     1 NCel=       1 NClECP=     1 NCelD=      1
         NCelK=      1 NCelE2=     1 NClLst=     1 CellRange=     0.0.
 One-electron integrals computed using PRISM.
 NBasis=    40 RedAO= T EigKep=  1.40D-02  NBF=    40
 NBsUse=    40 1.00D-06 EigRej= -1.00D+00 NBFU=    40
 Precomputing XC quadrature grid using
 IXCGrd= 4 IRadAn=           0 IRanWt=          -1 IRanGd=           0 AccXCQ= 0.00D+00.
 Generated NRdTot=       0 NPtTot=           0 NUsed=           0 NTot=          32
 NSgBfM=    40    40    40    40    40 MxSgAt=     6 MxSgA2=     6.
 Leave Link  302 at Fri Sep 13 21:10:47 2024, MaxMem=   268435456 cpu:         1.2
 (Enter /g100_work/pMI24_ChiCa/g09d1/g09d01/d01/build-node-6-2-59348/src/main/l303.exe)
 DipDrv:  MaxL=1.
 Leave Link  303 at Fri Sep 13 21:10:47 2024, MaxMem=   268435456 cpu:         0.2
 (Enter /g100_work/pMI24_ChiCa/g09d1/g09d01/d01/build-node-6-2-59348/src/main/l401.exe)
 ExpMin= 1.61D-01 ExpMax= 3.05D+03 ExpMxC= 4.57D+02 IAcc=1 IRadAn=         1 AccDes= 0.00D+00
 Harris functional with IExCor=  402 and IRadAn=       1 diagonalized for initial guess.
 HarFok:  IExCor=  402 AccDes= 0.00D+00 IRadAn=         1 IDoV= 1 UseB2=F ITyADJ=14
 ICtDFT=  3500011 ScaDFX=  1.000000  1.000000  1.000000  1.000000
 FoFCou: FMM=F IPFlag=           0 FMFlag=      100000 FMFlg1=           0
         NFxFlg=           0 DoJE=T BraDBF=F KetDBF=T FulRan=T
         wScrn=  0.000000 ICntrl=     500 IOpCl=  0 I1Cent=   200000004 NGrid=           0
         NMat0=    1 NMatS0=      1 NMatT0=    0 NMatD0=    1 NMtDS0=    0 NMtDT0=    0
 Symmetry not used in FoFCou.
 Harris En= -41.0155118766126    
 JPrj=0 DoOrth=F DoCkMO=F.
 Initial guess <Sx>= 0.0000 <Sy>= 0.0000 <Sz>= 0.5000 <S**2>= 0.7500 S= 0.5000
 Leave Link  401 at Fri Sep 13 21:10:47 2024, MaxMem=   268435456 cpu:         1.2
 (Enter /g100_work/pMI24_ChiCa/g09d1/g09d01/d01/build-node-6-2-59348/src/main/l502.exe)
 UHF open shell SCF:
 Using DIIS extrapolation, IDIIS=  1040.
 Two-electron integral symmetry not used.
 Keep R1 and R2 ints in memory in canonical form, NReq=1558450.
 IVT=       24562 IEndB=       24562 NGot=   268435456 MDV=   267737675
 LenX=   267737675 LenY=   267735634
 Requested convergence on RMS density matrix=1.00D-08 within 128 cycles.
 Requested convergence on MAX density matrix=1.00D-06.
 Requested convergence on             energy=1.00D-06.
 No special actions if energy rises.
 FoFCou: FMM=F IPFlag=           0 FMFlag=           0 FMFlg1=           0
         NFxFlg=           0 DoJE=F BraDBF=F KetDBF=F FulRan=T
         wScrn=  0.000000 ICntrl=     600 IOpCl=  0 I1Cent=           0 NGrid=           0
         NMat0=    1 NMatS0=    820 NMatT0=    0 NMatD0=    1 NMtDS0=    0 NMtDT0=    0
 Symmetry not used in FoFCou.
 Integral accuracy reduced to 1.0D-05 until final iterations.

 Cycle   1  Pass 0  IDiag  1:
 E= -40.9405612310185    
 DIIS: error= 3.37D-02 at cycle   1 NSaved=   1.
 NSaved= 1 IEnMin= 1 EnMin= -40.9405612310185     IErMin= 1 ErrMin= 3.37D-02
 ErrMax= 3.37D-02  0.00D+00 EMaxC= 1.00D-01 BMatC= 2.37D-01 BMatP= 2.37D-01
 IDIUse=3 WtCom= 6.63D-01 WtEn= 3.37D-01
 Coeff-Com:  0.100D+01
 Coeff-En:   0.100D+01
 Coeff:      0.100D+01
 Gap=     0.310 Goal=   None    Shift=    0.000
 Gap=     0.339 Goal=   None    Shift=    0.000
 GapD=    0.310 DampG=1.000 DampE=0.500 DampFc=0.5000 IDamp=-1.
 Damping current iteration by 5.00D-01
 RMSDP=1.42D-02 MaxDP=2.78D-01              OVMax= 2.11D-01

 Cycle   2  Pass 0  IDiag  1:
 E= -40.9702674362147     Delta-E=       -0.029706205196 Rises=F Damp=T
 DIIS: error= 1.12D-02 at cycle   2 NSaved=   2.
 NSaved= 2 IEnMin= 2 EnMin= -40.9702674362147     IErMin= 2 ErrMin= 1.12D-02
 ErrMax= 1.12D-02  0.00D+00 EMaxC= 1.00D-01 BMatC= 1.18D-02 BMatP= 2.37D-01
 IDIUse=3 WtCom= 8.88D-01 WtEn= 1.12D-01
 Coeff-Com:  0.961D-01 0.904D+00
 Coeff-En:   0.154D+00 0.846D+00
 Coeff:      0.102D+00 0.898D+00
 Gap=     0.325 Goal=   None    Shift=    0.000
 Gap=     0.330 Goal=   None    Shift=    0.000
 RMSDP=2.29D-03 MaxDP=4.57D-02 DE=-2.97D-02 OVMax= 1.32D-01

 Cycle   3  Pass 0  IDiag  1:
 E= -41.0092596730391     Delta-E=       -0.038992236824 Rises=F Damp=F
 DIIS: error= 2.61D-03 at cycle   3 NSaved=   3.
 NSaved= 3 IEnMin= 3 EnMin= -41.0092596730391     IErMin= 3 ErrMin= 2.61D-03
 ErrMax= 2.61D-03  0.00D+00 EMaxC= 1.00D-01 BMatC= 4.00D-04 BMatP= 1.18D-02
 IDIUse=3 WtCom= 9.74D-01 WtEn= 2.61D-02
 Coeff-Com: -0.613D-02 0.280D-01 0.978D+00
 Coeff-En:   0.000D+00 0.000D+00 0.100D+01
 Coeff:     -0.597D-02 0.273D-01 0.979D+00
 Gap=     0.330 Goal=   None    Shift=    0.000
 Gap=     0.325 Goal=   None    Shift=    0.000
 RMSDP=5.00D-04 MaxDP=7.33D-03 DE=-3.90D-02 OVMax= 1.33D-02

 Cycle   4  Pass 0  IDiag  1:
 E= -41.0094814172817     Delta-E=       -0.000221744243 Rises=F Damp=F
 DIIS: error= 6.48D-04 at cycle   4 NSaved=   4.
 NSaved= 4 IEnMin= 4 EnMin= -41.0094814172817     IErMin= 4 ErrMin= 6.48D-04
 ErrMax= 6.48D-04  0.00D+00 EMaxC= 1.00D-01 BMatC= 4.89D-05 BMatP= 4.00D-04
 IDIUse=3 WtCom= 9.94D-01 WtEn= 6.48D-03
 Coeff-Com: -0.340D-03-0.381D-01-0.155D-02 0.104D+01
 Coeff-En:   0.000D+00 0.000D+00 0.000D+00 0.100D+01
 Coeff:     -0.338D-03-0.379D-01-0.154D-02 0.104D+01
 Gap=     0.329 Goal=   None    Shift=    0.000
 Gap=     0.327 Goal=   None    Shift=    0.000
 RMSDP=2.06D-04 MaxDP=2.74D-03 DE=-2.22D-04 OVMax= 4.37D-03

 Cycle   5  Pass 0  IDiag  1:
 E= -41.0095098686318     Delta-E=       -0.000028451350 Rises=F Damp=F
 DIIS: error= 2.73D-04 at cycle   5 NSaved=   5.
 NSaved= 5 IEnMin= 5 EnMin= -41.0095098686318     IErMin= 5 ErrMin= 2.73D-04
 ErrMax= 2.73D-04  0.00D+00 EMaxC= 1.00D-01 BMatC= 4.59D-06 BMatP= 4.89D-05
 IDIUse=3 WtCom= 9.97D-01 WtEn= 2.73D-03
 Coeff-Com: -0.165D-02 0.176D-02-0.863D-01 0.170D-01 0.107D+01
 Coeff-En:   0.000D+00 0.000D+00 0.000D+00 0.000D+00 0.100D+01
 Coeff:     -0.165D-02 0.175D-02-0.860D-01 0.169D-01 0.107D+01
 Gap=     0.330 Goal=   None    Shift=    0.000
 Gap=     0.328 Goal=   None    Shift=    0.000
 RMSDP=5.42D-05 MaxDP=6.82D-04 DE=-2.85D-05 OVMax= 1.35D-03

 Cycle   6  Pass 0  IDiag  1:
 E= -41.0095124517191     Delta-E=       -0.000002583087 Rises=F Damp=F
 DIIS: error= 1.69D-05 at cycle   6 NSaved=   6.
 NSaved= 6 IEnMin= 6 EnMin= -41.0095124517191     IErMin= 6 ErrMin= 1.69D-05
 ErrMax= 1.69D-05  0.00D+00 EMaxC= 1.00D-01 BMatC= 6.46D-08 BMatP= 4.59D-06
 IDIUse=1 WtCom= 1.00D+00 WtEn= 0.00D+00
 Coeff-Com:  0.150D-03 0.727D-03 0.214D-02-0.197D-01-0.348D-01 0.105D+01
 Coeff:      0.150D-03 0.727D-03 0.214D-02-0.197D-01-0.348D-01 0.105D+01
 Gap=     0.330 Goal=   None    Shift=    0.000
 Gap=     0.328 Goal=   None    Shift=    0.000
 RMSDP=6.97D-06 MaxDP=6.06D-05 DE=-2.58D-06 OVMax= 9.78D-05

 Initial convergence to 1.0D-05 achieved.  Increase integral accuracy.
 Cycle   7  Pass 1  IDiag  1:
 E= -41.0095138593246     Delta-E=       -0.000001407606 Rises=F Damp=F
 DIIS: error= 6.74D-06 at cycle   1 NSaved=   1.
 NSaved= 1 IEnMin= 1 EnMin= -41.0095138593246     IErMin= 1 ErrMin= 6.74D-06
 ErrMax= 6.74D-06  0.00D+00 EMaxC= 1.00D-01 BMatC= 9.31D-09 BMatP= 9.31D-09
 IDIUse=1 WtCom= 1.00D+00 WtEn= 0.00D+00
 Coeff-Com:  0.100D+01
 Coeff:      0.100D+01
 Gap=     0.330 Goal=   None    Shift=    0.000
 Gap=     0.328 Goal=   None    Shift=    0.000
 RMSDP=6.97D-06 MaxDP=6.06D-05 DE=-1.41D-06 OVMax= 3.48D-05

 Cycle   8  Pass 1  IDiag  1:
 E= -41.0095138635508     Delta-E=       -0.000000004226 Rises=F Damp=F
 DIIS: error= 2.87D-06 at cycle   2 NSaved=   2.
 NSaved= 2 IEnMin= 2 EnMin= -41.0095138635508     IErMin= 2 ErrMin= 2.87D-06
 ErrMax= 2.87D-06  0.00D+00 EMaxC= 1.00D-01 BMatC= 1.73D-09 BMatP= 9.31D-09
 IDIUse=1 WtCom= 1.00D+00 WtEn= 0.00D+00
 Coeff-Com:  0.174D+00 0.826D+00
 Coeff:      0.174D+00 0.826D+00
 Gap=     0.330 Goal=   None    Shift=    0.000
 Gap=     0.328 Goal=   None    Shift=    0.000
 RMSDP=9.05D-07 MaxDP=9.05D-06 DE=-4.23D-09 OVMax= 1.40D-05

 Cycle   9  Pass 1  IDiag  1:
 E= -41.0095138642828     Delta-E=       -0.000000000732 Rises=F Damp=F
 DIIS: error= 1.55D-06 at cycle   3 NSaved=   3.
 NSaved= 3 IEnMin= 3 EnMin= -41.0095138642828     IErMin= 3 ErrMin= 1.55D-06
 ErrMax= 1.55D-06  0.00D+00 EMaxC= 1.00D-01 BMatC= 3.25D-10 BMatP= 1.73D-09
 IDIUse=1 WtCom= 1.00D+00 WtEn= 0.00D+00
 Coeff-Com: -0.135D+00 0.600D-01 0.108D+01
 Coeff:     -0.135D+00 0.600D-01 0.108D+01
 Gap=     0.330 Goal=   None    Shift=    0.000
 Gap=     0.328 Goal=   None    Shift=    0.000
 RMSDP=4.49D-07 MaxDP=6.43D-06 DE=-7.32D-10 OVMax= 9.24D-06

 Cycle  10  Pass 1  IDiag  1:
 E= -41.0095138644451     Delta-E=       -0.000000000162 Rises=F Damp=F
 DIIS: error= 8.20D-07 at cycle   4 NSaved=   4.
 NSaved= 4 IEnMin= 4 EnMin= -41.0095138644451     IErMin= 4 ErrMin= 8.20D-07
 ErrMax= 8.20D-07  0.00D+00 EMaxC= 1.00D-01 BMatC= 1.40D-10 BMatP= 3.25D-10
 IDIUse=1 WtCom= 1.00D+00 WtEn= 0.00D+00
 Coeff-Com: -0.980D-01-0.671D-01 0.570D+00 0.595D+00
 Coeff:     -0.980D-01-0.671D-01 0.570D+00 0.595D+00
 Gap=     0.330 Goal=   None    Shift=    0.000
 Gap=     0.328 Goal=   None    Shift=    0.000
 RMSDP=2.03D-07 MaxDP=3.35D-06 DE=-1.62D-10 OVMax= 3.25D-06

 Cycle  11  Pass 1  IDiag  1:
 E= -41.0095138644879     Delta-E=       -0.000000000043 Rises=F Damp=F
 DIIS: error= 1.43D-07 at cycle   5 NSaved=   5.
 NSaved= 5 IEnMin= 5 EnMin= -41.0095138644879     IErMin= 5 ErrMin= 1.43D-07
 ErrMax= 1.43D-07  0.00D+00 EMaxC= 1.00D-01 BMatC= 2.70D-12 BMatP= 1.40D-10
 IDIUse=1 WtCom= 1.00D+00 WtEn= 0.00D+00
 Coeff-Com:  0.649D-02-0.118D-01-0.669D-01 0.778D-01 0.994D+00
 Coeff:      0.649D-02-0.118D-01-0.669D-01 0.778D-01 0.994D+00
 Gap=     0.330 Goal=   None    Shift=    0.000
 Gap=     0.328 Goal=   None    Shift=    0.000
 RMSDP=2.79D-08 MaxDP=4.07D-07 DE=-4.28D-11 OVMax= 7.91D-07

 Cycle  12  Pass 1  IDiag  1:
 E= -41.0095138644890     Delta-E=       -0.000000000001 Rises=F Damp=F
 DIIS: error= 1.89D-08 at cycle   6 NSaved=   6.
 NSaved= 6 IEnMin= 6 EnMin= -41.0095138644890     IErMin= 6 ErrMin= 1.89D-08
 ErrMax= 1.89D-08  0.00D+00 EMaxC= 1.00D-01 BMatC= 2.66D-14 BMatP= 2.70D-12
 IDIUse=1 WtCom= 1.00D+00 WtEn= 0.00D+00
 Coeff-Com:  0.615D-03 0.263D-02 0.112D-02-0.255D-01-0.127D+00 0.115D+01
 Coeff:      0.615D-03 0.263D-02 0.112D-02-0.255D-01-0.127D+00 0.115D+01
 Gap=     0.330 Goal=   None    Shift=    0.000
 Gap=     0.328 Goal=   None    Shift=    0.000
 RMSDP=7.77D-09 MaxDP=1.40D-07 DE=-1.14D-12 OVMax= 1.35D-07

 SCF Done:  E(UB3LYP) =  -41.0095138645     A.U. after   12 cycles
            NFock= 12  Conv=0.78D-08     -V/T= 2.0107
 <Sx>= 0.0000 <Sy>= 0.0000 <Sz>= 0.5000 <S**2>= 0.7581 S= 0.5040
 <L.S>=  0.00000000000    
 KE= 4.057480723626D+01 PE=-1.244213118447D+02 EE= 2.758869638272D+01
 Annihilation of the first spin contaminant:
 S**2 before annihilation     0.7581,   after     0.7500
 Leave Link  502 at Fri Sep 13 21:10:47 2024, MaxMem=   268435456 cpu:         5.6
 (Enter /g100_work/pMI24_ChiCa/g09d1/g09d01/d01/build-node-6-2-59348/src/main/l801.exe)
 DoSCS=F DFT=T ScalE2(SS,OS)=  1.000000  1.000000
 Range of M.O.s used for correlation:     1    40
 NBasis=    40 NAE=     6 NBE=     5 NFC=     0 NFV=     0
 NROrb=     40 NOA=     6 NOB=     5 NVA=    34 NVB=    35
 Leave Link  801 at Fri Sep 13 21:10:47 2024, MaxMem=   268435456 cpu:         0.1
 (Enter /g100_work/pMI24_ChiCa/g09d1/g09d01/d01/build-node-6-2-59348/src/main/l1101.exe)
 Using compressed storage, NAtomX=     6.
 Will process      7 centers per pass.
 Leave Link 1101 at Fri Sep 13 21:10:47 2024, MaxMem=   268435456 cpu:         1.3
 (Enter /g100_work/pMI24_ChiCa/g09d1/g09d01/d01/build-node-6-2-59348/src/main/l1102.exe)
 Symmetrizing basis deriv contribution to polar:
 IMax=3 JMax=2 DiffMx= 0.00D+00
 Leave Link 1102 at Fri Sep 13 21:10:47 2024, MaxMem=   268435456 cpu:         0.2
 (Enter /g100_work/pMI24_ChiCa/g09d1/g09d01/d01/build-node-6-2-59348/src/main/l1110.exe)
 Forming Gx(P) for the SCF density, NAtomX=     6.
 Integral derivatives from FoFJK, PRISM(SPDF).
 Do as many integral derivatives as possible in FoFJK.
 G2DrvN: MDV=     268435304.
 G2DrvN: will do     7 centers at a time, making    1 passes.
 Calling FoFCou, ICntrl=  3107 FMM=F I1Cent=   0 AccDes= 0.00D+00.
 FoFJK:  IHMeth= 1 ICntrl=    3107 DoSepK=F KAlg= 0 I1Cent=   0 FoldK=F
 IRaf=         0 NMat=   1 IRICut=       1 DoRegI=T DoRafI=F ISym2E= 0.
 FoFCou: FMM=F IPFlag=           0 FMFlag=      100000 FMFlg1=           0
         NFxFlg=           0 DoJE=F BraDBF=F KetDBF=F FulRan=T
         wScrn=  0.000000 ICntrl=    3107 IOpCl=  1 I1Cent=           0 NGrid=           0
         NMat0=    1 NMatS0=      1 NMatT0=    0 NMatD0=    1 NMtDS0=    0 NMtDT0=    0
 Symmetry not used in FoFCou.
 End of G2Drv F.D. properties file   721 does not exist.
 End of G2Drv F.D. properties file   722 does not exist.
 End of G2Drv F.D. properties file   788 does not exist.
 Leave Link 1110 at Fri Sep 13 21:10:48 2024, MaxMem=   268435456 cpu:         4.2
 (Enter /g100_work/pMI24_ChiCa/g09d1/g09d01/d01/build-node-6-2-59348/src/main/l1002.exe)
 Minotr:  UHF open shell wavefunction.
          IDoAtm=111111
          Direct CPHF calculation.
          Differentiating once with respect to nuclear coordinates.
          Requested convergence is 1.0D-08 RMS, and 1.0D-07 maximum.
          Secondary convergence is 1.0D-12 RMS, and 1.0D-12 maximum.
          NewPWx=T KeepS1=F KeepF1=F KeepIn=T MapXYZ=F SortEE=F KeepMc=T.
          MDV=     268435312 using IRadAn=       2.
 Generate precomputed XC quadrature information.
 Keep R1 and R2 ints in memory in canonical form, NReq=1534200.
 FoFCou: FMM=F IPFlag=           0 FMFlag=           0 FMFlg1=           0
         NFxFlg=           0 DoJE=F BraDBF=F KetDBF=F FulRan=T
         wScrn=  0.000000 ICntrl=     600 IOpCl=  0 I1Cent=           0 NGrid=           0
         NMat0=    1 NMatS0=    820 NMatT0=    0 NMatD0=    1 NMtDS0=    0 NMtDT0=    0
 Symmetry not used in FoFCou.
          Solving linear equations simultaneously, MaxMat=       0.
          There are    21 degrees of freedom in the 1st order CPHF.  IDoFFX=6 NUNeed=     0.
     15 vectors produced by pass  0 Test12= 1.80D-15 4.76D-09 XBig12= 1.37D-01 2.20D-01.
 AX will form    15 AO Fock derivatives at one time.
     15 vectors produced by pass  1 Test12= 1.80D-15 4.76D-09 XBig12= 5.55D-03 2.61D-02.
     15 vectors produced by pass  2 Test12= 1.80D-15 4.76D-09 XBig12= 6.27D-05 2.48D-03.
     15 vectors produced by pass  3 Test12= 1.80D-15 4.76D-09 XBig12= 3.18D-07 1.79D-04.
     15 vectors produced by pass  4 Test12= 1.80D-15 4.76D-09 XBig12= 3.70D-09 1.77D-05.
     11 vectors produced by pass  5 Test12= 1.80D-15 4.76D-09 XBig12= 1.21D-11 9.39D-07.
      3 vectors produced by pass  6 Test12= 1.80D-15 4.76D-09 XBig12= 3.26D-14 4.95D-08.
 InvSVY:  IOpt=1 It=  1 EMax= 1.78D-15
 Solved reduced A of dimension    89 with    15 vectors.
 End of Minotr F.D. properties file   721 does not exist.
 End of Minotr F.D. properties file   722 does not exist.
 End of Minotr F.D. properties file   788 does not exist.
 Leave Link 1002 at Fri Sep 13 21:10:48 2024, MaxMem=   268435456 cpu:         6.4
 (Enter /g100_work/pMI24_ChiCa/g09d1/g09d01/d01/build-node-6-2-59348/src/main/l601.exe)
 Copying SCF densities to generalized density rwf, IOpCl= 1 IROHF=0.

 **********************************************************************

            Population analysis using the SCF density.

 **********************************************************************

 Alpha  occ. eigenvalues --  -10.19675  -0.70258  -0.44684  -0.41467  -0.41459
 Alpha  occ. eigenvalues --   -0.21465
 Alpha virt. eigenvalues --    0.11532   0.16932   0.16935   0.20310   0.51692
 Alpha virt. eigenvalues --    0.51699   0.54723   0.68444   0.87009   0.87015
 Alpha virt. eigenvalues --    0.90327   0.96033   1.18493   1.36579   1.36590
 Alpha virt. eigenvalues --    1.75330   1.75332   1.78345   1.99247   1.99274
 Alpha virt. eigenvalues --    2.01548   2.29058   2.29075   2.49726   2.51560
 Alpha virt. eigenvalues --    2.62960   2.63027   2.81293   2.81320   3.18638
 Alpha virt. eigenvalues --    3.41273   3.41308   3.83600   4.49222
  Beta  occ. eigenvalues --  -10.18628  -0.67607  -0.40731  -0.40722  -0.40299
  Beta virt. eigenvalues --   -0.07536   0.12311   0.17555   0.17557   0.23274
  Beta virt. eigenvalues --    0.52088   0.52095   0.59234   0.72646   0.87628
  Beta virt. eigenvalues --    0.87635   0.92710   0.96959   1.20575   1.38945
  Beta virt. eigenvalues --    1.38957   1.78489   1.78492   1.82611   2.00260
  Beta virt. eigenvalues --    2.00288   2.01339   2.31916   2.31930   2.50579
  Beta virt. eigenvalues --    2.56101   2.64305   2.64371   2.82288   2.82315
  Beta virt. eigenvalues --    3.19619   3.42034   3.42070   3.87399   4.51666
     Alpha Molecular Orbital Coefficients:
                           1         2         3         4         5
                           O         O         O         O         O
     Eigenvalues --   -10.19675  -0.70258  -0.44684  -0.41467  -0.41459
   1 1   C  1S          0.99274  -0.19999   0.02991  -0.00006   0.00003
   2        2S          0.05051   0.39502  -0.05868   0.00011  -0.00007
   3        2PX        -0.00007  -0.00019  -0.10008   0.39713  -0.14274
   4        2PY         0.00016   0.00061   0.24808   0.19032   0.05409
   5        2PZ        -0.00004  -0.00008  -0.06493   0.10863   0.42713
   6        3S         -0.01492   0.37100  -0.06793   0.00014  -0.00013
   7        3PX         0.00036  -0.00097  -0.04691   0.17204  -0.06183
   8        3PY        -0.00088   0.00247   0.11606   0.08237   0.02342
   9        3PZ         0.00023  -0.00061  -0.03041   0.04706   0.18503
  10        4XX        -0.00940  -0.00926  -0.00198   0.00381  -0.01660
  11        4YY        -0.00938  -0.00476   0.01499  -0.00866  -0.00243
  12        4ZZ        -0.00941  -0.00979  -0.00398   0.00484   0.01904
  13        4XY        -0.00001  -0.00254  -0.00967  -0.01026  -0.00366
  14        4XZ         0.00000   0.00067   0.00248  -0.01540   0.00498
  15        4YZ        -0.00001  -0.00164  -0.00622  -0.00702  -0.00082
  16 2   H  1S         -0.00019   0.14008  -0.06884   0.06861   0.26959
  17        2S          0.00251   0.04153  -0.04848   0.05670   0.22295
  18        3PX        -0.00002   0.00015  -0.00195   0.00704  -0.00223
  19        3PY         0.00004  -0.00037   0.00483   0.00317   0.00027
  20        3PZ         0.00017  -0.01298   0.00309  -0.00180  -0.00705
  21 3   H  1S         -0.00019   0.14004  -0.06831   0.19952  -0.19405
  22        2S          0.00251   0.04152  -0.04808   0.16494  -0.16049
  23        3PX         0.00014  -0.01174   0.00198  -0.00274   0.00693
  24        3PY         0.00004  -0.00037   0.00483   0.00284   0.00144
  25        3PZ        -0.00008   0.00553  -0.00306   0.00657   0.00296
  26 4   H  1S         -0.00019   0.14004  -0.06982  -0.26748  -0.07561
  27        2S          0.00250   0.04154  -0.04921  -0.22114  -0.06252
  28        3PX        -0.00013   0.00862  -0.00481  -0.00277  -0.00526
  29        3PY        -0.00007   0.00797   0.00202  -0.00531  -0.00149
  30        3PZ        -0.00009   0.00554  -0.00310  -0.00435   0.00573
  31 5   H  1S         -0.00006   0.09522   0.27815  -0.00084   0.00008
  32        2S          0.00420   0.03580   0.22357  -0.00074   0.00013
  33        3PX        -0.00012   0.00305  -0.00170   0.00541  -0.00195
  34        3PY         0.00029  -0.00745   0.00421   0.00257   0.00073
  35        3PZ        -0.00008   0.00196  -0.00112   0.00148   0.00582
  36 6   H  1S         -0.00031   0.04047   0.26786  -0.00094   0.00005
  37        2S         -0.00149   0.01878   0.23554  -0.00090   0.00000
  38        3PX        -0.00009   0.00155   0.00479   0.00104  -0.00038
  39        3PY         0.00023  -0.00381  -0.01173   0.00054   0.00014
  40        3PZ        -0.00006   0.00101   0.00310   0.00028   0.00114
                           6         7         8         9        10
                           O         V         V         V         V
     Eigenvalues --    -0.21465   0.11532   0.16932   0.16935   0.20310
   1 1   C  1S          0.04700  -0.14815   0.00001   0.00018   0.06247
   2        2S         -0.10172   0.19487   0.00003  -0.00029  -0.08455
   3        2PX         0.17576   0.05821   0.11541   0.34456   0.08305
   4        2PY        -0.42901  -0.14171  -0.04988   0.16316  -0.20511
   5        2PZ         0.11301   0.03725  -0.36991   0.08544   0.05317
   6        3S         -0.26432   2.31290  -0.00068  -0.00243  -0.91556
   7        3PX         0.13927   0.13727   0.40784   1.21846   0.37792
   8        3PY        -0.33984  -0.33333  -0.17643   0.57696  -0.93310
   9        3PZ         0.08948   0.08777  -1.30761   0.30230   0.24341
  10        4XX         0.00460  -0.01980  -0.01578  -0.00526  -0.00038
  11        4YY        -0.00407  -0.00493  -0.00295   0.00966   0.03829
  12        4ZZ         0.00564  -0.02153   0.01872  -0.00432  -0.00494
  13        4XY         0.00493  -0.00843  -0.00280   0.01104  -0.02194
  14        4XZ        -0.00129   0.00222   0.00500   0.01366   0.00573
  15        4YZ         0.00316  -0.00543  -0.00296   0.00673  -0.01407
  16 2   H  1S          0.03561  -0.05078   0.10919  -0.02525  -0.06392
  17        2S          0.07645  -1.12035   1.75544  -0.40467  -0.03378
  18        3PX         0.00393   0.00208   0.00427   0.01212   0.00246
  19        3PY        -0.00958  -0.00509  -0.00225   0.00587  -0.00607
  20        3PZ         0.00085  -0.00611   0.00378  -0.00086   0.00167
  21 3   H  1S          0.03555  -0.05094  -0.07639  -0.08197  -0.06368
  22        2S          0.07638  -1.12132  -1.22724  -1.31744  -0.03344
  23        3PX         0.00240  -0.00470  -0.00670   0.00061   0.00254
  24        3PY        -0.00957  -0.00509  -0.00143   0.00613  -0.00609
  25        3PZ         0.00322   0.00443  -0.00829   0.00814   0.00155
  26 4   H  1S          0.03562  -0.05084  -0.03279   0.10695  -0.06387
  27        2S          0.07637  -1.12047  -0.52639   1.72281  -0.04075
  28        3PX         0.00501   0.00692   0.00727   0.00174   0.00248
  29        3PY        -0.00851  -0.00032   0.00158  -0.00519  -0.00614
  30        3PZ         0.00322   0.00443  -0.01103  -0.00369   0.00159
  31 5   H  1S         -0.01375   0.04223  -0.00023   0.00084   0.31582
  32        2S         -0.04277  -0.19290  -0.00128   0.00490   2.57607
  33        3PX        -0.00905  -0.00007   0.00229   0.00688   0.00057
  34        3PY         0.02220   0.00013  -0.00101   0.00326  -0.00143
  35        3PZ        -0.00584  -0.00005  -0.00736   0.00172   0.00039
  36 6   H  1S          0.28966   0.03960   0.00002  -0.00006  -0.01488
  37        2S          0.54231   0.10303   0.00084  -0.00380  -1.76726
  38        3PX         0.00032   0.00094   0.00150   0.00455   0.00992
  39        3PY        -0.00078  -0.00234  -0.00065   0.00209  -0.02435
  40        3PZ         0.00022   0.00061  -0.00486   0.00115   0.00647
                          11        12        13        14        15
                           V         V         V         V         V
     Eigenvalues --     0.51692   0.51699   0.54723   0.68444   0.87009
   1 1   C  1S         -0.00002  -0.00001   0.01978   0.03135   0.00005
   2        2S          0.00060   0.00026   0.00817   0.09193  -0.00090
   3        2PX        -0.01990  -0.68908   0.35678  -0.06776  -0.31166
   4        2PY        -0.19596  -0.25735  -0.87294   0.16533   0.05541
   5        2PZ        -0.71434   0.08980   0.22989  -0.04340   0.69445
   6        3S         -0.00028  -0.00003  -0.22936  -0.25677   0.00168
   7        3PX         0.04159   1.44482  -0.52045  -0.05384   0.53550
   8        3PY         0.41183   0.54160   1.27641   0.13072  -0.09541
   9        3PZ         1.49743  -0.18859  -0.33614  -0.03498  -1.19294
  10        4XX         0.04779  -0.03643   0.02248   0.05100   0.19808
  11        4YY         0.02104   0.02782  -0.04910  -0.02149   0.01886
  12        4ZZ        -0.06864   0.00872   0.03097   0.05946  -0.21699
  13        4XY         0.02397   0.03263   0.04071   0.04112   0.02169
  14        4XZ         0.00104   0.05380  -0.01062  -0.01096  -0.08005
  15        4YZ         0.01659   0.02003   0.02616   0.02639   0.01491
  16 2   H  1S         -0.45015   0.05694   0.19037   0.28501  -0.75769
  17        2S         -0.34989   0.04410   0.09722  -0.01266   1.59503
  18        3PX         0.00060   0.02520  -0.00123  -0.00353  -0.02307
  19        3PY         0.00749   0.00943   0.00313   0.00842   0.00449
  20        3PZ         0.04171  -0.00524  -0.00516   0.02522  -0.09742
  21 3   H  1S          0.17629  -0.41847   0.18985   0.28558   0.62493
  22        2S          0.13626  -0.32568   0.09628  -0.01355  -1.31542
  23        3PX        -0.00479   0.03835  -0.00517   0.02154   0.08844
  24        3PY         0.00710   0.00976   0.00314   0.00840   0.00369
  25        3PZ         0.02867  -0.00941   0.00098  -0.01367   0.00031
  26 4   H  1S          0.27477   0.36170   0.19070   0.28460   0.13392
  27        2S          0.21318   0.28180   0.09778  -0.01326  -0.28200
  28        3PX         0.00695   0.03342   0.00156  -0.02129  -0.03981
  29        3PY         0.01311   0.01724   0.00596  -0.00902  -0.01274
  30        3PZ         0.03011   0.00197   0.00097  -0.01363   0.04016
  31 5   H  1S         -0.00036   0.00051  -0.07536   0.37685  -0.00007
  32        2S         -0.00115  -0.00156  -0.39695  -0.43615   0.00044
  33        3PX         0.00102   0.03448  -0.02869  -0.03368  -0.00878
  34        3PY         0.00984   0.01285   0.07041   0.08253   0.00149
  35        3PZ         0.03569  -0.00444  -0.01849  -0.02186   0.01962
  36 6   H  1S         -0.00004   0.00006  -0.04719   0.97566  -0.00069
  37        2S          0.00102   0.00044  -0.03882  -0.82007   0.00045
  38        3PX         0.00067   0.02442   0.00411   0.00779   0.00488
  39        3PY         0.00704   0.00907  -0.01002  -0.01913  -0.00092
  40        3PZ         0.02526  -0.00316   0.00260   0.00504  -0.01089
                          16        17        18        19        20
                           V         V         V         V         V
     Eigenvalues --     0.87015   0.90327   0.96033   1.18493   1.36579
   1 1   C  1S         -0.00018   0.06170   0.00472  -0.11093   0.00011
   2        2S          0.00073  -1.06529  -0.25390  -1.99973   0.00204
   3        2PX        -0.63729  -0.08756  -0.10169   0.09303  -0.02919
   4        2PY        -0.33001   0.21153   0.24878  -0.22749  -0.00583
   5        2PZ        -0.25969  -0.05689  -0.06514   0.05940   0.02209
   6        3S         -0.00102   2.18942   0.21141   5.27974  -0.00509
   7        3PX         1.09494   0.14623   0.40269  -0.32513   0.01408
   8        3PY         0.56673  -0.35405  -0.98465   0.79892   0.00248
   9        3PZ         0.44620   0.09509   0.25804  -0.20760  -0.01045
  10        4XX         0.03181   0.02849   0.03791  -0.09869   0.12720
  11        4YY        -0.11308  -0.05319  -0.17093  -0.06735  -0.13665
  12        4ZZ         0.08098   0.03869   0.06269  -0.10394   0.00967
  13        4XY        -0.13236   0.04642   0.11853  -0.01940  -0.42612
  14        4XZ        -0.16314  -0.01258  -0.03096   0.00645   0.18719
  15        4YZ        -0.08481   0.02970   0.07646  -0.01245   0.48781
  16 2   H  1S          0.28237   0.51880   0.17748  -0.36967  -0.01934
  17        2S         -0.59588  -0.88462  -0.59339  -0.76251   0.01702
  18        3PX        -0.04681   0.00131  -0.01651  -0.00566   0.08014
  19        3PY        -0.02439  -0.00362   0.04070   0.01540   0.22064
  20        3PZ         0.03633   0.07716   0.01297   0.00770  -0.00527
  21 3   H  1S          0.51377   0.51810   0.17682  -0.36960   0.03220
  22        2S         -1.08275  -0.88302  -0.59337  -0.76120  -0.02503
  23        3PX         0.04482   0.07057   0.00488   0.00469   0.04118
  24        3PY        -0.02452  -0.00357   0.04057   0.01532  -0.26942
  25        3PZ        -0.06085  -0.03086  -0.02051  -0.00820   0.06962
  26 4   H  1S         -0.79937   0.51606   0.17762  -0.36854  -0.01158
  27        2S          1.68114  -0.87991  -0.59389  -0.76123   0.01079
  28        3PX         0.05426  -0.04770  -0.03185  -0.01439   0.04562
  29        3PY         0.07611  -0.05200   0.02528   0.00863   0.08339
  30        3PZ         0.04583  -0.03065  -0.02064  -0.00912  -0.19141
  31 5   H  1S         -0.00122   0.33093  -1.17039   0.05088   0.00064
  32        2S          0.00149  -0.48137   3.16585  -2.50089   0.00084
  33        3PX        -0.01809   0.01448  -0.03989  -0.02923  -0.19068
  34        3PY        -0.00907  -0.03569   0.09771   0.07074  -0.03958
  35        3PZ        -0.00738   0.00945  -0.02555  -0.01931   0.14539
  36 6   H  1S          0.00075  -0.56176   0.29526   0.39348  -0.00061
  37        2S         -0.00142   0.69931  -1.57720   0.65386   0.00031
  38        3PX         0.00997   0.02052  -0.03982  -0.02638  -0.07301
  39        3PY         0.00530  -0.05040   0.09751   0.06462  -0.01529
  40        3PZ         0.00409   0.01333  -0.02561  -0.01762   0.05574
                          21        22        23        24        25
                           V         V         V         V         V
     Eigenvalues --     1.36590   1.75330   1.75332   1.78345   1.99247
   1 1   C  1S          0.00034  -0.00035  -0.00064  -0.05933   0.00001
   2        2S          0.00595   0.00087  -0.00139  -0.00280  -0.00066
   3        2PX        -0.01890   0.07872   0.00473  -0.05132  -0.10005
   4        2PY        -0.01410   0.03003   0.02463   0.12388  -0.04424
   5        2PZ        -0.02863  -0.01338   0.08157  -0.03334  -0.01132
   6        3S         -0.01580   0.00252   0.01039   0.71123   0.00100
   7        3PX         0.01020  -0.18126  -0.01164   0.08191   0.63870
   8        3PY         0.00411  -0.06903  -0.05538  -0.19552   0.28160
   9        3PZ         0.01445   0.03059  -0.18823   0.05326   0.07265
  10        4XX         0.35136   0.12495  -0.01995   0.10656   0.19754
  11        4YY        -0.33864  -0.11039  -0.09193  -0.55679  -0.25752
  12        4ZZ        -0.01222  -0.01635   0.10956   0.18464   0.06027
  13        4XY        -0.05755  -0.13762  -0.00247   0.37934  -0.30212
  14        4XZ         0.44380  -0.00461   0.06048  -0.10044  -0.43361
  15        4YZ        -0.34473   0.02810  -0.14449   0.24429  -0.19161
  16 2   H  1S          0.02651   0.00903  -0.06813  -0.27575  -0.05905
  17        2S         -0.01874  -0.02460   0.15260  -0.03019  -0.00758
  18        3PX         0.19868  -0.08390   0.08205  -0.04846  -0.30317
  19        3PY        -0.15943   0.00966  -0.23192   0.11944  -0.14696
  20        3PZ         0.00676   0.00376  -0.02769  -0.09578  -0.02986
  21 3   H  1S          0.00570  -0.06351   0.02061  -0.27657  -0.44791
  22        2S         -0.00173   0.14476  -0.05549  -0.02917  -0.05578
  23        3PX         0.08360   0.00271  -0.03313  -0.10716  -0.26087
  24        3PY         0.03863  -0.22588   0.05696   0.11817  -0.22566
  25        3PZ         0.18011   0.06873  -0.09372  -0.00311  -0.02458
  26 4   H  1S         -0.02843   0.04953   0.03864  -0.27700   0.50713
  27        2S          0.02644  -0.12065  -0.09896  -0.02744   0.06295
  28        3PX        -0.17592  -0.14341  -0.06476  -0.00448  -0.34080
  29        3PY         0.20649   0.13687   0.11227   0.15695  -0.02546
  30        3PZ        -0.02389  -0.03585  -0.11051  -0.00226  -0.04845
  31 5   H  1S         -0.00036   0.00174   0.00344   0.28416  -0.00033
  32        2S          0.00925  -0.00133  -0.00843  -0.55802  -0.00047
  33        3PX        -0.12107   0.48625   0.02979  -0.12431  -0.09761
  34        3PY        -0.09831   0.17950   0.14812   0.29338  -0.04294
  35        3PZ        -0.18602  -0.08158   0.50251  -0.08190  -0.01113
  36 6   H  1S         -0.00149  -0.00287  -0.00306  -0.35548   0.00032
  37        2S         -0.00270   0.00262   0.00562   0.48720  -0.00024
  38        3PX        -0.04618   0.61305   0.03956   0.10451  -0.22094
  39        3PY        -0.03821   0.22077   0.18075  -0.27247  -0.09639
  40        3PZ        -0.07114  -0.10133   0.63298   0.06564  -0.02490
                          26        27        28        29        30
                           V         V         V         V         V
     Eigenvalues --     1.99274   2.01548   2.29058   2.29075   2.49726
   1 1   C  1S         -0.00005  -0.00000   0.00016  -0.00002  -0.00029
   2        2S         -0.00024   0.00000   0.00063   0.00019   0.17757
   3        2PX         0.02065   0.00089   0.06587  -0.08512   0.02992
   4        2PY        -0.01946   0.00027   0.04836  -0.01443  -0.07228
   5        2PZ        -0.10619  -0.00035   0.08172   0.07711   0.01919
   6        3S          0.00120  -0.00000  -0.00362  -0.00001  -0.14100
   7        3PX        -0.13153  -0.00549   0.00802  -0.00938   0.19021
   8        3PY         0.12443  -0.00172   0.00355  -0.00159  -0.46442
   9        3PZ         0.67712   0.00202   0.00966   0.00864   0.12305
  10        4XX        -0.44926  -0.00318  -0.06262   0.30326  -0.12852
  11        4YY        -0.11462   0.00155   0.29096  -0.08760   0.34438
  12        4ZZ         0.56375   0.00163  -0.22825  -0.21590  -0.18550
  13        4XY        -0.13048   0.00182   0.21679  -0.22119  -0.26875
  14        4XZ         0.09117   0.00368  -0.02972  -0.14126   0.07099
  15        4YZ        -0.08918   0.00116   0.23388   0.17380  -0.17225
  16 2   H  1S         -0.55151  -0.00161   0.12715   0.11991   0.06759
  17        2S         -0.06804  -0.00020  -0.12735  -0.12036  -0.10966
  18        3PX         0.10601   0.54000   0.02768   0.27032  -0.22399
  19        3PY        -0.16822   0.22072  -0.41496  -0.29168   0.54524
  20        3PZ        -0.27974  -0.00085   0.12691   0.12003   0.09665
  21 3   H  1S          0.32649   0.00472   0.04019  -0.17013   0.06751
  22        2S          0.03997   0.00048  -0.03998   0.17086  -0.10891
  23        3PX         0.02674  -0.22093  -0.01592  -0.25524  -0.00554
  24        3PY         0.00323  -0.21831  -0.18618   0.47211   0.54586
  25        3PZ        -0.34028  -0.48965  -0.13101  -0.14857  -0.24456
  26 4   H  1S          0.22442  -0.00312  -0.16735   0.05005   0.06721
  27        2S          0.02757  -0.00028   0.16816  -0.05011  -0.10855
  28        3PX         0.05393  -0.31057  -0.14098   0.15049  -0.37937
  29        3PY        -0.01128   0.00026   0.50728  -0.15180   0.39325
  30        3PZ        -0.34060   0.48743  -0.15611  -0.12187  -0.24423
  31 5   H  1S          0.00022   0.00000   0.00064   0.00053  -0.10844
  32        2S         -0.00089   0.00000   0.00433  -0.00078   0.36980
  33        3PX         0.02001   0.00072   0.23664  -0.30456  -0.00713
  34        3PY        -0.01888   0.00023   0.17221  -0.05163   0.01697
  35        3PZ        -0.10331  -0.00026   0.29317   0.27576  -0.00572
  36 6   H  1S         -0.00022  -0.00000   0.00060   0.00006  -0.04389
  37        2S          0.00061   0.00000  -0.00239   0.00030  -0.01691
  38        3PX         0.04601   0.00193  -0.30567   0.39339   0.06784
  39        3PY        -0.04321   0.00060  -0.22286   0.06653  -0.16581
  40        3PZ        -0.23418  -0.00071  -0.37880  -0.35612   0.04452
                          31        32        33        34        35
                           V         V         V         V         V
     Eigenvalues --     2.51560   2.62960   2.63027   2.81293   2.81320
   1 1   C  1S         -0.06579  -0.00034   0.00013   0.00007  -0.00006
   2        2S         -0.19212   0.00005   0.00134   0.00049   0.00011
   3        2PX        -0.01756   0.03492  -0.05430  -0.00839  -0.17393
   4        2PY         0.04353  -0.00141  -0.03061  -0.05099  -0.06428
   5        2PZ        -0.01111  -0.06001  -0.03097  -0.18004   0.02663
   6        3S          1.38536   0.00556  -0.00351  -0.00168   0.00090
   7        3PX        -0.28154   0.28341  -0.44040  -0.01574  -0.31988
   8        3PY         0.68739  -0.00980  -0.24894  -0.09444  -0.11821
   9        3PZ        -0.17852  -0.48781  -0.25075  -0.33032   0.04833
  10        4XX        -0.13783  -0.25996   0.12200  -0.35876  -0.23808
  11        4YY         0.29246  -0.01113  -0.26152   0.20591   0.26040
  12        4ZZ        -0.19058   0.27066   0.13986   0.15312  -0.02252
  13        4XY        -0.24487   0.09822  -0.24790  -0.22491   0.37359
  14        4XZ         0.06347   0.13712  -0.06118  -0.32650  -0.52612
  15        4YZ        -0.15554  -0.18089  -0.14735   0.56012  -0.31791
  16 2   H  1S         -0.01420  -0.02348  -0.01176   0.01913  -0.00286
  17        2S         -0.16318   0.37346   0.19325   0.31502  -0.04648
  18        3PX         0.08848  -0.28661   0.30895   0.25370   0.58407
  19        3PY        -0.21515   0.16791   0.27529  -0.36312   0.30823
  20        3PZ         0.15342  -0.11208  -0.05825  -0.21255   0.03164
  21 3   H  1S         -0.01450   0.02202  -0.01388  -0.00704   0.01799
  22        2S         -0.16053  -0.35499   0.22814  -0.11723   0.29596
  23        3PX         0.17456   0.22910   0.05392   0.28436  -0.02339
  24        3PY        -0.21240  -0.14103   0.29037   0.38326  -0.28258
  25        3PZ         0.01471   0.24175   0.28337   0.43088   0.42943
  26 4   H  1S         -0.01415   0.00121   0.02647  -0.01186  -0.01520
  27        2S         -0.16099  -0.02101  -0.42109  -0.19773  -0.25008
  28        3PX         0.02552  -0.23458   0.08795  -0.51339  -0.07029
  29        3PY        -0.27439  -0.01536  -0.30989   0.12363   0.15583
  30        3PZ         0.01485   0.37185   0.03162   0.28883  -0.53517
  31 5   H  1S         -0.50790  -0.00173   0.00133  -0.00025  -0.00087
  32        2S         -1.28889  -0.00483   0.00302   0.00207  -0.00032
  33        3PX        -0.13496  -0.36841   0.57101  -0.00847  -0.18867
  34        3PY         0.33859   0.01730   0.31829  -0.05572  -0.06927
  35        3PZ        -0.08908   0.62982   0.32530  -0.19572   0.02928
  36 6   H  1S         -0.03647   0.00008  -0.00013   0.00013   0.00018
  37        2S          0.69801   0.00251  -0.00136  -0.00087   0.00038
  38        3PX         0.26505   0.24349  -0.37640   0.00616   0.13177
  39        3PY        -0.65614  -0.01304  -0.20869   0.03844   0.04734
  40        3PZ         0.17351  -0.41466  -0.21444   0.13635  -0.02004
                          36        37        38        39        40
                           V         V         V         V         V
     Eigenvalues --     3.18638   3.41273   3.41308   3.83600   4.49222
   1 1   C  1S         -0.14564  -0.00008   0.00008  -0.14158  -0.45732
   2        2S          1.07061   0.00090  -0.00032   0.69396   2.64267
   3        2PX         0.09076  -0.85186  -0.17078  -0.10780  -0.00563
   4        2PY        -0.22037  -0.37361   0.16788   0.26363   0.01349
   5        2PZ         0.05858  -0.09196   0.90338  -0.06930  -0.00374
   6        3S          0.94596   0.00043  -0.00031   0.47484   2.24354
   7        3PX         0.08424  -0.46974  -0.09431  -0.08460  -0.07600
   8        3PY        -0.20483  -0.20596   0.09246   0.20766   0.18727
   9        3PZ         0.05452  -0.05053   0.49811  -0.05420  -0.04864
  10        4XX        -0.00964  -0.33201  -0.87015  -0.78292  -1.96442
  11        4YY        -0.59933   0.43986  -0.19763  -0.11995  -1.85781
  12        4ZZ         0.05952  -0.10830   1.06853  -0.86036  -1.97682
  13        4XY         0.33515   0.52125  -0.28531  -0.37579  -0.06121
  14        4XZ        -0.08853   0.88117   0.14187   0.09830   0.01605
  15        4YZ         0.21515   0.37666  -0.08965  -0.24114  -0.03929
  16 2   H  1S         -0.32146   0.07871  -0.77722   0.24427   0.23381
  17        2S         -0.37354   0.04976  -0.49141  -0.03455  -0.36568
  18        3PX         0.00871  -0.13037  -0.00751   0.00384   0.00236
  19        3PY        -0.02126  -0.05193  -0.01917  -0.00923  -0.00595
  20        3PZ         0.71723  -0.11424   1.12825  -0.29632  -0.29670
  21 3   H  1S         -0.32149   0.63308   0.45686   0.24435   0.23383
  22        2S         -0.37315   0.40059   0.28899  -0.03436  -0.36546
  23        3PX         0.65582  -0.86987  -0.56076  -0.26809  -0.26894
  24        3PY        -0.02136  -0.02028   0.05164  -0.00902  -0.00591
  25        3PZ        -0.29044   0.30830   0.36882   0.12673   0.12551
  26 4   H  1S         -0.32105  -0.71257   0.32029   0.24458   0.23427
  27        2S         -0.37267  -0.45077   0.20252  -0.03406  -0.36525
  28        3PX        -0.45150  -0.69434   0.22824   0.19690   0.19588
  29        3PY        -0.47493  -0.67095   0.30163   0.18239   0.18437
  30        3PZ        -0.29028  -0.37675   0.29959   0.12653   0.12581
  31 5   H  1S          0.22032   0.00030  -0.00010   0.39084  -0.14971
  32        2S          0.21307  -0.00017   0.00009  -0.19034  -0.80393
  33        3PX        -0.07249   0.06338   0.01312  -0.45785   0.20387
  34        3PY         0.17685   0.02772  -0.01258   1.12208  -0.49926
  35        3PZ        -0.04747   0.00653  -0.06749  -0.29612   0.13183
  36 6   H  1S         -0.13957  -0.00007   0.00003  -0.54980   0.29356
  37        2S         -0.15328   0.00011   0.00004  -0.05548   0.31669
  38        3PX        -0.13574  -0.00784  -0.00168  -0.35015   0.15245
  39        3PY         0.33313  -0.00326   0.00139   0.85826  -0.37387
  40        3PZ        -0.08775  -0.00073   0.00843  -0.22696   0.09902
     Beta Molecular Orbital Coefficients:
                           1         2         3         4         5
                           O         O         O         O         O
     Eigenvalues --   -10.18628  -0.67607  -0.40731  -0.40722  -0.40299
   1 1   C  1S          0.99311  -0.19515   0.00076   0.00002   0.02688
   2        2S          0.04833   0.37651  -0.00167  -0.00002  -0.05900
   3        2PX         0.00008   0.01237   0.38553  -0.13225  -0.09808
   4        2PY        -0.00019  -0.03003   0.19056   0.05551   0.20902
   5        2PZ         0.00005   0.00799   0.09693   0.41698  -0.05878
   6        3S         -0.01517   0.34546  -0.00228  -0.00007  -0.08324
   7        3PX         0.00038  -0.00007   0.16318  -0.05599  -0.04268
   8        3PY        -0.00094   0.00030   0.08071   0.02349   0.09120
   9        3PZ         0.00024  -0.00004   0.04102   0.17654  -0.02564
  10        4XX        -0.00842  -0.00558   0.00652  -0.01724  -0.00205
  11        4YY        -0.00913  -0.01533  -0.01106  -0.00344   0.01397
  12        4ZZ        -0.00833  -0.00442   0.00478   0.02068  -0.00380
  13        4XY         0.00040   0.00557  -0.01324  -0.00236  -0.00844
  14        4XZ        -0.00011  -0.00147  -0.01394   0.00592   0.00269
  15        4YZ         0.00026   0.00357  -0.00756  -0.00463  -0.00545
  16 2   H  1S         -0.00031   0.14927   0.06362   0.27744  -0.06999
  17        2S          0.00253   0.05527   0.05470   0.23796  -0.05458
  18        3PX        -0.00001   0.00012   0.00720  -0.00274  -0.00223
  19        3PY         0.00003  -0.00029   0.00375   0.00164   0.00488
  20        3PZ         0.00027  -0.01307  -0.00165  -0.00736   0.00312
  21 3   H  1S         -0.00031   0.14923   0.20561  -0.19537  -0.07402
  22        2S          0.00253   0.05526   0.17646  -0.16760  -0.05810
  23        3PX         0.00024  -0.01184  -0.00307   0.00733   0.00204
  24        3PY         0.00003  -0.00029   0.00406   0.00063   0.00487
  25        3PZ        -0.00012   0.00554   0.00634   0.00356  -0.00331
  26 4   H  1S         -0.00031   0.14922  -0.27473  -0.08199  -0.06108
  27        2S          0.00253   0.05528  -0.23540  -0.07032  -0.04685
  28        3PX        -0.00019   0.00863  -0.00218  -0.00530  -0.00483
  29        3PY        -0.00014   0.00810  -0.00650  -0.00197   0.00234
  30        3PZ        -0.00012   0.00554  -0.00424   0.00605  -0.00302
  31 5   H  1S          0.00001   0.09439   0.00858  -0.00014   0.31951
  32        2S          0.00443   0.03884   0.00913  -0.00010   0.34452
  33        3PX        -0.00006   0.00267   0.00522  -0.00180  -0.00234
  34        3PY         0.00014  -0.00653   0.00264   0.00075   0.00531
  35        3PZ        -0.00004   0.00171   0.00130   0.00568  -0.00147
  36 6   H  1S         -0.00025   0.03301   0.00568  -0.00012   0.21463
  37        2S         -0.00157   0.01640   0.00427  -0.00013   0.16379
  38        3PX        -0.00008   0.00160   0.00116  -0.00035   0.00558
  39        3PY         0.00019  -0.00393   0.00012   0.00015  -0.01375
  40        3PZ        -0.00005   0.00104   0.00035   0.00108   0.00362
                           6         7         8         9        10
                           V         V         V         V         V
     Eigenvalues --    -0.07536   0.12311   0.17555   0.17557   0.23274
   1 1   C  1S          0.05590  -0.15000   0.00002   0.00012   0.06053
   2        2S         -0.09804   0.18478   0.00001  -0.00020  -0.06682
   3        2PX         0.15479   0.06110   0.10266   0.34531   0.07394
   4        2PY        -0.37788  -0.14872  -0.05505   0.16022  -0.18185
   5        2PZ         0.09953   0.03909  -0.36949   0.07200   0.04723
   6        3S         -0.35933   2.34965  -0.00089  -0.00154  -0.91781
   7        3PX         0.15915   0.13935   0.37077   1.24808   0.40622
   8        3PY        -0.38841  -0.33823  -0.19905   0.57925  -0.99865
   9        3PZ         0.10223   0.08905  -1.33504   0.26043   0.26159
  10        4XX         0.00143  -0.01713  -0.01319  -0.00126  -0.00261
  11        4YY         0.00453  -0.01311  -0.00142   0.00415   0.03758
  12        4ZZ         0.00107  -0.01758   0.01461  -0.00285  -0.00736
  13        4XY        -0.00177  -0.00227  -0.00505   0.00544  -0.02278
  14        4XZ         0.00048   0.00060   0.00210   0.01480   0.00597
  15        4YZ        -0.00115  -0.00146   0.00299   0.00564  -0.01461
  16 2   H  1S          0.02762  -0.04208   0.10161  -0.01980  -0.06531
  17        2S          0.10194  -1.12906   1.77972  -0.34627  -0.03754
  18        3PX         0.00462   0.00238   0.00385   0.01318   0.00317
  19        3PY        -0.01126  -0.00580  -0.00195   0.00608  -0.00777
  20        3PZ         0.00104  -0.00642   0.00399  -0.00077   0.00141
  21 3   H  1S          0.02754  -0.04225  -0.06796  -0.07805  -0.06503
  22        2S          0.10185  -1.13011  -1.18885  -1.36754  -0.03738
  23        3PX         0.00286  -0.00486  -0.00706   0.00055   0.00258
  24        3PY        -0.01126  -0.00580  -0.00220   0.00600  -0.00779
  25        3PZ         0.00377   0.00482  -0.00903   0.00857   0.00230
  26 4   H  1S          0.02764  -0.04214  -0.03370   0.09777  -0.06502
  27        2S          0.10182  -1.12915  -0.58905   1.71477  -0.04171
  28        3PX         0.00587   0.00754   0.00783   0.00181   0.00365
  29        3PY        -0.01003  -0.00072   0.00168  -0.00490  -0.00739
  30        3PZ         0.00377   0.00483  -0.01160  -0.00456   0.00234
  31 5   H  1S         -0.01033   0.04333  -0.00016   0.00048   0.30871
  32        2S         -0.02343  -0.21263  -0.00071   0.00211   2.57396
  33        3PX        -0.00821  -0.00042   0.00202   0.00686   0.00053
  34        3PY         0.02015   0.00100  -0.00111   0.00319  -0.00132
  35        3PZ        -0.00531  -0.00028  -0.00732   0.00145   0.00038
  36 6   H  1S          0.24534   0.04202   0.00001  -0.00004  -0.00907
  37        2S          0.60007   0.13163   0.00047  -0.00197  -1.79573
  38        3PX         0.00202   0.00135   0.00128   0.00434   0.00566
  39        3PY        -0.00495  -0.00333  -0.00070   0.00199  -0.01389
  40        3PZ         0.00132   0.00088  -0.00463   0.00092   0.00371
                          11        12        13        14        15
                           V         V         V         V         V
     Eigenvalues --     0.52088   0.52095   0.59234   0.72646   0.87628
   1 1   C  1S         -0.00001   0.00000   0.03008   0.04139   0.00002
   2        2S          0.00058   0.00021   0.04100   0.01090  -0.00054
   3        2PX        -0.02884  -0.68278   0.36538  -0.08116  -0.33313
   4        2PY        -0.19794  -0.25315  -0.89255   0.19799   0.04742
   5        2PZ        -0.70709   0.09871   0.23522  -0.05200   0.69795
   6        3S         -0.00025  -0.00004  -0.41468  -0.08234   0.00093
   7        3PX         0.06025   1.42960  -0.48936  -0.05627   0.56298
   8        3PY         0.41534   0.53170   1.19734   0.13652  -0.08046
   9        3PZ         1.48000  -0.20688  -0.31576  -0.03648  -1.17909
  10        4XX         0.04737  -0.03721   0.01953   0.05257   0.19533
  11        4YY         0.02151   0.02763  -0.04158  -0.00756   0.01441
  12        4ZZ        -0.06868   0.00969   0.02677   0.05954  -0.20983
  13        4XY         0.02443   0.03251   0.03470   0.03414   0.02518
  14        4XZ         0.00170   0.05383  -0.00909  -0.00915  -0.08087
  15        4YZ         0.01704   0.01981   0.02230   0.02186  -0.00058
  16 2   H  1S         -0.45751   0.06425   0.20795   0.32905  -0.74850
  17        2S         -0.33017   0.04618   0.11527  -0.05040   1.56962
  18        3PX         0.00113   0.02592  -0.00089  -0.00244  -0.02409
  19        3PY         0.00745   0.00967   0.00224   0.00571   0.00078
  20        3PZ         0.04201  -0.00585  -0.00544   0.03384  -0.09852
  21 3   H  1S          0.17381  -0.42838   0.20763   0.32980   0.63638
  22        2S          0.12465  -0.30957   0.11444  -0.05146  -1.33476
  23        3PX        -0.00412   0.03888  -0.00529   0.02984   0.09136
  24        3PY         0.00760   0.00958   0.00224   0.00570   0.00596
  25        3PZ         0.02921  -0.00961   0.00142  -0.01626  -0.00149
  26 4   H  1S          0.28474   0.36462   0.20790   0.32870   0.11257
  27        2S          0.20512   0.26380   0.11542  -0.05121  -0.23639
  28        3PX         0.00713   0.03369   0.00223  -0.02533  -0.04020
  29        3PY         0.01360   0.01740   0.00539  -0.01676  -0.01058
  30        3PZ         0.03072   0.00120   0.00141  -0.01620   0.04325
  31 5   H  1S         -0.00041   0.00046  -0.08272   0.53625  -0.00040
  32        2S         -0.00142  -0.00198  -0.21104  -0.79172   0.00105
  33        3PX         0.00154   0.03600  -0.03152  -0.02930  -0.00801
  34        3PY         0.01048   0.01334   0.07726   0.07179   0.00109
  35        3PZ         0.03722  -0.00516  -0.02030  -0.01905   0.01681
  36 6   H  1S         -0.00007   0.00002  -0.00525   0.86213  -0.00054
  37        2S          0.00117   0.00047  -0.16872  -0.51828   0.00004
  38        3PX         0.00092   0.02252   0.00294   0.01404   0.00479
  39        3PY         0.00660   0.00827  -0.00720  -0.03444  -0.00070
  40        3PZ         0.02326  -0.00323   0.00186   0.00908  -0.01008
                          16        17        18        19        20
                           V         V         V         V         V
     Eigenvalues --     0.87635   0.92710   0.96959   1.20575   1.38945
   1 1   C  1S         -0.00014   0.05992   0.00416  -0.11124   0.00011
   2        2S          0.00030  -1.11994  -0.01121  -1.98540   0.00206
   3        2PX        -0.63860  -0.09016  -0.10544   0.09736  -0.04282
   4        2PY        -0.33624   0.21874   0.25810  -0.23819  -0.00886
   5        2PZ        -0.28197  -0.05829  -0.06754   0.06219   0.03164
   6        3S         -0.00013   2.22764  -0.34702   5.24936  -0.00514
   7        3PX         1.07900   0.20489   0.38692  -0.32233   0.02019
   8        3PY         0.56797  -0.49863  -0.94661   0.79213   0.00381
   9        3PZ         0.47642   0.13224   0.24787  -0.20581  -0.01470
  10        4XX         0.01800   0.02147   0.04148  -0.10333   0.12243
  11        4YY        -0.10286  -0.06660  -0.15057  -0.07611  -0.13659
  12        4ZZ         0.08463   0.03226   0.06427  -0.10809   0.01439
  13        4XY        -0.12383   0.05011   0.10900  -0.01704  -0.41611
  14        4XZ        -0.16743  -0.01341  -0.02846   0.00583   0.19465
  15        4YZ        -0.08185   0.03214   0.07033  -0.01095   0.47440
  16 2   H  1S          0.30166   0.50948   0.13963  -0.36175  -0.03296
  17        2S         -0.63379  -0.96007  -0.42161  -0.76613   0.02898
  18        3PX        -0.04889  -0.00094  -0.01693  -0.00658   0.08499
  19        3PY        -0.02433   0.00204   0.04172   0.01768   0.22431
  20        3PZ         0.03973   0.07726   0.00456   0.00671  -0.00868
  21 3   H  1S          0.49648   0.50897   0.13898  -0.36168   0.05511
  22        2S         -1.04216  -0.95919  -0.42160  -0.76482  -0.04513
  23        3PX         0.04268   0.06977  -0.00294   0.00340   0.04840
  24        3PY        -0.02359   0.00207   0.04159   0.01761  -0.27598
  25        3PZ        -0.06383  -0.03298  -0.01740  -0.00862   0.07160
  26 4   H  1S         -0.80034   0.50776   0.13982  -0.36078  -0.02091
  27        2S          1.67721  -0.95733  -0.42235  -0.76469   0.01894
  28        3PX         0.05815  -0.05108  -0.02701  -0.01507   0.04587
  29        3PY         0.07537  -0.04752   0.03149   0.01120   0.08976
  30        3PZ         0.04704  -0.03285  -0.01753  -0.00955  -0.19593
  31 5   H  1S         -0.00089   0.07836  -1.15264   0.01435   0.00063
  32        2S          0.00103   0.09353   3.21904  -2.41875   0.00093
  33        3PX        -0.01546   0.01329  -0.04466  -0.03518  -0.20138
  34        3PY        -0.00787  -0.03279   0.10942   0.08532  -0.04282
  35        3PZ        -0.00683   0.00874  -0.02867  -0.02319   0.14970
  36 6   H  1S          0.00057  -0.60547   0.48543   0.43619  -0.00065
  37        2S         -0.00105   0.48572  -1.75231   0.59047   0.00030
  38        3PX         0.00921   0.01003  -0.03854  -0.02417  -0.07097
  39        3PY         0.00494  -0.02469   0.09437   0.05918  -0.01520
  40        3PZ         0.00409   0.00655  -0.02480  -0.01614   0.05282
                          21        22        23        24        25
                           V         V         V         V         V
     Eigenvalues --     1.38957   1.78489   1.78492   1.82611   2.00260
   1 1   C  1S          0.00034  -0.00024  -0.00047  -0.05357   0.00000
   2        2S          0.00598   0.00069  -0.00152  -0.01805  -0.00067
   3        2PX        -0.02678   0.07518  -0.00009  -0.04982  -0.11110
   4        2PY        -0.02080   0.02983   0.02143   0.12066  -0.05009
   5        2PZ        -0.04201  -0.00780   0.07839  -0.03228  -0.01639
   6        3S         -0.01594   0.00169   0.00863   0.67832   0.00114
   7        3PX         0.01371  -0.16317  -0.00036   0.08982   0.65128
   8        3PY         0.00707  -0.06505  -0.04571  -0.21612   0.29307
   9        3PZ         0.02044   0.01679  -0.17058   0.05797   0.09640
  10        4XX         0.34528   0.12863  -0.03758   0.10621   0.17944
  11        4YY        -0.32599  -0.11900  -0.08672  -0.55236  -0.25586
  12        4ZZ        -0.01874  -0.01105   0.12259   0.18336   0.07667
  13        4XY        -0.04638  -0.14285   0.00064   0.37611  -0.30020
  14        4XZ         0.43561  -0.01182   0.05996  -0.09944  -0.42449
  15        4YZ        -0.34100   0.01406  -0.14736   0.24210  -0.19135
  16 2   H  1S          0.04511   0.00630  -0.07741  -0.25782  -0.07514
  17        2S         -0.03502  -0.01431   0.14668  -0.03677  -0.01158
  18        3PX         0.20286  -0.09465   0.09830  -0.05206  -0.29302
  19        3PY        -0.16661  -0.00811  -0.26349   0.12812  -0.14830
  20        3PZ         0.01143   0.00269  -0.03278  -0.09804  -0.03918
  21 3   H  1S          0.00818  -0.07023   0.02915  -0.25879  -0.43039
  22        2S         -0.00391   0.13446  -0.06147  -0.03598  -0.06515
  23        3PX         0.08591  -0.00123  -0.03896  -0.11077  -0.26504
  24        3PY         0.04332  -0.25265   0.07797   0.12688  -0.22098
  25        3PZ         0.18368   0.06948  -0.11586  -0.00535  -0.03901
  26 4   H  1S         -0.04955   0.06021   0.04164  -0.25911   0.50563
  27        2S          0.04498  -0.12075  -0.08704  -0.03482   0.07632
  28        3PX        -0.17786  -0.16952  -0.06091  -0.00831  -0.33957
  29        3PY         0.21405   0.16158   0.11629   0.16598  -0.03375
  30        3PZ        -0.01977  -0.04582  -0.12704  -0.00465  -0.05471
  31 5   H  1S         -0.00031   0.00143   0.00275   0.28280  -0.00033
  32        2S          0.00930  -0.00043  -0.00680  -0.50082  -0.00064
  33        3PX        -0.12414   0.52638  -0.00040  -0.12674  -0.14399
  34        3PY        -0.10247   0.20280   0.14681   0.30108  -0.06452
  35        3PZ        -0.19682  -0.05381   0.54733  -0.08323  -0.02128
  36 6   H  1S         -0.00159  -0.00262  -0.00237  -0.38495   0.00034
  37        2S         -0.00267   0.00197   0.00440   0.47289  -0.00017
  38        3PX        -0.04359   0.55457   0.00090   0.10121  -0.22509
  39        3PY        -0.03661   0.20951   0.15083  -0.25989  -0.10029
  40        3PZ        -0.06929  -0.05567   0.57607   0.06411  -0.03308
                          26        27        28        29        30
                           V         V         V         V         V
     Eigenvalues --     2.00288   2.01339   2.31916   2.31930   2.50579
   1 1   C  1S         -0.00006  -0.00000   0.00015  -0.00003   0.01845
   2        2S         -0.00019   0.00001   0.00053   0.00018   0.23396
   3        2PX         0.02657   0.00208   0.06303  -0.09383   0.03565
   4        2PY        -0.02018   0.00065   0.04965  -0.01852  -0.08651
   5        2PZ        -0.11829  -0.00079   0.09107   0.07505   0.02284
   6        3S          0.00119  -0.00001  -0.00323   0.00017  -0.54658
   7        3PX        -0.15552  -0.01201   0.02710  -0.03925   0.26239
   8        3PY         0.11858  -0.00378   0.01911  -0.00768  -0.64094
   9        3PZ         0.69272   0.00440   0.03874   0.03147   0.16879
  10        4XX        -0.44807  -0.00674  -0.04858   0.31219  -0.08435
  11        4YY        -0.10451   0.00327   0.29344  -0.11020   0.25360
  12        4ZZ         0.55238   0.00346  -0.24482  -0.20223  -0.12492
  13        4XY        -0.11957   0.00385   0.20480  -0.24496  -0.19217
  14        4XZ         0.10253   0.00779  -0.04700  -0.13759   0.05108
  15        4YZ        -0.08030   0.00244   0.25322   0.16777  -0.12353
  16 2   H  1S         -0.54060  -0.00339   0.12695   0.10459   0.06819
  17        2S         -0.08114  -0.00051  -0.15106  -0.12462  -0.05606
  18        3PX         0.10971   0.54305   0.03293   0.27714  -0.23905
  19        3PY        -0.15743   0.22132  -0.42991  -0.25220   0.58206
  20        3PZ        -0.28262  -0.00181   0.13876   0.11463   0.05166
  21 3   H  1S          0.33486   0.00993   0.02700  -0.16225   0.06819
  22        2S          0.04997   0.00139  -0.03189   0.19341  -0.05601
  23        3PX         0.03966  -0.21841  -0.03872  -0.25775  -0.05225
  24        3PY         0.00759  -0.21642  -0.15859   0.47283   0.58191
  25        3PZ        -0.33474  -0.49086  -0.15534  -0.13602  -0.23902
  26 4   H  1S          0.20507  -0.00654  -0.15398   0.05757   0.06784
  27        2S          0.03066  -0.00088   0.18363  -0.06848  -0.05570
  28        3PX         0.06533  -0.30735  -0.11897   0.16479  -0.37148
  29        3PY        -0.01366   0.00055   0.49158  -0.18382   0.45166
  30        3PZ        -0.33875   0.48639  -0.16337  -0.12621  -0.23876
  31 5   H  1S          0.00022   0.00001   0.00049   0.00041   0.03811
  32        2S         -0.00082   0.00000   0.00400  -0.00097   0.73043
  33        3PX         0.03435   0.00253   0.18771  -0.27816   0.03534
  34        3PY        -0.02602   0.00079   0.14633  -0.05484  -0.08901
  35        3PZ        -0.15299  -0.00092   0.27056   0.22224   0.02213
  36 6   H  1S         -0.00036  -0.00001   0.00063  -0.00000  -0.02600
  37        2S          0.00068   0.00001  -0.00219   0.00046  -0.22078
  38        3PX         0.05432   0.00416  -0.29515   0.43770  -0.01124
  39        3PY        -0.04131   0.00129  -0.23123   0.08610   0.02999
  40        3PZ        -0.23933  -0.00152  -0.42572  -0.34961  -0.00710
                          31        32        33        34        35
                           V         V         V         V         V
     Eigenvalues --     2.56101   2.64305   2.64371   2.82288   2.82315
   1 1   C  1S         -0.06655  -0.00042   0.00015   0.00007  -0.00009
   2        2S         -0.08568   0.00021   0.00132   0.00042   0.00011
   3        2PX        -0.00968   0.04306  -0.06781  -0.01141  -0.16716
   4        2PY         0.02430  -0.00196  -0.03804  -0.05029  -0.06085
   5        2PZ        -0.00590  -0.07487  -0.03810  -0.17267   0.02910
   6        3S          1.25549   0.00671  -0.00389  -0.00162   0.00127
   7        3PX        -0.20941   0.27861  -0.43874  -0.02098  -0.30335
   8        3PY         0.51038  -0.01075  -0.24717  -0.09186  -0.11027
   9        3PZ        -0.13132  -0.48569  -0.24611  -0.31256   0.05215
  10        4XX        -0.16580  -0.26277   0.10432  -0.35685  -0.24784
  11        4YY         0.37091  -0.01122  -0.24356   0.22257   0.27021
  12        4ZZ        -0.23207   0.27354   0.13959   0.13456  -0.02260
  13        4XY        -0.30584   0.07767  -0.23738  -0.21415   0.39600
  14        4XZ         0.07948   0.13664  -0.08819  -0.34321  -0.51387
  15        4YZ        -0.19447  -0.15154  -0.14144   0.57098  -0.33010
  16 2   H  1S         -0.00198  -0.02253  -0.01110   0.02336  -0.00399
  17        2S         -0.18701   0.37773   0.19292   0.29840  -0.05025
  18        3PX         0.02121  -0.28167   0.33118   0.26657   0.55936
  19        3PY        -0.05065   0.14015   0.26711  -0.36891   0.30948
  20        3PZ         0.18991  -0.12525  -0.06436  -0.20485   0.03479
  21 3   H  1S         -0.00233   0.02095  -0.01337  -0.00820   0.02217
  22        2S         -0.18346  -0.35708   0.23234  -0.10576   0.28335
  23        3PX         0.17925   0.24051   0.05387   0.27347  -0.02398
  24        3PY        -0.04776  -0.11090   0.28090   0.37394  -0.30313
  25        3PZ        -0.06215   0.23726   0.30426   0.42277   0.41563
  26 4   H  1S         -0.00200   0.00128   0.02529  -0.01493  -0.01833
  27        2S         -0.18429  -0.02386  -0.42474  -0.19256  -0.23386
  28        3PX        -0.09317  -0.24553   0.06327  -0.50714  -0.06842
  29        3PY        -0.16071  -0.01648  -0.29474   0.13540   0.16379
  30        3PZ        -0.06207   0.38622   0.01162   0.26401  -0.53069
  31 5   H  1S         -0.49482  -0.00224   0.00138  -0.00027  -0.00096
  32        2S         -1.10408  -0.00576   0.00337   0.00202  -0.00062
  33        3PX        -0.13798  -0.35412   0.55565  -0.01364  -0.20756
  34        3PY         0.34668   0.01900   0.30825  -0.06285  -0.07496
  35        3PZ        -0.09235   0.61218   0.31187  -0.21477   0.03639
  36 6   H  1S         -0.07060  -0.00007  -0.00004   0.00014   0.00015
  37        2S          0.65438   0.00315  -0.00156  -0.00085   0.00054
  38        3PX         0.26629   0.25932  -0.40559   0.01036   0.15408
  39        3PY        -0.66020  -0.01584  -0.22392   0.04614   0.05455
  40        3PZ         0.17542  -0.44634  -0.22765   0.15909  -0.02659
                          36        37        38        39        40
                           V         V         V         V         V
     Eigenvalues --     3.19619   3.42034   3.42070   3.87399   4.51666
   1 1   C  1S         -0.14202  -0.00008   0.00008  -0.14423  -0.45681
   2        2S          1.05941   0.00091  -0.00033   0.72537   2.64565
   3        2PX         0.09341  -0.85276  -0.16557  -0.10784  -0.00625
   4        2PY        -0.22682  -0.37253   0.17013   0.26373   0.01500
   5        2PZ         0.06030  -0.08645   0.90379  -0.06933  -0.00414
   6        3S          0.91650   0.00045  -0.00032   0.46819   2.23625
   7        3PX         0.08942  -0.46878  -0.09116  -0.08009  -0.07584
   8        3PY        -0.21755  -0.20474   0.09342   0.19662   0.18688
   9        3PZ         0.05784  -0.04735   0.49680  -0.05132  -0.04854
  10        4XX         0.00695  -0.33997  -0.87193  -0.78644  -1.96306
  11        4YY        -0.60917   0.44182  -0.20175  -0.13082  -1.85708
  12        4ZZ         0.07923  -0.10229   1.07441  -0.86305  -1.97540
  13        4XY         0.35010   0.52314  -0.28916  -0.37162  -0.06085
  14        4XZ        -0.09246   0.88507   0.13777   0.09722   0.01596
  15        4YZ         0.22477   0.37763  -0.09417  -0.23847  -0.03906
[...]
 Translational   0.280765D+07          6.448342         14.847857
 Rotational      0.123810D+04          3.092755          7.121332
 
                                                          ch4+h to ch3+h2 ts
                                                             IR Spectrum
 
      3    3                                              1                 1          1  1                                          
      2    0                                              8                 4          1  0                    5                     
      4    9                                              9                 4          6  8                    5                     
      1    3                                              3                 7          5  5                    2                     
 
      X    X                                              X                 X          X  X                    X                     
      X                                                   X                 X          X  X                                          
      X                                                   X                 X          X  X                                          
      X                                                   X                 X          X  X                                          
      X                                                   X                 X          X                                             
      X                                                   X                 X                                                        
      X                                                   X                                                                          
      X                                                   X                                                                          
      X                                                   X                                                                          
      X                                                   X                                                                          
      X                                                   X                                                                          
      X                                                   X                                                                          
      X                                                   X                                                                          
      X                                                   X                                                                          
      X                                                   X                                                                          
      X                                                   X                                                                          
      X                                                   X                                                                          
      X                                                   X                                                                          
      X                                                   X                                                                          
      X                                                                                                                              
 
 -------------------------------------------------------------------
 Center     Atomic                   Forces (Hartrees/Bohr)
 Number     Number              X              Y              Z
 -------------------------------------------------------------------
      1        6           0.000006019   -0.000003648    0.000000957
      2        1          -0.000002776    0.000002189    0.000000028
      3        1           0.000000486   -0.000005306    0.000000489
      4        1          -0.000000916    0.000000224    0.000000341
      5        1          -0.000003686    0.000008555   -0.000002244
      6        1           0.000000873   -0.000002014    0.000000429
 -------------------------------------------------------------------
 Cartesian Forces:  Max     0.000008555 RMS     0.000003244
 -----------------------------------------------------------------------------------------------
                       Internal Coordinate Forces (Hartree/Bohr or radian)
  Cent   Atom   N1       Length/X         N2         Alpha/Y        N3         Beta/Z          J
 -----------------------------------------------------------------------------------------------
      1  C 
      2  H        1   0.000000(     1)
      3  H        1   0.000000(     2)      2  -0.000001(     7)
      4  H        1   0.000000(     3)      2  -0.000001(     8)      3   0.000001(    12)     0
      5  H        1   0.000007(     4)      2   0.000000(     9)      3  -0.000000(    13)     0
         X        5   0.000000(     5)      1   0.000000(    10)      4   0.000000(    14)     0
      6  H        5  -0.000002(     6)      6   0.000000(    11)      1   0.000000(    15)     0
 -----------------------------------------------------------------------------------------------
 Internal  Forces:  Max     0.000007344 RMS     0.000002076
 Force constants in Cartesian coordinates: 
                1             2             3             4             5 
      1  0.523664D+00
      2  0.156153D+00  0.195378D+00
      3 -0.398696D-01  0.997658D-01  0.560687D+00
      4 -0.474960D-01 -0.101107D-01 -0.154642D-02  0.428762D-01
      5 -0.101239D-01 -0.261839D-01  0.385499D-02  0.707631D-02  0.279429D-01
      6  0.304033D-02 -0.760619D-02 -0.343200D+00 -0.166282D-02  0.417298D-02
      7 -0.290395D+00 -0.111868D-01  0.115509D+00  0.406932D-02 -0.122197D-03
      8 -0.790713D-03 -0.261765D-01 -0.108099D-01 -0.112477D-02  0.127628D-02
      9  0.110947D+00 -0.599726D-02 -0.100283D+00  0.280817D-01 -0.119232D-02
     10 -0.170843D+00 -0.126421D+00 -0.762464D-01  0.211783D-02  0.924094D-03
     11 -0.136821D+00 -0.145736D+00 -0.874469D-01  0.193012D-02  0.322672D-02
     12 -0.762528D-01 -0.807956D-01 -0.100271D+00 -0.195352D-01 -0.202156D-01
     13 -0.713681D-02 -0.411952D-01  0.105211D-01 -0.182267D-02  0.347683D-02
     14 -0.411795D-01  0.794423D-01 -0.263133D-01  0.346103D-02 -0.910931D-02
     15  0.105050D-01 -0.263173D-01 -0.168753D-01 -0.583462D-02  0.146250D-01
     16 -0.779325D-02  0.327606D-01 -0.836743D-02  0.255279D-03 -0.123111D-02
     17  0.327624D-01 -0.767242D-01  0.209492D-01 -0.123200D-02  0.284730D-02
     18 -0.836956D-02  0.209505D-01 -0.577843D-04  0.497386D-03 -0.124509D-02
                6             7             8             9            10 
      6  0.360272D+00
      7 -0.316790D-02  0.302959D+00
      8  0.386409D-03  0.678333D-02  0.279551D-01
      9 -0.746446D-02 -0.122091D+00  0.468992D-02  0.100191D+00
     10  0.202842D-02 -0.124550D-01 -0.179566D-01 -0.127942D-01  0.179082D+00
     11  0.246745D-02  0.304515D-02  0.322598D-02  0.716221D-03  0.136962D+00
     12 -0.746876D-02  0.877923D-02  0.933003D-02  0.710164D-02  0.852340D-01
     13 -0.171441D-03 -0.505473D-02  0.147352D-01 -0.435294D-02  0.129201D-02
     14  0.413604D-03  0.184987D-02 -0.913174D-02  0.297116D-02  0.806549D-02
     15 -0.294884D-02  0.132263D-02 -0.299939D-02  0.265453D-03  0.111129D-02
     16 -0.665833D-04  0.875934D-03 -0.164644D-02  0.209590D-03  0.805577D-03
     17  0.165740D-03 -0.369396D-03  0.285087D-02 -0.118772D-02 -0.157397D-02
     18  0.809570D-03 -0.351981D-03 -0.597100D-03  0.189671D-03  0.666885D-03
               11            12            13            14            15 
     11  0.151806D+00
     12  0.875348D-01  0.100184D+00
     13 -0.482274D-02  0.110843D-02  0.295543D-01
     14 -0.154411D-01  0.515256D-02  0.214963D-01 -0.156582D-01
     15 -0.308320D-02  0.264231D-03 -0.549444D-02  0.137442D-01  0.346370D-01
     16 -0.293243D-03  0.666326D-03 -0.168321D-01  0.630680D-02 -0.160986D-02
     17  0.291800D-02 -0.100616D-02  0.630960D-02 -0.301020D-01  0.403060D-02
     18 -0.188352D-03  0.189316D-03 -0.161070D-02  0.403171D-02 -0.153426D-01
               16            17            18 
     16  0.226885D-01
     17 -0.358966D-01  0.982100D-01
     18  0.916796D-02 -0.229517D-01  0.142118D-01
 Force constants in internal coordinates: 
                1             2             3             4             5 
      1  0.360272D+00
      2  0.261272D-03  0.360264D+00
      3  0.261347D-03  0.263509D-03  0.360225D+00
      4  0.110310D-02  0.111824D-02  0.109937D-02  0.233506D-01
      5  0.000000D+00  0.000000D+00  0.000000D+00  0.000000D+00  0.000000D+00
      6 -0.130439D-04 -0.150269D-04 -0.133729D-04  0.847603D-01  0.000000D+00
      7  0.166540D-01  0.346291D-02 -0.115288D-01 -0.786173D-02  0.000000D+00
      8  0.166641D-01 -0.115351D-01  0.345092D-02 -0.784223D-02  0.000000D+00
      9  0.376911D-02 -0.190045D-02 -0.187789D-02  0.508927D-05  0.000000D+00
     10 -0.138960D-02  0.545191D-03  0.843474D-03  0.234808D-05  0.000000D+00
     11 -0.138960D-02  0.545190D-03  0.843475D-03  0.234808D-05  0.000000D+00
     12  0.727122D-03  0.109442D-01  0.777321D-02 -0.178107D-01  0.000000D+00
     13 -0.164251D-04 -0.319556D-02  0.316592D-02  0.145257D-04  0.000000D+00
     14  0.000000D+00  0.000000D+00  0.000000D+00  0.000000D+00  0.000000D+00
     15 -0.172126D-03  0.128781D-02 -0.111750D-02 -0.229550D-05  0.000000D+00
                6             7             8             9            10 
      6  0.118412D+00
      7  0.271489D-02  0.181089D+00
      8  0.271501D-02  0.581195D-01  0.181045D+00
      9  0.747121D-05  0.860128D-02  0.856727D-02  0.973556D-01
     10  0.000000D+00 -0.967762D-03 -0.102425D-02 -0.304122D-02  0.238202D-01
     11  0.000000D+00 -0.967762D-03 -0.102425D-02 -0.304122D-02  0.238202D-01
     12  0.616330D-02 -0.498336D-01 -0.271802D-01  0.291257D-01 -0.718182D-03
     13  0.846257D-05  0.226895D-01 -0.226624D-01  0.226386D-04  0.366704D-03
     14  0.000000D+00  0.000000D+00  0.000000D+00  0.000000D+00  0.000000D+00
     15 -0.184079D-05 -0.332731D-03  0.898176D-04 -0.372253D-03  0.144911D-05
               11            12            13            14            15 
     11  0.238202D-01
     12 -0.718182D-03  0.972582D-01
     13  0.366705D-03 -0.460528D-01  0.921542D-01
     14  0.000000D+00  0.000000D+00  0.000000D+00  0.000000D+00
     15  0.144170D-05  0.141495D-02 -0.295675D-02  0.000000D+00  0.238161D-01
 Leave Link  716 at Fri Sep 13 21:10:55 2024, MaxMem=   268435456 cpu:         0.2
 (Enter /g100_work/pMI24_ChiCa/g09d1/g09d01/d01/build-node-6-2-59348/src/main/l103.exe)

 GradGradGradGradGradGradGradGradGradGradGradGradGradGradGradGradGradGrad
 Berny optimization.
 Search for a saddle point.
 Step number   1 out of a maximum of    2
 All quantities printed in internal units (Hartrees-Bohrs-Radians)
 Swapping is turned off.
 Second derivative matrix not updated -- analytic derivatives used.
 The second derivative matrix:
                          hc2       hc3      hch3       hc4      hch4
           hc2          0.36027
           hc3          0.00026   0.36026
           hch3         0.01665   0.00346   0.18109
           hc4          0.00026   0.00026  -0.01153   0.36022
           hch4         0.01666  -0.01154   0.05812   0.00345   0.18104
           dih4         0.00073   0.01094  -0.04983   0.00777  -0.02718
           hc5          0.00110   0.00112  -0.00786   0.00110  -0.00784
           hch5         0.00377  -0.00190   0.00860  -0.00188   0.00857
           dih5        -0.00002  -0.00320   0.02269   0.00317  -0.02266
           xxh6        -0.00000   0.00000  -0.00000   0.00000  -0.00000
           xxhc6       -0.00139   0.00055  -0.00097   0.00084  -0.00102
           dih6        -0.00000   0.00000  -0.00000   0.00000  -0.00000
           hh7         -0.00001  -0.00002   0.00271  -0.00001   0.00272
           hhxx7       -0.00139   0.00055  -0.00097   0.00084  -0.00102
           dih7        -0.00017   0.00129  -0.00033  -0.00112   0.00009
                         dih4       hc5      hch5      dih5      xxh6
           dih4         0.09726
           hc5         -0.01781   0.02335
           hch5         0.02913   0.00001   0.09736
           dih5        -0.04605   0.00001   0.00002   0.09215
           xxh6        -0.00000  -0.00000  -0.00000  -0.00000   0.00000
           xxhc6       -0.00072   0.00000  -0.00304   0.00037   0.00000
           dih6        -0.00000   0.00000  -0.00000   0.00000   0.00000
           hh7          0.00616   0.08476   0.00001   0.00001   0.00000
           hhxx7       -0.00072   0.00000  -0.00304   0.00037   0.00000
           dih7         0.00141  -0.00000  -0.00037  -0.00296  -0.00000
                         xxhc6     dih6       hh7      hhxx7     dih7
           xxhc6        0.02382
           dih6         0.00000   0.00000
           hh7          0.00000   0.00000   0.11841
           hhxx7        0.02382   0.00000   0.00000   0.02382
           dih7         0.00000  -0.00000  -0.00000   0.00000   0.02382
 ITU=  0
     Eigenvalues ---   -0.03157  -0.00000   0.00000   0.00000   0.02366
     Eigenvalues ---    0.03469   0.04734   0.08123   0.11392   0.16229
     Eigenvalues ---    0.16904   0.25394   0.36094   0.36137   0.36603
 Eigenvectors required to have negative eigenvalues:
                          hc5       hh7      dih4      dih5      hch3
   1                    0.83650  -0.48403   0.21964   0.07999   0.06690
                         hch4      hch5       hc2       hc3       hc4
   1                    0.05800  -0.05789  -0.00751  -0.00704  -0.00619
 Eigenvalue     2 is  -5.50D-12 should be greater than     0.000000 Eigenvector:
                         dih6      hhxx7     xxhc6     xxh6      dih7
   1                    1.00000  -0.00039   0.00035   0.00002   0.00000
                         dih5      hch5      hch3       hc4      hch4
   1                    0.00000  -0.00000  -0.00000   0.00000   0.00000
 Angle between quadratic step and forces=  90.61 degrees.
 Linear search not attempted -- option 19 set.
 Variable       Old X    -DE/DX   Delta X   Delta X   Delta X     New X
                                 (Linear)    (Quad)   (Total)
   hc2        2.05486   0.00000   0.00000   0.00000   0.00000   2.05486
   hc3        2.05487   0.00000   0.00000   0.00000   0.00000   2.05487
   hch3       2.00438  -0.00000   0.00000  -0.00003  -0.00003   2.00436
   hc4        2.05486   0.00000   0.00000   0.00000   0.00000   2.05487
   hch4       2.00444  -0.00000   0.00000  -0.00003  -0.00003   2.00441
   dih4       2.38124   0.00000   0.00000  -0.00008  -0.00008   2.38116
   hc5        2.66875   0.00001   0.00000  -0.00018  -0.00018   2.66857
   hch5       1.80368   0.00000   0.00000   0.00003   0.00003   1.80371
   dih5      -1.95087  -0.00000   0.00000  -0.00004  -0.00004  -1.95091
   xxh6       1.94963   0.00000   0.00000   0.00000   0.00000   1.94963
  xxhc6       1.55997   0.00000   0.00000   0.00155   0.00155   1.56152
   dih6       2.21730   0.00000   0.00000  -0.01854  -0.01854   2.19876
   hh7        1.68918  -0.00000   0.00000   0.00012   0.00012   1.68929
  hhxx7       1.58162   0.00000   0.00000  -0.00155  -0.00155   1.58007
   dih7       3.14163   0.00000   0.00000   0.00000   0.00000   3.14163
         Item               Value     Threshold  Converged?
 Maximum Force            0.000007     0.000450     YES
 RMS     Force            0.000002     0.000300     YES
 Maximum Displacement     0.018539     0.001800     NO 
 RMS     Displacement     0.004821     0.001200     NO 
 Predicted change in Energy= 8.013766D-10
 GradGradGradGradGradGradGradGradGradGradGradGradGradGradGradGradGradGrad

 Leave Link  103 at Fri Sep 13 21:10:55 2024, MaxMem=   268435456 cpu:         0.1
 (Enter /g100_work/pMI24_ChiCa/g09d1/g09d01/d01/build-node-6-2-59348/src/main/l9999.exe)
 1\1\GINC-R500N001\Freq\UB3LYP\6-31G(d,p)\C1H5(2)\ECABIATI\13-Sep-2024\
 1\\#P Geom=AllCheck Guess=TCheck SCRF=Check GenChk UB3LYP/6-31G(d,p) F
 req\\ch4+h to ch3+h2 ts\\0,2\C\H,1,hc2\H,1,hc3,2,hch3\H,1,hc4,2,hch4,3
 ,dih4,0\H,1,hc5,2,hch5,3,dih5,0\X,5,xxh6,1,xxhc6,4,dih6,0\H,5,hh7,6,hh
 xx7,1,dih7,0\\hc2=1.08738402\hc3=1.0873915\hch3=114.84271\hc4=1.087386
 6\hch4=114.84576632\dih4=136.43487212\hc5=1.41224272\hch5=103.34308761
 \dih5=-111.7764849\xxh6=1.0317\xxhc6=89.37963992\dih6=127.04201752\hh7
 =0.89387348\hhxx7=90.62026571\dih7=180.00194811\\Version=EM64L-G09RevD
 .01\HF=-41.0094787\S2=0.758046\S2-1=0.\S2A=0.750021\RMSD=1.591e-09\RMS
 F=3.244e-06\ZeroPoint=0.0430133\Thermal=0.0463273\Dipole=0.1080406,-0.
 2703969,0.069057\DipoleDeriv=0.0448256,0.0160041,-0.0040766,0.0160547,
 0.0110548,0.010255,-0.0041255,0.0102578,0.0485918,0.0570091,0.0089213,
 -0.010552,0.0089189,0.0382228,0.0263814,0.003797,-0.0094356,-0.0866917
 ,-0.0639362,-0.0047707,0.059757,0.0276682,0.038279,-0.003002,0.0454733
 ,0.0120417,0.0342477,-0.003958,-0.0353182,-0.0412531,-0.0678327,-0.021
 6904,-0.0433344,-0.0412507,-0.0225626,0.034218,0.0225404,-0.0196239,0.
 0050066,-0.0195874,0.0638169,-0.0125453,0.0049894,-0.0125502,0.017907,
 -0.0564809,0.0347874,-0.0088818,0.0347783,-0.1296832,0.0222453,-0.0088
 835,0.0222489,-0.0482727\Polar=14.9469149,-5.1571449,25.7977245,1.3173
 163,-3.2979274,13.7292587\PG=C01 [X(C1H5)]\NImag=1\\0.52366370,0.15615
 267,0.19537826,-0.03986956,0.09976583,0.56068721,-0.04749596,-0.010110
 68,-0.00154642,0.04287619,-0.01012393,-0.02618393,0.00385499,0.0070763
 1,0.02794293,0.00304033,-0.00760619,-0.34319994,-0.00166282,0.00417298
 ,0.36027243,-0.29039497,-0.01118675,0.11550877,0.00406932,-0.00012220,
 -0.00316790,0.30295947,-0.00079071,-0.02617649,-0.01080987,-0.00112477
 ,0.00127628,0.00038641,0.00678333,0.02795510,0.11094662,-0.00599726,-0
 .10028337,0.02808165,-0.00119232,-0.00746446,-0.12209075,0.00468992,0.
 10019105,-0.17084271,-0.12642063,-0.07624645,0.00211783,0.00092409,0.0
 0202842,-0.01245503,-0.01795660,-0.01279416,0.17908232,-0.13682091,-0.
 14573595,-0.08744687,0.00193012,0.00322672,0.00246745,0.00304515,0.003
 22598,0.00071622,0.13696162,0.15180633,-0.07625282,-0.08079561,-0.1002
 7080,-0.01953518,-0.02021558,-0.00746876,0.00877923,0.00933003,0.00710
 164,0.08523402,0.08753475,0.10018437,-0.00713681,-0.04119518,0.0105211
 0,-0.00182267,0.00347683,-0.00017144,-0.00505473,0.01473520,-0.0043529
 4,0.00129201,-0.00482274,0.00110843,0.02955426,-0.04117947,0.07944230,
 -0.02631327,0.00346103,-0.00910931,0.00041360,0.00184987,-0.00913174,0
 .00297116,0.00806549,-0.01544108,0.00515256,0.02149629,-0.01565818,0.0
 1050500,-0.02631726,-0.01687531,-0.00583462,0.01462502,-0.00294884,0.0
 0132263,-0.00299939,0.00026545,0.00111129,-0.00308320,0.00026423,-0.00
 549444,0.01374423,0.03463702,-0.00779325,0.03276058,-0.00836743,0.0002
 5528,-0.00123111,-0.00006658,0.00087593,-0.00164644,0.00020959,0.00080
 558,-0.00029324,0.00066633,-0.01683206,0.00630680,-0.00160986,0.022688
 52,0.03276236,-0.07672419,0.02094919,-0.00123200,0.00284730,0.00016574
 ,-0.00036940,0.00285087,-0.00118772,-0.00157397,0.00291800,-0.00100616
 ,0.00630960,-0.03010200,0.00403060,-0.03589658,0.09821002,-0.00836956,
 0.02095049,-0.00005778,0.00049739,-0.00124509,0.00080957,-0.00035198,-
 0.00059710,0.00018967,0.00066689,-0.00018835,0.00018932,-0.00161070,0.
 00403171,-0.01534255,0.00916796,-0.02295165,0.01421178\\-0.00000602,0.
 00000365,-0.00000096,0.00000278,-0.00000219,-0.00000003,-0.00000049,0.
 00000531,-0.00000049,0.00000092,-0.00000022,-0.00000034,0.00000369,-0.
 00000856,0.00000224,-0.00000087,0.00000201,-0.00000043\\\@


 THAT'S WHAT MAKES US A GREAT COUNTRY.
 THE LITTLE THINGS ARE SERIOUS AND THE BIG ONES ARE NOT.
           WILL ROGERS
 Job cpu time:       0 days  0 hours  0 minutes 33.7 seconds.
 File lengths (MBytes):  RWF=      5 Int=      0 D2E=      0 Chk=      4 Scr=      1
 Normal termination of Gaussian 09 at Fri Sep 13 21:10:55 2024.
