[Molden Format]
[Molpro variables]
_NUMVAR=  693.0000000000000    
_EV2006= 0.3674930886769165E-01
_EV= 0.3674932534394180E-01
_KJOULE= 0.3808798324128737E-03
_KJOULE/MOL= 0.3808798324128737E-03
_CM= 0.4556335267302901E-05
_CM-1= 0.4556335267302901E-05
_KCAL= 0.1593601117815568E-02
_KCAL/MOL= 0.1593601117815568E-02
_KELVIN2006= 0.3166828861084835E-05
_KELVIN= 0.3166814820820034E-05
_HERTZ2006= 0.1519829850815779E-15
_HERTZ= 0.1519829846011223E-15
_HZ2006= 0.1519829850815779E-15
_HZ= 0.1519829846011223E-15
_TOA2006= 0.5291772490000000    
_TOA= 0.5291772090000000    
_TOANG2006= 0.5291772490000000    
_TOANG= 0.5291772090000000    
_TORAD= 0.1745329251994330E-01
_TOCM=  219474.6306700000    
_TODEBYE=  2.541580000000000    
_TOEV2006=  27.21139610000000    
_TOEV=  27.21138390000000    
_TOHERTZ2006=  6579683899900000.    
_TOHERTZ=  6579683920700000.    
_TOHZ2006=  6579683899900000.    
_TOHZ=  6579683920700000.    
_TOK2006=  315773.3000000000    
_TOK=  315774.7000000000    
_TOKCAL=  627.5096000000000    
_TOKELVIN2006=  315773.3000000000    
_TOKELVIN=  315774.7000000000    
_TOKJ=  2625.500000000000    
_TOKJOULE=  2625.500000000000    
_ANG2006=  1.889725988578923    
_ANG=  1.889726131421507    
_ANGSTROM2006=  1.889725988578923    
_ANGSTROM=  1.889726131421507    
_IGNORE_UNDEF=  2.000000000000000    
_STRICTCHECK=  0.000000000000000    
_SEW_ONEEL=  0.000000000000000    
_CPPDONE=FALSE
_DKROLL_DONE=  0.000000000000000    
_FOCKDONE=TRUE
_GRADONE=FALSE
_HESSDONE=TRUE
_INTDONE=TRUE
_SCFDONE=TRUE
_MODUL_CUDA=FALSE
_MODUL_SLATER=FALSE
_MODUL_MRCC=FALSE
_MRCC_EXEC=
_FITC_AO_SAVED=FALSE
_FITC_MO_SAVED=FALSE
_SHARED_FS=TRUE
_LSTYP=SEWARD
_INTYP=INTS
_GEOMTYP=ZMAT
_GRADTYP=ALASKA
_DIRECT=FALSE
_SYNCM=  0.000000000000000    
_BASIS=6-31G
_ZSYMEL=
_ZORIENT=  1.000000000000000    
_NELEC=  10.00000000000000    
!SPIN=  0.000000000000000    
_OPTCONV= 0.6970971065014225E-04
_QSDSTEP=  0.000000000000000    
_QSDIRC=  0.000000000000000    
_PROGRAM=FREQ
_CPUSTEP=  0.000000000000000    
_SYSSTEP=  0.000000000000000    
_WALLSTEP=  0.000000000000000    
!DFSCF=  0.000000000000000    
!SCSGRD=  0.000000000000000    
_BASINP=  610.0000000000000    
_CPUTOT=  30.70000000000000    
_CPUSORT= 0.2999999999999758E-01
_SYSSORT= 0.1000000000000001E-01
_WALLSORT= 0.6999999936670065E-01
_DFTEXFAC=  1.000000000000000    
_DMX=-0.3024624578573665E-09
_DMY=  0.000000000000000    
_DMZ=-0.1366458016738292E-06
_FREQUENCIES= 0.4528931643788676E-04
_ENERGY= -40.18055417189581    
_ENUC=  13.53339960922593    
_FREQSTEP=  22.00000000000000    
_GRADENERG= -40.18054959082435    
_GRADEXFAC=  9999.000000000000    
_GRADMETHOD=  1.000000000000000    
_VIRIAL= 0.2639589765835604E-02
!GRID_FREEZE= -1.000000000000000    
_ITERATIONS=  2.000000000000000    
_LASTNELEC=  10.00000000000000    
_LASTSPIN=  0.000000000000000    
_LASTSYM=  1.000000000000000    
_MPP_PROG=  0.000000000000000    
_NPROC_MPP=  1.000000000000000    
_NPROC_SMP=  1.000000000000000    
_NUMSTEP=  0.000000000000000    
_OPTCONVMX= 0.6967759994499201E-04
_OPTCONVRMS= 0.2323657021671409E-04
_OPTGRAD= 0.1071528463236930E-03
_OPTGRADMX= 0.1071393054428706E-03
_OPTGRADRMS= 0.3571761544123102E-04
_OPTSTEP=  3.000000000000000    
_ORBITAL=  2100.200000000000    
_PI=  3.141592653589793    
_SEIG_MIN= 0.1999947398732833E-01
_SEWPROP=TRUE
_STATUS=  1.000000000000000    
_SYSTOT= 0.9500000000000000    
_VERSION=  2010001.000000000    
_WALLTOT=  37.36000000000000    
_ZPE= 0.4792869605625365E-01
_DATE=17-Aug-24
_LASTORB=RHF
_MACHINE=Linux-3.10.0-1160.108.1.el7.x86_64/molmod(x86_64) 64 bit serial version
_OUTPUT=/home/ospite/Desktop/MMfP/Project6/CH4/molpro/HF/ch4_Pople631.xml
_PGROUP=Cs
_TIME=15:51:54
_LIBMOL=/usr/local/molpro/molpros_2010_1_Linux_x86_64_i8/lib/
!SURFREC=  0.000000000000000    
!POLYREC=  0.000000000000000    
!DIPREC=  0.000000000000000    
!VSCFREC=  0.000000000000000    
!VCIREC=  0.000000000000000    
!PVCIREC=  0.000000000000000    
!VMP2REC=  0.000000000000000    
!VMCSCFREC=  0.000000000000000    
!GAREC=  0.000000000000000    
!SCFORB=  21002.00000000000    
!NEWMOL= -1.000000000000000    
!NEWSYM= -1.000000000000000    
_SLFILES=slscratch
_NGSSTO=  9.000000000000000    
_SIN=SIN
_COS=COS
_TAN=TAN
_ACOS=ACOS
_ASIN=ASIN
_ATAN=ATAN
_COSH=COSH
_SINH=SINH
_TANH=TANH
_ABS=ABS
_MOD=MOD
_ERF=ERF
_REFC=REFC
_ERFC=ERFC
_HYPOT=HYPOT
_J0=J0
_J1=J1
_JN=JN
_GAMMA=GAMMA
_LGAMMA=LGAMMA
_Y0=Y0
_Y1=Y1
_YN=YN
_EXP=EXP
_LOG=LOG
_LOG10=LOG10
_SQRT=SQRT
_INT=INT
_NINT=NINT
_MAX=MAX
_MIN=MIN
_COSMO=  0.000000000000000    
_COSMOIT=  0.000000000000000    
_COSMOES=  0.000000000000000    
_COSMOEDS=  0.000000000000000    
_COSMOEC=  0.000000000000000    
_COSMOEDCORR=  0.000000000000000    
_FEPSI=  1.000000000000000    
_SL_IsMM=  0.000000000000000    
_SL_NSYM=  0.000000000000000    
_SL_System_BitSw=  0.000000000000000    
_SL_Unique_atoms=  0.000000000000000    
_SL_GRAD=  0.000000000000000    
_SL_MAXUPD_Hess=  5.000000000000000    
_SL_N_PRINT_COD=  5.000000000000000    
_SL_PRINT_CODES=  0.000000000000000    
_SL_BasType=  0.000000000000000    
_SL_Energy_Pred=  0.000000000000000    
_SL_New_Coords=  0.000000000000000    
_SL_Total_Nuclea=  0.000000000000000    
_SL_Highest_Mltp=  0.000000000000000    
_SL_Ref_Geom=  0.000000000000000    
!LATTICE= -1.000000000000000    
!NEWLATTICE=  0.000000000000000    
!LATGRAD_VAR=FALSE
!SEW_LATTICE=  1.000000000000000    
!LOCAL=  0.000000000000000    
!SAVEDOM= -1.000000000000000    
!RESTDOM= -1.000000000000000    
!SAVEDOM_HF= -1.000000000000000    
!RESTDOM_HF= -1.000000000000000    
!HESSREC=  5300.200000000000    
!FREQREC=  5400.200000000000    
!NMODREC=  5450.200000000000    
!GTASKS=  0.000000000000000    
!HTASKS=  5500.200000000000    
!THRCHG= 0.1000000000000000    
!DEBUG= -1.000000000000000    
!CFIT_CPHF=  0.000000000000000    
!RDOMAUX_CPHF=  5.000000000000000    
!THRAO_CPHF= 0.9999999999999999E-11
!THRMO_CPHF= 0.9999999999999999E-11
!THROV_CPHF= 0.1000000000000000E-11
!THRSW_CPHF= 0.1000000000000000E-09
!THRPROD_CPHF= 0.9999999999999999E-11
!THRAOPR_CPHF= 0.1000000000000000E-11
!CFIT_SCFGRD=  0.000000000000000    
!RDOMAUX_SCFGRD=  7.000000000000000    
!THRAO_SCFGRD= 0.9999999999999999E-11
!THRMO_SCFGRD= 0.9999999999999999E-11
!THROV_SCFGRD= 0.1000000000000000E-11
!THRSW_SCFGRD= 0.1000000000000000E-09
!THRPROD_SCFGRD= 0.9999999999999999E-11
!THRAOPR_SCFGRD= 0.1000000000000000E-11
!LOCFIT_SCF=  0.000000000000000    
!LOCFIT_MP2= -1.000000000000000    
_RIDOM=  0.000000000000000    
!CC2_METHOD=  0.000000000000000    
_BASIS2006=FALSE
_SVDDEL= -1.000000000000000    
_SVDDELA= -1.000000000000000    
_SVDDELP= -1.000000000000000    
_SVDDELF= -1.000000000000000    
_SVDDELS= -1.000000000000000    
_SVDDEL_ABS= -1.000000000000000    
_SVDDELA_ABS= -1.000000000000000    
_SVDDELP_ABS= -1.000000000000000    
_SVDDELF_ABS= -1.000000000000000    
_SVDDELS_ABS= -1.000000000000000    
_MAXBASIS=  0.000000000000000    
!OPT_CONICAL=  0.000000000000000    
!CLEARSP_JGRID=  0.000000000000000    
D=  1.082106097299958    
A=  109.4712360154305    
T=  120.0000000074869    
GX1= 0.1827423393812658E-10
GY1= -0.000000000000000    
GZ1= 0.9755050682856717E-07
GX2=-0.1916115916665998E-03
GY2= -0.000000000000000    
GZ2=  2.044884257611498    
GX3=  1.927998962715077    
GY3= -0.000000000000000    
GZ3=-0.6814478202121222    
GX4=-0.9639036756705868    
GY4= -1.669640773820147    
GZ4=-0.6817187999243332    
GX5=-0.9639036756705868    
GY5=  1.669640773820147    
GZ5=-0.6817187999243332    
CX1= 0.1827423455613708E-10
CY1=  0.000000000000000    
CZ1= 0.9755050682860866E-07
H1X2=-0.1916115916666006E-03
H1Y2=  0.000000000000000    
H1Z2=  2.044884257611498    
H2X3=  1.927998962715077    
H2Y3=  0.000000000000000    
H2Z3=-0.6814478202121222    
H3X4=-0.9639036756705868    
H3Y4= -1.669640773820147    
H3Z4=-0.6817187999243332    
H4X5=-0.9639036756705868    
H4Y5=  1.669640773820147    
H4Z5=-0.6817187999243332    
[Atoms] Angs
C     1    6         0.0000000000        0.0000000000        0.0000000516
H     2    1        -0.0001013965        0.0000000000        1.0821061442
H     3    1         1.0202531100        0.0000000000       -0.3606066556
H     4    1        -0.5100758568       -0.8835358447       -0.3607500519
H     5    1        -0.5100758568        0.8835358447       -0.3607500519
[GTO]
  1 0
 s    6  1.00
  0.3047524900D+04  0.1834737091D-02
  0.4573695200D+03  0.1403732293D-01
  0.1039486800D+03  0.6884262165D-01
  0.2921015500D+02  0.2321844388D+00
  0.9286663000D+01  0.4679413476D+00
  0.3163927000D+01  0.3623119882D+00
 s    3  1.00
  0.7868272300D+01 -0.1193324245D+00
  0.1881288500D+01 -0.1608541561D+00
  0.5442492600D+00  0.1143456443D+01
 s    1  1.00
  0.1687144800D+00  0.1000000000D+01
 p    3  1.00
  0.7868272300D+01  0.6899906693D-01
  0.1881288500D+01  0.3164239597D+00
  0.5442492600D+00  0.7443082892D+00
 p    1  1.00
  0.1687144800D+00  0.1000000000D+01
  
  2 0
 s    3  1.00
  0.1873113700D+02  0.3349460400D-01
  0.2825394400D+01  0.2347269500D+00
  0.6401216900D+00  0.8137573301D+00
 s    1  1.00
  0.1612777600D+00  0.1000000000D+01
  
  3 0
 s    3  1.00
  0.1873113700D+02  0.3349460400D-01
  0.2825394400D+01  0.2347269500D+00
  0.6401216900D+00  0.8137573301D+00
 s    1  1.00
  0.1612777600D+00  0.1000000000D+01
  
  4 0
 s    3  1.00
  0.1873113700D+02  0.3349460400D-01
  0.2825394400D+01  0.2347269500D+00
  0.6401216900D+00  0.8137573301D+00
 s    1  1.00
  0.1612777600D+00  0.1000000000D+01
  
  5 0
 s    3  1.00
  0.1873113700D+02  0.3349460400D-01
  0.2825394400D+01  0.2347269500D+00
  0.6401216900D+00  0.8137573301D+00
 s    1  1.00
  0.1612777600D+00  0.1000000000D+01


[MO]
 Sym=      1.1
 Ene=     -11.2037
 Spin= Alpha
 Occup=    2.000000
1 0.99614120727611
2 0.025555426735118
3 -0.016598199915289
4 0.000000000003379
5 0.0
6 -0.000000000832421
7 -0.000000000024514
8 0.0
9 0.000000002353264
10 -0.000108791902839
11 0.003148526536976
12 -0.000108791723674
13 0.003148527779927
14 -0.000108791725585
15 0.003148527745603
16 -0.000108791725585
17 0.003148527745603
 Sym=      2.1
 Ene=      -0.9491
 Spin= Alpha
 Occup=    2.000000
1 -0.19719578519294
2 0.37389978267988
3 0.38247303229982
4 -0.000000000027685
5 0.0
6 -0.000000067391938
7 -0.000000000087124
8 0.0
9 -0.000000037787586
10 0.13501286489107
11 0.032963049780698
12 0.13501288517672
13 0.032963044422833
14 0.13501288519377
15 0.032963044345957
16 0.13501288519377
17 0.032963044345957
 Sym=      3.1
 Ene=      -0.5450
 Spin= Alpha
 Occup=    2.000000
1 -0.000000031500916
2 0.000000071293547
3 0.000000049401005
4 -0.000138451216926
5 0.0
6 0.43736602224692
7 -0.000070056021267
8 0.0
9 0.22130746788863
10 0.30163833283688
11 0.24486401492140
12 -0.10060948516790
13 -0.081672769859968
14 -0.10051441991726
15 -0.081595597581604
16 -0.10051441991726
17 -0.081595597581604
 Sym=      4.1
 Ene=      -0.5450
 Spin= Alpha
 Occup=    2.000000
1 -0.000000000019849
2 0.000000000070693
3 -0.000000000083477
4 0.43736602168674
5 0.0
6 0.000138451160980
7 0.22130748381432
8 0.0
9 0.000070056286277
10 0.000067221348491
11 0.000054568725943
12 0.28436493771803
13 0.23084189099287
14 -0.14221607949389
15 -0.11544822977697
16 -0.14221607949389
17 -0.11544822977697
 Sym=      1.2
 Ene=      -0.5450
 Spin= Alpha
 Occup=    2.000000
1 0.0
2 0.0
3 0.0
4 0.0
5 0.43736604360272
6 0.0
7 0.0
8 0.22130749497141
9 0.0
10 0.0
11 0.0
12 0.0
13 0.0
14 -0.24628667127801
15 -0.19993069932996
16 0.24628667127801
17 0.19993069932996
 Sym=      5.1
 Ene=       0.2563
 Spin= Alpha
 Occup=    0.000000
1 -0.15349338520944
2 0.091544574822173
3 2.79873712579590
4 -0.000000000063056
5 0.0
6 -0.000000024031523
7 -0.000000000352569
8 0.0
9 -0.000000376923004
10 0.003702189255322
11 -1.04532831594533
12 0.003702228204724
13 -1.04532841366752
14 0.003702228363602
15 -1.04532841450477
16 0.003702228363602
17 -1.04532841450477
 Sym=      6.1
 Ene=       0.3254
 Spin= Alpha
 Occup=    0.000000
1 0.000000000129729
2 -0.000000000665129
3 0.000000003373057
4 -0.29886789343995
5 0.0
6 -0.004757253379313
7 -1.50672537851993
8 0.0
9 -0.023983428570677
10 0.001306397911807
11 0.032139217954852
12 0.077401749452564
13 1.90418977252881
14 -0.039354072551070
15 -0.96816449891292
16 -0.039354072551070
17 -0.96816449891292
 Sym=      2.2
 Ene=       0.3254
 Spin= Alpha
 Occup=    0.000000
1 0.0
2 0.0
3 0.0
4 0.0
5 0.29890575298289
6 0.0
7 0.0
8 1.50691624523321
9 0.0
10 0.0
11 0.0
12 0.0
13 0.0
14 0.067417444314523
15 1.65856211984391
16 -0.067417444314523
17 -1.65856211984391
 Sym=      7.1
 Ene=       0.3254
 Spin= Alpha
 Occup=    0.000000
1 0.000000005831176
2 -0.000000054014039
3 0.000000283400856
4 0.004757253344214
5 0.0
6 -0.29886790271113
7 0.023983420454178
8 0.0
9 -1.50672587466208
10 0.082558774150124
11 2.03106147052055
12 -0.028751229974599
13 -0.70732181149243
14 -0.026903703513458
15 -0.66187010029540
16 -0.026903703513458
17 -0.66187010029540
 Sym=      3.2
 Ene=       0.7404
 Spin= Alpha
 Occup=    0.000000
1 0.0
2 0.0
3 0.0
4 0.0
5 -0.76910473652772
6 0.0
7 0.0
8 1.46354621596306
9 0.0
10 0.0
11 0.0
12 0.0
13 0.0
14 0.44948077734360
15 0.16019019691229
16 -0.44948077734360
17 -0.16019019691229
 Sym=      8.1
 Ene=       0.7404
 Spin= Alpha
 Occup=    0.000000
1 0.000000000003761
2 -0.000000001117553
3 0.000000001570644
4 -0.76910387333207
5 0.0
6 -0.001152350121195
7 1.46354457391915
8 0.0
9 0.002192832921073
10 -0.000773230360030
11 -0.000275571931631
12 -0.51875744037041
13 -0.18487966770640
14 0.25976533490676
15 0.092577619777935
16 0.25976533490676
17 0.092577619777935
 Sym=      9.1
 Ene=       0.7404
 Spin= Alpha
 Occup=    0.000000
1 0.000000004838597
2 -0.000000235712901
3 0.000000074772576
4 0.001152350226220
5 0.0
6 -0.76910389641560
7 -0.002192832358585
8 0.0
9 1.46354542060722
10 -0.55049881093275
11 -0.19619272983422
12 0.18422849690844
13 0.065657551542070
14 0.18313498471694
15 0.065267834698974
16 0.18313498471694
17 0.065267834698974
 Sym=      4.2
 Ene=       1.2333
 Spin= Alpha
 Occup=    0.000000
1 0.0
2 0.0
3 0.0
4 0.0
5 0.89972035957343
6 0.0
7 0.0
8 -1.03806332941371
9 0.0
10 0.0
11 0.0
12 0.0
13 0.0
14 0.84247324206154
15 -1.28585563205900
16 -0.84247324206154
17 1.28585563205900
 Sym=     10.1
 Ene=       1.2333
 Spin= Alpha
 Occup=    0.000000
1 -0.000000000355526
2 0.000000002021766
3 -0.000000001345216
4 -0.89971915575340
5 0.0
6 0.001471770971407
7 1.03806194023606
8 0.0
9 -0.001698072980588
10 -0.001784538389899
11 0.002723713976229
12 0.97339769485437
13 -1.48568387286546
14 -0.48580658217658
15 0.74148008166484
16 -0.48580658217658
17 0.74148008166484
 Sym=     11.1
 Ene=       1.2333
 Spin= Alpha
 Occup=    0.000000
1 0.000000440460635
2 -0.000002437230145
3 0.000001703795615
4 -0.001471771081247
5 0.0
6 -0.89971920108120
7 0.001698073748825
8 0.0
9 1.03806184990930
10 1.03181584203892
11 -1.57484398562402
12 -0.34225276351540
13 0.52237810877549
14 -0.34477647870774
15 0.52623002147557
16 -0.34477647870774
17 0.52623002147557
 Sym=     12.1
 Ene=       1.2526
 Spin= Alpha
 Occup=    0.000000
1 0.10261915355901
2 -1.10005961816416
3 1.52903257622358
4 0.000000002828538
5 0.0
6 0.000003355759901
7 -0.000000003285019
8 0.0
9 -0.000003513333862
10 0.61735663328033
11 -0.59169120357810
12 0.61736176420888
13 -0.59169848099401
14 0.61736176923234
15 -0.59169848864326
16 0.61736176923234
17 -0.59169848864326
 Sym=     13.1
 Ene=       1.3293
 Spin= Alpha
 Occup=    0.000000
1 -0.082823103833103
2 -2.13221671369996
3 5.20654613274119
4 -0.000000000357528
5 0.0
6 -0.000000492054380
7 -0.000000000146146
8 0.0
9 -0.000000562058520
10 -0.37084627721077
11 -0.94929749430116
12 -0.37084761068007
13 -0.94929667847279
14 -0.37084761212056
15 -0.94929667740183
16 -0.37084761212056
17 -0.94929667740183
 [FREQ]
      0.00
      0.00
      0.00
      0.00
      0.00
      0.00
   1516.72
   1516.75
   1516.77
   1708.67
   1708.71
   3181.80
   3296.21
   3296.27
   3296.37
 [FR-COORD]
C          0.0000000000        0.0000000000        0.0000000976
H         -0.0001916116        0.0000000000        2.0448842576
H          1.9279989627        0.0000000000       -0.6814478202
H         -0.9639036757       -1.6696407738       -0.6817187999
H         -0.9639036757        1.6696407738       -0.6817187999
 [FR-NORM-COORD]
 Vibration                    1
          0.04836527         -0.11548247          0.16483624
          0.11012992          0.08972569          0.16484202
          0.02778250          0.06624514          0.10660205
          0.24437788         -0.30895043          0.36152248
         -0.18882925         -0.30895043          0.02637840
 Vibration                    2
         -0.02212317          0.05845749         -0.00016246
         -0.06639283          0.59976933         -0.00016661
         -0.00737051         -0.34056060          0.04157676
         -0.19670248         -0.01268959          0.42093149
          0.18197318         -0.01268959         -0.46299148
 Vibration                    3
          0.03875355         -0.05923787          0.10756360
         -0.24540770         -0.21089165          0.10753697
          0.13344894         -0.39665453          0.37548224
         -0.20249191          0.18529741         -0.15023867
          0.46946510          0.18529741          0.09747385
 Vibration                    4
          0.23937314          0.02219625         -0.05664533
          0.31312489          0.05658020         -0.05663842
          0.21479571         -0.02367359         -0.12618145
          0.18498466          0.02793918          0.00619085
          0.24458722          0.02793918         -0.04995231
 Vibration                    5
         -0.01553054          0.03049389          0.07611212
          0.49960816         -0.05383165          0.07616039
         -0.18719806         -0.16845770         -0.40958134
         -0.38389971          0.17213248          0.25006478
          0.00936706          0.17213248          0.38780465
 Vibration                    6
          0.02149991          0.20161413          0.12079208
         -0.09981140          0.12661346          0.12078071
          0.06192632          0.35740204          0.23516925
          0.17521357          0.16122055          0.00238200
         -0.05132878          0.16122055          0.12483635
 Vibration                    7
         -0.08483500         -0.00000000         -0.07861712
          0.40779612          0.00000000         -0.05325205
          0.12962353          0.00000000          0.47619198
          0.23675338         -0.29653697          0.25694591
          0.23675338          0.29653697          0.25694591
 Vibration                    8
          0.07861669          0.00000000         -0.08483491
         -0.37784587         -0.00000000         -0.05755198
          0.15163382         -0.00000000          0.22073911
         -0.35530732          0.03934245          0.42386910
         -0.35530732         -0.03934245          0.42386910
 Vibration                    9
          0.00000000         -0.11566038          0.00000000
         -0.00000000          0.55603962          0.00000000
         -0.00000000          0.55606327         -0.00000000
         -0.24419603          0.13307532         -0.17269239
          0.24419602          0.13307532          0.17269239
 Vibration                   10
         -0.00002497          0.00000000         -0.00000375
          0.49815539         -0.00000000          0.00004396
          0.16595893          0.00000000          0.46962676
         -0.33190839          0.28746428         -0.23481301
         -0.33190839         -0.28746428         -0.23481301
 Vibration                   11
         -0.00000000         -0.00000258         -0.00000000
          0.00000000          0.49803997          0.00000000
          0.00000000         -0.49801342          0.00000000
          0.28756749          0.00000209         -0.40661483
         -0.28756749          0.00000209          0.40661483
 Vibration                   12
          0.00003310         -0.00000000          0.00004668
         -0.00003352         -0.00000000          0.49756528
          0.46942144         -0.00000000         -0.16589118
         -0.23489120         -0.40690211         -0.16611519
         -0.23489120          0.40690211         -0.16611519
 Vibration                   13
         -0.00000000         -0.08686931         -0.00000000
         -0.00000000         -0.02278834          0.00000000
         -0.00000000         -0.02279053          0.00000000
          0.32512132          0.54037344          0.22994004
         -0.32512132          0.54037344         -0.22994004
 Vibration                   14
         -0.08270348          0.00000000         -0.02657331
         -0.02171882          0.00000000          0.25163575
          0.61230879          0.00000000         -0.23105257
          0.19746824          0.37966061          0.14803728
          0.19746824         -0.37966061          0.14803728
 Vibration                   15
          0.02657389          0.00000000         -0.08270335
          0.00689252          0.00000000          0.78278308
         -0.47524370          0.00000000          0.14873055
          0.07584325          0.11929815          0.02700565
          0.07584326         -0.11929815          0.02700565
