
 Primary working directories    : /data/scratch
 Secondary working directories  : /data/scratch
 Wavefunction directory         : /home/ospite/wfu/
 Main file repository           : /data/scratch/

 ARCHNAME  : Linux/x86_64
 FC        : /usr/bin/gfortran
 FCVERSION : 4.8.5
 BLASLIB   : 
 id        : polimi

 Nodes     nprocs
 molmod       1

 Using default tuning parameters: mindgm=1; mindgv=20; mindgc=4; mindgr=1; noblas=0; mincuda=1000; minvec=7
 default implementation of scratch files=df  

 ***,methane with imposed symmetry and 6-31G basis set
 memory,100,m
 
 basis=6-31G
 symmetry,y
 
 geometry={angstrom
 C
 H1, C, d
 H2, C, d, H1, a
 H3, C, d, H1, a, H2, t
 H4, C, d, H1, a, H2, -t
 }
 
 d=1.09 Ang
 a=109.47 Deg
 t=120.0 Deg
 
 hf
 optg
 frequencies
 put,molden,ch4_6-31G.molpro

 Variables initialized (661), CPU time= 0.01 sec
 Commands  initialized (458), CPU time= 0.06 sec, 486 directives.
 Default parameters read. Elapsed time= 0.20 sec

 Checking input...
 Passed
1


                                         ***  PROGRAM SYSTEM MOLPRO  ***
                         Copyright, University College Cardiff Consultants Limited, 2008

                                    Version 2010.1 linked Mar  6 2018 16:01:50


 **********************************************************************************************************************************
 LABEL *   methane with imposed symmetry and 6-31G basis set                             
 Linux-3.10.0-1160.108.1.el7.x86_64/molmod(x86_64) 64 bit serial version                 DATE: 17-Aug-24          TIME: 15:51:54  
 **********************************************************************************************************************************

 SHA1:             d90fb18d49a3be29a79769f900c595ef3b8176e2
 **********************************************************************************************************************************

 Variable memory set to  100000000 words,  buffer space   230000 words

 SETTING BASIS          =    6-31G
 ZSYMEL=Y  

 SETTING D              =         1.09000000  ANG                             
 SETTING A              =       109.47000000  DEG                             
 SETTING T              =       120.00000000  DEG                             


 Recomputing integrals since basis changed


 Using spherical harmonics

 Library entry C      S 6-31G                selected for orbital group  1
 Library entry C      P 6-31G                selected for orbital group  1
 Library entry H      S 6-31G                selected for orbital group  2

1PROGRAM * SEWARD (Integral evaluation for generally contracted gaussian basis sets)     Author: Roland Lindh, 1990

 Geometry written to block  1 of record 700

 Orientation using atomic masses  
 Molecule type: Symmetric top,     Order of principal axis = 3
 User-specified symmetry elements: Y
 Symmetry elements: Y
 Rotational constants:     158.2574080    158.2574080    158.2538321 GHz  (calculated with average atomic masses)

 Point group  Cs  



 ATOMIC COORDINATES

 NR  ATOM    CHARGE       X              Y              Z

   1  C       6.00   -0.000000000    0.000000000   -0.000007798
   2  H1      1.00   -0.000000000    0.000000000    2.059793685
   3  H2      1.00    1.942014089    0.000000000   -0.686566920
   4  H3      1.00   -0.971007045   -1.681833536   -0.686566920
   5  H4      1.00   -0.971007045    1.681833536   -0.686566920

 Bond lengths in Bohr (Angstrom)

 1-2  2.059801483  1-3  2.059801483  1-4  2.059801483  1-5  2.059801483
     ( 1.090000000)     ( 1.090000000)     ( 1.090000000)     ( 1.090000000)

 Bond angles

  2-1-3  109.47000000   2-1-4  109.47000000   2-1-5  109.47000000   3-1-4  109.47244124

  3-1-5  109.47244124   4-1-5  109.47244124

 NUCLEAR CHARGE:                   10
 NUMBER OF PRIMITIVE AOS:          38
 NUMBER OF SYMMETRY AOS:           38
 NUMBER OF CONTRACTIONS:           17   (  13A'  +   4A"  )
 NUMBER OF CORE ORBITALS:           1   (   1A'  +   0A"  )
 NUMBER OF VALENCE ORBITALS:        8   (   6A'  +   2A"  )


 NUCLEAR REPULSION ENERGY   13.43538921


 Eigenvalues of metric

         1 0.205E-01 0.744E-01 0.744E-01 0.387E+00 0.417E+00 0.417E+00 0.479E+00 0.621E+00
         2 0.744E-01 0.417E+00 0.621E+00 0.247E+01


 Contracted 2-electron integrals neglected if value below      1.0D-11
 AO integral compression algorithm  1   Integral accuracy      1.0D-11

     0.262 MB (compressed) written to integral file (100.0%)


 NUMBER OF SORTED TWO-ELECTRON INTEGRALS:       6971.     BUFFER LENGTH:  32768
 NUMBER OF SEGMENTS:   1  SEGMENT LENGTH:       6971      RECORD LENGTH: 524288

 Memory used in sort:       0.56 MW

 SORT1 READ       10251. AND WROTE        6261. INTEGRALS IN      1 RECORDS. CPU TIME:     0.01 SEC, REAL TIME:     0.00 SEC
 SORT2 READ        6261. AND WROTE        6971. INTEGRALS IN      1 RECORDS. CPU TIME:     0.01 SEC, REAL TIME:     0.02 SEC

 FILE SIZES:   FILE 1:     2.8 MBYTE,  FILE 4:     4.2 MBYTE,   TOTAL:      7.1 MBYTE

 OPERATOR DM      FOR CENTER  0  COORDINATES:    0.000000    0.000000    0.000000


 **********************************************************************************************************************************
 DATASETS  * FILE   NREC   LENGTH (MB)   RECORD NAMES
              1      19        2.63       500      610      700      900      950      970     1000      129      960     1100   
                                          VAR    BASINP    GEOM    SYMINP    ZMAT    AOBASIS   BASIS     P2S    ABASIS      S 
                                         1400     1410     1200     1210     1080     1600     1650     1300     1700   
                                           T        V       H0       H01     AOSYM     SMH    MOLCAS    ERIS     OPER   

 PROGRAMS   *        TOTAL       INT
 CPU TIMES  *         0.64      0.14
 REAL TIME  *         1.04 SEC
 DISK USED  *         7.59 MB      
 **********************************************************************************************************************************

1PROGRAM * RHF-SCF (CLOSED SHELL)       Authors: W. Meyer, H.-J. Werner


 NUMBER OF ELECTRONS:       5+    5-
 CONVERGENCE THRESHOLDS:    1.00E-06 (Density)    1.00E-07 (Energy)
 MAX. NUMBER OF ITERATIONS:       60
 INTERPOLATION TYPE:            DIIS
 INTERPOLATION STEPS:              2 (START)      1 (STEP)
 LEVEL SHIFTS:                  0.00 (CLOSED)  0.00 (OPEN) 



 Orbital guess generated from atomic densities. Full valence occupancy:    7   2

 Molecular orbital dump at record        2100.2

 Initial alpha occupancy:   4   1
 Initial beta  occupancy:   4   1
 Wave function symmetry:    1

 ITERATION    DDIFF          GRAD             ENERGY        2-EL.EN.            DIPOLE MOMENTS         DIIS
    1      0.000D+00      0.000D+00       -40.16422577     53.038933   -0.00000    0.00000    0.00003    0
    2      0.000D+00      0.216D-01       -40.17841815     51.715055   -0.00000    0.00000    0.00001    1
    3      0.202D-01      0.814D-02       -40.18023388     52.147331   -0.00000    0.00000    0.00001    2
    4      0.582D-02      0.159D-02       -40.18038314     52.099824   -0.00000    0.00000    0.00001    3
    5      0.304D-02      0.187D-03       -40.18038475     52.101865   -0.00000    0.00000    0.00001    4
    6      0.467D-03      0.277D-05       -40.18038475     52.101849   -0.00000    0.00000    0.00001    5
    7      0.771D-05      0.325D-06       -40.18038475     52.101854   -0.00000    0.00000    0.00001    4
    8      0.816D-06      0.330D-07       -40.18038475     52.101854   -0.00000    0.00000    0.00001    0

 Final occupancy:   4   1

 !RHF STATE 1.1 Energy                -40.180384745600
 Nuclear energy                        13.43538921
 One-electron energy                  -79.66670114
 Two-electron energy                   26.05092719
 Virial quotient                       -0.99928219
 !RHF STATE 1.1 Dipole moment          -0.00000000     0.00000000     0.00001058
 Dipole moment /Debye                  -0.00000000     0.00000000     0.00002690

 Orbital energies:

         1.1          2.1          3.1          4.1          5.1          6.1
    -11.207508    -0.945857    -0.543022    -0.543015     0.254627     0.323161

         1.2          2.2          3.2
     -0.543022     0.323163     0.743666


 **********************************************************************************************************************************
 DATASETS  * FILE   NREC   LENGTH (MB)   RECORD NAMES
              1      19        2.63       500      610      700      900      950      970     1000      129      960     1100   
                                          VAR    BASINP    GEOM    SYMINP    ZMAT    AOBASIS   BASIS     P2S    ABASIS      S 
                                         1400     1410     1200     1210     1080     1600     1650     1300     1700   
                                           T        V       H0       H01     AOSYM     SMH    MOLCAS    ERIS     OPER   

              2       3        0.29       700     1000     2100   
                                         GEOM     BASIS     RHF  

 PROGRAMS   *        TOTAL        HF       INT
 CPU TIMES  *         0.70      0.06      0.14
 REAL TIME  *         1.17 SEC
 DISK USED  *         7.59 MB      
 **********************************************************************************************************************************


 PROGRAM * OPT (Geometry optimization)     Authors: F. Eckert and H.-J. Werner


 BFGS update of hessian

 *** Long output written to logfile /home/ospite/Desktop/MMfP/Project6/CH4/molpro/HF/ch4_Pople631.log ***


 Geometry optimization using default procedure for command HF-SCF

 Geometry written to block  1 of record 700

 Making model hessian for Z-matrix coordinates

 Quadratic Steepest Descent - Minimum Search

 Optimization point 1

 Variable                      Last           Current        Next           Gradient       Hessian

 E(HF-SCF000) / Hartree      0.00000000   -40.18038475     0.00000000
 D / ANG                     0.00000000     1.09000000     1.08379849     0.04261937     6.87242182
 A / DEG                     0.00000000   109.47000000   109.47146435    -0.00000034     0.00023257
 T / DEG                     0.00000000   120.00000000   120.00000000     0.00000000     0.00014996
 Convergence:                0.00000000  (line search)     0.01171918     0.02255321  (total)

 Optimization point 2

 Variable                      Last           Current        Next           Gradient       Hessian

 E(HF-SCF000) / Hartree    -40.18038475   -40.18054630     0.00000000
 D / ANG                     1.09000000     1.08379849     1.08206923     0.00929294     5.37392206
 A / DEG                   109.47000000   109.47146435   109.47111480     0.00000007     0.00024066
 T / DEG                   120.00000000   120.00000000   119.99999999     0.00000000     0.00015534
 Convergence:                0.00000000  (line search)     0.00326785     0.00491762  (total)

 Optimization point 3

 Variable                      Last           Current        Next           Gradient       Hessian

 E(HF-SCF000) / Hartree    -40.18054630   -40.18055417     0.00000000
 D / ANG                     1.08379849     1.08206923     1.08210610    -0.00020246     5.49099946
 A / DEG                   109.47146435   109.47111480   109.47123602    -0.00000003     0.00024295
 T / DEG                   120.00000000   119.99999999   120.00000001    -0.00000000     0.00015687
 Convergence:                0.00000000  (line search)     0.00006971     0.00010715  (total)

 END OF GEOMETRY OPTIMIZATION.    TOTAL CPU:         4.0 SEC

 ITER.   ENERGY(OLD)    ENERGY(NEW)      DE          GRADMAX     GRADNORM    GRADRMS     STEPMAX     STEPLEN     STEPRMS
   1   -40.18038475   -40.18054630    -0.00016155  0.02255320  0.02255321  0.00751774  0.01171915  0.01171918  0.00390639
   2   -40.18054630   -40.18055417    -0.00000787  0.00491761  0.00491762  0.00163921  0.00326784  0.00326785  0.00108928
   3   -40.18055417   -40.18055417    -0.00000000  0.00010714  0.00010715  0.00003572  0.00006968  0.00006971  0.00002324

 Geometry written to block  1 of record 700


 **********************************************************************************************************************************
 DATASETS  * FILE   NREC   LENGTH (MB)   RECORD NAMES
              1      19        2.63       500      610      700      900      950      970     1000      129      960     1100   
                                          VAR    BASINP    GEOM    SYMINP    ZMAT    AOBASIS   BASIS     P2S    ABASIS      S 
                                         1400     1410     1200     1210     1080     1600     1650     1300     1700   
                                           T        V       H0       H01     AOSYM     SMH    MOLCAS    ERIS     OPER   

              2       3        0.29       700     1000     2100   
                                         GEOM     BASIS     RHF  

 PROGRAMS   *        TOTAL      OPTG        HF       INT
 CPU TIMES  *         4.76      4.05      0.06      0.14
 REAL TIME  *         7.31 SEC
 DISK USED  *         7.63 MB      
 **********************************************************************************************************************************


 PROGRAM * HESSIAN

 Computing numerical hessian using default procedure for command HF-SCF

 Symmetry elements for unique displacements: Y  

 Using no symmetry in wavefunction calculations

 Running default procedure: HF-SCF000


 Numerically approximating hessian using central gradient differences

 Task list generated. Total number of displacements:     21

    5 tasks completed, CPU=     6.27 sec, Elapsed=     7.22 sec
   10 tasks completed, CPU=    12.51 sec, Elapsed=    14.29 sec
   15 tasks completed, CPU=    18.70 sec, Elapsed=    21.26 sec
   20 tasks completed, CPU=    24.92 sec, Elapsed=    28.34 sec

 Numerical HF-SCF000 hessian completed. CPU-time:    26.15 sec, Elapsed:    29.72 sec

 HF-SCF hessian saved to record  5300.2

 FREQUENCIES * CALCULATION OF HARMONIC VIBRATIONAL SPECTRA FOR HF-SCF


 Permanent Dipole Moment [debye]
   1-  3   -0.000000    0.000000   -0.000000

 Dipole Moment Norm    0.0000003 [debye]

 Dipole Moment Derivatives [debye/ang]
                   1             2             3             4             5             6             7             8
         1    -0.0024628     0.0000000     0.0000000     0.4210281     0.0000000     0.0001182    -0.7001713     0.0000000
         2    -0.0000000    -0.0024631    -0.0000000     0.0000000     0.4210281     0.0000000    -0.0000000     0.4210283
         3     0.0000244     0.0000000    -0.0024796     0.0001152     0.0000000    -0.8402298     0.3962753     0.0000000
                   9            10            11            12            13            14            15
         1     0.3962832     0.1407798    -0.4854267    -0.1982007     0.1407798     0.4854267    -0.1982007
         2     0.0000000    -0.4854296    -0.4198256    -0.3433164     0.4854296    -0.4198256     0.3433164
         3     0.2809626    -0.1982053    -0.3433166     0.2808512    -0.1982053     0.3433166     0.2808512

 Projecting out rotations and translations

   Low Vibration      Wavenumber
        Nr             [1/cm] 
        1                0.00
        2                0.00
        3                0.00
        4                0.00
        5                0.00
        6                0.00

     Vibration        Wavenumber
        Nr             [1/cm] 
        1             1516.72
        2             1516.75
        3             1516.77
        4             1708.67
        5             1708.71
        6             3181.80
        7             3296.21
        8             3296.27
        9             3296.37

 FREQUENCIES * CALCULATION OF NORMAL MODES FOR HF-SCF


 Atomic Coordinates

  Nr  Atom  Charge       X              Y              Z

   1   C     6.00    0.000000000    0.000000000    0.000000098
   2   H1    1.00   -0.000191612    0.000000000    2.044884258
   3   H2    1.00    1.927998963    0.000000000   -0.681447820
   4   H3    1.00   -0.963903676   -1.669640774   -0.681718800
   5   H4    1.00   -0.963903676    1.669640774   -0.681718800

 Frequencies dumped to record   5400.2

 Gradient norm at reference geometry: 0.20246D-03

 Normal Modes

                              1 A`        2 A`        3 A``       4 A`        5 A``
 Wavenumbers [cm-1]         1516.72     1516.75     1516.77     1708.67     1708.71
 Intensities [km/mol]         21.45       21.45       21.45        0.00        0.00
 Intensities [relative]       56.68       56.69       56.69        0.00        0.00
           CX1             -0.08483     0.07862     0.00000    -0.00002    -0.00000
           CY1             -0.00000     0.00000    -0.11566     0.00000    -0.00000
           CZ1             -0.07862    -0.08483     0.00000    -0.00000    -0.00000
           H1X2             0.40780    -0.37785    -0.00000     0.49816     0.00000
           H1Y2             0.00000    -0.00000     0.55604    -0.00000     0.49804
           H1Z2            -0.05325    -0.05755     0.00000     0.00004     0.00000
           H2X3             0.12962     0.15163    -0.00000     0.16596     0.00000
           H2Y3             0.00000    -0.00000     0.55606     0.00000    -0.49801
           H2Z3             0.47619     0.22074    -0.00000     0.46963     0.00000
           H3X4             0.23675    -0.35531    -0.24420    -0.33191     0.28757
           H3Y4            -0.29654     0.03934     0.13308     0.28746     0.00000
           H3Z4             0.25695     0.42387    -0.17269    -0.23481    -0.40661
           H4X5             0.23675    -0.35531     0.24420    -0.33191    -0.28757
           H4Y5             0.29654    -0.03934     0.13308    -0.28746     0.00000
           H4Z5             0.25695     0.42387     0.17269    -0.23481     0.40661

                              6 A`        7 A``       8 A`        9 A` 
 Wavenumbers [cm-1]         3181.80     3296.21     3296.27     3296.37
 Intensities [km/mol]          0.00       37.84       37.84       37.84
 Intensities [relative]        0.00      100.00      100.00      100.00
           CX1              0.00003    -0.00000    -0.08270     0.02657
           CY1             -0.00000    -0.08687     0.00000     0.00000
           CZ1              0.00005    -0.00000    -0.02657    -0.08270
           H1X2            -0.00003    -0.00000    -0.02172     0.00689
           H1Y2            -0.00000    -0.02279     0.00000     0.00000
           H1Z2             0.49757     0.00000     0.25164     0.78278
           H2X3             0.46942    -0.00000     0.61231    -0.47524
           H2Y3            -0.00000    -0.02279     0.00000     0.00000
           H2Z3            -0.16589     0.00000    -0.23105     0.14873
           H3X4            -0.23489     0.32512     0.19747     0.07584
           H3Y4            -0.40690     0.54037     0.37966     0.11930
           H3Z4            -0.16612     0.22994     0.14804     0.02701
           H4X5            -0.23489    -0.32512     0.19747     0.07584
           H4Y5             0.40690     0.54037    -0.37966    -0.11930
           H4Z5            -0.16612    -0.22994     0.14804     0.02701


 Normal Modes of low/zero frequencies

                                  1           2           3           4           5
 Wavenumbers [cm-1]            0.00        0.00        0.00        0.00        0.00
 Intensities [km/mol]          0.00        0.00        0.00        0.00        0.00
 Intensities [relative]        0.00        0.00        0.00        0.00        0.00
           CX1              0.04837    -0.02212     0.03875     0.23937    -0.01553
           CY1             -0.11548     0.05846    -0.05924     0.02220     0.03049
           CZ1              0.16484    -0.00016     0.10756    -0.05665     0.07611
           H1X2             0.11013    -0.06639    -0.24541     0.31312     0.49961
           H1Y2             0.08973     0.59977    -0.21089     0.05658    -0.05383
           H1Z2             0.16484    -0.00017     0.10754    -0.05664     0.07616
           H2X3             0.02778    -0.00737     0.13345     0.21480    -0.18720
           H2Y3             0.06625    -0.34056    -0.39665    -0.02367    -0.16846
           H2Z3             0.10660     0.04158     0.37548    -0.12618    -0.40958
           H3X4             0.24438    -0.19670    -0.20249     0.18498    -0.38390
           H3Y4            -0.30895    -0.01269     0.18530     0.02794     0.17213
           H3Z4             0.36152     0.42093    -0.15024     0.00619     0.25006
           H4X5            -0.18883     0.18197     0.46947     0.24459     0.00937
           H4Y5            -0.30895    -0.01269     0.18530     0.02794     0.17213
           H4Z5             0.02638    -0.46299     0.09747    -0.04995     0.38780

                                  6
 Wavenumbers [cm-1]            0.00
 Intensities [km/mol]          0.00
 Intensities [relative]        0.00
           CX1              0.02150
           CY1              0.20161
           CZ1              0.12079
           H1X2            -0.09981
           H1Y2             0.12661
           H1Z2             0.12078
           H2X3             0.06193
           H2Y3             0.35740
           H2Z3             0.23517
           H3X4             0.17521
           H3Y4             0.16122
           H3Z4             0.00238
           H4X5            -0.05133
           H4Y5             0.16122
           H4Z5             0.12484


 Zero point energy:  0.04792870 [H]    10519.13 [1/CM]      125.84 [KJ/MOL]
 Frequency information read from record  5400.2

 Dump information in style MOLDEN to ch4_6-31g.molpro                                                                

 Molecular orbitals read from record     2100.2  Type=RHF/CANONICAL (state 1.1)
 Occupation numbers read from record     2100.2  Type=RHF/RHF (state 1.1)
 Orbital energies read from record       2100.2  Type=RHF/CANONICAL (state 1.1)
 Redundancy group numbers read from rec  2100.2  Type=RHF/RHF (state 1.1)

 DUMP ORBITAL  1.1 AS ORBITAL    1  occ=    2.0000  eig=  -11.2037  GROUP=   2
 DUMP ORBITAL  2.1 AS ORBITAL    2  occ=    2.0000  eig=   -0.9491  GROUP=   2
 DUMP ORBITAL  3.1 AS ORBITAL    3  occ=    2.0000  eig=   -0.5450  GROUP=   2
 DUMP ORBITAL  4.1 AS ORBITAL    4  occ=    2.0000  eig=   -0.5450  GROUP=   2
 DUMP ORBITAL  1.2 AS ORBITAL    5  occ=    2.0000  eig=   -0.5450  GROUP=   2

 Total charge:      10.000000
 Frequency information read from record  5400.2

 **********************************************************************************************************************************

        OPTG(HF)        HF-SCF  
    -40.18055417    -40.18038475
 **********************************************************************************************************************************
 Variable memory released
