[Molden Format]
[Molpro variables]
_NUMVAR=  693.0000000000000    
_EV2006= 0.3674930886769165E-01
_EV= 0.3674932534394180E-01
_KJOULE= 0.3808798324128737E-03
_KJOULE/MOL= 0.3808798324128737E-03
_CM= 0.4556335267302901E-05
_CM-1= 0.4556335267302901E-05
_KCAL= 0.1593601117815568E-02
_KCAL/MOL= 0.1593601117815568E-02
_KELVIN2006= 0.3166828861084835E-05
_KELVIN= 0.3166814820820034E-05
_HERTZ2006= 0.1519829850815779E-15
_HERTZ= 0.1519829846011223E-15
_HZ2006= 0.1519829850815779E-15
_HZ= 0.1519829846011223E-15
_TOA2006= 0.5291772490000000    
_TOA= 0.5291772090000000    
_TOANG2006= 0.5291772490000000    
_TOANG= 0.5291772090000000    
_TORAD= 0.1745329251994330E-01
_TOCM=  219474.6306700000    
_TODEBYE=  2.541580000000000    
_TOEV2006=  27.21139610000000    
_TOEV=  27.21138390000000    
_TOHERTZ2006=  6579683899900000.    
_TOHERTZ=  6579683920700000.    
_TOHZ2006=  6579683899900000.    
_TOHZ=  6579683920700000.    
_TOK2006=  315773.3000000000    
_TOK=  315774.7000000000    
_TOKCAL=  627.5096000000000    
_TOKELVIN2006=  315773.3000000000    
_TOKELVIN=  315774.7000000000    
_TOKJ=  2625.500000000000    
_TOKJOULE=  2625.500000000000    
_ANG2006=  1.889725988578923    
_ANG=  1.889726131421507    
_ANGSTROM2006=  1.889725988578923    
_ANGSTROM=  1.889726131421507    
_IGNORE_UNDEF=  2.000000000000000    
_STRICTCHECK=  0.000000000000000    
_SEW_ONEEL=  0.000000000000000    
_CPPDONE=FALSE
_DKROLL_DONE=  0.000000000000000    
_FOCKDONE=TRUE
_GRADONE=FALSE
_HESSDONE=TRUE
_INTDONE=TRUE
_SCFDONE=TRUE
_MODUL_CUDA=FALSE
_MODUL_SLATER=FALSE
_MODUL_MRCC=FALSE
_MRCC_EXEC=
_FITC_AO_SAVED=FALSE
_FITC_MO_SAVED=FALSE
_SHARED_FS=TRUE
_LSTYP=SEWARD
_INTYP=INTS
_GEOMTYP=ZMAT
_GRADTYP=ALASKA
_DIRECT=FALSE
_SYNCM=  0.000000000000000    
_BASIS=6-31++G
_ZSYMEL=
_ZORIENT=  1.000000000000000    
_NELEC=  10.00000000000000    
!SPIN=  0.000000000000000    
_OPTCONV= 0.6567793960435697E-04
_QSDSTEP=  0.000000000000000    
_QSDIRC=  0.000000000000000    
_PROGRAM=FREQ
_CPUSTEP=  0.000000000000000    
_SYSSTEP=  0.000000000000000    
_WALLSTEP=  0.000000000000000    
!DFSCF=  0.000000000000000    
!SCSGRD=  0.000000000000000    
_BASINP=  610.0000000000000    
_CPUTOT=  34.02000000000000    
_CPUSORT= 0.6000000000000227E-01
_SYSSORT= 0.2000000000000002E-01
_WALLSORT= 0.8999999985098839E-01
_DFTEXFAC=  1.000000000000000    
_DMX= 0.8774501264463552E-10
_DMY=  0.000000000000000    
_DMZ=-0.1332606353217358E-06
_FREQUENCIES= 0.5084737746125547E-04
_ENERGY= -40.18122082517547    
_ENUC=  13.53014141664844    
_FREQSTEP=  22.00000000000000    
_GRADENERG= -40.18121627516953    
_GRADEXFAC=  9999.000000000000    
_GRADMETHOD=  1.000000000000000    
_VIRIAL= 0.2633469007207105E-02
!GRID_FREEZE= -1.000000000000000    
_ITERATIONS=  2.000000000000000    
_LASTNELEC=  10.00000000000000    
_LASTSPIN=  0.000000000000000    
_LASTSYM=  1.000000000000000    
_MPP_PROG=  0.000000000000000    
_NPROC_MPP=  1.000000000000000    
_NPROC_SMP=  1.000000000000000    
_NUMSTEP=  0.000000000000000    
_OPTCONVMX= 0.6564775728266425E-04
_OPTCONVRMS= 0.2189264653478566E-04
_OPTGRAD= 0.1007238132775216E-03
_OPTGRADMX= 0.1007111064011936E-03
_OPTGRADRMS= 0.3357460442584052E-04
_OPTSTEP=  3.000000000000000    
_ORBITAL=  2100.200000000000    
_PI=  3.141592653589793    
_SEIG_MIN= 0.4311826230010436E-02
_SEWPROP=TRUE
_STATUS=  1.000000000000000    
_SYSTOT=  1.100000000000000    
_VERSION=  2010001.000000000    
_WALLTOT=  40.22000000000000    
_ZPE= 0.4778304965156806E-01
_DATE=17-Aug-24
_LASTORB=RHF
_MACHINE=Linux-3.10.0-1160.108.1.el7.x86_64/molmod(x86_64) 64 bit serial version
_OUTPUT=/home/ospite/Desktop/MMfP/Project6/CH4/molpro/HF/ch4_++.xml
_PGROUP=Cs
_TIME=16:31:00
_LIBMOL=/usr/local/molpro/molpros_2010_1_Linux_x86_64_i8/lib/
!SURFREC=  0.000000000000000    
!POLYREC=  0.000000000000000    
!DIPREC=  0.000000000000000    
!VSCFREC=  0.000000000000000    
!VCIREC=  0.000000000000000    
!PVCIREC=  0.000000000000000    
!VMP2REC=  0.000000000000000    
!VMCSCFREC=  0.000000000000000    
!GAREC=  0.000000000000000    
!SCFORB=  21002.00000000000    
!NEWMOL= -1.000000000000000    
!NEWSYM= -1.000000000000000    
_SLFILES=slscratch
_NGSSTO=  9.000000000000000    
_SIN=SIN
_COS=COS
_TAN=TAN
_ACOS=ACOS
_ASIN=ASIN
_ATAN=ATAN
_COSH=COSH
_SINH=SINH
_TANH=TANH
_ABS=ABS
_MOD=MOD
_ERF=ERF
_REFC=REFC
_ERFC=ERFC
_HYPOT=HYPOT
_J0=J0
_J1=J1
_JN=JN
_GAMMA=GAMMA
_LGAMMA=LGAMMA
_Y0=Y0
_Y1=Y1
_YN=YN
_EXP=EXP
_LOG=LOG
_LOG10=LOG10
_SQRT=SQRT
_INT=INT
_NINT=NINT
_MAX=MAX
_MIN=MIN
_COSMO=  0.000000000000000    
_COSMOIT=  0.000000000000000    
_COSMOES=  0.000000000000000    
_COSMOEDS=  0.000000000000000    
_COSMOEC=  0.000000000000000    
_COSMOEDCORR=  0.000000000000000    
_FEPSI=  1.000000000000000    
_SL_IsMM=  0.000000000000000    
_SL_NSYM=  0.000000000000000    
_SL_System_BitSw=  0.000000000000000    
_SL_Unique_atoms=  0.000000000000000    
_SL_GRAD=  0.000000000000000    
_SL_MAXUPD_Hess=  5.000000000000000    
_SL_N_PRINT_COD=  5.000000000000000    
_SL_PRINT_CODES=  0.000000000000000    
_SL_BasType=  0.000000000000000    
_SL_Energy_Pred=  0.000000000000000    
_SL_New_Coords=  0.000000000000000    
_SL_Total_Nuclea=  0.000000000000000    
_SL_Highest_Mltp=  0.000000000000000    
_SL_Ref_Geom=  0.000000000000000    
!LATTICE= -1.000000000000000    
!NEWLATTICE=  0.000000000000000    
!LATGRAD_VAR=FALSE
!SEW_LATTICE=  1.000000000000000    
!LOCAL=  0.000000000000000    
!SAVEDOM= -1.000000000000000    
!RESTDOM= -1.000000000000000    
!SAVEDOM_HF= -1.000000000000000    
!RESTDOM_HF= -1.000000000000000    
!HESSREC=  5300.200000000000    
!FREQREC=  5400.200000000000    
!NMODREC=  5450.200000000000    
!GTASKS=  0.000000000000000    
!HTASKS=  5500.200000000000    
!THRCHG= 0.1000000000000000    
!DEBUG= -1.000000000000000    
!CFIT_CPHF=  0.000000000000000    
!RDOMAUX_CPHF=  5.000000000000000    
!THRAO_CPHF= 0.9999999999999999E-11
!THRMO_CPHF= 0.9999999999999999E-11
!THROV_CPHF= 0.1000000000000000E-11
!THRSW_CPHF= 0.1000000000000000E-09
!THRPROD_CPHF= 0.9999999999999999E-11
!THRAOPR_CPHF= 0.1000000000000000E-11
!CFIT_SCFGRD=  0.000000000000000    
!RDOMAUX_SCFGRD=  7.000000000000000    
!THRAO_SCFGRD= 0.9999999999999999E-11
!THRMO_SCFGRD= 0.9999999999999999E-11
!THROV_SCFGRD= 0.1000000000000000E-11
!THRSW_SCFGRD= 0.1000000000000000E-09
!THRPROD_SCFGRD= 0.9999999999999999E-11
!THRAOPR_SCFGRD= 0.1000000000000000E-11
!LOCFIT_SCF=  0.000000000000000    
!LOCFIT_MP2= -1.000000000000000    
_RIDOM=  0.000000000000000    
!CC2_METHOD=  0.000000000000000    
_BASIS2006=FALSE
_SVDDEL= -1.000000000000000    
_SVDDELA= -1.000000000000000    
_SVDDELP= -1.000000000000000    
_SVDDELF= -1.000000000000000    
_SVDDELS= -1.000000000000000    
_SVDDEL_ABS= -1.000000000000000    
_SVDDELA_ABS= -1.000000000000000    
_SVDDELP_ABS= -1.000000000000000    
_SVDDELF_ABS= -1.000000000000000    
_SVDDELS_ABS= -1.000000000000000    
_MAXBASIS=  0.000000000000000    
!OPT_CONICAL=  0.000000000000000    
!CLEARSP_JGRID=  0.000000000000000    
D=  1.082366679207102    
A=  109.4712346323568    
T=  120.0000000025698    
GX1= 0.6274460821080344E-11
GY1= -0.000000000000000    
GZ1= 0.8880001846303678E-07
GX2=-0.7227236282682894E-04
GY2= -0.000000000000000    
GZ2=  2.045376685000745    
GX3=  1.928423472583084    
GY3= -0.000000000000000    
GZ3=-0.6817244420277511    
GX4=-0.9641756001475132    
GY4= -1.670042854254728    
GZ4=-0.6818266505740527    
GX5=-0.9641756001475132    
GY5=  1.670042854254728    
GZ5=-0.6818266505740527    
CX1= 0.6274460118138592E-11
CY1=  0.000000000000000    
CZ1= 0.8880001846345298E-07
H1X2=-0.7227236282682931E-04
H1Y2=  0.000000000000000    
H1Z2=  2.045376685000745    
H2X3=  1.928423472583084    
H2Y3=  0.000000000000000    
H2Z3=-0.6817244420277511    
H3X4=-0.9641756001475132    
H3Y4= -1.670042854254728    
H3Z4=-0.6818266505740527    
H4X5=-0.9641756001475132    
H4Y5=  1.670042854254728    
H4Z5=-0.6818266505740527    
[Atoms] Angs
C     1    6         0.0000000000        0.0000000000        0.0000000470
H     2    1        -0.0000382449        0.0000000000        1.0823667255
H     3    1         1.0204777510        0.0000000000       -0.3607530375
H     4    1        -0.5102197531       -0.8837486165       -0.3608071240
H     5    1        -0.5102197531        0.8837486165       -0.3608071240
[GTO]
  1 0
 s    6  1.00
  0.3047524900D+04  0.1834737091D-02
  0.4573695200D+03  0.1403732293D-01
  0.1039486800D+03  0.6884262165D-01
  0.2921015500D+02  0.2321844388D+00
  0.9286663000D+01  0.4679413476D+00
  0.3163927000D+01  0.3623119882D+00
 s    3  1.00
  0.7868272300D+01 -0.1193324245D+00
  0.1881288500D+01 -0.1608541561D+00
  0.5442492600D+00  0.1143456443D+01
 s    1  1.00
  0.1687144800D+00  0.1000000000D+01
 s    1  1.00
  0.4380000000D-01  0.1000000000D+01
 p    3  1.00
  0.7868272300D+01  0.6899906693D-01
  0.1881288500D+01  0.3164239597D+00
  0.5442492600D+00  0.7443082892D+00
 p    1  1.00
  0.1687144800D+00  0.1000000000D+01
 p    1  1.00
  0.4380000000D-01  0.1000000000D+01
  
  2 0
 s    3  1.00
  0.1873113700D+02  0.3349460400D-01
  0.2825394400D+01  0.2347269500D+00
  0.6401216900D+00  0.8137573301D+00
 s    1  1.00
  0.1612777600D+00  0.1000000000D+01
 s    1  1.00
  0.3600000000D-01  0.1000000000D+01
  
  3 0
 s    3  1.00
  0.1873113700D+02  0.3349460400D-01
  0.2825394400D+01  0.2347269500D+00
  0.6401216900D+00  0.8137573301D+00
 s    1  1.00
  0.1612777600D+00  0.1000000000D+01
 s    1  1.00
  0.3600000000D-01  0.1000000000D+01
  
  4 0
 s    3  1.00
  0.1873113700D+02  0.3349460400D-01
  0.2825394400D+01  0.2347269500D+00
  0.6401216900D+00  0.8137573301D+00
 s    1  1.00
  0.1612777600D+00  0.1000000000D+01
 s    1  1.00
  0.3600000000D-01  0.1000000000D+01
  
  5 0
 s    3  1.00
  0.1873113700D+02  0.3349460400D-01
  0.2825394400D+01  0.2347269500D+00
  0.6401216900D+00  0.8137573301D+00
 s    1  1.00
  0.1612777600D+00  0.1000000000D+01
 s    1  1.00
  0.3600000000D-01  0.1000000000D+01


[MO]
 Sym=      1.1
 Ene=     -11.2062
 Spin= Alpha
 Occup=    2.000000
1 0.99615834205917
2 0.025779389695489
3 -0.017575909748635
4 0.002423864914759
5 -0.000000000007706
6 0.0
7 -0.000000000699449
8 0.000000000016799
9 0.0
10 0.000000002039013
11 -0.000000000129273
12 0.0
13 0.000000000814493
14 -0.000127262666085
15 0.003402576211218
16 -0.000706757418108
17 -0.000127262621580
18 0.003402577677475
19 -0.000706755729884
20 -0.000127262627248
21 0.003402577678752
22 -0.000706756088704
23 -0.000127262627248
24 0.003402577678752
25 -0.000706756088704
 Sym=      2.1
 Ene=      -0.9513
 Spin= Alpha
 Occup=    2.000000
1 -0.19742196629285
2 0.37261603599574
3 0.39881430222148
4 0.023952501270814
5 -0.000000000015115
6 0.0
7 -0.000000061260082
8 -0.000000000034306
9 0.0
10 -0.000000040788144
11 -0.000000000103692
12 0.0
13 -0.000000002879108
14 0.13561613248979
15 0.022414120450087
16 -0.001485794002091
17 0.13561615099958
18 0.022414109990180
19 -0.001485794445841
20 0.13561615100312
21 0.022414109904840
22 -0.001485794572432
23 0.13561615100312
24 0.022414109904840
25 -0.001485794572432
 Sym=      3.1
 Ene=      -0.5469
 Spin= Alpha
 Occup=    2.000000
1 -0.000000028663081
2 0.000000066512624
3 0.000000035840408
4 -0.000000033570964
5 -0.000120597477445
6 0.0
7 0.43800447127829
8 -0.000061076743480
9 0.0
10 0.22184095153724
11 -0.000001986669555
12 0.0
13 0.007225671648567
14 0.30293168415094
15 0.23225723423061
16 0.021705848606776
17 -0.10104577320839
18 -0.077471614052730
19 -0.007240189060043
20 -0.10094295235738
21 -0.077392775357738
22 -0.007232815888698
23 -0.10094295235738
24 -0.077392775357738
25 -0.007232815888698
 Sym=      1.2
 Ene=      -0.5469
 Spin= Alpha
 Occup=    2.000000
1 0.0
2 0.0
3 0.0
4 0.0
5 0.0
6 0.43800448812760
7 0.0
8 0.0
9 0.22184096591366
10 0.0
11 0.0
12 0.007225693533366
13 0.0
14 0.0
15 0.0
16 0.0
17 0.0
18 0.0
19 0.0
20 -0.24734269043768
21 -0.18963729427822
22 -0.017722733947673
23 0.24734269043768
24 0.18963729427822
25 0.017722733947673
 Sym=      4.1
 Ene=      -0.5469
 Spin= Alpha
 Occup=    2.000000
1 -0.000000000004762
2 0.000000000101870
3 -0.000000000284223
4 0.000000001108277
5 0.43800447156711
6 0.0
7 0.000120597515426
8 0.22184095726133
9 0.0
10 0.000061076483415
11 0.007225694867669
12 0.0
13 0.000001988502849
14 0.000072705348063
15 0.000055747468467
16 0.000005209559280
17 0.28558249443891
18 0.21895569716778
19 0.020462709927099
20 -0.14282759985373
21 -0.10950572225061
22 -0.010233960309183
23 -0.14282759985373
24 -0.10950572225061
25 -0.010233960309183
 Sym=      5.1
 Ene=       0.0436
 Spin= Alpha
 Occup=    0.000000
1 0.035147075027276
2 -0.098086776346412
3 -0.19127605014650
4 -4.39347558182991
5 0.000000000545272
6 0.0
7 0.000000012867261
8 -0.000000002970357
9 0.0
10 0.000000076316256
11 0.000000031000138
12 0.0
13 0.000000490277618
14 -0.010313383054505
15 0.16502474842347
16 1.29858813525364
17 -0.010313385215352
18 0.16502483932404
19 1.29858876348047
20 -0.010313385532669
21 0.16502483833577
22 1.29858885834127
23 -0.010313385532669
24 0.16502483833577
25 1.29858885834127
 Sym=      6.1
 Ene=       0.0818
 Spin= Alpha
 Occup=    0.000000
1 0.000000007828938
2 -0.000000019995153
3 0.000000002810344
4 -0.000000114946214
5 -0.005243699229871
6 0.0
7 -0.10267092277094
8 0.001221870250218
9 0.0
10 0.023924151731404
11 -0.078593144651411
12 0.0
13 -1.53884261201584
14 -0.018154112592096
15 -0.17009134095448
16 4.87940298784031
17 0.005176615716387
18 0.048501170663849
19 -1.39135165665257
20 0.006488758181950
21 0.060795022928519
22 -1.74402551785060
23 0.006488758181950
24 0.060795022928519
25 -1.74402551785060
 Sym=      2.2
 Ene=       0.0818
 Spin= Alpha
 Occup=    0.000000
1 0.0
2 0.0
3 0.0
4 0.0
5 0.0
6 0.10280474475892
7 0.0
8 0.0
9 -0.023955321376858
10 0.0
11 0.0
12 1.54084811570840
13 0.0
14 0.0
15 0.0
16 0.0
17 0.0
18 0.0
19 0.0
20 -0.014842112250291
21 -0.13906027615744
22 3.98921619540419
23 0.014842112250291
24 0.13906027615744
25 -3.98921619540419
 Sym=      7.1
 Ene=       0.0818
 Spin= Alpha
 Occup=    0.000000
1 0.000000000152722
2 0.000000000348158
3 -0.000000005008280
4 0.000000002239199
5 -0.10267093052337
6 0.0
7 0.005243699657078
8 0.023924113605630
9 0.0
10 -0.001221876779752
11 -1.53884216260036
12 0.0
13 0.078593089018788
14 0.000927826601850
15 0.008693086354221
16 -0.24937795092710
17 -0.017425133736715
18 -0.16326138736279
19 4.68347141029950
20 0.008248653278377
21 0.077284153523799
22 -2.21704672987019
23 0.008248653278377
24 0.077284153523799
25 -2.21704672987019
 Sym=      3.2
 Ene=       0.1700
 Spin= Alpha
 Occup=    0.000000
1 0.0
2 0.0
3 0.0
4 0.0
5 0.0
6 -0.046569598249916
7 0.0
8 0.0
9 -0.060241372376863
10 0.0
11 0.0
12 3.39673130265626
13 0.0
14 0.0
15 0.0
16 0.0
17 0.0
18 0.0
19 0.0
20 0.043267289017082
21 0.48935630629572
22 4.16520898951258
23 -0.043267289017082
24 -0.48935630629572
25 -4.16520898951258
 Sym=      8.1
 Ene=       0.1700
 Spin= Alpha
 Occup=    0.000000
1 -0.000000003172363
2 0.000000007411301
3 0.000000007788822
4 -0.000000320322652
5 -0.046342417892647
6 0.0
7 -0.004594232589898
8 -0.059947479005869
9 0.0
10 -0.005942971402651
11 3.38016180964183
12 0.0
13 0.33509755057714
14 -0.005225892186087
15 -0.059105235246951
16 -0.50308054735480
17 -0.047975262655315
18 -0.54260378695356
19 -4.61843097240118
20 0.026600572787405
21 0.30085455916451
22 2.56075589149332
23 0.026600572787405
24 0.30085455916451
25 2.56075589149332
 Sym=      9.1
 Ene=       0.1700
 Spin= Alpha
 Occup=    0.000000
1 -0.000000012209153
2 0.000000048429570
3 -0.000000048366914
4 -0.000001331393035
5 0.004594226394571
6 0.0
7 -0.046342465965147
8 0.005942990270604
9 0.0
10 -0.059947351254496
11 -0.33509747339357
12 0.0
13 3.38016300585278
14 -0.052733068578811
15 -0.59641521025496
16 -5.07645249558824
17 0.022504685312382
18 0.25453016909360
19 2.16646019399132
20 0.015114157902851
21 0.17094275727096
22 1.45499673638695
23 0.015114157902851
24 0.17094275727096
25 1.45499673638695
 Sym=     10.1
 Ene=       0.2159
 Spin= Alpha
 Occup=    0.000000
1 0.094024948892576
2 -0.10957100036123
3 -0.84625560255162
4 9.10466076090593
5 -0.000000000254597
6 0.0
7 0.000000040798092
8 0.000000005449660
9 0.0
10 -0.000000162253674
11 0.000000072177713
12 0.0
13 -0.000000479015060
14 0.021406844555502
15 -0.40756595844403
16 -1.90454912245587
17 0.021406849912459
18 -0.40756610122930
19 -1.90454911724619
20 0.021406852473374
21 -0.40756607352436
22 -1.90454895662409
23 0.021406852473374
24 -0.40756607352436
25 -1.90454895662409
 Sym=      4.2
 Ene=       0.3604
 Spin= Alpha
 Occup=    0.000000
1 0.0
2 0.0
3 0.0
4 0.0
5 0.0
6 0.31177275964701
7 0.0
8 0.0
9 1.61893738020899
10 0.0
11 0.0
12 -1.12944298306028
13 0.0
14 0.0
15 0.0
16 0.0
17 0.0
18 0.0
19 0.0
20 0.087944990638791
21 1.72730410087709
22 -2.14918024259079
23 -0.087944990638791
24 -1.72730410087709
25 2.14918024259079
 Sym=     11.1
 Ene=       0.3604
 Spin= Alpha
 Occup=    0.000000
1 -0.000000001349862
2 0.000000001448980
3 0.000000021923055
4 0.000000057939391
5 -0.31160910104485
6 0.0
7 0.010100625433263
8 -1.61808754386067
9 0.0
10 0.052449378055883
11 1.12885016732507
12 0.0
13 -0.036590991149896
14 -0.003493332232451
15 -0.068611659159896
16 0.085369247970803
17 0.10266114633500
18 2.01634022901071
19 -2.50881058413314
20 -0.049583909247943
21 -0.97386431040322
22 1.21172064679695
23 -0.049583909247943
24 -0.97386431040322
25 1.21172064679695
 Sym=     12.1
 Ene=       0.3604
 Spin= Alpha
 Occup=    0.000000
1 0.000000055510295
2 -0.000000067083996
3 -0.000000866668438
4 -0.000000946816037
5 -0.010100628427229
6 0.0
7 -0.31160907162798
8 -0.052449358776951
9 0.0
10 -1.61808803055953
11 0.036591018387483
12 0.0
13 1.12884978641933
14 0.10765349514726
15 2.11439480026824
16 -2.63081182778123
17 -0.032590902622608
18 -0.64011004599778
19 0.79645048009659
20 -0.037531221354232
21 -0.73714154025178
22 0.91718092850468
23 -0.037531221354232
24 -0.73714154025178
25 0.91718092850468
 Sym=     13.1
 Ene=       0.4886
 Spin= Alpha
 Occup=    0.000000
1 -0.14459347861285
2 0.065807706698632
3 3.70786603202692
4 7.61099175306332
5 -0.000000001236628
6 0.0
7 -0.000000166903548
8 -0.000000000352209
9 0.0
10 -0.000001376643981
11 0.000000005787023
12 0.0
13 -0.000001287646878
14 -0.055851433978525
15 -2.20010221924532
16 -1.26399847290467
17 -0.055851416775025
18 -2.20010407299933
19 -1.26399962442012
20 -0.055851415843310
21 -2.20010407543986
22 -1.26399960971016
23 -0.055851415843310
24 -2.20010407543986
25 -1.26399960971016
 Sym=      5.2
 Ene=       0.9177
 Spin= Alpha
 Occup=    0.000000
1 0.0
2 0.0
3 0.0
4 0.0
5 0.0
6 -0.91594212668193
7 0.0
8 0.0
9 1.85968678375014
10 0.0
11 0.0
12 -1.61832045147117
13 0.0
14 0.0
15 0.0
16 0.0
17 0.0
18 0.0
19 0.0
20 0.40438042981172
21 0.10047215768884
22 -1.70822859778262
23 -0.40438042981172
24 -0.10047215768884
25 1.70822859778262
 Sym=     14.1
 Ene=       0.9177
 Spin= Alpha
 Occup=    0.000000
1 0.000000000004041
2 -0.000000000002708
3 0.000000001240295
4 -0.000000005302630
5 -0.91593115398295
6 0.0
7 0.004483244512965
8 1.85966450906852
9 0.0
10 -0.009102574334009
11 -1.61830108075252
12 0.0
13 0.007921163012097
14 0.002441651296602
15 0.000606655271264
16 -0.010314302348524
17 -0.46774650913968
18 -0.11621606523882
19 1.97590664158500
20 0.23265242968592
21 0.057804703855801
22 -0.98279616680241
23 0.23265242968592
24 0.057804703855801
25 -0.98279616680241
 Sym=     15.1
 Ene=       0.9177
 Spin= Alpha
 Occup=    0.000000
1 0.000000020519364
2 -0.000000192132090
3 -0.000000468531105
4 -0.000001900585354
5 -0.004483242205113
6 0.0
7 -0.91593128434253
8 0.009102572035446
9 0.0
10 1.85966522075773
11 -0.007921160539657
12 0.0
13 -1.61830182823709
14 -0.49525674048462
15 -0.12305154088322
16 2.09212023299171
17 0.16278352636954
18 0.040445870699940
19 -0.68764857836731
20 0.16623654574960
21 0.041303807582849
22 -0.70223520341278
23 0.16623654574960
24 0.041303807582849
25 -0.70223520341278
 Sym=      6.2
 Ene=       1.2849
 Spin= Alpha
 Occup=    0.000000
1 0.0
2 0.0
3 0.0
4 0.0
5 0.0
6 0.78861312983036
7 0.0
8 0.0
9 -0.94164611232978
10 0.0
11 0.0
12 0.049091025975356
13 0.0
14 0.0
15 0.0
16 0.0
17 0.0
18 0.0
19 0.0
20 0.91655356586198
21 -1.49835828296196
22 0.55874013927293
23 -0.91655356586198
24 1.49835828296196
25 -0.55874013927293
 Sym=     16.1
 Ene=       1.2849
 Spin= Alpha
 Occup=    0.000000
1 -0.000000000130419
2 0.000000000621102
3 -0.000000001103454
4 -0.000000002635933
5 -0.78861023681703
6 0.0
7 0.002136165082205
8 0.94164265894305
9 0.0
10 -0.002550692075949
11 -0.049090849932994
12 0.0
13 0.000132971095752
14 -0.003080371422446
15 0.005035709539444
16 -0.001877815223784
17 1.05936770053693
18 -1.73182717080816
19 0.64580105687230
20 -0.52814366613477
21 0.86339573278413
22 -0.32196162007114
23 -0.52814366613477
24 0.86339573278413
25 -0.32196162007114
 Sym=     17.1
 Ene=       1.2849
 Spin= Alpha
 Occup=    0.000000
1 0.000000078029551
2 0.000000835754813
3 -0.000001818087650
4 0.000002789768958
5 -0.002136166460505
6 0.0
7 -0.78861014698812
8 0.002550697478929
9 0.0
10 0.94164222873763
11 -0.000132978134052
12 0.0
13 -0.049090033812833
14 1.12254068571277
15 -1.83509973762510
16 0.68430966675741
17 -0.37127538467369
18 0.60695190258766
19 -0.22633346014804
20 -0.37563168485599
21 0.61407347328032
22 -0.22898910968461
23 -0.37563168485599
24 0.61407347328032
25 -0.22898910968461
 Sym=     18.1
 Ene=       1.3590
 Spin= Alpha
 Occup=    0.000000
1 -0.047971569708415
2 -2.44145675684708
3 5.80426255294947
4 -0.86076531333562
5 -0.000000000596541
6 0.0
7 -0.000000162101029
8 0.000000000713548
9 0.0
10 -0.000000647677142
11 -0.000000000307823
12 0.0
13 -0.000000166004952
14 -0.096055209649205
15 -1.23912942408979
16 0.26564505950803
17 -0.096055968752243
18 -1.23912906807073
19 0.26564440553322
20 -0.096055970972170
21 -1.23912906456791
22 0.26564440276894
23 -0.096055970972170
24 -1.23912906456791
25 0.26564440276894
 Sym=     19.1
 Ene=       1.4630
 Spin= Alpha
 Occup=    0.000000
1 0.096438316407929
2 -0.23370879151800
3 0.86862475187714
4 4.62334646648101
5 0.000000000676176
6 0.0
7 0.000000519961776
8 -0.000000001120006
9 0.0
10 -0.000000460561148
11 0.000000002129018
12 0.0
13 -0.000000956930139
14 0.77192266276294
15 -1.25374867588606
16 -0.78162681178239
17 0.77192367863346
18 -1.25375011093597
19 -0.78162773662291
20 0.77192367935150
21 -1.25375011216235
22 -0.78162773128396
23 0.77192367935150
24 -1.25375011216235
25 -0.78162773128396
 [FREQ]
      0.00
      0.00
      0.00
      0.00
      0.00
      0.00
   1510.94
   1510.97
   1510.99
   1699.85
   1699.89
   3177.97
   3287.84
   3287.90
   3287.99
 [FR-COORD]
C          0.0000000000        0.0000000000        0.0000000888
H         -0.0000722724        0.0000000000        2.0453766850
H          1.9284234726        0.0000000000       -0.6817244420
H         -0.9641756001       -1.6700428543       -0.6818266506
H         -0.9641756001        1.6700428543       -0.6818266506
 [FR-NORM-COORD]
 Vibration                    1
          0.08914756          0.14482497          0.13251728
         -0.21709602          0.17196756          0.13250646
          0.19121862          0.14458438          0.42125007
          0.19886017          0.13137396          0.01031840
          0.18360767          0.13137396         -0.03400581
 Vibration                    2
          0.21685184         -0.01118588         -0.09960359
          0.29709103         -0.04506850         -0.09960075
          0.19010810         -0.14541693         -0.17525476
          0.06407650          0.07287096         -0.08944891
          0.31613168          0.07287096         -0.03410992
 Vibration                    3
          0.00203522         -0.07151228          0.14760395
          0.16944857         -0.09924006          0.14760987
         -0.05376369         -0.46521779         -0.01023682
         -0.40273456          0.13920438          0.20386941
          0.29519045          0.13920438          0.24917335
 Vibration                    4
         -0.08417428          0.12317462         -0.11066065
         -0.17543153          0.18087478         -0.11066388
         -0.05375822         -0.26658655         -0.02462142
         -0.37464179          0.28920511         -0.10657802
          0.26713447          0.28920511         -0.20077929
 Vibration                    5
         -0.00923457          0.11893523          0.01632266
          0.31777270         -0.29786173          0.01633421
         -0.11822617          0.32361631         -0.29198658
         -0.06129047          0.22499331         -0.16983976
         -0.17519455          0.22499331          0.51078275
 Vibration                    6
          0.01366300          0.08247688          0.02350689
          0.37217882          0.52104651          0.02351956
         -0.10583042          0.01025617         -0.31450927
         -0.04180172         -0.10069774          0.55060147
         -0.16989495         -0.10069774         -0.16558421
 Vibration                    7
         -0.08441696         -0.00000000         -0.07921953
          0.40537002          0.00000000         -0.05295778
          0.13103058          0.00000000          0.47739360
          0.23477215         -0.29580555          0.25978728
          0.23477216          0.29580555          0.25978728
 Vibration                    8
          0.07921910         -0.00000000         -0.08441685
         -0.38040165          0.00000000         -0.05646569
          0.14998580          0.00000000          0.21799625
         -0.35679469          0.04115340          0.42220653
         -0.35679469         -0.04115340          0.42220653
 Vibration                    9
         -0.00000000         -0.11576552          0.00000000
          0.00000000          0.55601129          0.00000000
         -0.00000000          0.55603557         -0.00000000
         -0.24381229          0.13372974         -0.17239928
          0.24381230          0.13372974          0.17239928
 Vibration                   10
         -0.00002576          0.00000000         -0.00000383
          0.49815918         -0.00000000          0.00001486
          0.16598646          0.00000000          0.46961875
         -0.33191935          0.28746249         -0.23479398
         -0.33191935         -0.28746249         -0.23479398
 Vibration                   11
         -0.00000000         -0.00000265         -0.00000000
          0.00000000          0.49804033          0.00000000
          0.00000000         -0.49801307          0.00000000
          0.28754359          0.00000215         -0.40663173
         -0.28754359          0.00000214          0.40663173
 Vibration                   12
          0.00003430         -0.00000000          0.00004844
         -0.00000382         -0.00000000          0.49754766
          0.46940694         -0.00000000         -0.16591570
         -0.23490595         -0.40691207         -0.16610457
         -0.23490595          0.40691207         -0.16610457
 Vibration                   13
         -0.00000000         -0.08672915         -0.00000000
         -0.00000000         -0.02346180          0.00000000
          0.00000000         -0.02346405         -0.00000000
          0.32543031          0.54021186          0.23013002
         -0.32543031          0.54021186         -0.23013002
 Vibration                   14
         -0.08259411          0.00000000         -0.02645545
         -0.02235124          0.00000000          0.25101088
          0.61264345          0.00000000         -0.23162706
          0.19696543          0.37989608          0.14793476
          0.19696544         -0.37989608          0.14793476
 Vibration                   15
          0.02645606          0.00000000         -0.08259399
          0.00712509          0.00000000          0.78309393
         -0.47493976          0.00000000          0.14807279
          0.07627706          0.11972303          0.02652750
          0.07627706         -0.11972303          0.02652750
