[Molden Format]
[Molpro variables]
_NUMVAR=  693.0000000000000    
_EV2006= 0.3674930886769165E-01
_EV= 0.3674932534394180E-01
_KJOULE= 0.3808798324128737E-03
_KJOULE/MOL= 0.3808798324128737E-03
_CM= 0.4556335267302901E-05
_CM-1= 0.4556335267302901E-05
_KCAL= 0.1593601117815568E-02
_KCAL/MOL= 0.1593601117815568E-02
_KELVIN2006= 0.3166828861084835E-05
_KELVIN= 0.3166814820820034E-05
_HERTZ2006= 0.1519829850815779E-15
_HERTZ= 0.1519829846011223E-15
_HZ2006= 0.1519829850815779E-15
_HZ= 0.1519829846011223E-15
_TOA2006= 0.5291772490000000    
_TOA= 0.5291772090000000    
_TOANG2006= 0.5291772490000000    
_TOANG= 0.5291772090000000    
_TORAD= 0.1745329251994330E-01
_TOCM=  219474.6306700000    
_TODEBYE=  2.541580000000000    
_TOEV2006=  27.21139610000000    
_TOEV=  27.21138390000000    
_TOHERTZ2006=  6579683899900000.    
_TOHERTZ=  6579683920700000.    
_TOHZ2006=  6579683899900000.    
_TOHZ=  6579683920700000.    
_TOK2006=  315773.3000000000    
_TOK=  315774.7000000000    
_TOKCAL=  627.5096000000000    
_TOKELVIN2006=  315773.3000000000    
_TOKELVIN=  315774.7000000000    
_TOKJ=  2625.500000000000    
_TOKJOULE=  2625.500000000000    
_ANG2006=  1.889725988578923    
_ANG=  1.889726131421507    
_ANGSTROM2006=  1.889725988578923    
_ANGSTROM=  1.889726131421507    
_IGNORE_UNDEF=  2.000000000000000    
_STRICTCHECK=  0.000000000000000    
_SEW_ONEEL=  0.000000000000000    
_CPPDONE=FALSE
_DKROLL_DONE=  0.000000000000000    
_FOCKDONE=TRUE
_GRADONE=FALSE
_HESSDONE=TRUE
_INTDONE=TRUE
_SCFDONE=TRUE
_MODUL_CUDA=FALSE
_MODUL_SLATER=FALSE
_MODUL_MRCC=FALSE
_MRCC_EXEC=
_FITC_AO_SAVED=FALSE
_FITC_MO_SAVED=FALSE
_SHARED_FS=TRUE
_LSTYP=SEWARD
_INTYP=INTS
_GEOMTYP=ZMAT
_GRADTYP=ALASKA
_DIRECT=FALSE
_SYNCM=  0.000000000000000    
_BASIS=STO-3G
_ZSYMEL=
_ZORIENT=  1.000000000000000    
_NELEC=  10.00000000000000    
!SPIN=  0.000000000000000    
_OPTCONV= 0.9211015430549710E-05
_QSDSTEP=  0.000000000000000    
_QSDIRC=  0.000000000000000    
_PROGRAM=FREQ
_CPUSTEP=  0.000000000000000    
_SYSSTEP=  0.000000000000000    
_WALLSTEP= 0.1000000000000000E-01
!DFSCF=  0.000000000000000    
!SCSGRD=  0.000000000000000    
_BASINP=  610.0000000000000    
_CPUTOT=  32.20000000000000    
_CPUSORT= 0.3999999999999915E-01
_SYSSORT= 0.1000000000000001E-01
_WALLSORT= 0.9999999962747097E-01
_DFTEXFAC=  1.000000000000000    
_DMX=-0.3491540390143655E-11
_DMY=  0.000000000000000    
_DMZ=-0.4701554457420265E-06
_FREQUENCIES= 0.8446019812274078E-04
_ENERGY= -39.72686367968240    
_ENUC=  13.52210094808152    
_FREQSTEP=  22.00000000000000    
_GRADENERG= -39.72685792124253    
_GRADEXFAC=  9999.000000000000    
_GRADMETHOD=  1.000000000000000    
_VIRIAL= 0.3245267942473236E-02
!GRID_FREEZE= -1.000000000000000    
_ITERATIONS=  2.000000000000000    
_LASTNELEC=  10.00000000000000    
_LASTSPIN=  0.000000000000000    
_LASTSYM=  1.000000000000000    
_MPP_PROG=  0.000000000000000    
_NPROC_MPP=  1.000000000000000    
_NPROC_SMP=  1.000000000000000    
_NUMSTEP=  0.000000000000000    
_OPTCONVMX= 0.6767364685232197E-05
_OPTCONVRMS= 0.3070338476849903E-05
_OPTGRAD= 0.1384602235446974E-04
_OPTGRADMX= 0.1289706368470489E-04
_OPTGRADRMS= 0.4615340784823246E-05
_OPTSTEP=  3.000000000000000    
_ORBITAL=  2100.200000000000    
_PI=  3.141592653589793    
_SEIG_MIN= 0.2167920794353456    
_SEWPROP=TRUE
_STATUS=  1.000000000000000    
_SYSTOT=  1.010000000000000    
_VERSION=  2010001.000000000    
_WALLTOT=  45.61000000000000    
_ZPE= 0.5403474265476321E-01
_DATE=17-Aug-24
_LASTORB=RHF
_MACHINE=Linux-3.10.0-1160.108.1.el7.x86_64/molmod(x86_64) 64 bit serial version
_OUTPUT=/home/ospite/Desktop/MMfP/Project6/CH4/molpro/HF/ch4_sto-3g.xml
_PGROUP=Cs
_TIME=15:46:28
_LIBMOL=/usr/local/molpro/molpros_2010_1_Linux_x86_64_i8/lib/
!SURFREC=  0.000000000000000    
!POLYREC=  0.000000000000000    
!DIPREC=  0.000000000000000    
!VSCFREC=  0.000000000000000    
!VCIREC=  0.000000000000000    
!PVCIREC=  0.000000000000000    
!VMP2REC=  0.000000000000000    
!VMCSCFREC=  0.000000000000000    
!GAREC=  0.000000000000000    
!SCFORB=  21002.00000000000    
!NEWMOL= -1.000000000000000    
!NEWSYM= -1.000000000000000    
_SLFILES=slscratch
_NGSSTO=  9.000000000000000    
_SIN=SIN
_COS=COS
_TAN=TAN
_ACOS=ACOS
_ASIN=ASIN
_ATAN=ATAN
_COSH=COSH
_SINH=SINH
_TANH=TANH
_ABS=ABS
_MOD=MOD
_ERF=ERF
_REFC=REFC
_ERFC=ERFC
_HYPOT=HYPOT
_J0=J0
_J1=J1
_JN=JN
_GAMMA=GAMMA
_LGAMMA=LGAMMA
_Y0=Y0
_Y1=Y1
_YN=YN
_EXP=EXP
_LOG=LOG
_LOG10=LOG10
_SQRT=SQRT
_INT=INT
_NINT=NINT
_MAX=MAX
_MIN=MIN
_COSMO=  0.000000000000000    
_COSMOIT=  0.000000000000000    
_COSMOES=  0.000000000000000    
_COSMOEDS=  0.000000000000000    
_COSMOEC=  0.000000000000000    
_COSMOEDCORR=  0.000000000000000    
_FEPSI=  1.000000000000000    
_SL_IsMM=  0.000000000000000    
_SL_NSYM=  0.000000000000000    
_SL_System_BitSw=  0.000000000000000    
_SL_Unique_atoms=  0.000000000000000    
_SL_GRAD=  0.000000000000000    
_SL_MAXUPD_Hess=  5.000000000000000    
_SL_N_PRINT_COD=  5.000000000000000    
_SL_PRINT_CODES=  0.000000000000000    
_SL_BasType=  0.000000000000000    
_SL_Energy_Pred=  0.000000000000000    
_SL_New_Coords=  0.000000000000000    
_SL_Total_Nuclea=  0.000000000000000    
_SL_Highest_Mltp=  0.000000000000000    
_SL_Ref_Geom=  0.000000000000000    
!LATTICE= -1.000000000000000    
!NEWLATTICE=  0.000000000000000    
!LATGRAD_VAR=FALSE
!SEW_LATTICE=  1.000000000000000    
!LOCAL=  0.000000000000000    
!SAVEDOM= -1.000000000000000    
!RESTDOM= -1.000000000000000    
!SAVEDOM_HF= -1.000000000000000    
!RESTDOM_HF= -1.000000000000000    
!HESSREC=  5300.200000000000    
!FREQREC=  5400.200000000000    
!NMODREC=  5450.200000000000    
!GTASKS=  0.000000000000000    
!HTASKS=  5500.200000000000    
!THRCHG= 0.1000000000000000    
!DEBUG= -1.000000000000000    
!CFIT_CPHF=  0.000000000000000    
!RDOMAUX_CPHF=  5.000000000000000    
!THRAO_CPHF= 0.9999999999999999E-11
!THRMO_CPHF= 0.9999999999999999E-11
!THROV_CPHF= 0.1000000000000000E-11
!THRSW_CPHF= 0.1000000000000000E-09
!THRPROD_CPHF= 0.9999999999999999E-11
!THRAOPR_CPHF= 0.1000000000000000E-11
!CFIT_SCFGRD=  0.000000000000000    
!RDOMAUX_SCFGRD=  7.000000000000000    
!THRAO_SCFGRD= 0.9999999999999999E-11
!THRMO_SCFGRD= 0.9999999999999999E-11
!THROV_SCFGRD= 0.1000000000000000E-11
!THRSW_SCFGRD= 0.1000000000000000E-09
!THRPROD_SCFGRD= 0.9999999999999999E-11
!THRAOPR_SCFGRD= 0.1000000000000000E-11
!LOCFIT_SCF=  0.000000000000000    
!LOCFIT_MP2= -1.000000000000000    
_RIDOM=  0.000000000000000    
!CC2_METHOD=  0.000000000000000    
_BASIS2006=FALSE
_SVDDEL= -1.000000000000000    
_SVDDELA= -1.000000000000000    
_SVDDELP= -1.000000000000000    
_SVDDELF= -1.000000000000000    
_SVDDELS= -1.000000000000000    
_SVDDEL_ABS= -1.000000000000000    
_SVDDELA_ABS= -1.000000000000000    
_SVDDELP_ABS= -1.000000000000000    
_SVDDELF_ABS= -1.000000000000000    
_SVDDELS_ABS= -1.000000000000000    
_MAXBASIS=  0.000000000000000    
!OPT_CONICAL=  0.000000000000000    
!CLEARSP_JGRID=  0.000000000000000    
D=  1.083010272632267    
A=  109.4713210374137    
T=  119.9999999911028    
GX1=-0.2173815695028919E-10
GY1=  0.000000000000000    
GZ1= 0.6373171744565556E-06
GX2= 0.3490104004467949E-04
GY2=  0.000000000000000    
GZ2=  2.046593449810711    
GX3=  1.929533378829273    
GY3=  0.000000000000000    
GZ3=-0.6822332531084687    
GX4=-0.9647841398051387    
GY4= -1.671034999046438    
GZ4=-0.6821838956091835    
GX5=-0.9647841398051387    
GY5=  1.671034999046438    
GZ5=-0.6821838956091835    
CX1=-0.2173815641381971E-10
CY1=  0.000000000000000    
CZ1= 0.6373171744563505E-06
H1X2= 0.3490104004467975E-04
H1Y2=  0.000000000000000    
H1Z2=  2.046593449810711    
H2X3=  1.929533378829273    
H2Y3=  0.000000000000000    
H2Z3=-0.6822332531084687    
H3X4=-0.9647841398051387    
H3Y4= -1.671034999046438    
H3Z4=-0.6821838956091835    
H4X5=-0.9647841398051387    
H4Y5=  1.671034999046438    
H4Z5=-0.6821838956091835    
[Atoms] Angs
C     1    6        -0.0000000000        0.0000000000        0.0000003373
H     2    1         0.0000184688        0.0000000000        1.0830106097
H     3    1         1.0210650881        0.0000000000       -0.3610222888
H     4    1        -0.5105417784       -0.8842736369       -0.3609961699
H     5    1        -0.5105417784        0.8842736369       -0.3609961699
[GTO]
  1 0
 s    3  1.00
  0.7161683700D+02  0.1543289700D+00
  0.1304509600D+02  0.5353281400D+00
  0.3530512200D+01  0.4446345400D+00
 s    3  1.00
  0.2941249400D+01 -0.9996723008D-01
  0.6834831000D+00  0.3995128303D+00
  0.2222899000D+00  0.7001154705D+00
 p    3  1.00
  0.2941249400D+01  0.1559162721D+00
  0.6834831000D+00  0.6076837282D+00
  0.2222899000D+00  0.3919573953D+00
  
  2 0
 s    3  1.00
  0.3425250900D+01  0.1543289707D+00
  0.6239137300D+00  0.5353281424D+00
  0.1688554000D+00  0.4446345420D+00
  
  3 0
 s    3  1.00
  0.3425250900D+01  0.1543289707D+00
  0.6239137300D+00  0.5353281424D+00
  0.1688554000D+00  0.4446345420D+00
  
  4 0
 s    3  1.00
  0.3425250900D+01  0.1543289707D+00
  0.6239137300D+00  0.5353281424D+00
  0.1688554000D+00  0.4446345420D+00
  
  5 0
 s    3  1.00
  0.3425250900D+01  0.1543289707D+00
  0.6239137300D+00  0.5353281424D+00
  0.1688554000D+00  0.4446345420D+00


[MO]
 Sym=      1.1
 Ene=     -11.0297
 Spin= Alpha
 Occup=    2.000000
1 0.99192548648612
2 0.038355623832820
3 -0.000000000005369
4 0.0
5 -0.000000021437006
6 -0.007007088562862
7 -0.007007093262955
8 -0.007007093269657
9 -0.007007093269657
 Sym=      2.1
 Ene=      -0.9121
 Spin= Alpha
 Occup=    2.000000
1 -0.22143082666749
2 0.62758675358873
3 0.000000000048289
4 0.0
5 -0.000000472319767
6 0.18056708656214
7 0.18056718863111
8 0.18056718865865
9 0.18056718865865
 Sym=      3.1
 Ene=      -0.5205
 Spin= Alpha
 Occup=    2.000000
1 -0.000000237279629
2 0.000000869873077
3 0.000034786874972
4 0.0
5 0.57196563108500
6 0.52103535776773
7 -0.17365693361720
8 -0.17368918405240
9 -0.17368918405240
 Sym=      1.2
 Ene=      -0.5205
 Spin= Alpha
 Occup=    2.000000
1 0.0
2 0.0
3 0.0
4 0.57196591338934
5 0.0
6 0.0
7 0.0
8 -0.42542379777706
9 0.42542379777706
 Sym=      4.1
 Ene=      -0.5205
 Spin= Alpha
 Occup=    2.000000
1 0.000000000018468
2 -0.000000000046053
3 0.57196591234039
4 0.0
5 -0.000034786827188
6 -0.000022804531665
7 0.49124468938619
8 -0.24561094246711
9 -0.24561094246711
 Sym=      5.1
 Ene=       0.7192
 Spin= Alpha
 Occup=    0.000000
1 0.000000000375625
2 -0.000000002362632
3 1.10635749158151
4 0.0
5 -0.000001030212738
6 -0.000017167358588
7 -1.00400454173507
8 0.50201085644559
9 0.50201085644559
 Sym=      2.2
 Ene=       0.7192
 Spin= Alpha
 Occup=    0.000000
1 0.0
2 0.0
3 0.0
4 1.10635749168210
5 0.0
6 0.0
7 0.0
8 0.86949839569195
9 -0.86949839569195
 Sym=      6.1
 Ene=       0.7192
 Spin= Alpha
 Occup=    0.000000
1 -0.000004253868811
2 0.000027207487919
3 0.000001030197953
4 0.0
5 1.10635866571822
6 -1.06492505146702
7 0.35497660877612
8 0.35495232913185
9 0.35495232913185
 Sym=      7.1
 Ene=       0.7611
 Spin= Alpha
 Occup=    0.000000
1 -0.25231900522844
2 1.63281817262420
3 0.000000001621025
4 0.0
5 -0.000020105829253
6 -0.66770549018725
7 -0.66772915001689
8 -0.66772914742155
9 -0.66772914742155
 [FREQ]
      0.00
      0.00
      0.00
      0.00
      0.00
      0.00
   1675.49
   1675.52
   1675.54
   1903.56
   1903.60
   3525.79
   3786.27
   3786.33
   3786.41
 [FR-COORD]
C         -0.0000000000        0.0000000000        0.0000006373
H          0.0000349010        0.0000000000        2.0465934498
H          1.9295333788        0.0000000000       -0.6822332531
H         -0.9647841398       -1.6710349990       -0.6821838956
H         -0.9647841398        1.6710349990       -0.6821838956
 [FR-NORM-COORD]
 Vibration                    1
          0.24712607         -0.02914096         -0.00835209
          0.28893260         -0.02547248         -0.00835280
          0.23318982         -0.01439083         -0.04776740
          0.24702387         -0.03835028          0.01435099
          0.21935778         -0.03835028          0.00836086
 Vibration                    2
          0.00664647         -0.03645971          0.20284503
          0.00262509         -0.04806144          0.20284510
          0.00798700         -0.35661010          0.20663640
         -0.27262079          0.12941639          0.19148133
          0.28859459          0.12941639          0.21041730
 Vibration                    3
          0.02648825          0.08527339          0.02107588
         -0.53997561          0.08091349          0.02108554
          0.21531958          0.11509103          0.55513957
          0.23987009          0.07254453         -0.24952106
          0.19074174          0.07254453         -0.24240054
 Vibration                    4
          0.00453386          0.07319509          0.13737649
          0.12370227          0.23809891          0.13737446
         -0.03519106          0.42474021          0.02502418
          0.31686499         -0.18502979          0.32819098
         -0.38724135         -0.18502979          0.05891635
 Vibration                    5
          0.00790997          0.08111013         -0.04195166
          0.05816503          0.60315066         -0.04195252
         -0.00884261         -0.29697245         -0.08933228
         -0.18556238          0.00912986          0.40798613
          0.16787958          0.00912986         -0.44450799
 Vibration                    6
          0.02081328          0.20235361         -0.00641209
          0.20157220         -0.06627079         -0.00641517
         -0.03944290          0.15861583         -0.17683210
         -0.15486587          0.35853536         -0.14052935
          0.07598880          0.35853536          0.29812826
 Vibration                    7
         -0.08537533          0.00000000         -0.07348437
          0.42169361         -0.00000000         -0.06933652
          0.11112260         -0.00000000          0.47278831
          0.24227450         -0.31106167          0.23610811
          0.24227450          0.31106167          0.23610811
 Vibration                    8
          0.07348406         -0.00000000         -0.08537527
         -0.36299293          0.00000000         -0.08053960
          0.17916916          0.00000000          0.23013100
         -0.34592023          0.02973492          0.43388657
         -0.34592023         -0.02973491          0.43388657
 Vibration                    9
         -0.00000000         -0.11264386          0.00000000
          0.00000000          0.55649658          0.00000000
         -0.00000000          0.55651291         -0.00000000
         -0.25511333          0.11464899         -0.18037515
          0.25511333          0.11464899          0.18037515
 Vibration                   10
         -0.00002068         -0.00000000         -0.00000324
          0.49813519          0.00000000         -0.00001156
          0.16600894         -0.00000000          0.46960021
         -0.33194885          0.28747335         -0.23477502
         -0.33194885         -0.28747335         -0.23477502
 Vibration                   11
          0.00000000         -0.00000181          0.00000000
         -0.00000000          0.49803572          0.00000000
         -0.00000000         -0.49801715         -0.00000000
          0.28752426          0.00000149         -0.40664572
         -0.28752426          0.00000149          0.40664572
 Vibration                   12
          0.00001395          0.00000000          0.00001973
          0.00001177          0.00000000          0.49783616
          0.46948268         -0.00000000         -0.16598949
         -0.23483035         -0.40674652         -0.16604089
         -0.23483035          0.40674652         -0.16604089
 Vibration                   13
          0.00000000         -0.09074669          0.00000000
          0.00000000         -0.00389318         -0.00000000
         -0.00000000         -0.00389530          0.00000000
          0.31666643          0.54458043          0.22390882
         -0.31666643          0.54458043         -0.22390882
 Vibration                   14
         -0.08645758         -0.00000000         -0.02756467
         -0.00370450         -0.00000000          0.24884757
          0.61459563         -0.00000000         -0.21979510
          0.20968531          0.36963242          0.14970936
          0.20968531         -0.36963242          0.14970936
 Vibration                   15
          0.02756506          0.00000000         -0.08645749
          0.00119399          0.00000000          0.78021087
         -0.46722139          0.00000000          0.16189628
          0.06877577          0.11707248          0.04407678
          0.06877577         -0.11707248          0.04407678
