[Molden Format]
[Molpro variables]
_NUMVAR=  693.0000000000000    
_EV2006= 0.3674930886769165E-01
_EV= 0.3674932534394180E-01
_KJOULE= 0.3808798324128737E-03
_KJOULE/MOL= 0.3808798324128737E-03
_CM= 0.4556335267302901E-05
_CM-1= 0.4556335267302901E-05
_KCAL= 0.1593601117815568E-02
_KCAL/MOL= 0.1593601117815568E-02
_KELVIN2006= 0.3166828861084835E-05
_KELVIN= 0.3166814820820034E-05
_HERTZ2006= 0.1519829850815779E-15
_HERTZ= 0.1519829846011223E-15
_HZ2006= 0.1519829850815779E-15
_HZ= 0.1519829846011223E-15
_TOA2006= 0.5291772490000000    
_TOA= 0.5291772090000000    
_TOANG2006= 0.5291772490000000    
_TOANG= 0.5291772090000000    
_TORAD= 0.1745329251994330E-01
_TOCM=  219474.6306700000    
_TODEBYE=  2.541580000000000    
_TOEV2006=  27.21139610000000    
_TOEV=  27.21138390000000    
_TOHERTZ2006=  6579683899900000.    
_TOHERTZ=  6579683920700000.    
_TOHZ2006=  6579683899900000.    
_TOHZ=  6579683920700000.    
_TOK2006=  315773.3000000000    
_TOK=  315774.7000000000    
_TOKCAL=  627.5096000000000    
_TOKELVIN2006=  315773.3000000000    
_TOKELVIN=  315774.7000000000    
_TOKJ=  2625.500000000000    
_TOKJOULE=  2625.500000000000    
_ANG2006=  1.889725988578923    
_ANG=  1.889726131421507    
_ANGSTROM2006=  1.889725988578923    
_ANGSTROM=  1.889726131421507    
_IGNORE_UNDEF=  2.000000000000000    
_STRICTCHECK=  0.000000000000000    
_SEW_ONEEL=  0.000000000000000    
_CPPDONE=FALSE
_DKROLL_DONE=  0.000000000000000    
_FOCKDONE=TRUE
_GRADONE=FALSE
_HESSDONE=TRUE
_INTDONE=TRUE
_SCFDONE=TRUE
_MODUL_CUDA=FALSE
_MODUL_SLATER=FALSE
_MODUL_MRCC=FALSE
_MRCC_EXEC=
_FITC_AO_SAVED=FALSE
_FITC_MO_SAVED=FALSE
_SHARED_FS=TRUE
_LSTYP=SEWARD
_INTYP=INTS
_GEOMTYP=ZMAT
_GRADTYP=ALASKA
_DIRECT=FALSE
_SYNCM=  0.000000000000000    
_BASIS=AUG-CC-PVDZ
_ZSYMEL=
_ZORIENT=  1.000000000000000    
_NELEC=  10.00000000000000    
!SPIN=  0.000000000000000    
_OPTCONV= 0.7400566709694016E-06
_QSDSTEP=  0.000000000000000    
_QSDIRC=  0.000000000000000    
_PROGRAM=FREQ
_CPUSTEP=  0.000000000000000    
_SYSSTEP=  0.000000000000000    
_WALLSTEP=  0.000000000000000    
!DFSCF=  0.000000000000000    
!SCSGRD=  0.000000000000000    
_BASINP=  610.0000000000000    
_CPUTOT=  55.05000000000000    
_CPUSORT= 0.3100000000000023    
_SYSSORT= 0.4000000000000004E-01
_WALLSORT= 0.4000000003725290    
_DFTEXFAC=  1.000000000000000    
_DMX=-0.1233836079139738E-07
_DMY=  0.000000000000000    
_DMZ=-0.1064650330098907E-07
_FREQUENCIES= 0.4375275290929562E-04
_ENERGY= -40.19963317047928    
_ENUC=  13.44289959976496    
_FREQSTEP=  15.00000000000000    
_GRADENERG= -40.19963068059105    
_GRADEXFAC=  9999.000000000000    
_GRADMETHOD=  1.000000000000000    
_VIRIAL= 0.1701436705475884E-04
!GRID_FREEZE= -1.000000000000000    
_ITERATIONS=  2.000000000000000    
_LASTNELEC=  10.00000000000000    
_LASTSPIN=  0.000000000000000    
_LASTSYM=  1.000000000000000    
_MPP_PROG=  0.000000000000000    
_NPROC_MPP=  1.000000000000000    
_NPROC_SMP=  1.000000000000000    
_NUMSTEP=  0.000000000000000    
_OPTCONVMX= 0.6114822293698408E-06
_OPTCONVRMS= 0.2466855569898005E-06
_OPTGRAD= 0.7869977323666834E-06
_OPTGRADMX= 0.6322037670996840E-06
_OPTGRADRMS= 0.2623325774555611E-06
_OPTSTEP=  3.000000000000000    
_ORBITAL=  2100.200000000000    
_PI=  3.141592653589793    
_SEIG_MIN= 0.8325188507027429E-03
_SEWPROP=TRUE
_STATUS=  1.000000000000000    
_SYSTOT=  1.930000000000000    
_VERSION=  2010001.000000000    
_WALLTOT=  64.18000000000001    
_ZPE= 0.4669112321830057E-01
_DATE=17-Aug-24
_LASTORB=RHF
_MACHINE=Linux-3.10.0-1160.108.1.el7.x86_64/molmod(x86_64) 64 bit serial version
_OUTPUT=/home/ospite/Desktop/MMfP/Project6/CH4/molpro/HF/ch4_aug-ccpVDZ.xml
_PGROUP=Cs
_TIME=16:34:33
_LIBMOL=/usr/local/molpro/molpros_2010_1_Linux_x86_64_i8/lib/
!SURFREC=  0.000000000000000    
!POLYREC=  0.000000000000000    
!DIPREC=  0.000000000000000    
!VSCFREC=  0.000000000000000    
!VCIREC=  0.000000000000000    
!PVCIREC=  0.000000000000000    
!VMP2REC=  0.000000000000000    
!VMCSCFREC=  0.000000000000000    
!GAREC=  0.000000000000000    
!SCFORB=  21002.00000000000    
!NEWMOL= -1.000000000000000    
!NEWSYM= -1.000000000000000    
_SLFILES=slscratch
_NGSSTO=  9.000000000000000    
_SIN=SIN
_COS=COS
_TAN=TAN
_ACOS=ACOS
_ASIN=ASIN
_ATAN=ATAN
_COSH=COSH
_SINH=SINH
_TANH=TANH
_ABS=ABS
_MOD=MOD
_ERF=ERF
_REFC=REFC
_ERFC=ERFC
_HYPOT=HYPOT
_J0=J0
_J1=J1
_JN=JN
_GAMMA=GAMMA
_LGAMMA=LGAMMA
_Y0=Y0
_Y1=Y1
_YN=YN
_EXP=EXP
_LOG=LOG
_LOG10=LOG10
_SQRT=SQRT
_INT=INT
_NINT=NINT
_MAX=MAX
_MIN=MIN
_COSMO=  0.000000000000000    
_COSMOIT=  0.000000000000000    
_COSMOES=  0.000000000000000    
_COSMOEDS=  0.000000000000000    
_COSMOEC=  0.000000000000000    
_COSMOEDCORR=  0.000000000000000    
_FEPSI=  1.000000000000000    
_SL_IsMM=  0.000000000000000    
_SL_NSYM=  0.000000000000000    
_SL_System_BitSw=  0.000000000000000    
_SL_Unique_atoms=  0.000000000000000    
_SL_GRAD=  0.000000000000000    
_SL_MAXUPD_Hess=  5.000000000000000    
_SL_N_PRINT_COD=  5.000000000000000    
_SL_PRINT_CODES=  0.000000000000000    
_SL_BasType=  0.000000000000000    
_SL_Energy_Pred=  0.000000000000000    
_SL_New_Coords=  0.000000000000000    
_SL_Total_Nuclea=  0.000000000000000    
_SL_Highest_Mltp=  0.000000000000000    
_SL_Ref_Geom=  0.000000000000000    
!LATTICE= -1.000000000000000    
!NEWLATTICE=  0.000000000000000    
!LATGRAD_VAR=FALSE
!SEW_LATTICE=  1.000000000000000    
!LOCAL=  0.000000000000000    
!SAVEDOM= -1.000000000000000    
!RESTDOM= -1.000000000000000    
!SAVEDOM_HF= -1.000000000000000    
!RESTDOM_HF= -1.000000000000000    
!HESSREC=  5300.200000000000    
!FREQREC=  5400.200000000000    
!NMODREC=  5450.200000000000    
!GTASKS=  0.000000000000000    
!HTASKS=  5500.200000000000    
!THRCHG= 0.1000000000000000    
!DEBUG= -1.000000000000000    
!CFIT_CPHF=  0.000000000000000    
!RDOMAUX_CPHF=  5.000000000000000    
!THRAO_CPHF= 0.9999999999999999E-11
!THRMO_CPHF= 0.9999999999999999E-11
!THROV_CPHF= 0.1000000000000000E-11
!THRSW_CPHF= 0.1000000000000000E-09
!THRPROD_CPHF= 0.9999999999999999E-11
!THRAOPR_CPHF= 0.1000000000000000E-11
!CFIT_SCFGRD=  0.000000000000000    
!RDOMAUX_SCFGRD=  7.000000000000000    
!THRAO_SCFGRD= 0.9999999999999999E-11
!THRMO_SCFGRD= 0.9999999999999999E-11
!THROV_SCFGRD= 0.1000000000000000E-11
!THRSW_SCFGRD= 0.1000000000000000E-09
!THRPROD_SCFGRD= 0.9999999999999999E-11
!THRAOPR_SCFGRD= 0.1000000000000000E-11
!LOCFIT_SCF=  0.000000000000000    
!LOCFIT_MP2= -1.000000000000000    
_RIDOM=  0.000000000000000    
!CC2_METHOD=  0.000000000000000    
_BASIS2006=FALSE
_SVDDEL= -1.000000000000000    
_SVDDELA= -1.000000000000000    
_SVDDELP= -1.000000000000000    
_SVDDELF= -1.000000000000000    
_SVDDELS= -1.000000000000000    
_SVDDEL_ABS= -1.000000000000000    
_SVDDELA_ABS= -1.000000000000000    
_SVDDELP_ABS= -1.000000000000000    
_SVDDELF_ABS= -1.000000000000000    
_SVDDELS_ABS= -1.000000000000000    
_MAXBASIS=  0.000000000000000    
!OPT_CONICAL=  0.000000000000000    
!CLEARSP_JGRID=  0.000000000000000    
D=  1.089391029491602    
A=  109.4712229716804    
T=  119.9999999529115    
GX1= 0.8474034528260486E-08
GY1= -0.000000000000000    
GZ1= 0.1228475474518286E-07
GX2=  1.188562524932512    
GY2= -0.000000000000000    
GZ2=  1.680881278659512    
GX3=  1.188562490185977    
GY3= -0.000000000000000    
GZ3= -1.680881278659513    
GX4= -1.188562558049169    
GY4= -1.680881230973648    
GZ4=-0.7319492667523519E-07
GX5= -1.188562558049169    
GY5=  1.680881230973648    
GZ5=-0.7319492667523519E-07
CX1= 0.8474034527902741E-08
CY1=  0.000000000000000    
CZ1= 0.1228475474471247E-07
H1X2=  1.188562524932512    
H1Y2=  0.000000000000000    
H1Z2=  1.680881278659512    
H2X3=  1.188562490185977    
H2Y3=  0.000000000000000    
H2Z3= -1.680881278659513    
H3X4= -1.188562558049169    
H3Y4= -1.680881230973648    
H3Z4=-0.7319492667523519E-07
H4X5= -1.188562558049169    
H4Y5=  1.680881230973648    
H4Z5=-0.7319492667523519E-07
[Atoms] Angs
C     1    6         0.0000000045        0.0000000000        0.0000000065
H     2    1         0.6289601997        0.0000000000        0.8894840637
H     3    1         0.6289601813        0.0000000000       -0.8894840637
H     4    1        -0.6289602172       -0.8894840385       -0.0000000387
H     5    1        -0.6289602172        0.8894840385       -0.0000000387
[GTO]
  1 0
 s    9  1.00
  0.6665000000D+04  0.6920001793D-03
  0.1000000000D+04  0.5329001381D-02
  0.2280000000D+03  0.2707700701D-01
  0.6471000000D+02  0.1017180264D+00
  0.2106000000D+02  0.2747400712D+00
  0.7495000000D+01  0.4485641162D+00
  0.2797000000D+01  0.2850740738D+00
  0.5215000000D+00  0.1520400394D-01
  0.1596000000D+00 -0.3191000827D-02
 s    9  1.00
  0.6665000000D+04 -0.1460000642D-03
  0.1000000000D+04 -0.1154000508D-02
  0.2280000000D+03 -0.5725002519D-02
  0.6471000000D+02 -0.2331201026D-01
  0.2106000000D+02 -0.6395502813D-01
  0.7495000000D+01 -0.1499810660D+00
  0.2797000000D+01 -0.1272620560D+00
  0.5215000000D+00  0.5445292395D+00
  0.1596000000D+00  0.5804962554D+00
 s    9  1.00
  0.6665000000D+04  0.0000000000D+00
  0.1000000000D+04  0.0000000000D+00
  0.2280000000D+03  0.0000000000D+00
  0.6471000000D+02  0.0000000000D+00
  0.2106000000D+02  0.0000000000D+00
  0.7495000000D+01  0.0000000000D+00
  0.2797000000D+01  0.0000000000D+00
  0.5215000000D+00  0.0000000000D+00
  0.1596000000D+00  0.1000000000D+01
 s    1  1.00
  0.4690000000D-01  0.1000000000D+01
 p    4  1.00
  0.9439000000D+01  0.3810902127D-01
  0.2002000000D+01  0.2094801169D+00
  0.5456000000D+00  0.5085572839D+00
  0.1517000000D+00  0.4688422617D+00
 p    4  1.00
  0.9439000000D+01  0.0000000000D+00
  0.2002000000D+01  0.0000000000D+00
  0.5456000000D+00  0.0000000000D+00
  0.1517000000D+00  0.1000000000D+01
 p    1  1.00
  0.4041000000D-01  0.1000000000D+01
 d    1  1.00
  0.5500000000D+00  0.1000000000D+01
 d    1  1.00
  0.1510000000D+00  0.1000000000D+01
  
  2 0
 s    4  1.00
  0.1301000000D+02  0.1968498999D-01
  0.1962000000D+01  0.1379769298D+00
  0.4446000000D+00  0.4781477569D+00
  0.1220000000D+00  0.5012397451D+00
 s    4  1.00
  0.1301000000D+02  0.0000000000D+00
  0.1962000000D+01  0.0000000000D+00
  0.4446000000D+00  0.0000000000D+00
  0.1220000000D+00  0.1000000000D+01
 s    1  1.00
  0.2974000000D-01  0.1000000000D+01
 p    1  1.00
  0.7270000000D+00  0.1000000000D+01
 p    1  1.00
  0.1410000000D+00  0.1000000000D+01
  
  3 0
 s    4  1.00
  0.1301000000D+02  0.1968498999D-01
  0.1962000000D+01  0.1379769298D+00
  0.4446000000D+00  0.4781477569D+00
  0.1220000000D+00  0.5012397451D+00
 s    4  1.00
  0.1301000000D+02  0.0000000000D+00
  0.1962000000D+01  0.0000000000D+00
  0.4446000000D+00  0.0000000000D+00
  0.1220000000D+00  0.1000000000D+01
 s    1  1.00
  0.2974000000D-01  0.1000000000D+01
 p    1  1.00
  0.7270000000D+00  0.1000000000D+01
 p    1  1.00
  0.1410000000D+00  0.1000000000D+01
  
  4 0
 s    4  1.00
  0.1301000000D+02  0.1968498999D-01
  0.1962000000D+01  0.1379769298D+00
  0.4446000000D+00  0.4781477569D+00
  0.1220000000D+00  0.5012397451D+00
 s    4  1.00
  0.1301000000D+02  0.0000000000D+00
  0.1962000000D+01  0.0000000000D+00
  0.4446000000D+00  0.0000000000D+00
  0.1220000000D+00  0.1000000000D+01
 s    1  1.00
  0.2974000000D-01  0.1000000000D+01
 p    1  1.00
  0.7270000000D+00  0.1000000000D+01
 p    1  1.00
  0.1410000000D+00  0.1000000000D+01
  
  5 0
 s    4  1.00
  0.1301000000D+02  0.1968498999D-01
  0.1962000000D+01  0.1379769298D+00
  0.4446000000D+00  0.4781477569D+00
  0.1220000000D+00  0.5012397451D+00
 s    4  1.00
  0.1301000000D+02  0.0000000000D+00
  0.1962000000D+01  0.0000000000D+00
  0.4446000000D+00  0.0000000000D+00
  0.1220000000D+00  0.1000000000D+01
 s    1  1.00
  0.2974000000D-01  0.1000000000D+01
 p    1  1.00
  0.7270000000D+00  0.1000000000D+01
 p    1  1.00
  0.1410000000D+00  0.1000000000D+01


[MO]
 Sym=      1.1
 Ene=     -11.2155
 Spin= Alpha
 Occup=    2.000000
1 1.00294429119260
2 0.014035441299174
3 -0.034711776119504
4 -0.008690913726006
5 0.000000000055718
6 0.0
7 -0.000000000008858
8 -0.000000001424843
9 0.0
10 -0.000000000591323
11 -0.000000000292023
12 0.0
13 -0.000000000463103
14 -0.000000000002276
15 -0.000000000058276
16 0.000000000060552
17 0.0
18 0.000000000024702
19 0.0
20 0.000000000232395
21 0.000000000408567
22 -0.000000000640962
23 0.0
24 -0.000000000068093
25 0.0
26 0.000722945505846
27 0.007073443829134
28 0.000821479617151
29 0.000176210434958
30 0.0
31 0.000249199200035
32 -0.001302752189267
33 0.0
34 -0.001842369137296
35 0.000722945409186
36 0.007073442192822
37 0.000821478432128
38 0.000176210440014
39 0.0
40 -0.000249199197734
41 -0.001302751709297
42 0.0
43 0.001842368895972
44 0.000722945368913
45 0.007073438777486
46 0.000821478483644
47 -0.000176210383326
48 -0.000249199162552
49 -0.000000000001720
50 0.001302750787000
51 0.001842367910180
52 0.000000000301298
53 0.000722945368913
54 0.007073438777486
55 0.000821478483644
56 -0.000176210383326
57 0.000249199162552
58 -0.000000000001720
59 0.001302750787000
60 -0.001842367910180
61 0.000000000301298
 Sym=      2.1
 Ene=      -0.9436
 Spin= Alpha
 Occup=    2.000000
1 -0.024433637109411
2 0.75233253499803
3 -0.30959449408956
4 0.000448089699075
5 -0.000000006919842
6 0.0
7 -0.000000009151832
8 0.000000008690076
9 0.0
10 0.000000012036443
11 0.000000001291733
12 0.0
13 -0.000000000448707
14 0.000000000094156
15 0.000000000114018
16 -0.000000000208174
17 0.0
18 -0.000000000355019
19 0.0
20 0.000000000250090
21 -0.000000000580632
22 0.000000000330542
23 0.0
24 0.000000001283994
25 0.0
26 0.31931031880707
27 -0.11205262273070
28 0.000982330070244
29 -0.014970040449715
30 0.0
31 -0.021170834650191
32 -0.009348510315147
33 0.0
34 -0.013220788833834
35 0.31931032712433
36 -0.11205260829715
37 0.000982327774466
38 -0.014970040153982
39 0.0
40 0.021170834469864
41 -0.009348512964136
42 0.0
43 0.013220793908076
44 0.31931032767753
45 -0.11205261106785
46 0.000982330422275
47 0.014970040773667
48 0.021170834099622
49 0.000000000671647
50 0.009348512400217
51 0.013220792914590
52 0.000000000754650
53 0.31931032767753
54 -0.11205261106785
55 0.000982330422275
56 0.014970040773667
57 -0.021170834099622
58 0.000000000671647
59 0.009348512400217
60 -0.013220792914590
61 0.000000000754650
 Sym=      3.1
 Ene=      -0.5438
 Spin= Alpha
 Occup=    2.000000
1 -0.000000000617292
2 0.000000017263064
3 0.000000011476587
4 0.000000002387454
5 0.37206531044800
6 0.0
7 0.51763659310413
8 -0.11149080490289
9 0.0
10 -0.15511180170466
11 -0.007671656657475
12 0.0
13 -0.010673206443901
14 -0.000000000431473
15 -0.013960889658350
16 0.013960890089823
17 0.0
18 0.022427881602346
19 0.0
20 0.000000001769518
21 0.014323472775564
22 -0.014323474545082
23 0.0
24 -0.023010365048141
25 0.0
26 0.67433519879640
27 -0.006996011706851
28 0.032464844590805
29 -0.012414396258863
30 0.0
31 -0.017738618551388
32 -0.034978278253273
33 0.0
34 -0.049387442100127
35 -0.21985905672539
36 0.002280964240620
37 -0.010584779943460
38 0.014558724416811
39 0.0
40 0.001649041945517
41 0.006823917579315
42 0.0
43 -0.019340985363967
44 -0.22723807493037
45 0.002357522556736
46 -0.010940032823051
47 0.001072163567519
48 -0.009693830819459
49 0.011028088412302
50 -0.014077180573221
51 -0.015023231362118
52 -0.004805598319014
53 -0.22723807493037
54 0.002357522556736
55 -0.010940032823051
56 0.001072163567519
57 0.009693830819459
58 0.011028088412302
59 -0.014077180573221
60 0.015023231362118
61 -0.004805598319014
 Sym=      1.2
 Ene=      -0.5438
 Spin= Alpha
 Occup=    2.000000
1 0.0
2 0.0
3 0.0
4 0.0
5 0.0
6 0.63747959924447
7 0.0
8 0.0
9 -0.19102320172577
10 0.0
11 0.0
12 -0.013144274759365
13 0.0
14 0.0
15 0.0
16 0.0
17 -0.027620376864298
18 0.0
19 -0.000000002357135
20 0.0
21 0.0
22 0.0
23 0.028337704923371
24 0.0
25 0.000000002701126
26 0.0
27 0.0
28 0.0
29 0.0
30 0.013581307332912
31 0.0
32 0.0
33 -0.005918181370317
34 0.0
35 0.0
36 0.0
37 0.0
38 0.0
39 0.013581307661596
40 0.0
41 0.0
42 -0.005918178134704
43 0.0
44 -0.55060886345470
45 0.005712405607631
46 -0.026508249087601
47 -0.016608963713520
48 -0.009907313282486
49 -0.000000000971830
50 -0.025740110992178
51 -0.042320191556856
52 -0.000000001272172
53 0.55060886345470
54 -0.005712405607631
55 0.026508249087601
56 0.016608963713520
57 -0.009907313282486
58 0.000000000971830
59 0.025740110992178
60 -0.042320191556856
61 0.000000001272172
 Sym=      4.1
 Ene=      -0.5438
 Spin= Alpha
 Occup=    2.000000
1 0.000000000574566
2 0.000000000697805
3 -0.000000017681459
4 -0.000000012999948
5 0.51763659631290
6 0.0
7 -0.37206531101375
8 -0.15511177037488
9 0.0
10 0.11149080926863
11 -0.010673201125458
12 0.0
13 0.007671662622411
14 -0.000000001468913
15 -0.019423115710390
16 0.019423117179304
17 0.0
18 -0.016120647876697
19 0.0
20 0.000000007763963
21 0.019927547487624
22 -0.019927555251586
23 0.0
24 0.016539320311445
25 0.0
26 -0.005217755544392
27 0.000054101670858
28 -0.000251211510825
29 0.011185481000815
30 0.0
31 -0.007704151175157
32 -0.004561666937862
33 0.0
34 0.003799118109601
35 0.63750857026535
36 -0.006613953931585
37 0.030691891011463
38 -0.008202179183995
39 0.0
40 0.019268970034585
41 -0.034608131022159
42 0.0
43 0.045601301597579
44 -0.31614540636754
45 0.003279938415305
46 -0.015220336206224
47 0.001491650777783
48 -0.013486560230239
49 -0.007926738220341
50 -0.019584893383037
51 -0.020901091983459
52 0.003454147126996
53 -0.31614540636754
54 0.003279938415305
55 -0.015220336206224
56 0.001491650777783
57 0.013486560230239
58 -0.007926738220341
59 -0.019584893383037
60 0.020901091983459
61 0.003454147126996
 Sym=      5.1
 Ene=       0.0370
 Spin= Alpha
 Occup=    0.000000
1 0.025768414098077
2 -0.058815292283150
3 -0.99024952702134
4 -3.48515000914811
5 -0.000000000056963
6 0.0
7 -0.000000000346534
8 0.000000036068145
9 0.0
10 0.000000026658241
11 0.000000033564431
12 0.0
13 0.000000034635178
14 0.000000001110779
15 -0.000000001003236
16 -0.000000000107542
17 0.0
18 0.000000000777872
19 0.0
20 -0.000000016918633
21 0.000000006940952
22 0.000000009977681
23 0.0
24 -0.000000009731800
25 0.0
26 -0.009363502387997
27 0.53193075460309
28 0.88177298566321
29 0.000438314345438
30 0.0
31 0.000619869504034
32 -0.061154426960619
33 0.0
34 -0.086485440104088
35 -0.009363501350552
36 0.53193074589839
37 0.88177300803036
38 0.000438313444082
39 0.0
40 -0.000619869342038
41 -0.061154424551535
42 0.0
43 0.086485435180469
44 -0.009363497614254
45 0.53193079923393
46 0.88177302178406
47 -0.000438313815909
48 -0.000619868584327
49 -0.000000000308991
50 0.061154436787772
51 0.086485446782702
52 -0.000000002721547
53 -0.009363497614254
54 0.53193079923393
55 0.88177302178406
56 -0.000438313815909
57 0.000619868584327
58 -0.000000000308991
59 0.061154436787772
60 -0.086485446782702
61 -0.000000002721547
 Sym=      2.2
 Ene=       0.0637
 Spin= Alpha
 Occup=    0.000000
1 0.0
2 0.0
3 0.0
4 0.0
5 0.0
6 0.10428415818779
7 0.0
8 0.0
9 0.077079533904274
10 0.0
11 0.0
12 1.50509741365129
13 0.0
14 0.0
15 0.0
16 0.0
17 -0.000414459268652
18 0.0
19 -0.000000000989666
20 0.0
21 0.0
22 0.0
23 0.031960155126049
24 0.0
25 0.000000030705776
26 0.0
27 0.0
28 0.0
29 0.0
30 0.005464013853010
31 0.0
32 0.0
33 -0.078796141200248
34 0.0
35 0.0
36 0.0
37 0.0
38 0.0
39 0.005464015584458
40 0.0
41 0.0
42 -0.078796106902016
43 0.0
44 -0.039740840034203
45 0.029685518237187
46 4.09589663600380
47 -0.007495452679383
48 -0.005136155785769
49 0.000000000285408
50 0.056449701496726
51 0.001035807319470
52 0.000000023153055
53 0.039740840034203
54 -0.029685518237187
55 -4.09589663600380
56 0.007495452679383
57 -0.005136155785769
58 -0.000000000285408
59 -0.056449701496726
60 0.001035807319470
61 -0.000000023153055
 Sym=      6.1
 Ene=       0.0637
 Spin= Alpha
 Occup=    0.000000
1 -0.000000000872399
2 -0.000000001704141
3 0.000000027190956
4 -0.000000002439656
5 -0.002929536845478
6 0.0
7 0.10424303177508
8 -0.002165478411039
9 0.0
10 0.077048491442301
11 -0.042281112636365
12 0.0
13 1.50450279056234
14 0.000000000061897
15 0.000010083139348
16 -0.000010083201245
17 0.0
18 0.000414295784206
19 0.0
20 -0.000000008698298
21 -0.000777492578668
22 0.000777501276966
23 0.0
24 -0.031947680842876
25 0.0
26 0.038935794317921
27 -0.029082958953404
28 -4.01291850800112
29 -0.007497100234049
30 0.0
31 -0.004923568266101
32 0.057519416561397
33 0.0
34 -0.000550674319142
35 -0.040514602478716
36 0.030262690951314
37 4.17564023426289
38 0.007487891661703
39 0.0
40 -0.005344690407755
41 -0.055335065043900
42 0.0
43 0.002620990132549
44 0.000789402599241
45 -0.000589868395105
46 -0.081360868623463
47 -0.000004604559582
48 0.000210561243295
49 0.005461859609992
50 0.001092161657220
51 -0.001585829743984
52 -0.078765013187215
53 0.000789402599241
54 -0.000589868395105
55 -0.081360868623463
56 -0.000004604559582
57 -0.000210561243295
58 0.005461859609992
59 0.001092161657220
60 0.001585829743984
61 -0.078765013187215
 Sym=      7.1
 Ene=       0.0637
 Spin= Alpha
 Occup=    0.000000
1 0.000000002173481
2 0.000000006447974
3 -0.000000070644212
4 -0.000000069242145
5 -0.10424304247893
6 0.0
7 -0.002929545434842
8 -0.077048320561449
9 0.0
10 -0.002165211157817
11 -1.50450247898714
12 0.0
13 -0.042280981749344
14 0.000000000104728
15 0.000358789345679
16 -0.000358789450408
17 0.0
18 -0.000011643771164
19 0.0
20 -0.000000004339889
21 -0.027667517357532
22 0.027667521697421
23 0.0
24 0.000897849426601
25 0.0
26 -0.029206365687313
27 0.021815460995181
28 3.01015385998730
29 0.000046696480662
30 0.0
31 0.007636780451826
32 0.037279189222511
33 0.0
34 -0.056456254766576
35 -0.026973557932484
36 0.020147930636683
37 2.78003112521803
38 -0.000374426357721
39 0.0
40 -0.007348212235272
41 0.040450691780268
42 0.0
43 0.056398142643568
44 0.028089964816905
45 -0.020981650286012
46 -2.89509247024144
47 -0.000163863404964
48 0.007492497615702
49 -0.000153494302811
50 0.038864940503386
51 -0.056427181544216
52 0.002213531754661
53 0.028089964816905
54 -0.020981650286012
55 -2.89509247024144
56 -0.000163863404964
57 -0.007492497615702
58 -0.000153494302811
59 0.038864940503386
60 0.056427181544216
61 0.002213531754661
 Sym=      3.2
 Ene=       0.1462
 Spin= Alpha
 Occup=    0.000000
1 0.0
2 0.0
3 0.0
4 0.0
5 0.0
6 -0.12353036102552
7 0.0
8 0.0
9 1.59265239181495
10 0.0
11 0.0
12 3.99677590707860
13 0.0
14 0.0
15 0.0
16 0.0
17 0.009753166773321
18 0.0
19 -0.000000000225751
20 0.0
21 0.0
22 0.0
23 -0.33616243027184
24 0.0
25 -0.000000004435002
26 0.0
27 0.0
28 0.0
29 0.0
30 0.005104258478437
31 0.0
32 0.0
33 -0.13532890176925
34 0.0
35 0.0
36 0.0
37 0.0
38 0.0
39 0.005104257556243
40 0.0
41 0.0
42 -0.13532888311003
43 0.0
44 0.17452236602334
45 2.71838350512543
46 4.69668181750487
47 0.007192273618935
48 0.015275667752964
49 0.000000000658785
50 0.40370857071651
51 0.43560121029838
52 0.000000050607413
53 -0.17452236602334
54 -2.71838350512543
55 -4.69668181750487
56 -0.007192273618935
57 0.015275667752964
58 -0.000000000658785
59 -0.40370857071651
60 0.43560121029838
61 -0.000000050607413
 Sym=      8.1
 Ene=       0.1462
 Spin= Alpha
 Occup=    0.000000
1 -0.000000001571281
2 -0.000000003775850
3 0.000000045609172
4 -0.000000024978746
5 0.056015161939185
6 0.0
7 -0.11010015560554
8 -0.72219253161686
9 0.0
10 1.41949935918145
11 -1.81234885284817
12 0.0
13 3.56224786978233
14 -0.000000002192995
15 -0.003830084918973
16 0.003830087111968
17 0.0
18 -0.008692806883158
19 0.0
20 0.000000057294924
21 0.13201150285573
22 -0.13201156015065
23 0.0
24 0.29961486634155
25 0.0
26 -0.099589573115149
27 -1.55122002931115
28 -2.68011878524904
29 0.001789662725333
30 0.0
31 0.010353550793636
32 0.29173765761017
33 0.0
34 0.20517990534029
35 0.21150709776687
36 3.29446227930345
37 5.69200228624005
38 -0.011030996272196
39 0.0
40 0.016876259931030
41 -0.42789704101225
42 0.0
43 0.57130535927680
44 -0.055958763377796
45 -0.87162113509663
46 -1.50594173950312
47 -0.004620663582303
48 -0.003261355017773
49 0.004549326746065
50 -0.068079675834810
51 -0.18306275213468
52 -0.12061599124328
53 -0.055958763377796
54 -0.87162113509663
55 -1.50594173950312
56 -0.004620663582303
57 0.003261355017773
58 0.004549326746065
59 -0.068079675834810
60 0.18306275213468
61 -0.12061599124328
 Sym=      9.1
 Ene=       0.1462
 Spin= Alpha
 Occup=    0.000000
1 0.000000000874034
2 0.000000010378047
3 0.000000006461253
4 -0.000000109097434
5 -0.11010013566937
6 0.0
7 -0.056015161661325
8 1.41949881735913
9 0.0
10 0.72219217167700
11 3.56224785640234
12 0.0
13 1.81234901312124
14 0.000000000685863
15 0.007528195083287
16 -0.007528195769150
17 0.0
18 -0.004422599487269
19 0.0
20 -0.000000034408992
21 -0.25947396454346
22 0.25947399895246
23 0.0
24 0.15243365365686
25 0.0
26 -0.18912688666203
27 -2.94586453615603
28 -5.08971527108493
29 0.012343473421820
30 0.0
31 0.013337122471619
32 0.31687579753292
33 0.0
34 0.55734156235575
35 -0.030851650034701
36 -0.48054904675231
37 -0.83026853495930
38 0.005820762536184
39 0.0
40 0.000516468218235
41 -0.049249416958021
42 0.0
43 -0.16229281487647
44 0.10998926472187
45 1.71320681862543
46 2.95999193911253
47 0.009082116449838
48 0.006410328729699
49 0.002314542388793
50 0.13381318522848
51 0.35981719317834
52 -0.061365228529281
53 0.10998926472187
54 1.71320681862543
55 2.95999193911253
56 0.009082116449838
57 -0.006410328729699
58 0.002314542388793
59 0.13381318522848
60 -0.35981719317834
61 -0.061365228529281
 Sym=     10.1
 Ene=       0.1743
 Spin= Alpha
 Occup=    0.000000
1 -0.080312118014146
2 -0.57609750432075
3 2.85947983590067
4 8.19431688717364
5 -0.000000001506762
6 0.0
7 0.000000006999276
8 -0.000000082032003
9 0.0
10 -0.000000054891567
11 -0.000000029632620
12 0.0
13 -0.000000069068794
14 -0.000000003161637
15 0.000000003344933
16 -0.000000000183296
17 0.0
18 -0.000000002604726
19 0.0
20 0.000000053892554
21 -0.000000027394718
22 -0.000000026497836
23 0.0
24 0.000000038073739
25 0.0
26 -0.002543338797462
27 -1.64491362666906
28 -1.19292439949127
29 0.015971268603405
30 0.0
31 0.022586786675892
32 0.22838635574753
33 0.0
34 0.32298715890283
35 -0.002543341590163
36 -1.64491350171417
37 -1.19292444733210
38 0.015971270986570
39 0.0
40 -0.022586787817305
41 0.22838633362948
42 0.0
43 -0.32298712374179
44 -0.002543346297414
45 -1.64491365275294
46 -1.19292441874545
47 -0.015971270513597
48 -0.022586788978500
49 -0.000000000181539
50 -0.22838638020152
51 -0.32298715248458
52 0.000000006266106
53 -0.002543346297414
54 -1.64491365275294
55 -1.19292441874545
56 -0.015971270513597
57 0.022586788978500
58 -0.000000000181539
59 -0.22838638020152
60 0.32298715248458
61 0.000000006266106
 Sym=     11.1
 Ene=       0.3005
 Spin= Alpha
 Occup=    0.000000
1 0.000000001084053
2 -0.000000024734189
3 0.000000014429891
4 -0.000000201162800
5 -0.096427799566003
6 0.0
7 -0.40423715505884
8 -0.12867145034963
9 0.0
10 -0.53940623014549
11 0.23667160521871
12 0.0
13 0.99215629982021
14 0.000000020473783
15 -0.006034511622546
16 0.006034491148762
17 0.0
18 0.029210874979256
19 0.0
20 -0.000000330591736
21 0.061655438153960
22 -0.061655107562224
23 0.0
24 -0.29845115846532
25 0.0
26 0.17115738082544
27 1.75758067944926
28 -2.33029465750007
29 -0.002647421143402
30 0.0
31 -0.003620330566144
32 0.21486537571134
33 0.0
34 0.049231474089275
35 -0.12175100017949
36 -1.25023645159264
37 1.65763081388746
38 0.001959421499179
39 0.0
40 -0.002521399517158
41 -0.30970973317411
42 0.0
43 -0.075901753904153
44 -0.024703165942703
45 -0.25367201175600
46 0.33633195146767
47 -0.000344003861812
48 -0.000549462157168
49 0.000186664965387
50 -0.047422650135966
51 0.062566912989879
52 -0.38426575157649
53 -0.024703165942703
54 -0.25367201175600
55 0.33633195146767
56 -0.000344003861812
57 0.000549462157168
58 0.000186664965387
59 -0.047422650135966
60 -0.062566912989879
61 -0.38426575157649
 Sym=      4.2
 Ene=       0.3005
 Spin= Alpha
 Occup=    0.000000
1 0.0
2 0.0
3 0.0
4 0.0
5 0.0
6 -0.41557912583034
7 0.0
8 0.0
9 -0.55454039266448
10 0.0
11 0.0
12 1.01999389253281
13 0.0
14 0.0
15 0.0
16 0.0
17 -0.030030462115202
18 0.0
19 -0.000000049958503
20 0.0
21 0.0
22 0.0
23 0.30682486912794
24 0.0
25 0.000000793767346
26 0.0
27 0.0
28 0.0
29 0.0
30 0.000191894051564
31 0.0
32 0.0
33 -0.39504798120364
34 0.0
35 0.0
36 0.0
37 0.0
38 0.0
39 0.000191907212717
40 0.0
41 0.0
42 -0.39504664395821
43 0.0
44 -0.15056336039634
45 -1.54610418807885
46 2.04990867999472
47 -0.002368050984539
48 -0.003157028353745
49 0.000000005728019
50 0.26964681469564
51 -0.013709117515132
52 0.000000662965763
53 0.15056336039634
54 1.54610418807885
55 -2.04990867999472
56 0.002368050984539
57 -0.003157028353745
58 -0.000000005728019
59 -0.26964681469564
60 -0.013709117515132
61 -0.000000662965763
 Sym=     12.1
 Ene=       0.3005
 Spin= Alpha
 Occup=    0.000000
1 0.000000001588145
2 0.000000010052821
3 -0.000000070246871
4 0.000000047747890
5 0.40423716749925
6 0.0
7 -0.096427813321993
8 0.53940619894332
9 0.0
10 -0.12867139661122
11 -0.99215636863696
12 0.0
13 0.23667161301574
14 0.000000046050622
15 0.025297332544368
16 -0.025297378594991
17 0.0
18 0.006968036536498
19 0.0
20 -0.000000734001632
21 -0.25846585416524
22 0.25846658816687
23 0.0
24 -0.071193293259412
25 0.0
26 -0.068623175867792
27 -0.70467753547645
28 0.93429942617021
29 0.000892640033538
30 0.0
31 0.001570885129131
32 0.26136766937716
33 0.0
34 -0.26546889466647
35 -0.13849433422308
36 -1.42217015965707
37 1.88558990602847
38 0.001991570107228
39 0.0
40 -0.003035953093458
41 0.13623412983690
42 0.0
43 0.25910692830213
44 0.10355874785699
45 1.06342386037734
46 -1.40994467765796
47 0.001442096548665
48 0.002303426231838
49 0.000044528176538
50 0.19879990200976
51 -0.26228718418663
52 -0.091663740737014
53 0.10355874785699
54 1.06342386037734
55 -1.40994467765796
56 0.001442096548665
57 -0.002303426231838
58 0.000044528176538
59 0.19879990200976
60 0.26228718418663
61 -0.091663740737014
 Sym=      5.2
 Ene=       0.3063
 Spin= Alpha
 Occup=    0.000000
1 0.0
2 0.0
3 0.0
4 0.0
5 0.0
6 0.000000222974962
7 0.0
8 0.0
9 0.000000595571836
10 0.0
11 0.0