
 Primary working directories    : /data/scratch
 Secondary working directories  : /data/scratch
 Wavefunction directory         : /home/ospite/wfu/
 Main file repository           : /data/scratch/

 ARCHNAME  : Linux/x86_64
 FC        : /usr/bin/gfortran
 FCVERSION : 4.8.5
 BLASLIB   : 
 id        : polimi

 Nodes     nprocs
 molmod       1

 Using default tuning parameters: mindgm=1; mindgv=20; mindgc=4; mindgr=1; noblas=0; mincuda=1000; minvec=7
 default implementation of scratch files=df  

 ***,methane with imposed symmetry and 6-31+G basis set
 memory,100,m
 
 basis=6-31+G
 symmetry,y
 
 geometry={angstrom
 C
 H1, C, d
 H2, C, d, H1, a
 H3, C, d, H1, a, H2, t
 H4, C, d, H1, a, H2, -t
 }
 
 d=1.09 Ang
 a=109.47 Deg
 t=120.0 Deg
 
 hf
 optg
 frequencies
 put,molden,ch4_6-31+G.molpro

 Variables initialized (661), CPU time= 0.01 sec
 Commands  initialized (458), CPU time= 0.05 sec, 486 directives.
 Default parameters read. Elapsed time= 0.28 sec

 Checking input...
 Passed
1


                                         ***  PROGRAM SYSTEM MOLPRO  ***
                         Copyright, University College Cardiff Consultants Limited, 2008

                                    Version 2010.1 linked Mar  6 2018 16:01:50


 **********************************************************************************************************************************
 LABEL *   methane with imposed symmetry and 6-31+G basis set                            
 Linux-3.10.0-1160.108.1.el7.x86_64/molmod(x86_64) 64 bit serial version                 DATE: 17-Aug-24          TIME: 15:56:02  
 **********************************************************************************************************************************

 SHA1:             d90fb18d49a3be29a79769f900c595ef3b8176e2
 **********************************************************************************************************************************

 Variable memory set to  100000000 words,  buffer space   230000 words

 SETTING BASIS          =    6-31+G
 ZSYMEL=Y  

 SETTING D              =         1.09000000  ANG                             
 SETTING A              =       109.47000000  DEG                             
 SETTING T              =       120.00000000  DEG                             


 Recomputing integrals since basis changed


 Using spherical harmonics

 Library entry C      S 6-31G                selected for orbital group  1
 Library entry C      S 6-31++G              selected for orbital group  1
 Library entry C      P 6-31G                selected for orbital group  1
 Library entry C      P 6-31++G              selected for orbital group  1
 Library entry H      S 6-31G                selected for orbital group  2

1PROGRAM * SEWARD (Integral evaluation for generally contracted gaussian basis sets)     Author: Roland Lindh, 1990

 Geometry written to block  1 of record 700

 Orientation using atomic masses  
 Molecule type: Symmetric top,     Order of principal axis = 3
 User-specified symmetry elements: Y
 Symmetry elements: Y
 Rotational constants:     158.2574080    158.2574080    158.2538321 GHz  (calculated with average atomic masses)

 Point group  Cs  



 ATOMIC COORDINATES

 NR  ATOM    CHARGE       X              Y              Z

   1  C       6.00   -0.000000000    0.000000000   -0.000007798
   2  H1      1.00   -0.000000000    0.000000000    2.059793685
   3  H2      1.00    1.942014089    0.000000000   -0.686566920
   4  H3      1.00   -0.971007045   -1.681833536   -0.686566920
   5  H4      1.00   -0.971007045    1.681833536   -0.686566920

 Bond lengths in Bohr (Angstrom)

 1-2  2.059801483  1-3  2.059801483  1-4  2.059801483  1-5  2.059801483
     ( 1.090000000)     ( 1.090000000)     ( 1.090000000)     ( 1.090000000)

 Bond angles

  2-1-3  109.47000000   2-1-4  109.47000000   2-1-5  109.47000000   3-1-4  109.47244124

  3-1-5  109.47244124   4-1-5  109.47244124

 NUCLEAR CHARGE:                   10
 NUMBER OF PRIMITIVE AOS:          42
 NUMBER OF SYMMETRY AOS:           42
 NUMBER OF CONTRACTIONS:           21   (  16A'  +   5A"  )
 NUMBER OF CORE ORBITALS:           1   (   1A'  +   0A"  )
 NUMBER OF VALENCE ORBITALS:        8   (   6A'  +   2A"  )


 NUCLEAR REPULSION ENERGY   13.43538921


 Eigenvalues of metric

         1 0.140E-01 0.696E-01 0.696E-01 0.117E+00 0.239E+00 0.239E+00 0.454E+00 0.573E+00
         2 0.696E-01 0.239E+00 0.573E+00 0.903E+00 0.280E+01


 Contracted 2-electron integrals neglected if value below      1.0D-11
 AO integral compression algorithm  1   Integral accuracy      1.0D-11

     0.262 MB (compressed) written to integral file (100.0%)


 NUMBER OF SORTED TWO-ELECTRON INTEGRALS:      15556.     BUFFER LENGTH:  32768
 NUMBER OF SEGMENTS:   1  SEGMENT LENGTH:      15556      RECORD LENGTH: 524288

 Memory used in sort:       0.57 MW

 SORT1 READ       23955. AND WROTE       13105. INTEGRALS IN      1 RECORDS. CPU TIME:     0.00 SEC, REAL TIME:     0.00 SEC
 SORT2 READ       13105. AND WROTE       15556. INTEGRALS IN      1 RECORDS. CPU TIME:     0.03 SEC, REAL TIME:     0.02 SEC

 FILE SIZES:   FILE 1:     2.9 MBYTE,  FILE 4:     4.2 MBYTE,   TOTAL:      7.1 MBYTE

 OPERATOR DM      FOR CENTER  0  COORDINATES:    0.000000    0.000000    0.000000


 **********************************************************************************************************************************
 DATASETS  * FILE   NREC   LENGTH (MB)   RECORD NAMES
              1      19        2.68       500      610      700      900      950      970     1000      129      960     1100   
                                          VAR    BASINP    GEOM    SYMINP    ZMAT    AOBASIS   BASIS     P2S    ABASIS      S 
                                         1400     1410     1200     1210     1080     1600     1650     1300     1700   
                                           T        V       H0       H01     AOSYM     SMH    MOLCAS    ERIS     OPER   

 PROGRAMS   *        TOTAL       INT
 CPU TIMES  *         0.64      0.15
 REAL TIME  *         0.98 SEC
 DISK USED  *         7.60 MB      
 **********************************************************************************************************************************

1PROGRAM * RHF-SCF (CLOSED SHELL)       Authors: W. Meyer, H.-J. Werner


 NUMBER OF ELECTRONS:       5+    5-
 CONVERGENCE THRESHOLDS:    1.00E-06 (Density)    1.00E-07 (Energy)
 MAX. NUMBER OF ITERATIONS:       60
 INTERPOLATION TYPE:            DIIS
 INTERPOLATION STEPS:              2 (START)      1 (STEP)
 LEVEL SHIFTS:                  0.00 (CLOSED)  0.00 (OPEN) 



 Orbital guess generated from atomic densities. Full valence occupancy:    7   2

 Molecular orbital dump at record        2100.2

 Initial alpha occupancy:   4   1
 Initial beta  occupancy:   4   1
 Wave function symmetry:    1

 ITERATION    DDIFF          GRAD             ENERGY        2-EL.EN.            DIPOLE MOMENTS         DIIS
    1      0.000D+00      0.000D+00       -40.16568985     52.929831   -0.00000    0.00000    0.00003    0
    2      0.000D+00      0.172D-01       -40.17912176     51.669631   -0.00000    0.00000    0.00001    1
    3      0.158D-01      0.643D-02       -40.18087288     52.106290   -0.00000    0.00000    0.00001    2
    4      0.458D-02      0.133D-02       -40.18103037     52.058036   -0.00000    0.00000    0.00001    3
    5      0.252D-02      0.165D-03       -40.18103264     52.060614   -0.00000    0.00000    0.00001    4
    6      0.487D-03      0.367D-05       -40.18103264     52.060584   -0.00000    0.00000    0.00001    5
    7      0.958D-05      0.658D-06       -40.18103264     52.060584   -0.00000    0.00000    0.00001    4
    8      0.117D-05      0.427D-07       -40.18103264     52.060586   -0.00000    0.00000    0.00001    4
    9      0.899D-07      0.449D-08       -40.18103264     52.060586   -0.00000    0.00000    0.00001    0

 Final occupancy:   4   1

 !RHF STATE 1.1 Energy                -40.181032642324
 Nuclear energy                        13.43538921
 One-electron energy                  -79.64671463
 Two-electron energy                   26.03029278
 Virial quotient                       -0.99942879
 !RHF STATE 1.1 Dipole moment          -0.00000000     0.00000000     0.00001128
 Dipole moment /Debye                  -0.00000000     0.00000000     0.00002866

 Orbital energies:

         1.1          2.1          3.1          4.1          5.1          6.1
    -11.209784    -0.948222    -0.545022    -0.545015     0.093102     0.122811

         1.2          2.2          3.2
     -0.545022     0.122811     0.330033


 **********************************************************************************************************************************
 DATASETS  * FILE   NREC   LENGTH (MB)   RECORD NAMES
              1      19        2.68       500      610      700      900      950      970     1000      129      960     1100   
                                          VAR    BASINP    GEOM    SYMINP    ZMAT    AOBASIS   BASIS     P2S    ABASIS      S 
                                         1400     1410     1200     1210     1080     1600     1650     1300     1700   
                                           T        V       H0       H01     AOSYM     SMH    MOLCAS    ERIS     OPER   

              2       3        0.30       700     1000     2100   
                                         GEOM     BASIS     RHF  

 PROGRAMS   *        TOTAL        HF       INT
 CPU TIMES  *         0.71      0.07      0.15
 REAL TIME  *         1.07 SEC
 DISK USED  *         7.60 MB      
 **********************************************************************************************************************************


 PROGRAM * OPT (Geometry optimization)     Authors: F. Eckert and H.-J. Werner


 BFGS update of hessian

 *** Long output written to logfile /home/ospite/Desktop/MMfP/Project6/CH4/molpro/HF/ch4_+.log ***


 Geometry optimization using default procedure for command HF-SCF

 Geometry written to block  1 of record 700

 Making model hessian for Z-matrix coordinates

 Quadratic Steepest Descent - Minimum Search

 Optimization point 1

 Variable                      Last           Current        Next           Gradient       Hessian

 E(HF-SCF000) / Hartree      0.00000000   -40.18103264     0.00000000
 D / ANG                     0.00000000     1.09000000     1.08398286     0.04135233     6.87242182
 A / DEG                     0.00000000   109.47000000   109.47145478    -0.00000034     0.00023257
 T / DEG                     0.00000000   120.00000000   120.00000000     0.00000000     0.00014996
 Convergence:                0.00000000  (line search)     0.01137078     0.02188272  (total)

 Optimization point 2

 Variable                      Last           Current        Next           Gradient       Hessian

 E(HF-SCF000) / Hartree    -40.18103264   -40.18118484     0.00000000
 D / ANG                     1.09000000     1.08398286     1.08229521     0.00905775     5.36709473
 A / DEG                   109.47000000   109.47145478   109.47112055     0.00000007     0.00024041
 T / DEG                   120.00000000   120.00000000   119.99999999     0.00000000     0.00015518
 Convergence:                0.00000000  (line search)     0.00318919     0.00479316  (total)

 Optimization point 3

 Variable                      Last           Current        Next           Gradient       Hessian

 E(HF-SCF000) / Hartree    -40.18118484   -40.18119233     0.00000000
 D / ANG                     1.08398286     1.08229521     1.08233023    -0.00019193     5.48081591
 A / DEG                   109.47145478   109.47112055   109.47123463    -0.00000003     0.00024265
 T / DEG                   120.00000000   119.99999999   120.00000001    -0.00000000     0.00015667
 Convergence:                0.00000000  (line search)     0.00006620     0.00010158  (total)

 END OF GEOMETRY OPTIMIZATION.    TOTAL CPU:         3.8 SEC

 ITER.   ENERGY(OLD)    ENERGY(NEW)      DE          GRADMAX     GRADNORM    GRADRMS     STEPMAX     STEPLEN     STEPRMS
   1   -40.18103264   -40.18118484    -0.00015219  0.02188271  0.02188272  0.00729424  0.01137075  0.01137078  0.00379026
   2   -40.18118484   -40.18119233    -0.00000749  0.00479316  0.00479316  0.00159772  0.00318919  0.00318919  0.00106306
   3   -40.18119233   -40.18119233    -0.00000000  0.00010156  0.00010158  0.00003386  0.00006617  0.00006620  0.00002207

 Geometry written to block  1 of record 700


 **********************************************************************************************************************************
 DATASETS  * FILE   NREC   LENGTH (MB)   RECORD NAMES
              1      19        2.68       500      610      700      900      950      970     1000      129      960     1100   
                                          VAR    BASINP    GEOM    SYMINP    ZMAT    AOBASIS   BASIS     P2S    ABASIS      S 
                                         1400     1410     1200     1210     1080     1600     1650     1300     1700   
                                           T        V       H0       H01     AOSYM     SMH    MOLCAS    ERIS     OPER   

              2       3        0.30       700     1000     2100   
                                         GEOM     BASIS     RHF  

 PROGRAMS   *        TOTAL      OPTG        HF       INT
 CPU TIMES  *         4.52      3.80      0.07      0.15
 REAL TIME  *         5.91 SEC
 DISK USED  *         7.64 MB      
 **********************************************************************************************************************************


 PROGRAM * HESSIAN

 Computing numerical hessian using default procedure for command HF-SCF

 Symmetry elements for unique displacements: Y  

 Using no symmetry in wavefunction calculations

 Running default procedure: HF-SCF000


 Numerically approximating hessian using central gradient differences

 Task list generated. Total number of displacements:     21

    5 tasks completed, CPU=     6.58 sec, Elapsed=     7.41 sec
   10 tasks completed, CPU=    13.10 sec, Elapsed=    14.64 sec
   15 tasks completed, CPU=    19.58 sec, Elapsed=    21.84 sec
   20 tasks completed, CPU=    26.23 sec, Elapsed=    29.36 sec

 Numerical HF-SCF000 hessian completed. CPU-time:    27.53 sec, Elapsed:    30.81 sec

 HF-SCF hessian saved to record  5300.2

 FREQUENCIES * CALCULATION OF HARMONIC VIBRATIONAL SPECTRA FOR HF-SCF


 Permanent Dipole Moment [debye]
   1-  3   -0.000000    0.000000   -0.000000

 Dipole Moment Norm    0.0000003 [debye]

 Dipole Moment Derivatives [debye/ang]
                   1             2             3             4             5             6             7             8
         1    -0.0544177     0.0000000     0.0000000     0.4474183     0.0000000     0.0001037    -0.7095285     0.0000000
         2    -0.0000000    -0.0544177     0.0000000    -0.0000000     0.4474183    -0.0000000    -0.0000000     0.4474185
         3     0.0000198     0.0000000    -0.0544310     0.0001000     0.0000000    -0.8540696     0.4089263     0.0000000
                   9            10            11            12            13            14            15
         1     0.4089279     0.1582237    -0.5009002    -0.2045158     0.1582237     0.5009002    -0.2045158
         2    -0.0000000    -0.5009036    -0.4202396    -0.3542516     0.5009036    -0.4202396     0.3542516
         3     0.3028678    -0.2045197    -0.3542496     0.3027701    -0.2045197     0.3542496     0.3027701

 Projecting out rotations and translations

   Low Vibration      Wavenumber
        Nr             [1/cm] 
        1                0.00
        2                0.00
        3                0.00
        4                0.00
        5                0.00
        6                0.00

     Vibration        Wavenumber
        Nr             [1/cm] 
        1             1511.17
        2             1511.20
        3             1511.22
        4             1700.68
        5             1700.72
        6             3178.69
        7             3288.89
        8             3288.96
        9             3289.05

 FREQUENCIES * CALCULATION OF NORMAL MODES FOR HF-SCF


 Atomic Coordinates

  Nr  Atom  Charge       X              Y              Z

   1   C     6.00    0.000000000    0.000000000    0.000000089
   2   H1    1.00   -0.000162888    0.000000000    2.045307804
   3   H2    1.00    1.928388737    0.000000000   -0.681616048
   4   H3    1.00   -0.964112924   -1.669986618   -0.681846407
   5   H4    1.00   -0.964112924    1.669986618   -0.681846407

 Frequencies dumped to record   5400.2

 Gradient norm at reference geometry: 0.19193D-03

 Normal Modes

                              1 A`        2 A`        3 A``       4 A`        5 A``
 Wavenumbers [cm-1]         1511.17     1511.20     1511.22     1700.68     1700.72
 Intensities [km/mol]         24.27       24.27       24.27        0.00        0.00
 Intensities [relative]       62.38       62.39       62.39        0.00        0.00
           CX1             -0.08367     0.08001    -0.00000    -0.00003     0.00000
           CY1              0.00000    -0.00000    -0.11577    -0.00000    -0.00000
           CZ1             -0.08001    -0.08367     0.00000    -0.00000     0.00000
           H1X2             0.40179    -0.38418     0.00000     0.49816    -0.00000
           H1Y2            -0.00000     0.00000     0.55601     0.00000     0.49804
           H1Z2            -0.05345    -0.05596     0.00000     0.00004    -0.00000
           H2X3             0.13242     0.14872    -0.00000     0.16597    -0.00000
           H2Y3            -0.00000     0.00000     0.55603    -0.00000    -0.49801
           H2Z3             0.47941     0.21353    -0.00000     0.46963    -0.00000
           H3X4             0.23142    -0.35900    -0.24379    -0.33191     0.28756
           H3Y4            -0.29539     0.04392     0.13375     0.28746     0.00000
           H3Z4             0.26375     0.41974    -0.17240    -0.23481    -0.40662
           H4X5             0.23142    -0.35900     0.24379    -0.33191    -0.28756
           H4Y5             0.29539    -0.04392     0.13375    -0.28746     0.00000
           H4Z5             0.26375     0.41974     0.17240    -0.23481     0.40662

                              6 A`        7 A``       8 A`        9 A` 
 Wavenumbers [cm-1]         3178.69     3288.89     3288.96     3289.05
 Intensities [km/mol]          0.00       38.90       38.90       38.90
 Intensities [relative]        0.00      100.00      100.00      100.00
           CX1              0.00003    -0.00000    -0.08260     0.02643
           CY1              0.00000    -0.08673     0.00000    -0.00000
           CZ1              0.00005     0.00000    -0.02643    -0.08260
           H1X2            -0.00003    -0.00000    -0.02238     0.00709
           H1Y2             0.00000    -0.02348     0.00000    -0.00000
           H1Z2             0.49755    -0.00000     0.25077     0.78317
           H2X3             0.46942     0.00000     0.61280    -0.47476
           H2Y3            -0.00000    -0.02348     0.00000    -0.00000
           H2Z3            -0.16590    -0.00000    -0.23166     0.14797
           H3X4            -0.23490     0.32543     0.19692     0.07635
           H3Y4            -0.40691     0.54021     0.37987     0.11985
           H3Z4            -0.16611     0.23015     0.14793     0.02656
           H4X5            -0.23490    -0.32543     0.19692     0.07635
           H4Y5             0.40691     0.54021    -0.37987    -0.11985
           H4Z5            -0.16611    -0.23015     0.14793     0.02656


 Normal Modes of low/zero frequencies

                                  1           2           3           4           5
 Wavenumbers [cm-1]            0.00        0.00        0.00        0.00        0.00
 Intensities [km/mol]          0.00        0.00        0.00        0.00        0.00
 Intensities [relative]        0.00        0.00        0.00        0.00        0.00
           CX1              0.24356     0.02521     0.01655    -0.00333     0.04062
           CY1             -0.05083     0.02315     0.05877    -0.01557     0.21132
           CZ1              0.00875    -0.12055     0.06507     0.20793     0.00506
           H1X2             0.21937     0.26047     0.33807     0.06335     0.14379
           H1Y2            -0.06349     0.04771     0.51659    -0.15643    -0.06063
           H1Z2             0.00875    -0.12053     0.06510     0.20793     0.00507
           H2X3             0.25162    -0.05319    -0.09060    -0.02555     0.00624
           H2Y3            -0.08126     0.45955    -0.19516     0.31137     0.20347
           H2Z3             0.03156    -0.34236    -0.23807     0.14507    -0.09220
           H3X4             0.22162     0.33180    -0.17841     0.21693    -0.07905
           H3Y4            -0.02928    -0.20732    -0.04318    -0.10861     0.35121
           H3Z4            -0.01300     0.01043     0.59043     0.12436    -0.16836
           H4X5             0.28164    -0.43823    -0.00286    -0.26804     0.09152
           H4Y5            -0.02928    -0.20732    -0.04318    -0.10861     0.35121
           H4Z5             0.00768    -0.02974    -0.15717     0.35435     0.27574

                                  6
 Wavenumbers [cm-1]            0.00
 Intensities [km/mol]          0.00
 Intensities [relative]        0.00
           CX1              0.02098
           CY1              0.10422
           CZ1              0.01515
           H1X2            -0.42360
           H1Y2             0.36477
           H1Z2             0.01511
           H2X3             0.16914
           H2Y3             0.20038
           H2Z3             0.43431
           H3X4             0.32767
           H3Y4            -0.07413
           H3Z4             0.01834
           H4X5             0.01072
           H4Y5            -0.07413
           H4Z5            -0.40717


 Zero point energy:  0.04779730 [H]    10490.29 [1/CM]      125.49 [KJ/MOL]
 Frequency information read from record  5400.2

 Dump information in style MOLDEN to ch4_6-31+g.molpro                                                               

 Molecular orbitals read from record     2100.2  Type=RHF/CANONICAL (state 1.1)
 Occupation numbers read from record     2100.2  Type=RHF/RHF (state 1.1)
 Orbital energies read from record       2100.2  Type=RHF/CANONICAL (state 1.1)
 Redundancy group numbers read from rec  2100.2  Type=RHF/RHF (state 1.1)

 DUMP ORBITAL  1.1 AS ORBITAL    1  occ=    2.0000  eig=  -11.2061  GROUP=   2
 DUMP ORBITAL  2.1 AS ORBITAL    2  occ=    2.0000  eig=   -0.9513  GROUP=   2
 DUMP ORBITAL  3.1 AS ORBITAL    3  occ=    2.0000  eig=   -0.5470  GROUP=   2
 DUMP ORBITAL  4.1 AS ORBITAL    4  occ=    2.0000  eig=   -0.5470  GROUP=   2
 DUMP ORBITAL  1.2 AS ORBITAL    5  occ=    2.0000  eig=   -0.5470  GROUP=   2

 Total charge:      10.000000
 Frequency information read from record  5400.2

 **********************************************************************************************************************************

        OPTG(HF)        HF-SCF  
    -40.18119233    -40.18103264
 **********************************************************************************************************************************
 Variable memory released
