
 Primary working directories    : /data/scratch
 Secondary working directories  : /data/scratch
 Wavefunction directory         : /home/ospite/wfu/
 Main file repository           : /data/scratch/

 ARCHNAME  : Linux/x86_64
 FC        : /usr/bin/gfortran
 FCVERSION : 4.8.5
 BLASLIB   : 
 id        : polimi

 Nodes     nprocs
 molmod       1

 Using default tuning parameters: mindgm=1; mindgv=20; mindgc=4; mindgr=1; noblas=0; mincuda=1000; minvec=7
 default implementation of scratch files=df  

 ***,methane with imposed symmetry and 6-31++G basis set
 memory,100,m
 
 basis=6-31++G
 symmetry,y
 
 geometry={angstrom
 C
 H1, C, d
 H2, C, d, H1, a
 H3, C, d, H1, a, H2, t
 H4, C, d, H1, a, H2, -t
 }
 
 d=1.09 Ang
 a=109.47 Deg
 t=120.0 Deg
 
 hf
 optg
 frequencies
 put,molden,ch4_6-31++G.molpro

 Variables initialized (661), CPU time= 0.01 sec
 Commands  initialized (458), CPU time= 0.05 sec, 486 directives.
 Default parameters read. Elapsed time= 0.27 sec

 Checking input...
 Passed
1


                                         ***  PROGRAM SYSTEM MOLPRO  ***
                         Copyright, University College Cardiff Consultants Limited, 2008

                                    Version 2010.1 linked Mar  6 2018 16:01:50


 **********************************************************************************************************************************
 LABEL *   methane with imposed symmetry and 6-31++G basis set                           
 Linux-3.10.0-1160.108.1.el7.x86_64/molmod(x86_64) 64 bit serial version                 DATE: 17-Aug-24          TIME: 16:31:00  
 **********************************************************************************************************************************

 SHA1:             d90fb18d49a3be29a79769f900c595ef3b8176e2
 **********************************************************************************************************************************

 Variable memory set to  100000000 words,  buffer space   230000 words

 SETTING BASIS          =    6-31++G
 ZSYMEL=Y  

 SETTING D              =         1.09000000  ANG                             
 SETTING A              =       109.47000000  DEG                             
 SETTING T              =       120.00000000  DEG                             


 Recomputing integrals since basis changed


 Using spherical harmonics

 Library entry C      S 6-31G                selected for orbital group  1
 Library entry C      S 6-31++G              selected for orbital group  1
 Library entry C      P 6-31G                selected for orbital group  1
 Library entry C      P 6-31++G              selected for orbital group  1
 Library entry H      S 6-31G                selected for orbital group  2
 Library entry H      S 6-31++G              selected for orbital group  2

1PROGRAM * SEWARD (Integral evaluation for generally contracted gaussian basis sets)     Author: Roland Lindh, 1990

 Geometry written to block  1 of record 700

 Orientation using atomic masses  
 Molecule type: Symmetric top,     Order of principal axis = 3
 User-specified symmetry elements: Y
 Symmetry elements: Y
 Rotational constants:     158.2574080    158.2574080    158.2538321 GHz  (calculated with average atomic masses)

 Point group  Cs  



 ATOMIC COORDINATES

 NR  ATOM    CHARGE       X              Y              Z

   1  C       6.00   -0.000000000    0.000000000   -0.000007798
   2  H1      1.00   -0.000000000    0.000000000    2.059793685
   3  H2      1.00    1.942014089    0.000000000   -0.686566920
   4  H3      1.00   -0.971007045   -1.681833536   -0.686566920
   5  H4      1.00   -0.971007045    1.681833536   -0.686566920

 Bond lengths in Bohr (Angstrom)

 1-2  2.059801483  1-3  2.059801483  1-4  2.059801483  1-5  2.059801483
     ( 1.090000000)     ( 1.090000000)     ( 1.090000000)     ( 1.090000000)

 Bond angles

  2-1-3  109.47000000   2-1-4  109.47000000   2-1-5  109.47000000   3-1-4  109.47244124

  3-1-5  109.47244124   4-1-5  109.47244124

 NUCLEAR CHARGE:                   10
 NUMBER OF PRIMITIVE AOS:          46
 NUMBER OF SYMMETRY AOS:           46
 NUMBER OF CONTRACTIONS:           25   (  19A'  +   6A"  )
 NUMBER OF CORE ORBITALS:           1   (   1A'  +   0A"  )
 NUMBER OF VALENCE ORBITALS:        8   (   6A'  +   2A"  )


 NUCLEAR REPULSION ENERGY   13.43538921


 Eigenvalues of metric

         1 0.438E-02 0.102E-01 0.102E-01 0.161E-01 0.701E-01 0.701E-01 0.224E+00 0.258E+00
         2 0.102E-01 0.701E-01 0.258E+00 0.577E+00 0.988E+00 0.286E+01


 Contracted 2-electron integrals neglected if value below      1.0D-11
 AO integral compression algorithm  1   Integral accuracy      1.0D-11

     0.524 MB (compressed) written to integral file ( 71.3%)


 NUMBER OF SORTED TWO-ELECTRON INTEGRALS:      30346.     BUFFER LENGTH:  32768
 NUMBER OF SEGMENTS:   1  SEGMENT LENGTH:      30346      RECORD LENGTH: 524288

 Memory used in sort:       0.59 MW

 SORT1 READ       48316. AND WROTE       27388. INTEGRALS IN      1 RECORDS. CPU TIME:     0.00 SEC, REAL TIME:     0.00 SEC
 SORT2 READ       27388. AND WROTE       30346. INTEGRALS IN      2 RECORDS. CPU TIME:     0.04 SEC, REAL TIME:     0.04 SEC

 FILE SIZES:   FILE 1:     3.1 MBYTE,  FILE 4:     4.2 MBYTE,   TOTAL:      7.4 MBYTE

 OPERATOR DM      FOR CENTER  0  COORDINATES:    0.000000    0.000000    0.000000


 **********************************************************************************************************************************
 DATASETS  * FILE   NREC   LENGTH (MB)   RECORD NAMES
              1      19        2.77       500      610      700      900      950      970     1000      129      960     1100   
                                          VAR    BASINP    GEOM    SYMINP    ZMAT    AOBASIS   BASIS     P2S    ABASIS      S 
                                         1400     1410     1200     1210     1080     1600     1650     1300     1700   
                                           T        V       H0       H01     AOSYM     SMH    MOLCAS    ERIS     OPER   

 PROGRAMS   *        TOTAL       INT
 CPU TIMES  *         0.68      0.17
 REAL TIME  *         1.05 SEC
 DISK USED  *         7.87 MB      
 **********************************************************************************************************************************

1PROGRAM * RHF-SCF (CLOSED SHELL)       Authors: W. Meyer, H.-J. Werner


 NUMBER OF ELECTRONS:       5+    5-
 CONVERGENCE THRESHOLDS:    1.00E-06 (Density)    1.00E-07 (Energy)
 MAX. NUMBER OF ITERATIONS:       60
 INTERPOLATION TYPE:            DIIS
 INTERPOLATION STEPS:              2 (START)      1 (STEP)
 LEVEL SHIFTS:                  0.00 (CLOSED)  0.00 (OPEN) 



 Orbital guess generated from atomic densities. Full valence occupancy:    7   2

 Molecular orbital dump at record        2100.2

 Initial alpha occupancy:   4   1
 Initial beta  occupancy:   4   1
 Wave function symmetry:    1

 ITERATION    DDIFF          GRAD             ENERGY        2-EL.EN.            DIPOLE MOMENTS         DIIS
    1      0.000D+00      0.000D+00       -40.16468104     52.940020   -0.00000    0.00000    0.00003    0
    2      0.000D+00      0.149D-01       -40.17901440     51.660312   -0.00000    0.00000    0.00001    1
    3      0.139D-01      0.558D-02       -40.18088142     52.106542   -0.00000    0.00000    0.00001    2
    4      0.404D-02      0.118D-02       -40.18106023     52.057802   -0.00000    0.00000    0.00001    3
    5      0.245D-02      0.145D-03       -40.18106271     52.060608   -0.00000    0.00000    0.00001    4
    6      0.510D-03      0.471D-05       -40.18106271     52.060504   -0.00000    0.00000    0.00001    5
    7      0.268D-04      0.658D-06       -40.18106271     52.060514   -0.00000    0.00000    0.00001    5
    8      0.254D-05      0.437D-07       -40.18106271     52.060513   -0.00000    0.00000    0.00001    4
    9      0.152D-06      0.755D-08       -40.18106271     52.060513   -0.00000    0.00000    0.00001    0

 Final occupancy:   4   1

 !RHF STATE 1.1 Energy                -40.181062710796
 Nuclear energy                        13.43538921
 One-electron energy                  -79.64670859
 Two-electron energy                   26.03025668
 Virial quotient                       -0.99945018
 !RHF STATE 1.1 Dipole moment          -0.00000000     0.00000000     0.00001128
 Dipole moment /Debye                  -0.00000000     0.00000000     0.00002868

 Orbital energies:

         1.1          2.1          3.1          4.1          5.1          6.1
    -11.209925    -0.948193    -0.544995    -0.544988     0.043536     0.081876

         1.2          2.2          3.2
     -0.544995     0.081876     0.169751


 **********************************************************************************************************************************
 DATASETS  * FILE   NREC   LENGTH (MB)   RECORD NAMES
              1      19        2.77       500      610      700      900      950      970     1000      129      960     1100   
                                          VAR    BASINP    GEOM    SYMINP    ZMAT    AOBASIS   BASIS     P2S    ABASIS      S 
                                         1400     1410     1200     1210     1080     1600     1650     1300     1700   
                                           T        V       H0       H01     AOSYM     SMH    MOLCAS    ERIS     OPER   

              2       3        0.30       700     1000     2100   
                                         GEOM     BASIS     RHF  

 PROGRAMS   *        TOTAL        HF       INT
 CPU TIMES  *         0.77      0.09      0.17
 REAL TIME  *         1.18 SEC
 DISK USED  *         7.87 MB      
 **********************************************************************************************************************************


 PROGRAM * OPT (Geometry optimization)     Authors: F. Eckert and H.-J. Werner


 BFGS update of hessian

 *** Long output written to logfile /home/ospite/Desktop/MMfP/Project6/CH4/molpro/HF/ch4_++.log ***


 Geometry optimization using default procedure for command HF-SCF

 Geometry written to block  1 of record 700

 Making model hessian for Z-matrix coordinates

 Quadratic Steepest Descent - Minimum Search

 Optimization point 1

 Variable                      Last           Current        Next           Gradient       Hessian

 E(HF-SCF000) / Hartree      0.00000000   -40.18106271     0.00000000
 D / ANG                     0.00000000     1.09000000     1.08401362     0.04114090     6.87242182
 A / DEG                     0.00000000   109.47000000   109.47145447    -0.00000034     0.00023257
 T / DEG                     0.00000000   120.00000000   120.00000000     0.00000000     0.00014996
 Convergence:                0.00000000  (line search)     0.01131264     0.02177084  (total)

 Optimization point 2

 Variable                      Last           Current        Next           Gradient       Hessian

 E(HF-SCF000) / Hartree    -40.18106271   -40.18121338     0.00000000
 D / ANG                     1.09000000     1.08401362     1.08233194     0.00902262     5.36522808
 A / DEG                   109.47000000   109.47145447   109.47112056     0.00000007     0.00024037
 T / DEG                   120.00000000   120.00000000   119.99999999     0.00000000     0.00015515
 Convergence:                0.00000000  (line search)     0.00317793     0.00477456  (total)

 Optimization point 3

 Variable                      Last           Current        Next           Gradient       Hessian

 E(HF-SCF000) / Hartree    -40.18121338   -40.18122082     0.00000000
 D / ANG                     1.08401362     1.08233194     1.08236668    -0.00019032     5.47839500
 A / DEG                   109.47145447   109.47112056   109.47123463    -0.00000003     0.00024260
 T / DEG                   120.00000000   119.99999999   120.00000000    -0.00000000     0.00015664
 Convergence:                0.00000000  (line search)     0.00006568     0.00010072  (total)

 END OF GEOMETRY OPTIMIZATION.    TOTAL CPU:         4.2 SEC

 ITER.   ENERGY(OLD)    ENERGY(NEW)      DE          GRADMAX     GRADNORM    GRADRMS     STEPMAX     STEPLEN     STEPRMS
   1   -40.18106271   -40.18121338    -0.00015067  0.02177083  0.02177084  0.00725695  0.01131261  0.01131264  0.00377088
   2   -40.18121338   -40.18122082    -0.00000744  0.00477456  0.00477456  0.00159152  0.00317792  0.00317793  0.00105931
   3   -40.18122082   -40.18122083    -0.00000000  0.00010071  0.00010072  0.00003357  0.00006565  0.00006568  0.00002189

 Geometry written to block  1 of record 700


 **********************************************************************************************************************************
 DATASETS  * FILE   NREC   LENGTH (MB)   RECORD NAMES
              1      19        2.78       500      610      700      900      950      970     1000      129      960     1100   
                                          VAR    BASINP    GEOM    SYMINP    ZMAT    AOBASIS   BASIS     P2S    ABASIS      S 
                                         1400     1410     1200     1210     1080     1600     1650     1300     1700   
                                           T        V       H0       H01     AOSYM     SMH    MOLCAS    ERIS     OPER   

              2       3        0.30       700     1000     2100   
                                         GEOM     BASIS     RHF  

 PROGRAMS   *        TOTAL      OPTG        HF       INT
 CPU TIMES  *         4.99      4.21      0.09      0.17
 REAL TIME  *         7.06 SEC
 DISK USED  *         7.91 MB      
 **********************************************************************************************************************************


 PROGRAM * HESSIAN

 Computing numerical hessian using default procedure for command HF-SCF

 Symmetry elements for unique displacements: Y  

 Using no symmetry in wavefunction calculations

 Running default procedure: HF-SCF000


 Numerically approximating hessian using central gradient differences

 Task list generated. Total number of displacements:     21

    5 tasks completed, CPU=     7.05 sec, Elapsed=     7.99 sec
   10 tasks completed, CPU=    14.01 sec, Elapsed=    15.73 sec
   15 tasks completed, CPU=    20.95 sec, Elapsed=    23.51 sec
   20 tasks completed, CPU=    27.89 sec, Elapsed=    31.28 sec

 Numerical HF-SCF000 hessian completed. CPU-time:    29.28 sec, Elapsed:    32.82 sec

 HF-SCF hessian saved to record  5300.2

 FREQUENCIES * CALCULATION OF HARMONIC VIBRATIONAL SPECTRA FOR HF-SCF


 Permanent Dipole Moment [debye]
   1-  3    0.000000    0.000000   -0.000000

 Dipole Moment Norm    0.0000003 [debye]

 Dipole Moment Derivatives [debye/ang]
                   1             2             3             4             5             6             7             8
         1    -0.0075223     0.0000000    -0.0000001     0.4475342     0.0000000     0.0000472    -0.7409502     0.0000000
         2     0.0000000    -0.0075225     0.0000000     0.0000000     0.4475343     0.0000000     0.0000000     0.4475345
         3     0.0000193     0.0000000    -0.0075354     0.0000435     0.0000000    -0.8894699     0.4201344     0.0000000
                   9            10            11            12            13            14            15
         1     0.4201424     0.1504313    -0.5145969    -0.2100948     0.1504313     0.5145969    -0.2100948
         2    -0.0000000    -0.5146000    -0.4438117    -0.3639040     0.5146000    -0.4438117     0.3639040
         3     0.2990069    -0.2100987    -0.3639020     0.2989624    -0.2100987     0.3639020     0.2989624

 Projecting out rotations and translations

   Low Vibration      Wavenumber
        Nr             [1/cm] 
        1                0.00
        2                0.00
        3                0.00
        4                0.00
        5                0.00
        6                0.00

     Vibration        Wavenumber
        Nr             [1/cm] 
        1             1510.94
        2             1510.97
        3             1510.99
        4             1699.85
        5             1699.89
        6             3177.97
        7             3287.84
        8             3287.90
        9             3287.99

 FREQUENCIES * CALCULATION OF NORMAL MODES FOR HF-SCF


 Atomic Coordinates

  Nr  Atom  Charge       X              Y              Z

   1   C     6.00    0.000000000    0.000000000    0.000000089
   2   H1    1.00   -0.000072272    0.000000000    2.045376685
   3   H2    1.00    1.928423473    0.000000000   -0.681724442
   4   H3    1.00   -0.964175600   -1.670042854   -0.681826651
   5   H4    1.00   -0.964175600    1.670042854   -0.681826651

 Frequencies dumped to record   5400.2

 Gradient norm at reference geometry: 0.19032D-03

 Normal Modes

                              1 A`        2 A`        3 A``       4 A`        5 A``
 Wavenumbers [cm-1]         1510.94     1510.97     1510.99     1699.85     1699.89
 Intensities [km/mol]         24.17       24.17       24.17        0.00        0.00
 Intensities [relative]       56.93       56.93       56.93        0.00        0.00
           CX1             -0.08442     0.07922    -0.00000    -0.00003    -0.00000
           CY1             -0.00000    -0.00000    -0.11577     0.00000    -0.00000
           CZ1             -0.07922    -0.08442     0.00000    -0.00000    -0.00000
           H1X2             0.40537    -0.38040     0.00000     0.49816     0.00000
           H1Y2             0.00000     0.00000     0.55601    -0.00000     0.49804
           H1Z2            -0.05296    -0.05647     0.00000     0.00001     0.00000
           H2X3             0.13103     0.14999    -0.00000     0.16599     0.00000
           H2Y3             0.00000     0.00000     0.55604     0.00000    -0.49801
           H2Z3             0.47739     0.21800    -0.00000     0.46962     0.00000
           H3X4             0.23477    -0.35679    -0.24381    -0.33192     0.28754
           H3Y4            -0.29581     0.04115     0.13373     0.28746     0.00000
           H3Z4             0.25979     0.42221    -0.17240    -0.23479    -0.40663
           H4X5             0.23477    -0.35679     0.24381    -0.33192    -0.28754
           H4Y5             0.29581    -0.04115     0.13373    -0.28746     0.00000
           H4Z5             0.25979     0.42221     0.17240    -0.23479     0.40663

                              6 A`        7 A``       8 A`        9 A` 
 Wavenumbers [cm-1]         3177.97     3287.84     3287.90     3287.99
 Intensities [km/mol]          0.00       42.45       42.46       42.45
 Intensities [relative]        0.00      100.00      100.00      100.00
           CX1              0.00003    -0.00000    -0.08259     0.02646
           CY1             -0.00000    -0.08673     0.00000     0.00000
           CZ1              0.00005    -0.00000    -0.02646    -0.08259
           H1X2            -0.00000    -0.00000    -0.02235     0.00713
           H1Y2            -0.00000    -0.02346     0.00000     0.00000
           H1Z2             0.49755     0.00000     0.25101     0.78309
           H2X3             0.46941     0.00000     0.61264    -0.47494
           H2Y3            -0.00000    -0.02346     0.00000     0.00000
           H2Z3            -0.16592    -0.00000    -0.23163     0.14807
           H3X4            -0.23491     0.32543     0.19697     0.07628
           H3Y4            -0.40691     0.54021     0.37990     0.11972
           H3Z4            -0.16610     0.23013     0.14793     0.02653
           H4X5            -0.23491    -0.32543     0.19697     0.07628
           H4Y5             0.40691     0.54021    -0.37990    -0.11972
           H4Z5            -0.16610    -0.23013     0.14793     0.02653


 Normal Modes of low/zero frequencies

                                  1           2           3           4           5
 Wavenumbers [cm-1]            0.00        0.00        0.00        0.00        0.00
 Intensities [km/mol]          0.00        0.00        0.00        0.00        0.00
 Intensities [relative]        0.00        0.00        0.00        0.00        0.00
           CX1              0.08915     0.21685     0.00204    -0.08417    -0.00923
           CY1              0.14482    -0.01119    -0.07151     0.12317     0.11894
           CZ1              0.13252    -0.09960     0.14760    -0.11066     0.01632
           H1X2            -0.21710     0.29709     0.16945    -0.17543     0.31777
           H1Y2             0.17197    -0.04507    -0.09924     0.18087    -0.29786
           H1Z2             0.13251    -0.09960     0.14761    -0.11066     0.01633
           H2X3             0.19122     0.19011    -0.05376    -0.05376    -0.11823
           H2Y3             0.14458    -0.14542    -0.46522    -0.26659     0.32362
           H2Z3             0.42125    -0.17525    -0.01024    -0.02462    -0.29199
           H3X4             0.19886     0.06408    -0.40273    -0.37464    -0.06129
           H3Y4             0.13137     0.07287     0.13920     0.28921     0.22499
           H3Z4             0.01032    -0.08945     0.20387    -0.10658    -0.16984
           H4X5             0.18361     0.31613     0.29519     0.26713    -0.17519
           H4Y5             0.13137     0.07287     0.13920     0.28921     0.22499
           H4Z5            -0.03401    -0.03411     0.24917    -0.20078     0.51078

                                  6
 Wavenumbers [cm-1]            0.00
 Intensities [km/mol]          0.00
 Intensities [relative]        0.00
           CX1              0.01366
           CY1              0.08248
           CZ1              0.02351
           H1X2             0.37218
           H1Y2             0.52105
           H1Z2             0.02352
           H2X3            -0.10583
           H2Y3             0.01026
           H2Z3            -0.31451
           H3X4            -0.04180
           H3Y4            -0.10070
           H3Z4             0.55060
           H4X5            -0.16989
           H4Y5            -0.10070
           H4Z5            -0.16558


 Zero point energy:  0.04778305 [H]    10487.17 [1/CM]      125.45 [KJ/MOL]
 Frequency information read from record  5400.2

 Dump information in style MOLDEN to ch4_6-31++g.molpro                                                              

 Molecular orbitals read from record     2100.2  Type=RHF/CANONICAL (state 1.1)
 Occupation numbers read from record     2100.2  Type=RHF/RHF (state 1.1)
 Orbital energies read from record       2100.2  Type=RHF/CANONICAL (state 1.1)
 Redundancy group numbers read from rec  2100.2  Type=RHF/RHF (state 1.1)

 DUMP ORBITAL  1.1 AS ORBITAL    1  occ=    2.0000  eig=  -11.2062  GROUP=   2
 DUMP ORBITAL  2.1 AS ORBITAL    2  occ=    2.0000  eig=   -0.9513  GROUP=   2
 DUMP ORBITAL  3.1 AS ORBITAL    3  occ=    2.0000  eig=   -0.5469  GROUP=   2
 DUMP ORBITAL  1.2 AS ORBITAL    4  occ=    2.0000  eig=   -0.5469  GROUP=   2
 DUMP ORBITAL  4.1 AS ORBITAL    5  occ=    2.0000  eig=   -0.5469  GROUP=   2

 Total charge:      10.000000
 Frequency information read from record  5400.2

 **********************************************************************************************************************************

        OPTG(HF)        HF-SCF  
    -40.18122083    -40.18106271
 **********************************************************************************************************************************
 Variable memory released
