[Molden Format]
[Molpro variables]
_NUMVAR=  693.0000000000000    
_EV2006= 0.3674930886769165E-01
_EV= 0.3674932534394180E-01
_KJOULE= 0.3808798324128737E-03
_KJOULE/MOL= 0.3808798324128737E-03
_CM= 0.4556335267302901E-05
_CM-1= 0.4556335267302901E-05
_KCAL= 0.1593601117815568E-02
_KCAL/MOL= 0.1593601117815568E-02
_KELVIN2006= 0.3166828861084835E-05
_KELVIN= 0.3166814820820034E-05
_HERTZ2006= 0.1519829850815779E-15
_HERTZ= 0.1519829846011223E-15
_HZ2006= 0.1519829850815779E-15
_HZ= 0.1519829846011223E-15
_TOA2006= 0.5291772490000000    
_TOA= 0.5291772090000000    
_TOANG2006= 0.5291772490000000    
_TOANG= 0.5291772090000000    
_TORAD= 0.1745329251994330E-01
_TOCM=  219474.6306700000    
_TODEBYE=  2.541580000000000    
_TOEV2006=  27.21139610000000    
_TOEV=  27.21138390000000    
_TOHERTZ2006=  6579683899900000.    
_TOHERTZ=  6579683920700000.    
_TOHZ2006=  6579683899900000.    
_TOHZ=  6579683920700000.    
_TOK2006=  315773.3000000000    
_TOK=  315774.7000000000    
_TOKCAL=  627.5096000000000    
_TOKELVIN2006=  315773.3000000000    
_TOKELVIN=  315774.7000000000    
_TOKJ=  2625.500000000000    
_TOKJOULE=  2625.500000000000    
_ANG2006=  1.889725988578923    
_ANG=  1.889726131421507    
_ANGSTROM2006=  1.889725988578923    
_ANGSTROM=  1.889726131421507    
_IGNORE_UNDEF=  2.000000000000000    
_STRICTCHECK=  0.000000000000000    
_SEW_ONEEL=  0.000000000000000    
_CPPDONE=FALSE
_DKROLL_DONE=  0.000000000000000    
_FOCKDONE=TRUE
_GRADONE=FALSE
_HESSDONE=TRUE
_INTDONE=TRUE
_SCFDONE=TRUE
_MODUL_CUDA=FALSE
_MODUL_SLATER=FALSE
_MODUL_MRCC=FALSE
_MRCC_EXEC=
_FITC_AO_SAVED=FALSE
_FITC_MO_SAVED=FALSE
_SHARED_FS=TRUE
_LSTYP=SEWARD
_INTYP=INTS
_GEOMTYP=ZMAT
_GRADTYP=ALASKA
_DIRECT=FALSE
_SYNCM=  0.000000000000000    
_BASIS=6-31+G
_ZSYMEL=
_ZORIENT=  1.000000000000000    
_NELEC=  10.00000000000000    
!SPIN=  0.000000000000000    
_OPTCONV= 0.6620382880506657E-04
_QSDSTEP=  0.000000000000000    
_QSDIRC=  0.000000000000000    
_PROGRAM=FREQ
_CPUSTEP=  0.000000000000000    
_SYSSTEP=  0.000000000000000    
_WALLSTEP= 0.1000000000000000E-01
!DFSCF=  0.000000000000000    
!SCSGRD=  0.000000000000000    
_BASINP=  610.0000000000000    
_CPUTOT=  31.83000000000000    
_CPUSORT= 0.3999999999999915E-01
_SYSSORT= 0.1000000000000001E-01
_WALLSORT= 0.5999999959021807E-01
_DFTEXFAC=  1.000000000000000    
_DMX=-0.1007013777920562E-09
_DMY=  0.000000000000000    
_DMZ=-0.1320545768915271E-06
_FREQUENCIES= 0.3863332616444430E-04
_ENERGY= -40.18119233309194    
_ENUC=  13.53059704141140    
_FREQSTEP=  22.00000000000000    
_GRADENERG= -40.18118777997616    
_GRADEXFAC=  9999.000000000000    
_GRADMETHOD=  1.000000000000000    
_VIRIAL= 0.2634771779080193E-02
!GRID_FREEZE= -1.000000000000000    
_ITERATIONS=  2.000000000000000    
_LASTNELEC=  10.00000000000000    
_LASTSPIN=  0.000000000000000    
_LASTSYM=  1.000000000000000    
_MPP_PROG=  0.000000000000000    
_NPROC_MPP=  1.000000000000000    
_NPROC_SMP=  1.000000000000000    
_NUMSTEP=  0.000000000000000    
_OPTCONVMX= 0.6617387977501695E-04
_OPTCONVRMS= 0.2206794293502219E-04
_OPTGRAD= 0.1015757038954600E-03
_OPTGRADMX= 0.1015630944626767E-03
_OPTGRADRMS= 0.3385856796515332E-04
_OPTSTEP=  3.000000000000000    
_ORBITAL=  2100.200000000000    
_PI=  3.141592653589793    
_SEIG_MIN= 0.1362485981721472E-01
_SEWPROP=TRUE
_STATUS=  1.000000000000000    
_SYSTOT= 0.9700000000000000    
_VERSION=  2010001.000000000    
_WALLTOT=  37.04000000000000    
_ZPE= 0.4779729875873286E-01
_DATE=17-Aug-24
_LASTORB=RHF
_MACHINE=Linux-3.10.0-1160.108.1.el7.x86_64/molmod(x86_64) 64 bit serial version
_OUTPUT=/home/ospite/Desktop/MMfP/Project6/CH4/molpro/HF/ch4_+.xml
_PGROUP=Cs
_TIME=15:56:02
_LIBMOL=/usr/local/molpro/molpros_2010_1_Linux_x86_64_i8/lib/
!SURFREC=  0.000000000000000    
!POLYREC=  0.000000000000000    
!DIPREC=  0.000000000000000    
!VSCFREC=  0.000000000000000    
!VCIREC=  0.000000000000000    
!PVCIREC=  0.000000000000000    
!VMP2REC=  0.000000000000000    
!VMCSCFREC=  0.000000000000000    
!GAREC=  0.000000000000000    
!SCFORB=  21002.00000000000    
!NEWMOL= -1.000000000000000    
!NEWSYM= -1.000000000000000    
_SLFILES=slscratch
_NGSSTO=  9.000000000000000    
_SIN=SIN
_COS=COS
_TAN=TAN
_ACOS=ACOS
_ASIN=ASIN
_ATAN=ATAN
_COSH=COSH
_SINH=SINH
_TANH=TANH
_ABS=ABS
_MOD=MOD
_ERF=ERF
_REFC=REFC
_ERFC=ERFC
_HYPOT=HYPOT
_J0=J0
_J1=J1
_JN=JN
_GAMMA=GAMMA
_LGAMMA=LGAMMA
_Y0=Y0
_Y1=Y1
_YN=YN
_EXP=EXP
_LOG=LOG
_LOG10=LOG10
_SQRT=SQRT
_INT=INT
_NINT=NINT
_MAX=MAX
_MIN=MIN
_COSMO=  0.000000000000000    
_COSMOIT=  0.000000000000000    
_COSMOES=  0.000000000000000    
_COSMOEDS=  0.000000000000000    
_COSMOEC=  0.000000000000000    
_COSMOEDCORR=  0.000000000000000    
_FEPSI=  1.000000000000000    
_SL_IsMM=  0.000000000000000    
_SL_NSYM=  0.000000000000000    
_SL_System_BitSw=  0.000000000000000    
_SL_Unique_atoms=  0.000000000000000    
_SL_GRAD=  0.000000000000000    
_SL_MAXUPD_Hess=  5.000000000000000    
_SL_N_PRINT_COD=  5.000000000000000    
_SL_PRINT_CODES=  0.000000000000000    
_SL_BasType=  0.000000000000000    
_SL_Energy_Pred=  0.000000000000000    
_SL_New_Coords=  0.000000000000000    
_SL_Total_Nuclea=  0.000000000000000    
_SL_Highest_Mltp=  0.000000000000000    
_SL_Ref_Geom=  0.000000000000000    
!LATTICE= -1.000000000000000    
!NEWLATTICE=  0.000000000000000    
!LATGRAD_VAR=FALSE
!SEW_LATTICE=  1.000000000000000    
!LOCAL=  0.000000000000000    
!SAVEDOM= -1.000000000000000    
!RESTDOM= -1.000000000000000    
!SAVEDOM_HF= -1.000000000000000    
!RESTDOM_HF= -1.000000000000000    
!HESSREC=  5300.200000000000    
!FREQREC=  5400.200000000000    
!NMODREC=  5450.200000000000    
!GTASKS=  0.000000000000000    
!HTASKS=  5500.200000000000    
!THRCHG= 0.1000000000000000    
!DEBUG= -1.000000000000000    
!CFIT_CPHF=  0.000000000000000    
!RDOMAUX_CPHF=  5.000000000000000    
!THRAO_CPHF= 0.9999999999999999E-11
!THRMO_CPHF= 0.9999999999999999E-11
!THROV_CPHF= 0.1000000000000000E-11
!THRSW_CPHF= 0.1000000000000000E-09
!THRPROD_CPHF= 0.9999999999999999E-11
!THRAOPR_CPHF= 0.1000000000000000E-11
!CFIT_SCFGRD=  0.000000000000000    
!RDOMAUX_SCFGRD=  7.000000000000000    
!THRAO_SCFGRD= 0.9999999999999999E-11
!THRMO_SCFGRD= 0.9999999999999999E-11
!THROV_SCFGRD= 0.1000000000000000E-11
!THRSW_SCFGRD= 0.1000000000000000E-09
!THRPROD_SCFGRD= 0.9999999999999999E-11
!THRAOPR_SCFGRD= 0.1000000000000000E-11
!LOCFIT_SCF=  0.000000000000000    
!LOCFIT_MP2= -1.000000000000000    
_RIDOM=  0.000000000000000    
!CC2_METHOD=  0.000000000000000    
_BASIS2006=FALSE
_SVDDEL= -1.000000000000000    
_SVDDELA= -1.000000000000000    
_SVDDELP= -1.000000000000000    
_SVDDELF= -1.000000000000000    
_SVDDELS= -1.000000000000000    
_SVDDEL_ABS= -1.000000000000000    
_SVDDELA_ABS= -1.000000000000000    
_SVDDELP_ABS= -1.000000000000000    
_SVDDELF_ABS= -1.000000000000000    
_SVDDELS_ABS= -1.000000000000000    
_MAXBASIS=  0.000000000000000    
!OPT_CONICAL=  0.000000000000000    
!CLEARSP_JGRID=  0.000000000000000    
D=  1.082330231956464    
A=  109.4712346327290    
T=  120.0000000057915    
GX1= 0.1413919563122668E-10
GY1= -0.000000000000000    
GZ1= 0.8879939006934021E-07
GX2=-0.1628884442767577E-03
GY2= -0.000000000000000    
GZ2=  2.045307804468795    
GX3=  1.928388736788391    
GY3= -0.000000000000000    
GZ3=-0.6816160481778207    
GX4=-0.9641129242563011    
GY4= -1.669986617736656    
GZ4=-0.6818464072292990    
GX5=-0.9641129242563011    
GY5=  1.669986617736656    
GZ5=-0.6818464072292990    
CX1= 0.1413919502313288E-10
CY1=  0.000000000000000    
CZ1= 0.8879939006854742E-07
H1X2=-0.1628884442767577E-03
H1Y2=  0.000000000000000    
H1Z2=  2.045307804468795    
H2X3=  1.928388736788391    
H2Y3=  0.000000000000000    
H2Z3=-0.6816160481778207    
H3X4=-0.9641129242563011    
H3Y4= -1.669986617736656    
H3Z4=-0.6818464072292990    
H4X5=-0.9641129242563011    
H4Y5=  1.669986617736656    
H4Z5=-0.6818464072292990    
[Atoms] Angs
C     1    6         0.0000000000        0.0000000000        0.0000000470
H     2    1        -0.0000861969        0.0000000000        1.0823302755
H     3    1         1.0204593696        0.0000000000       -0.3606956780
H     4    1        -0.5101865864       -0.8837188574       -0.3608175787
H     5    1        -0.5101865864        0.8837188574       -0.3608175787
[GTO]
  1 0
 s    6  1.00
  0.3047524900D+04  0.1834737091D-02
  0.4573695200D+03  0.1403732293D-01
  0.1039486800D+03  0.6884262165D-01
  0.2921015500D+02  0.2321844388D+00
  0.9286663000D+01  0.4679413476D+00
  0.3163927000D+01  0.3623119882D+00
 s    3  1.00
  0.7868272300D+01 -0.1193324245D+00
  0.1881288500D+01 -0.1608541561D+00
  0.5442492600D+00  0.1143456443D+01
 s    1  1.00
  0.1687144800D+00  0.1000000000D+01
 s    1  1.00
  0.4380000000D-01  0.1000000000D+01
 p    3  1.00
  0.7868272300D+01  0.6899906693D-01
  0.1881288500D+01  0.3164239597D+00
  0.5442492600D+00  0.7443082892D+00
 p    1  1.00
  0.1687144800D+00  0.1000000000D+01
 p    1  1.00
  0.4380000000D-01  0.1000000000D+01
  
  2 0
 s    3  1.00
  0.1873113700D+02  0.3349460400D-01
  0.2825394400D+01  0.2347269500D+00
  0.6401216900D+00  0.8137573301D+00
 s    1  1.00
  0.1612777600D+00  0.1000000000D+01
  
  3 0
 s    3  1.00
  0.1873113700D+02  0.3349460400D-01
  0.2825394400D+01  0.2347269500D+00
  0.6401216900D+00  0.8137573301D+00
 s    1  1.00
  0.1612777600D+00  0.1000000000D+01
  
  4 0
 s    3  1.00
  0.1873113700D+02  0.3349460400D-01
  0.2825394400D+01  0.2347269500D+00
  0.6401216900D+00  0.8137573301D+00
 s    1  1.00
  0.1612777600D+00  0.1000000000D+01
  
  5 0
 s    3  1.00
  0.1873113700D+02  0.3349460400D-01
  0.2825394400D+01  0.2347269500D+00
  0.6401216900D+00  0.8137573301D+00
 s    1  1.00
  0.1612777600D+00  0.1000000000D+01


[MO]
 Sym=      1.1
 Ene=     -11.2061
 Spin= Alpha
 Occup=    2.000000
1 0.99615448373940
2 0.025744898435954
3 -0.017812697741031
4 -0.000963698420469
5 0.000000000000324
6 0.0
7 -0.000000000760071
8 -0.000000000020202
9 0.0
10 0.000000002437838
11 -0.000000000006462
12 0.0
13 0.000000000525459
14 -0.000179789688797
15 0.003809344274485
16 -0.000179789638633
17 0.003809346133209
18 -0.000179789638572
19 0.003809346092687
20 -0.000179789638572
21 0.003809346092687
 Sym=      2.1
 Ene=      -0.9513
 Spin= Alpha
 Occup=    2.000000
1 -0.19742628987017
2 0.37257486533449
3 0.39830806140261
4 0.017029409824176
5 -0.000000000013385
6 0.0
7 -0.000000061250365
8 -0.000000000087675
9 0.0
10 -0.000000040283548
11 -0.000000000039008
12 0.0
13 -0.000000002143268
14 0.13556060376866
15 0.023172761989866
16 0.13556062220339
17 0.023172752160645
18 0.13556062222818
19 0.023172752041974
20 0.13556062222818
21 0.023172752041974
 Sym=      3.1
 Ene=      -0.5470
 Spin= Alpha
 Occup=    2.000000
1 -0.000000028598601
2 0.000000066940319
3 0.000000035802072
4 -0.000000002673768
5 -0.000098195236528
6 0.0
7 0.43827191835619
8 -0.000049277154186
9 0.0
10 0.21993787939035
11 -0.000003999196416
12 0.0
13 0.017850045699802
14 0.30302622362980
15 0.23306548350385
16 -0.10104999653222
17 -0.077720206760045
18 -0.10098811012926
19 -0.077672608384474
20 -0.10098811012926
21 -0.077672608384474
 Sym=      4.1
 Ene=      -0.5470
 Spin= Alpha
 Occup=    2.000000
1 -0.000000000009973
2 0.000000000126683
3 -0.000000000406537
4 -0.000000000173991
5 0.43827191817819
6 0.0
7 0.000098195247012
8 0.21993788663421
9 0.0
10 0.000049277209664
11 0.017850057149236
12 0.0
13 0.000003999177462
14 0.000043760318996
15 0.000033657200491
16 0.28568127505236
17 0.21972508834668
18 -0.14286251766218
19 -0.10987937242001
20 -0.14286251766218
21 -0.10987937242001
 Sym=      1.2
 Ene=      -0.5470
 Spin= Alpha
 Occup=    2.000000
1 0.0
2 0.0
3 0.0
4 0.0
5 0.0
6 0.43827192918642
7 0.0
8 0.0
9 0.21993789216702
10 0.0
11 0.0
12 0.017850057595806
13 0.0
14 0.0
15 0.0
16 0.0
17 0.0
18 -0.24741987670123
19 -0.19029722610220
20 0.24741987670123
21 0.19029722610220
 Sym=      5.1
 Ene=       0.0931
 Spin= Alpha
 Occup=    0.000000
1 0.064704202284000
2 -0.12023285985139
3 -0.22861089922578
4 1.73047763244693
5 -0.000000000045845
6 0.0
7 0.000000050634276
8 0.000000000372845
9 0.0
10 -0.000000125508240
11 -0.000000000221119
12 0.0
13 -0.000000405823476
14 0.011184343076540
15 -0.30922419516400
16 0.011184330331377
17 -0.30922447345551
18 0.011184330289261
19 -0.30922447308342
20 0.011184330289261
21 -0.30922447308342
 Sym=      6.1
 Ene=       0.1227
 Spin= Alpha
 Occup=    0.000000
1 0.000000021520915
2 -0.000000008253774
3 -0.000000224099525
4 0.000000444713778
5 -0.000786422859290
6 0.0
7 -0.11072730152709
8 -0.001185390478544
9 0.0
10 -0.16690135470933
11 0.008727680659460
12 0.0
13 1.22884538742709
14 -0.037453396265084
15 -0.37275128457045
16 0.012230856463710
17 0.12172640924619
18 0.012611265758447
19 0.12551239340566
20 0.012611265758447
21 0.12551239340566
 Sym=      2.2
 Ene=       0.1227
 Spin= Alpha
 Occup=    0.000000
1 0.0
2 0.0
3 0.0
4 0.0
5 0.0
6 -0.11073007680476
7 0.0
8 0.0
9 -0.16690565462585
10 0.0
11 0.0
12 1.22887634756592
13 0.0
14 0.0
15 0.0
16 0.0
17 0.0
18 0.030581373531444
19 0.30435793830978
20 -0.030581373531444
21 -0.30435793830978
 Sym=      7.1
 Ene=       0.1227
 Spin= Alpha
 Occup=    0.000000
1 -0.000000000165899
2 -0.000000000059875
3 0.000000002259485
4 -0.000000002646619
5 -0.11072728418515
6 0.0
7 0.000786423294404
8 -0.16690144576690
9 0.0
10 0.001185390781663
11 1.22884535442700
12 0.0
13 -0.008727680721118
14 0.000268989689260
15 0.002677093946474
16 -0.035401080948612
17 -0.35232557587521
18 0.017566045632963
19 0.17482424066092
20 0.017566045632963
21 0.17482424066092
 Sym=      3.2
 Ene=       0.3324
 Spin= Alpha
 Occup=    0.000000
1 0.0
2 0.0
3 0.0
4 0.0
5 0.0
6 0.25722013813512
7 0.0
8 0.0
9 1.55481696072021
10 0.0
11 0.0
12 0.24413295148727
13 0.0
14 0.0
15 0.0
16 0.0
17 0.0
18 0.10024460875772
19 1.74599242398798
20 -0.10024460875772
21 -1.74599242398798
 Sym=      8.1
 Ene=       0.3324
 Spin= Alpha
 Occup=    0.000000
1 0.000000000909990
2 -0.000000000706658
3 -0.000000016105632
4 -0.000000006544242
5 -0.25720740524487
6 0.0
7 -0.002559357038150
8 -1.55473999211436
9 0.0
10 -0.015470537075350
11 -0.24412086676395
12 0.0
13 -0.002429141157939
14 0.001211832855318
15 0.021106892964443
16 0.11534292142656
17 2.00896455848363
18 -0.058277376189226
19 -1.01503571158723
20 -0.058277376189226
21 -1.01503571158723
 Sym=      9.1
 Ene=       0.3324
 Spin= Alpha
 Occup=    0.000000
1 0.000000070853676
2 -0.000000077442433
3 -0.000001137542528
4 -0.000000479994669
5 0.002559357507995
6 0.0
7 -0.25720737356298
8 0.015470530666587
9 0.0
10 -1.55474058240565
11 0.002429139450257
12 0.0
13 -0.24412114708590
14 0.12276808820597
15 2.13829219463408
16 -0.042065171216881
17 -0.73266315273712
18 -0.040351381217306
19 -0.70281351623340
20 -0.040351381217306
21 -0.70281351623340
 Sym=     10.1
 Ene=       0.4160
 Spin= Alpha
 Occup=    0.000000
1 -0.15892331844448
2 0.11705287509176
3 3.51935325818514
4 1.69521897522577
5 -0.000000000774621
6 0.0
7 -0.000000180472147
8 -0.000000001106857
9 0.0
10 -0.000001350323461
11 -0.000000000752594
12 0.0
13 -0.000000416495894
14 -0.030194145588680
15 -1.70779604496945
16 -0.030194162444085
17 -1.70779787728987
18 -0.030194162417653
19 -1.70779788118326
20 -0.030194162417653
21 -1.70779788118326
 Sym=      4.2
 Ene=       0.8634
 Spin= Alpha
 Occup=    0.000000
1 0.0
2 0.0
3 0.0
4 0.0
5 0.0
6 -0.94542458444999
7 0.0
8 0.0
9 1.59944175190498
10 0.0
11 0.0
12 -0.54787646940062
13 0.0
14 0.0
15 0.0
16 0.0
17 0.0
18 0.34585743227639
19 0.000092446793667
20 -0.34585743227639
21 -0.000092446793667
 Sym=     11.1
 Ene=       0.8634
 Spin= Alpha
 Occup=    0.000000
1 0.000000000273496
2 -0.000000004249806
3 -0.000000000455678
4 -0.000000005051172
5 -0.94537385502092
6 0.0
7 -0.009793819709129
8 1.59935592998288
9 0.0
10 0.016568901981212
11 -0.54784707149796
12 0.0
13 -0.005675547588514
14 -0.004354280055707
15 -0.000001166684372
16 -0.39788923653400
17 -0.000106350161819
18 0.20112175765774
19 0.000053764667953
20 0.20112175765774
21 0.000053764667953
 Sym=     12.1
 Ene=       0.8634
 Spin= Alpha
 Occup=    0.000000
1 0.000000021382456
2 -0.000000256891908
3 -0.000000225730997
4 -0.000000415806466
5 0.009793819171571
6 0.0
7 -0.94537390004496
8 -0.016568897608739
9 0.0
10 1.59935640203138
11 0.005675548404212
12 0.0
13 -0.54784699099493
14 -0.42356471323122
15 -0.000113526624914
16 0.14529345185025
17 0.000039338066177
18 0.13913556958050
19 0.000037691684429
20 0.13913556958050
21 0.000037691684429
 Sym=      5.2
 Ene=       1.2775
 Spin= Alpha
 Occup=    0.000000
1 0.0
2 0.0
3 0.0
4 0.0
5 0.0
6 0.73511002483473
7 0.0
8 0.0
9 -0.76664836173287
10 0.0
11 0.0
12 -0.32405662882305
13 0.0
14 0.0
15 0.0
16 0.0
17 0.0
18 0.93881014106535
19 -1.44989985210028
20 -0.93881014106535
21 1.44989985210028
 Sym=     13.1
 Ene=       1.2775
 Spin= Alpha
 Occup=    0.000000
1 -0.000000000083942
2 -0.000000000361767
3 0.000000000972979
4 -0.000000000608843
5 -0.73510942765740
6 0.0
7 0.000937059390344
8 0.76664773936487
9 0.0
10 -0.000977261415035
11 0.32405636557744
12 0.0
13 -0.000413081693790
14 -0.001557247886220
15 0.002405014796199
16 1.08456266300731
17 -1.67500027595396
18 -0.54150270859751
19 0.83629763110415
20 -0.54150270859751
21 0.83629763110415
 Sym=     14.1
 Ene=       1.2775
 Spin= Alpha
 Occup=    0.000000
1 0.000000205532961
2 0.000001997952571
3 -0.000005217311476
4 0.000000783505648
5 -0.000937059387787
6 0.0
7 -0.73510943236981
8 0.000977261755000
9 0.0
10 0.76664762394064
11 0.000413081622368
12 0.0
13 0.32405652496034
14 1.14980314398507
15 -1.77575544054672
16 -0.38179793888170
17 0.58965136790737
18 -0.38400021901695
19 0.59305257259994
20 -0.38400021901695
21 0.59305257259994
 Sym=     15.1
 Ene=       1.3249
 Spin= Alpha
 Occup=    0.000000
1 -0.10173440260637
2 -1.77847645958159
3 4.48952755987848
4 -0.13026427873846
5 -0.000000000709433
6 0.0
7 -0.000001119622680
8 0.000000000118951
9 0.0
10 0.000000155403109
11 0.000000000661303
12 0.0
13 0.000000524149511
14 -0.51785879042251
15 -0.67896464743530
16 -0.51786159774801
17 -0.67896142927539
18 -0.51786160086893
19 -0.67896142560794
20 -0.51786160086893
21 -0.67896142560794
 Sym=     16.1
 Ene=       1.3902
 Spin= Alpha
 Occup=    0.000000
1 0.050966029113840
2 -1.67972800467863
3 3.94479609463810
4 0.90264280150495
5 0.000000000686587
6 0.0
7 0.000000609349945
8 -0.000000001031256
9 0.0
10 -0.000000996053170
11 0.000000000053925
12 0.0
13 -0.000000367519704
14 0.53866683754655
15 -1.44668773953731
16 0.53866775312372
17 -1.44668943912745
18 0.53866775351884
19 -1.44668944027246
20 0.53866775351884
21 -1.44668944027246
 [FREQ]
      0.00
      0.00
      0.00
      0.00
      0.00
      0.00
   1511.17
   1511.20
   1511.22
   1700.68
   1700.72
   3178.69
   3288.89
   3288.96
   3289.05
 [FR-COORD]
C          0.0000000000        0.0000000000        0.0000000888
H         -0.0001628884        0.0000000000        2.0453078045
H          1.9283887368        0.0000000000       -0.6816160482
H         -0.9641129243       -1.6699866177       -0.6818464072
H         -0.9641129243        1.6699866177       -0.6818464072
 [FR-NORM-COORD]
 Vibration                    1
          0.24356151         -0.05082738          0.00874861
          0.21936684         -0.06348797          0.00874668
          0.25162459         -0.08125814          0.03156020
          0.22161953         -0.02928170         -0.01299595
          0.28163510         -0.02928170          0.00768349
 Vibration                    2
          0.02521291          0.02315332         -0.12055165
          0.26047454          0.04771287         -0.12053292
         -0.05319002          0.45954936         -0.34236467
          0.33180168         -0.20732450          0.01042894
         -0.43823472         -0.20732450         -0.02973797
 Vibration                    3
          0.01654847          0.05877065          0.06507195
          0.33806707          0.51659076          0.06509755
         -0.09060033         -0.19515609         -0.23806720
         -0.17841195         -0.04317619          0.59043025
         -0.00286113         -0.04317619         -0.15717282
 Vibration                    4
         -0.00332731         -0.01557122          0.20792943
          0.06334816         -0.15643498          0.20793474
         -0.02554747          0.31137114          0.14506543
          0.21693066         -0.10861046          0.12436331
         -0.26804063         -0.10861046          0.35435423
 Vibration                    5
          0.04062409          0.21131783          0.00506481
          0.14378809         -0.06062782          0.00507303
          0.00624382          0.20346983         -0.09220187
         -0.07905068          0.35121474         -0.16835542
          0.09151508          0.35121474          0.27574351
 Vibration                    6
          0.02098271          0.10422207          0.01514984
         -0.42359559          0.36477181          0.01511444
          0.16914220          0.20038227          0.43431405
          0.32766679         -0.07413300          0.01833602
          0.01071776         -0.07413300         -0.40716514
 Vibration                    7
         -0.08367017          0.00000000         -0.08001237
          0.40179068         -0.00000000         -0.05344618
          0.13241970         -0.00000000          0.47941341
          0.23141777         -0.29539380          0.26374542
          0.23141777          0.29539380          0.26374542
 Vibration                    8
          0.08001192         -0.00000000         -0.08367005
         -0.38417628          0.00000000         -0.05596321
          0.14871861          0.00000000          0.21353276
         -0.35899754          0.04392015          0.41973744
         -0.35899753         -0.04392015          0.41973744
 Vibration                    9
         -0.00000000         -0.11576862          0.00000000
          0.00000000          0.55601047          0.00000000
         -0.00000000          0.55603471         -0.00000000
         -0.24379300          0.13374906         -0.17240186
          0.24379300          0.13374907          0.17240186
 Vibration                   10
         -0.00002620         -0.00000000         -0.00000381
          0.49816136          0.00000000          0.00003691
          0.16596551         -0.00000000          0.46962684
         -0.33190732          0.28746153         -0.23480915
         -0.33190732         -0.28746153         -0.23480915
 Vibration                   11
          0.00000000         -0.00000264          0.00000000
         -0.00000000          0.49804031         -0.00000000
         -0.00000000         -0.49801309         -0.00000000
          0.28756161          0.00000214         -0.40661898
         -0.28756161          0.00000214          0.40661898
 Vibration                   12
          0.00003402          0.00000000          0.00004810
         -0.00002580          0.00000000          0.49755063
          0.46941552         -0.00000000         -0.16589529
         -0.23489755         -0.40691035         -0.16611427
         -0.23489755          0.40691035         -0.16611427
 Vibration                   13
         -0.00000000         -0.08672501          0.00000000
         -0.00000000         -0.02348170         -0.00000000
          0.00000000         -0.02348395         -0.00000000
          0.32542884          0.54020708          0.23015061
         -0.32542884          0.54020708         -0.23015061
 Vibration                   14
         -0.08259722          0.00000000         -0.02643215
         -0.02238341          0.00000000          0.25076523
          0.61279763          0.00000000         -0.23165735
          0.19692301          0.37987064          0.14793390
          0.19692301         -0.37987064          0.14793390
 Vibration                   15
          0.02643278         -0.00000000         -0.08259712
          0.00708942         -0.00000000          0.78317362
         -0.47476379         -0.00000000          0.14796578
          0.07634559          0.11984544          0.02655977
          0.07634559         -0.11984544          0.02655977
