
 Primary working directories    : /data/scratch
 Secondary working directories  : /data/scratch
 Wavefunction directory         : /home/ospite/wfu/
 Main file repository           : /data/scratch/

 ARCHNAME  : Linux/x86_64
 FC        : /usr/bin/gfortran
 FCVERSION : 4.8.5
 BLASLIB   : 
 id        : polimi

 Nodes     nprocs
 molmod       1

 Using default tuning parameters: mindgm=1; mindgv=20; mindgc=4; mindgr=1; noblas=0; mincuda=1000; minvec=7
 default implementation of scratch files=df  

 ***,methane with imposed symmetry and aug-cc-pVDZ basis set
 memory,100,m
 
 basis=aug-cc-pVDZ
 symmetry,y
 
 geometry={angstrom
 C
 H1, C, d
 H2, C, d, H1, a
 H3, C, d, H1, a, H2, t
 H4, C, d, H1, a, H2, -t
 }
 
 d=1.09 Ang
 a=109.47 Deg
 t=120.0 Deg
 
 hf
 optg
 frequencies
 put,molden,ch4_aug-ccpVDZ.molpro

 Variables initialized (661), CPU time= 0.01 sec
 Commands  initialized (458), CPU time= 0.05 sec, 486 directives.
 Default parameters read. Elapsed time= 0.22 sec

 Checking input...
 Passed
1


                                         ***  PROGRAM SYSTEM MOLPRO  ***
                         Copyright, University College Cardiff Consultants Limited, 2008

                                    Version 2010.1 linked Mar  6 2018 16:01:50


 **********************************************************************************************************************************
 LABEL *   methane with imposed symmetry and aug-cc-pVDZ basis set                       
 Linux-3.10.0-1160.108.1.el7.x86_64/molmod(x86_64) 64 bit serial version                 DATE: 17-Aug-24          TIME: 16:34:33  
 **********************************************************************************************************************************

 SHA1:             d90fb18d49a3be29a79769f900c595ef3b8176e2
 **********************************************************************************************************************************

 Variable memory set to  100000000 words,  buffer space   230000 words

 SETTING BASIS          =    AUG-CC-PVDZ
 ZSYMEL=Y  

 SETTING D              =         1.09000000  ANG                             
 SETTING A              =       109.47000000  DEG                             
 SETTING T              =       120.00000000  DEG                             


 Recomputing integrals since basis changed


 Using spherical harmonics

 Library entry C      S aug-cc-pVDZ          selected for orbital group  1
 Library entry C      P aug-cc-pVDZ          selected for orbital group  1
 Library entry C      D aug-cc-pVDZ          selected for orbital group  1
 Library entry H      S aug-cc-pVDZ          selected for orbital group  2
 Library entry H      P aug-cc-pVDZ          selected for orbital group  2

1PROGRAM * SEWARD (Integral evaluation for generally contracted gaussian basis sets)     Author: Roland Lindh, 1990

 Geometry written to block  1 of record 700

 Orientation using atomic masses  
 Molecule type: Symmetric top,     Order of principal axis = 3
 User-specified symmetry elements: Y
 Symmetry elements: Y
 Rotational constants:     158.2574080    158.2574080    158.2538321 GHz  (calculated with average atomic masses)

 Point group  Cs  



 ATOMIC COORDINATES

 NR  ATOM    CHARGE       X              Y              Z

   1  C       6.00   -0.000000000    0.000000000   -0.000007798
   2  H1      1.00   -0.000000000    0.000000000    2.059793685
   3  H2      1.00    1.942014089    0.000000000   -0.686566920
   4  H3      1.00   -0.971007045   -1.681833536   -0.686566920
   5  H4      1.00   -0.971007045    1.681833536   -0.686566920

 Bond lengths in Bohr (Angstrom)

 1-2  2.059801483  1-3  2.059801483  1-4  2.059801483  1-5  2.059801483
     ( 1.090000000)     ( 1.090000000)     ( 1.090000000)     ( 1.090000000)

 Bond angles

  2-1-3  109.47000000   2-1-4  109.47000000   2-1-5  109.47000000   3-1-4  109.47244124

  3-1-5  109.47244124   4-1-5  109.47244124

 NUCLEAR CHARGE:                   10
 NUMBER OF PRIMITIVE AOS:          81
 NUMBER OF SYMMETRY AOS:           79
 NUMBER OF CONTRACTIONS:           59   (  39A'  +  20A"  )
 NUMBER OF CORE ORBITALS:           1   (   1A'  +   0A"  )
 NUMBER OF VALENCE ORBITALS:        8   (   6A'  +   2A"  )


 NUCLEAR REPULSION ENERGY   13.43538921


 Eigenvalues of metric

         1 0.834E-03 0.834E-03 0.985E-03 0.744E-02 0.755E-02 0.755E-02 0.191E-01 0.201E-01
         2 0.834E-03 0.755E-02 0.191E-01 0.201E-01 0.497E-01 0.823E-01 0.147E+00 0.148E+00


 Contracted 2-electron integrals neglected if value below      1.0D-11
 AO integral compression algorithm  1   Integral accuracy      1.0D-11

     5.505 MB (compressed) written to integral file ( 57.4%)


 NUMBER OF SORTED TWO-ELECTRON INTEGRALS:     818145.     BUFFER LENGTH:  32768
 NUMBER OF SEGMENTS:   1  SEGMENT LENGTH:     818145      RECORD LENGTH: 524288

 Memory used in sort:       1.38 MW

 SORT1 READ     1152246. AND WROTE      754747. INTEGRALS IN      3 RECORDS. CPU TIME:     0.05 SEC, REAL TIME:     0.07 SEC
 SORT2 READ      754747. AND WROTE      818145. INTEGRALS IN     21 RECORDS. CPU TIME:     0.24 SEC, REAL TIME:     0.28 SEC

 FILE SIZES:   FILE 1:     8.2 MBYTE,  FILE 4:    12.6 MBYTE,   TOTAL:     20.8 MBYTE

 OPERATOR DM      FOR CENTER  0  COORDINATES:    0.000000    0.000000    0.000000


 **********************************************************************************************************************************
 DATASETS  * FILE   NREC   LENGTH (MB)   RECORD NAMES
              1      19        6.51       500      610      700      900      950      970     1000      129      960     1100   
                                          VAR    BASINP    GEOM    SYMINP    ZMAT    AOBASIS   BASIS     P2S    ABASIS      S 
                                         1400     1410     1200     1210     1080     1600     1650     1300     1700   
                                           T        V       H0       H01     AOSYM     SMH    MOLCAS    ERIS     OPER   

 PROGRAMS   *        TOTAL       INT
 CPU TIMES  *         1.10      0.62
 REAL TIME  *         1.49 SEC
 DISK USED  *        21.33 MB      
 **********************************************************************************************************************************

1PROGRAM * RHF-SCF (CLOSED SHELL)       Authors: W. Meyer, H.-J. Werner


 NUMBER OF ELECTRONS:       5+    5-
 CONVERGENCE THRESHOLDS:    1.00E-06 (Density)    1.00E-07 (Energy)
 MAX. NUMBER OF ITERATIONS:       60
 INTERPOLATION TYPE:            DIIS
 INTERPOLATION STEPS:              2 (START)      1 (STEP)
 LEVEL SHIFTS:                  0.00 (CLOSED)  0.00 (OPEN) 



 Orbital guess generated from atomic densities. Full valence occupancy:    7   2

 Molecular orbital dump at record        2100.2

 Initial alpha occupancy:   4   1
 Initial beta  occupancy:   4   1
 Wave function symmetry:    1

 ITERATION    DDIFF          GRAD             ENERGY        2-EL.EN.            DIPOLE MOMENTS         DIIS
    1      0.000D+00      0.000D+00       -40.18162425     52.892907   -0.00000    0.00000    0.00002    0
    2      0.000D+00      0.690D-02       -40.19736807     51.759752    0.00000    0.00000    0.00001    1
    3      0.150D-01      0.257D-02       -40.19933726     52.169028    0.00000    0.00000    0.00001    2
    4      0.474D-02      0.695D-03       -40.19962769     52.105840    0.00000    0.00000    0.00001    3
    5      0.159D-02      0.864D-04       -40.19963214     52.109272    0.00000    0.00000    0.00001    4
    6      0.152D-03      0.561D-05       -40.19963217     52.109172    0.00000    0.00000    0.00001    5
    7      0.193D-04      0.388D-06       -40.19963217     52.109162    0.00000    0.00000    0.00001    5
    8      0.248D-05      0.539D-07       -40.19963217     52.109162    0.00000    0.00000    0.00001    4
    9      0.504D-06      0.844D-08       -40.19963217     52.109162    0.00000    0.00000    0.00001    0

 Final occupancy:   4   1

 !RHF STATE 1.1 Energy                -40.199632167381
 Nuclear energy                        13.43538921
 One-electron energy                  -79.68960241
 Two-electron energy                   26.05458104
 Virial quotient                       -1.00209497
 !RHF STATE 1.1 Dipole moment           0.00000000     0.00000000     0.00000710
 Dipole moment /Debye                   0.00000000     0.00000000     0.00001804

 Orbital energies:

         1.1          2.1          3.1          4.1          5.1          6.1
    -11.215827    -0.943321    -0.543693    -0.543686     0.036980     0.063705

         1.2          2.2          3.2
     -0.543693     0.063705     0.146187


 **********************************************************************************************************************************
 DATASETS  * FILE   NREC   LENGTH (MB)   RECORD NAMES
              1      19        6.51       500      610      700      900      950      970     1000      129      960     1100   
                                          VAR    BASINP    GEOM    SYMINP    ZMAT    AOBASIS   BASIS     P2S    ABASIS      S 
                                         1400     1410     1200     1210     1080     1600     1650     1300     1700   
                                           T        V       H0       H01     AOSYM     SMH    MOLCAS    ERIS     OPER   

              2       3        0.33       700     1000     2100   
                                         GEOM     BASIS     RHF  

 PROGRAMS   *        TOTAL        HF       INT
 CPU TIMES  *         1.36      0.26      0.62
 REAL TIME  *         1.86 SEC
 DISK USED  *        21.33 MB      
 **********************************************************************************************************************************


 PROGRAM * OPT (Geometry optimization)     Authors: F. Eckert and H.-J. Werner


 BFGS update of hessian

 *** Long output written to logfile /home/ospite/Desktop/MMfP/Project6/CH4/molpro/HF/ch4_aug-ccpVDZ.log ***


 Geometry optimization using default procedure for command HF-SCF

 Geometry written to block  1 of record 700

 Making model hessian for Z-matrix coordinates

 Quadratic Steepest Descent - Minimum Search

 Optimization point 1

 Variable                      Last           Current        Next           Gradient       Hessian

 E(HF-SCF000) / Hartree      0.00000000   -40.19963217     0.00000000
 D / ANG                     0.00000000     1.09000000     1.08952096     0.00329218     6.87242182
 A / DEG                     0.00000000   109.47000000   109.47131261    -0.00000031     0.00023257
 T / DEG                     0.00000000   120.00000000   119.99999998     0.00000000     0.00014996
 Convergence:                0.00000000  (line search)     0.00090555     0.00174223  (total)

 Optimization point 2

 Variable                      Last           Current        Next           Gradient       Hessian

 E(HF-SCF000) / Hartree    -40.19963217   -40.19963312     0.00000000
 D / ANG                     1.09000000     1.08952096     1.08939081     0.00070333     5.40408889
 A / DEG                   109.47000000   109.47131261   109.47118794     0.00000002     0.00023322
 T / DEG                   120.00000000   119.99999998   119.99999995     0.00000000     0.00015036
 Convergence:                0.00000000  (line search)     0.00024596     0.00037219  (total)

 Optimization point 3

 Variable                      Last           Current        Next           Gradient       Hessian

 E(HF-SCF000) / Hartree    -40.19963312   -40.19963317     0.00000000
 D / ANG                     1.08952096     1.08939081     1.08939103    -0.00000119     5.41320824
 A / DEG                   109.47131261   109.47118794   109.47122297    -0.00000001     0.00023339
 T / DEG                   119.99999998   119.99999995   119.99999995    -0.00000000     0.00015048
 Convergence:                0.00000000  (line search)     0.00000074     0.00000079  (total)

 END OF GEOMETRY OPTIMIZATION.    TOTAL CPU:         7.8 SEC

 ITER.   ENERGY(OLD)    ENERGY(NEW)      DE          GRADMAX     GRADNORM    GRADRMS     STEPMAX     STEPLEN     STEPRMS
   1   -40.19963217   -40.19963312    -0.00000096  0.00174215  0.00174223  0.00058074  0.00090526  0.00090555  0.00030185
   2   -40.19963312   -40.19963317    -0.00000005  0.00037219  0.00037219  0.00012406  0.00024595  0.00024596  0.00008199
   3   -40.19963317   -40.19963317     0.00000000  0.00000063  0.00000079  0.00000026  0.00000061  0.00000074  0.00000025

 Geometry written to block  1 of record 700


 **********************************************************************************************************************************
 DATASETS  * FILE   NREC   LENGTH (MB)   RECORD NAMES
              1      19        6.46       500      610      700      900      950      970     1000      129      960     1100   
                                          VAR    BASINP    GEOM    SYMINP    ZMAT    AOBASIS   BASIS     P2S    ABASIS      S 
                                         1400     1410     1200     1210     1080     1600     1650     1300     1700   
                                           T        V       H0       H01     AOSYM     SMH    MOLCAS    ERIS     OPER   

              2       3        0.33       700     1000     2100   
                                         GEOM     BASIS     RHF  

 PROGRAMS   *        TOTAL      OPTG        HF       INT
 CPU TIMES  *         9.19      7.82      0.26      0.62
 REAL TIME  *        11.14 SEC
 DISK USED  *        21.40 MB      
 **********************************************************************************************************************************


 PROGRAM * HESSIAN

 Computing numerical hessian using default procedure for command HF-SCF

 Symmetry elements for unique displacements: Y  Z  

 Using no symmetry in wavefunction calculations

 Running default procedure: HF-SCF000


 Numerically approximating hessian using central gradient differences

 Task list generated. Total number of displacements:     14

    5 tasks completed, CPU=    16.81 sec, Elapsed=    18.98 sec
   10 tasks completed, CPU=    33.29 sec, Elapsed=    37.51 sec

 Numerical HF-SCF000 hessian completed. CPU-time:    46.33 sec, Elapsed:    52.11 sec

 HF-SCF hessian saved to record  5300.2

 FREQUENCIES * CALCULATION OF HARMONIC VIBRATIONAL SPECTRA FOR HF-SCF


 Permanent Dipole Moment [debye]
   1-  3   -0.000000    0.000000   -0.000000

 Dipole Moment Norm    0.0000001 [debye]

 Dipole Moment Derivatives [debye/ang]
                   1             2             3             4             5             6             7             8
         1     0.3766739     0.0000000     0.0000000    -0.0941907     0.0000000    -0.5224327    -0.0941907     0.0000000
         2    -0.0000000     0.3766317     0.0000000    -0.0000000     0.2752198    -0.0000000    -0.0000000     0.2752198
         3     0.0000001     0.0000000     0.3766264    -0.5224347     0.0000000    -0.4636053     0.5224347    -0.0000000
                   9            10            11            12            13            14            15
         1     0.5224327    -0.0941908    -0.5224328     0.0000000    -0.0941908     0.5224328     0.0000000
         2     0.0000000    -0.5224349    -0.4636054     0.0000000     0.5224349    -0.4636054    -0.0000000
         3    -0.4636053    -0.0000000     0.0000002     0.2752141    -0.0000000    -0.0000002     0.2752141

 Projecting out rotations and translations

   Low Vibration      Wavenumber
        Nr             [1/cm] 
        1                0.00
        2                0.00
        3                0.00
        4                0.00
        5                0.00
        6                0.00

     Vibration        Wavenumber
        Nr             [1/cm] 
        1             1423.29
        2             1423.41
        3             1423.42
        4             1637.42
        5             1637.54
        6             3152.59
        7             3265.78
        8             3265.79
        9             3265.79

 FREQUENCIES * CALCULATION OF NORMAL MODES FOR HF-SCF


 Atomic Coordinates

  Nr  Atom  Charge       X              Y              Z

   1   C     6.00    0.000000008    0.000000000    0.000000012
   2   H1    1.00    1.188562525    0.000000000    1.680881279
   3   H2    1.00    1.188562490    0.000000000   -1.680881279
   4   H3    1.00   -1.188562558   -1.680881231   -0.000000073
   5   H4    1.00   -1.188562558    1.680881231   -0.000000073

 Frequencies dumped to record   5400.2

 Gradient norm at reference geometry: 0.11947D-05

 Normal Modes

                              1 A`        2 A`        3 A``       4 A`        5 A``
 Wavenumbers [cm-1]         1423.29     1423.41     1423.42     1637.42     1637.54
 Intensities [km/mol]          8.99        8.99        8.99        0.00        0.00
 Intensities [relative]       23.19       23.19       23.19        0.00        0.00
           CX1              0.11479    -0.00000    -0.00000     0.00000    -0.00000
           CY1             -0.00000     0.00000    -0.11478    -0.00000     0.00000
           CZ1             -0.00000    -0.11478    -0.00000     0.00000     0.00000
           H1X2            -0.34196    -0.30307     0.00000     0.40664     0.00000
           H1Y2             0.00000    -0.00000     0.55625     0.00000     0.49803
           H1Z2             0.30306     0.12765    -0.00000    -0.28753    -0.00000
           H2X3            -0.34195     0.30307     0.00000     0.40664    -0.00000
           H2Y3             0.00000    -0.00000     0.55625     0.00000    -0.49803
           H2Z3            -0.30306     0.12765     0.00000     0.28753    -0.00000
           H3X4            -0.34196     0.00000    -0.30307    -0.40664     0.00000
           H3Y4             0.30306    -0.00000     0.12765     0.28753     0.00000
           H3Z4             0.00000     0.55625    -0.00000    -0.00000    -0.49803
           H4X5            -0.34196     0.00000     0.30307    -0.40664    -0.00000
           H4Y5            -0.30306     0.00000     0.12765    -0.28753     0.00000
           H4Z5             0.00000     0.55625     0.00000    -0.00000     0.49803

                              6 A`        7 A`        8 A`        9 A``
 Wavenumbers [cm-1]         3152.59     3265.78     3265.79     3265.79
 Intensities [km/mol]          0.00       38.77       38.77       38.77
 Intensities [relative]        0.00      100.00      100.00      100.00
           CX1             -0.00000     0.08802    -0.00007    -0.00000
           CY1              0.00000    -0.00000     0.00000    -0.08803
           CZ1             -0.00000    -0.00007    -0.08803    -0.00000
           H1X2             0.28753    -0.26191     0.39540     0.00000
           H1Y2             0.00000    -0.00000     0.00000    -0.01721
           H1Z2             0.40664    -0.39478     0.54199     0.00000
           H2X3             0.28753    -0.26254    -0.39499     0.00000
           H2Y3             0.00000    -0.00000     0.00000    -0.01721
           H2Z3            -0.40664     0.39563     0.54137    -0.00000
           H3X4            -0.28753    -0.26223     0.00021     0.39520
           H3Y4            -0.40664    -0.39520     0.00031     0.54168
           H3Z4            -0.00000    -0.00001    -0.01721     0.00000
           H4X5            -0.28753    -0.26223     0.00021    -0.39520
           H4Y5             0.40664     0.39520    -0.00031     0.54168
           H4Z5            -0.00000    -0.00001    -0.01721    -0.00000


 Normal Modes of low/zero frequencies

                                  1           2           3           4           5
 Wavenumbers [cm-1]            0.00        0.00        0.00        0.00        0.00
 Intensities [km/mol]          0.00        0.00        0.00        0.00        0.00
 Intensities [relative]        0.00        0.00        0.00        0.00        0.00
           CX1             -0.03389    -0.03489    -0.03455    -0.00666     0.01958
           CY1              0.18660     0.13667     0.03224     0.05562     0.04888
           CZ1             -0.11071     0.19433     0.02434    -0.09911    -0.04027
           H1X2            -0.08850    -0.09185     0.41693     0.11891    -0.11543
           H1Y2             0.11881     0.08449     0.23658    -0.14272     0.58021
           H1Z2            -0.07209     0.23461    -0.29490    -0.18791     0.05519
           H2X3             0.02073     0.02207    -0.48602    -0.13223     0.15458
           H2Y3            -0.04925     0.28840    -0.11850     0.57555     0.05107
           H2Z3            -0.07209     0.23461    -0.29490    -0.18791     0.05519
           H3X4            -0.24859     0.03551     0.00335     0.22074     0.39683
           H3Y4             0.33842     0.08689     0.00544    -0.10517    -0.21788
           H3Z4            -0.06530     0.05210     0.52112    -0.36946     0.12884
           H4X5             0.18082    -0.10529    -0.07245    -0.23406    -0.35768
           H4Y5             0.33842     0.08689     0.00544    -0.10517    -0.21788
           H4Z5            -0.23335     0.25601     0.16604     0.34881    -0.40030

                                  6
 Wavenumbers [cm-1]            0.00
 Intensities [km/mol]          0.00
 Intensities [relative]        0.00
           CX1              0.24155
           CY1              0.04810
           CZ1              0.01655
           H1X2             0.30464
           H1Y2             0.01175
           H1Z2            -0.02806
           H2X3             0.17846
           H2Y3             0.02953
           H2Z3            -0.02806
           H3X4             0.20271
           H3Y4             0.07556
           H3Z4             0.05227
           H4X5             0.28039
           H4Y5             0.07556
           H4Z5             0.07005


 Zero point energy:  0.04669112 [H]    10247.52 [1/CM]      122.59 [KJ/MOL]
 Frequency information read from record  5400.2

 Dump information in style MOLDEN to ch4_aug-ccpvdz.molpro                                                           

 Molecular orbitals read from record     2100.2  Type=RHF/CANONICAL (state 1.1)
 Occupation numbers read from record     2100.2  Type=RHF/RHF (state 1.1)
 Orbital energies read from record       2100.2  Type=RHF/CANONICAL (state 1.1)
 Redundancy group numbers read from rec  2100.2  Type=RHF/RHF (state 1.1)

 DUMP ORBITAL  1.1 AS ORBITAL    1  occ=    2.0000  eig=  -11.2155  GROUP=   2
 DUMP ORBITAL  2.1 AS ORBITAL    2  occ=    2.0000  eig=   -0.9436  GROUP=   2
 DUMP ORBITAL  3.1 AS ORBITAL    3  occ=    2.0000  eig=   -0.5438  GROUP=   2
 DUMP ORBITAL  1.2 AS ORBITAL    4  occ=    2.0000  eig=   -0.5438  GROUP=   2
 DUMP ORBITAL  4.1 AS ORBITAL    5  occ=    2.0000  eig=   -0.5438  GROUP=   2

 Total charge:      10.000000
 Frequency information read from record  5400.2

 **********************************************************************************************************************************

        OPTG(HF)        HF-SCF  
    -40.19963317    -40.19963217
 **********************************************************************************************************************************
 Variable memory released
