
 Primary working directories    : /data/scratch
 Secondary working directories  : /data/scratch
 Wavefunction directory         : /home/ospite/wfu/
 Main file repository           : /data/scratch/

 ARCHNAME  : Linux/x86_64
 FC        : /usr/bin/gfortran
 FCVERSION : 4.8.5
 BLASLIB   : 
 id        : polimi

 Nodes     nprocs
 molmod       1

 Using default tuning parameters: mindgm=1; mindgv=20; mindgc=4; mindgr=1; noblas=0; mincuda=1000; minvec=7
 default implementation of scratch files=df  

 ***,ethane
 print,basis,orbitals
 nosym
 
 angstrom
 geometry={
 C1
 C2, C1, d1
 H3, C1, d2, C2, a1
 H4, C1, d3, C2, a2, H3, t1
 H5, C1, d4, C2, a3, H3, t2
 H6, C2, d5, C1, a4, H3, t3
 H7, C2, d6, C1, a5, H6, t4
 H8, C2, d7, C1, a6, H6, t5
 }
 
 
 d1=1.54 Ang
 d2=1.09 Ang
 a1=111. Degree
 d3=1.09 Ang
 a2=111. Degree
 t1=108. Degree
 d4=1.09 Ang
 a3=111. Degree
 t2=-108. Degree
 d5=1.09 Ang
 a4=111. Degree
 t3=180. Degree
 d6=1.09 Ang
 a5=111. Degree
 t4=108. Degree
 d7=1.09 Ang
 a6=111. Degree
 t5=-108. Degree
 
 basis=6-31G(d,p)
 hf
 optg
 frequencies,analytic
 put,molden,molpro.molden
 

 Variables initialized (661), CPU time= 0.02 sec
 Commands  initialized (458), CPU time= 0.05 sec, 486 directives.
 Default parameters read. Elapsed time= 0.25 sec

 Checking input...
 Passed
1


                                         ***  PROGRAM SYSTEM MOLPRO  ***
                         Copyright, University College Cardiff Consultants Limited, 2008

                                    Version 2010.1 linked Mar  6 2018 16:01:50


 **********************************************************************************************************************************
 LABEL *   ethane                                                                        
 Linux-3.10.0-1160.108.1.el7.x86_64/molmod(x86_64) 64 bit serial version                 DATE: 12-Aug-24          TIME: 23:28:20  
 **********************************************************************************************************************************

 SHA1:             d90fb18d49a3be29a79769f900c595ef3b8176e2
 **********************************************************************************************************************************


 Variable memory set to    8000000 words,  buffer space   230000 words

 ZSYMEL=NOSYM
 ZUNIT=ANG

 SETTING D1             =         1.54000000  ANG                             
 SETTING D2             =         1.09000000  ANG                             
 SETTING A1             =       111.00000000  DEGREE                          
 SETTING D3             =         1.09000000  ANG                             
 SETTING A2             =       111.00000000  DEGREE                          
 SETTING T1             =       108.00000000  DEGREE                          
 SETTING D4             =         1.09000000  ANG                             
 SETTING A3             =       111.00000000  DEGREE                          
 SETTING T2             =      -108.00000000  DEGREE                          
 SETTING D5             =         1.09000000  ANG                             
 SETTING A4             =       111.00000000  DEGREE                          
 SETTING T3             =       180.00000000  DEGREE                          
 SETTING D6             =         1.09000000  ANG                             
 SETTING A5             =       111.00000000  DEGREE                          
 SETTING T4             =       108.00000000  DEGREE                          
 SETTING D7             =         1.09000000  ANG                             
 SETTING A6             =       111.00000000  DEGREE                          
 SETTING T5             =      -108.00000000  DEGREE                          
 SETTING BASIS          =    6-31G(D,P)


 Recomputing integrals since basis changed


 Using spherical harmonics

 Library entry C      S 6-31G                selected for orbital group  1
 Library entry C      P 6-31G                selected for orbital group  1
 Library entry C      D 6-31G*               selected for orbital group  1
 Library entry H      S 6-31G                selected for orbital group  2
 Library entry H      P 6-31G**              selected for orbital group  2

1PROGRAM * SEWARD (Integral evaluation for generally contracted gaussian basis sets)     Author: Roland Lindh, 1990

 Geometry written to block  1 of record 700

 Orientation using atomic masses  
 Molecule type: Asymmetric top
 Rotational constants:      81.2381465     19.2842641     20.3165712 GHz  (calculated with average atomic masses)

 Point group  C1  



 ATOMIC COORDINATES

 NR  ATOM    CHARGE       X              Y              Z

   1  C1      6.00    1.453578840   -0.066279014    0.000000000
   2  C2      6.00   -1.453578840    0.066279014    0.000000000
   3  H3      1.00    2.278571328    1.821092053    0.000000000
   4  H4      1.00    2.163912147   -0.693522284    1.828872501
   5  H5      1.00    2.163912147   -0.693522284   -1.828872501
   6  H6      1.00   -2.278571328   -1.821092053   -0.000000000
   7  H7      1.00   -2.163912147    0.693522284    1.828872501
   8  H8      1.00   -2.163912147    0.693522284   -1.828872501

 Bond lengths in Bohr (Angstrom)

 1-2  2.910178242  1-3  2.059801483  1-4  2.059801483  1-5  2.059801483  2-6  2.059801483
     ( 1.540000000)     ( 1.090000000)     ( 1.090000000)     ( 1.090000000)     ( 1.090000000)

 2-7  2.059801483  2-8  2.059801483
     ( 1.090000000)     ( 1.090000000)

 Bond angles

  1-2-6  111.00000000   1-2-7  111.00000000   1-2-8  111.00000000   2-1-3  111.00000000

  2-1-4  111.00000000   2-1-5  111.00000000   3-1-4   98.10010812   3-1-5   98.10010812

  4-1-5  125.21802140   6-2-7   98.10010812   6-2-8   98.10010812   7-2-8  125.21802140


 BASIS DATA

   Nr Sym  Nuc  Type         Exponents   Contraction coefficients

   1.1 A     1  1s         3047.524900     0.001835
                            457.369520     0.014037
                            103.948680     0.068843
                             29.210155     0.232184
                              9.286663     0.467941
                              3.163927     0.362312
   2.1 A     1  1s            7.868272    -0.119332
                              1.881288    -0.160854
                              0.544249     1.143456
   3.1 A     1  1s            0.168714     1.000000
   4.1 A     1  2px           7.868272     0.068999
                              1.881288     0.316424
                              0.544249     0.744308
   5.1 A     1  2py           7.868272     0.068999
                              1.881288     0.316424
                              0.544249     0.744308
   6.1 A     1  2pz           7.868272     0.068999
                              1.881288     0.316424
                              0.544249     0.744308
   7.1 A     1  2px           0.168714     1.000000
   8.1 A     1  2py           0.168714     1.000000
   9.1 A     1  2pz           0.168714     1.000000
  10.1 A     1  3d0           0.800000     1.000000
  11.1 A     1  3d2-          0.800000     1.000000
  12.1 A     1  3d1+          0.800000     1.000000
  13.1 A     1  3d2+          0.800000     1.000000
  14.1 A     1  3d1-          0.800000     1.000000
  15.1 A     2  1s         3047.524900     0.001835
                            457.369520     0.014037
                            103.948680     0.068843
                             29.210155     0.232184
                              9.286663     0.467941
                              3.163927     0.362312
  16.1 A     2  1s            7.868272    -0.119332
                              1.881288    -0.160854
                              0.544249     1.143456
  17.1 A     2  1s            0.168714     1.000000
  18.1 A     2  2px           7.868272     0.068999
                              1.881288     0.316424
                              0.544249     0.744308
  19.1 A     2  2py           7.868272     0.068999
                              1.881288     0.316424
                              0.544249     0.744308
  20.1 A     2  2pz           7.868272     0.068999
                              1.881288     0.316424
                              0.544249     0.744308
  21.1 A     2  2px           0.168714     1.000000
  22.1 A     2  2py           0.168714     1.000000
  23.1 A     2  2pz           0.168714     1.000000
  24.1 A     2  3d0           0.800000     1.000000
  25.1 A     2  3d2-          0.800000     1.000000
  26.1 A     2  3d1+          0.800000     1.000000
  27.1 A     2  3d2+          0.800000     1.000000
  28.1 A     2  3d1-          0.800000     1.000000
  29.1 A     3  1s           18.731137     0.033495
                              2.825394     0.234727
                              0.640122     0.813757
  30.1 A     3  1s            0.161278     1.000000
  31.1 A     3  2px           1.100000     1.000000
  32.1 A     3  2py           1.100000     1.000000
  33.1 A     3  2pz           1.100000     1.000000
  34.1 A     4  1s           18.731137     0.033495
                              2.825394     0.234727
                              0.640122     0.813757
  35.1 A     4  1s            0.161278     1.000000
  36.1 A     4  2px           1.100000     1.000000
  37.1 A     4  2py           1.100000     1.000000
  38.1 A     4  2pz           1.100000     1.000000
  39.1 A     5  1s           18.731137     0.033495
                              2.825394     0.234727
                              0.640122     0.813757
  40.1 A     5  1s            0.161278     1.000000
  41.1 A     5  2px           1.100000     1.000000
  42.1 A     5  2py           1.100000     1.000000
  43.1 A     5  2pz           1.100000     1.000000
  44.1 A     6  1s           18.731137     0.033495
                              2.825394     0.234727
                              0.640122     0.813757
  45.1 A     6  1s            0.161278     1.000000
  46.1 A     6  2px           1.100000     1.000000
  47.1 A     6  2py           1.100000     1.000000
  48.1 A     6  2pz           1.100000     1.000000
  49.1 A     7  1s           18.731137     0.033495
                              2.825394     0.234727
                              0.640122     0.813757
  50.1 A     7  1s            0.161278     1.000000
  51.1 A     7  2px           1.100000     1.000000
  52.1 A     7  2py           1.100000     1.000000
  53.1 A     7  2pz           1.100000     1.000000
  54.1 A     8  1s           18.731137     0.033495
                              2.825394     0.234727
                              0.640122     0.813757
  55.1 A     8  1s            0.161278     1.000000
  56.1 A     8  2px           1.100000     1.000000
  57.1 A     8  2py           1.100000     1.000000
  58.1 A     8  2pz           1.100000     1.000000

 NUCLEAR CHARGE:                   18
 NUMBER OF PRIMITIVE AOS:          98
 NUMBER OF SYMMETRY AOS:           96
 NUMBER OF CONTRACTIONS:           58   (  58A   )
 NUMBER OF CORE ORBITALS:           2   (   2A   )
 NUMBER OF VALENCE ORBITALS:       14   (  14A   )


 NUCLEAR REPULSION ENERGY   42.17418967


 Eigenvalues of metric

         1 0.895E-02 0.237E-01 0.270E-01 0.479E-01 0.548E-01 0.657E-01 0.692E-01 0.164E+00


 Contracted 2-electron integrals neglected if value below      1.0D-11
 AO integral compression algorithm  1   Integral accuracy      1.0D-11

     6.816 MB (compressed) written to integral file ( 49.7%)


 NUMBER OF SORTED TWO-ELECTRON INTEGRALS:    1464616.     BUFFER LENGTH:  32768
 NUMBER OF SEGMENTS:   1  SEGMENT LENGTH:    1464616      RECORD LENGTH: 524288

 Memory used in sort:       2.02 MW

 SORT1 READ     1694127. AND WROTE     1311946. INTEGRALS IN      4 RECORDS. CPU TIME:     0.09 SEC, REAL TIME:     0.13 SEC
 SORT2 READ     1311946. AND WROTE     1464616. INTEGRALS IN     26 RECORDS. CPU TIME:     0.33 SEC, REAL TIME:     0.40 SEC

 FILE SIZES:   FILE 1:     9.6 MBYTE,  FILE 4:    16.8 MBYTE,   TOTAL:     26.4 MBYTE

 OPERATOR DM      FOR CENTER  0  COORDINATES:    0.000000    0.000000    0.000000


 **********************************************************************************************************************************
 DATASETS  * FILE   NREC   LENGTH (MB)   RECORD NAMES
              1      19        8.43       500      610      700      900      950      970     1000      129      960     1100   
                                          VAR    BASINP    GEOM    SYMINP    ZMAT    AOBASIS   BASIS     P2S    ABASIS      S 
                                         1400     1410     1200     1210     1080     1600     1650     1300     1700   
                                           T        V       H0       H01     AOSYM     SMH    MOLCAS    ERIS     OPER   

 PROGRAMS   *        TOTAL       INT
 CPU TIMES  *         1.58      1.06
 REAL TIME  *         2.18 SEC
 DISK USED  *        27.08 MB      
 **********************************************************************************************************************************

1PROGRAM * RHF-SCF (CLOSED SHELL)       Authors: W. Meyer, H.-J. Werner


 NUMBER OF ELECTRONS:       9+    9-    SPACE SYMMETRY=1    SPIN SYMMETRY: Singlet 
 CONVERGENCE THRESHOLDS:    1.00E-06 (Density)    1.00E-07 (Energy)
 MAX. NUMBER OF ITERATIONS:       60
 INTERPOLATION TYPE:            DIIS
 INTERPOLATION STEPS:              2 (START)      1 (STEP)
 LEVEL SHIFTS:                  0.00 (CLOSED)  0.00 (OPEN) 




   Atom=C  basis=cc-pVTZ           lmin=0  lmax=1
   Atom=H  basis=cc-pVTZ           lmin=0  lmax=1

 Orbital guess generated from atomic densities. Full valence occupancy:    9

 Molecular orbital dump at record        2100.2

 ITERATION    DDIFF          GRAD             ENERGY        2-EL.EN.            DIPOLE MOMENTS         DIIS
    1      0.000D+00      0.000D+00       -79.18350825    136.701999   -0.00000    0.00000    0.00000    0
    2      0.000D+00      0.682D-02       -79.21014173    134.300954   -0.00000    0.00000    0.00000    1
    3      0.636D-02      0.274D-02       -79.21365871    135.166282   -0.00000    0.00000    0.00000    2
    4      0.190D-02      0.704D-03       -79.21411605    135.003092   -0.00000   -0.00000    0.00000    3
    5      0.110D-02      0.860D-04       -79.21412342    135.005483   -0.00000   -0.00000    0.00000    4
    6      0.188D-03      0.990D-05       -79.21412353    135.005331   -0.00000   -0.00000    0.00000    5
    7      0.217D-04      0.185D-05       -79.21412353    135.005268   -0.00000    0.00000    0.00000    6
    8      0.346D-05      0.335D-06       -79.21412353    135.005279   -0.00000    0.00000   -0.00000    5
    9      0.678D-06      0.529D-07       -79.21412353    135.005277   -0.00000   -0.00000    0.00000    0

 Final occupancy:   9

 !RHF STATE 1.1 Energy                -79.214123533281
 Nuclear energy                        42.17418967
 One-electron energy                 -188.89095148
 Two-electron energy                   67.50263827
 Virial quotient                       -1.00034589
 !RHF STATE 1.1 Dipole moment          -0.00000000    -0.00000000     0.00000000
 Dipole moment /Debye                  -0.00000000    -0.00000000     0.00000000

 ELECTRON ORBITALS
 =================


   Orb  Occ    Energy  Couls-En    Coefficients

                                   1 1s      1 1s      1 1s      1 2px     1 2py     1 2pz     1 2px     1 2py     1 2pz     1 3d0  
                                   1 3d2-    1 3d1+    1 3d2+    1 3d1-    2 1s      2 1s      2 1s      2 2px     2 2py     2 2pz  
                                   2 2px     2 2py     2 2pz     2 3d0     2 3d2-    2 3d1+    2 3d2+    2 3d1-    3 1s      3 1s   
                                   3 2px     3 2py     3 2pz     4 1s      4 1s      4 2px     4 2py     4 2pz     5 1s      5 1s   
                                   5 2px     5 2py     5 2pz     6 1s      6 1s      6 2px     6 2py     6 2pz     7 1s      7 1s   
                                   7 2px     7 2py     7 2pz     8 1s      8 1s      8 2px     8 2py     8 2pz  

   1.1   2   -11.2131  -33.3886  0.704353  0.018086 -0.009157  0.000188  0.000220 -0.000000 -0.000854 -0.000986 -0.000000  0.000411
                                 0.000114 -0.000000 -0.000283  0.000000  0.704353  0.018086 -0.009157 -0.000188 -0.000220 -0.000000
                                 0.000854  0.000986  0.000000  0.000411  0.000114 -0.000000 -0.000283 -0.000000 -0.000140  0.002478
                                 0.000020  0.000319  0.000000 -0.000316  0.001866  0.000104 -0.000136  0.000326 -0.000316  0.001866
                                 0.000104 -0.000136 -0.000326 -0.000140  0.002478 -0.000020 -0.000319  0.000000 -0.000316  0.001866
                                -0.000104  0.000136  0.000326 -0.000316  0.001866 -0.000104  0.000136 -0.000326

   2.1   2   -11.2126  -33.3884  0.704454  0.018531 -0.014444  0.000137  0.000184 -0.000000  0.002041 -0.000598  0.000000  0.000120
                                -0.000011 -0.000000  0.000139 -0.000000 -0.704454 -0.018531  0.014444  0.000137  0.000184  0.000000
                                 0.002041 -0.000598 -0.000000 -0.000120  0.000011  0.000000 -0.000139  0.000000  0.000137  0.001953
                                 0.000051  0.000305 -0.000000 -0.000025  0.001771  0.000120 -0.000140  0.000304 -0.000025  0.001771
                                 0.000120 -0.000140 -0.000304 -0.000137 -0.001953  0.000051  0.000305  0.000000  0.000025 -0.001771
                                 0.000120 -0.000140 -0.000304  0.000025 -0.001771  0.000120 -0.000140  0.000304

   3.1   2    -1.0164   -9.0130 -0.145434  0.272457  0.233018 -0.056400  0.014220  0.000000 -0.009268  0.008421  0.000000 -0.002441
                                 0.000284 -0.000000  0.009086 -0.000000 -0.145434  0.272457  0.233018  0.056400 -0.014220  0.000000
                                 0.009268 -0.008421 -0.000000 -0.002441  0.000284  0.000000  0.009086 -0.000000  0.090953  0.020244
                                -0.004020 -0.008529 -0.000000  0.088129  0.023242 -0.003551  0.002783 -0.007842  0.088129  0.023242
                                -0.003551  0.002783  0.007842  0.090953  0.020244  0.004020  0.008529  0.000000  0.088129  0.023242
                                 0.003551 -0.002783 -0.007842  0.088129  0.023242  0.003551 -0.002783  0.007842

   4.1   2    -0.8468   -8.0902 -0.126272  0.236471  0.265208  0.122906  0.025372 -0.000000  0.028260  0.009382 -0.000000  0.008121
                                 0.002905  0.000000 -0.008479  0.000000  0.126272 -0.236471 -0.265208  0.122906  0.025372 -0.000000
                                 0.028260  0.009382  0.000000 -0.008121 -0.002905 -0.000000  0.008479  0.000000  0.127924  0.054716
                                -0.002637 -0.010282  0.000000  0.115282  0.050275 -0.001839  0.003674 -0.008841  0.115282  0.050275
                                -0.001839  0.003674  0.008841 -0.127924 -0.054716 -0.002637 -0.010282 -0.000000 -0.115282 -0.050275
                                -0.001839  0.003674  0.008841 -0.115282 -0.050275 -0.001839  0.003674 -0.008841

   5.1   2    -0.6253   -7.5953 -0.000000 -0.000000  0.000000  0.000000  0.000000  0.302509 -0.000000 -0.000000  0.135044 -0.000000
                                 0.000000  0.005927  0.000000 -0.010124  0.000000  0.000000 -0.000000 -0.000000  0.000000  0.302509
                                -0.000000  0.000000  0.135044  0.000000  0.000000 -0.005927 -0.000000  0.010124 -0.000000 -0.000000
                                 0.000000 -0.000000  0.005242  0.159689  0.114899 -0.004304  0.003647 -0.006177 -0.159689 -0.114899
                                 0.004304 -0.003647 -0.006177 -0.000000 -0.000000 -0.000000 -0.000000  0.005242  0.159689  0.114899
                                 0.004304 -0.003647 -0.006177 -0.159689 -0.114899 -0.004304  0.003647 -0.006177

   6.1   2    -0.5564   -7.4612  0.014239 -0.032448 -0.020279 -0.001982  0.307119 -0.000000 -0.010067  0.153501 -0.000000 -0.016628
                                 0.003668  0.000000 -0.009280  0.000000 -0.014239  0.032448  0.020279 -0.001982  0.307119  0.000000
                                -0.010067  0.153501  0.000000  0.016628 -0.003668 -0.000000  0.009280  0.000000  0.173860  0.155757
                                -0.004988 -0.005536  0.000000 -0.091632 -0.085530  0.002710  0.004088  0.004890 -0.091632 -0.085530
                                 0.002710  0.004088 -0.004890 -0.173860 -0.155757 -0.004988 -0.005536 -0.000000  0.091632  0.085530
                                 0.002710  0.004088 -0.004890  0.091632  0.085530  0.002710  0.004088  0.004890

   7.1   2    -0.5187   -7.2265 -0.000000 -0.000000  0.000000 -0.000000  0.000000  0.304243 -0.000000  0.000000  0.171958 -0.000000
                                 0.000000  0.021628 -0.000000 -0.013834 -0.000000 -0.000000  0.000000  0.000000  0.000000 -0.304243
                                -0.000000 -0.000000 -0.171958  0.000000  0.000000  0.021628  0.000000 -0.013834  0.000000 -0.000000
                                 0.000000  0.000000  0.005532  0.183419  0.157963 -0.003380  0.003713 -0.006505 -0.183419 -0.157963
                                 0.003380 -0.003713 -0.006505 -0.000000 -0.000000  0.000000 -0.000000 -0.005532 -0.183419 -0.157963
                                -0.003380  0.003713  0.006505  0.183419  0.157963  0.003380 -0.003713  0.006505

   8.1   2    -0.5095   -8.1687  0.018920 -0.041321 -0.055979  0.390494  0.060113  0.000000  0.194638  0.033086  0.000000  0.009954
                                 0.008970  0.000000 -0.022085 -0.000000  0.018920 -0.041321 -0.055979 -0.390494 -0.060113 -0.000000
                                -0.194638 -0.033086  0.000000  0.009954  0.008970 -0.000000 -0.022085 -0.000000  0.123264  0.118136
                                 0.003323 -0.006728 -0.000000  0.060517  0.056761  0.004777  0.003081 -0.003697  0.060517  0.056761
                                 0.004777  0.003081  0.003697  0.123264  0.118136 -0.003323  0.006728  0.000000  0.060517  0.056761
                                -0.004777 -0.003081 -0.003697  0.060517  0.056761 -0.004777 -0.003081  0.003697

   9.1   2    -0.4440   -7.0564  0.002412 -0.006138 -0.001156 -0.084817  0.297176 -0.000000 -0.045440  0.174473 -0.000000 -0.023964
                                 0.020210 -0.000000 -0.007137  0.000000  0.002412 -0.006138 -0.001156  0.084817 -0.297176  0.000000
                                 0.045440 -0.174473 -0.000000 -0.023964  0.020210  0.000000 -0.007137 -0.000000  0.191861  0.213616
                                -0.005176 -0.004915 -0.000000 -0.116549 -0.139393  0.001173  0.004044  0.005256 -0.116549 -0.139393
                                 0.001173  0.004044 -0.005256  0.191861  0.213616  0.005176  0.004915  0.000000 -0.116549 -0.139393
                                -0.001173 -0.004044  0.005256 -0.116549 -0.139393 -0.001173 -0.004044 -0.005256


 **********************************************************************************************************************************
 DATASETS  * FILE   NREC   LENGTH (MB)   RECORD NAMES
              1      19        8.43       500      610      700      900      950      970     1000      129      960     1100   
                                          VAR    BASINP    GEOM    SYMINP    ZMAT    AOBASIS   BASIS     P2S    ABASIS      S 
                                         1400     1410     1200     1210     1080     1600     1650     1300     1700   
                                           T        V       H0       H01     AOSYM     SMH    MOLCAS    ERIS     OPER   

              2       3        0.43       700     1000     2100   
                                         GEOM     BASIS     RHF  

 PROGRAMS   *        TOTAL        HF       INT
 CPU TIMES  *         2.15      0.56      1.06
 REAL TIME  *         2.97 SEC
 DISK USED  *        27.08 MB      
 **********************************************************************************************************************************


 PROGRAM * OPT (Geometry optimization)     Authors: F. Eckert and H.-J. Werner


 BFGS update of hessian

 *** Long output written to logfile /home/ospite/QM/c2h6/c2h6.log ***


 Geometry optimization using default procedure for command HF-SCF

 Geometry written to block  1 of record 700

 Making model hessian for Z-matrix coordinates

 Quadratic Steepest Descent - Minimum Search

 Optimization point 1

 Variable                      Last           Current        Next           Gradient       Hessian

 E(HF-SCF000) / Hartree      0.00000000   -79.21412353     0.00000000
 D1 / ANG                    0.00000000     1.54000000     1.53018581     0.01587433     1.56012238
 D2 / ANG                    0.00000000     1.09000000     1.09507477    -0.00907931     1.72600268
 A1 / DEGREE                 0.00000000   111.00000000   107.15191413     0.00047791     0.00005128
 D3 / ANG                    0.00000000     1.09000000     1.08499052     0.00889530     1.72481383
 A2 / DEGREE                 0.00000000   111.00000000   112.11703808    -0.00027568     0.00006254
 T1 / DEGREE                 0.00000000   108.00000000   120.41621262    -0.00095331     0.00004759
 D4 / ANG                    0.00000000     1.09000000     1.08499052     0.00889530     1.72481383
 A3 / DEGREE                 0.00000000   111.00000000   112.11703808    -0.00027568     0.00006254
 T2 / DEGREE                 0.00000000  -108.00000000  -120.41621262     0.00095331     0.00004759
 D5 / ANG                    0.00000000     1.09000000     1.09507477    -0.00907931     1.72600268
 A4 / DEGREE                 0.00000000   111.00000000   107.15191413     0.00047791     0.00005128
 T3 / DEGREE                 0.00000000   180.00000000   180.00000000     0.00000000     0.00000000
 D6 / ANG                    0.00000000     1.09000000     1.08499052     0.00889530     1.72481383
 A5 / DEGREE                 0.00000000   111.00000000   112.11703808    -0.00027568     0.00006254
 T4 / DEGREE                 0.00000000   108.00000000   120.41621262    -0.00095331     0.00004759
 D7 / ANG                    0.00000000     1.09000000     1.08499052     0.00889530     1.72481383
 A6 / DEGREE                 0.00000000   111.00000000   112.11703808    -0.00027568     0.00006254
 T5 / DEGREE                 0.00000000  -108.00000000  -120.41621262     0.00095331     0.00004759
 Convergence:                0.00000000  (line search)     0.44639698     0.12098173  (total)

 Optimization point 2

 Variable                      Last           Current        Next           Gradient       Hessian

 E(HF-SCF000) / Hartree    -79.21412353   -79.23639413     0.00000000
 D1 / ANG                    1.54000000     1.53018581     1.52977177    -0.00144481     1.61226290
 D2 / ANG                    1.09000000     1.09507477     1.08916529     0.01151939     1.70652175
 A1 / DEGREE               111.00000000   107.15191413   112.89288403    -0.00035815     0.00006448
 D3 / ANG                    1.09000000     1.08499052     1.08494386    -0.00017236     1.75198549
 A2 / DEGREE               111.00000000   112.11703808   110.62696803     0.00006356     0.00005819
 T1 / DEGREE               108.00000000   120.41621262   120.85872080     0.00013597     0.00005712
 D4 / ANG                    1.09000000     1.08499052     1.08494386    -0.00017236     1.75198549
 A3 / DEGREE               111.00000000   112.11703808   110.62696803     0.00006356     0.00005819
 T2 / DEGREE              -108.00000000  -120.41621262  -120.85872080    -0.00013597     0.00005712
 D5 / ANG                    1.09000000     1.09507477     1.08916529     0.01151939     1.70652175
 A4 / DEGREE               111.00000000   107.15191413   112.89288403    -0.00035815     0.00006448
 T3 / DEGREE               180.00000000   180.00000000   180.00000000     0.00000000     0.00000000
 D6 / ANG                    1.09000000     1.08499052     1.08494386    -0.00017236     1.75198549
 A5 / DEGREE               111.00000000   112.11703808   110.62696803     0.00006356     0.00005819
 T4 / DEGREE               108.00000000   120.41621262   120.85872080     0.00013597     0.00005712
 D7 / ANG                    1.09000000     1.08499052     1.08494386    -0.00017236     1.75198549
 A6 / DEGREE               111.00000000   112.11703808   110.62696803     0.00006356     0.00005819
 T5 / DEGREE              -108.00000000  -120.41621262  -120.85872080    -0.00013597     0.00005712
 Convergence:                0.00000000  (line search)     0.15255701     0.03482703  (total)

 Optimization point 3

 Variable                      Last           Current        Next           Gradient       Hessian

 E(HF-SCF000) / Hartree    -79.23639413   -79.23787647     0.00000000
 D1 / ANG                    1.53018581     1.52977177     1.52794413     0.00452625     1.61750609
 D2 / ANG                    1.09507477     1.08916529     1.08636735     0.00569515     1.70832981
 A1 / DEGREE               107.15191413   112.89288403   111.17247584     0.00010587     0.00007348
 D3 / ANG                    1.08499052     1.08494386     1.08580480    -0.00186293     1.75365923
 A2 / DEGREE               112.11703808   110.62696803   111.33586381    -0.00002340     0.00006255
 T1 / DEGREE               120.41621262   120.85872080   119.65723617     0.00003703     0.00005475
 D4 / ANG                    1.08499052     1.08494386     1.08580480    -0.00186293     1.75365923
 A3 / DEGREE               112.11703808   110.62696803   111.33586381    -0.00002340     0.00006255
 T2 / DEGREE              -120.41621262  -120.85872080  -119.65723617    -0.00003703     0.00005475
 D5 / ANG                    1.09507477     1.08916529     1.08636735     0.00569515     1.70832981
 A4 / DEGREE               107.15191413   112.89288403   111.17247584     0.00010587     0.00007348
 T3 / DEGREE               180.00000000   180.00000000   180.00000000     0.00000000     0.00000000
 D6 / ANG                    1.08499052     1.08494386     1.08580480    -0.00186293     1.75365923
 A5 / DEGREE               112.11703808   110.62696803   111.33586381    -0.00002340     0.00006255
 T4 / DEGREE               120.41621262   120.85872080   119.65723617     0.00003703     0.00005475
 D7 / ANG                    1.08499052     1.08494386     1.08580480    -0.00186293     1.75365923
 A6 / DEGREE               112.11703808   110.62696803   111.33586381    -0.00002340     0.00006255
 T5 / DEGREE              -120.41621262  -120.85872080  -119.65723617    -0.00003703     0.00005475
 Convergence:                0.00000000  (line search)     0.06521431     0.01125088  (total)

 Optimization point 4

 Variable                      Last           Current        Next           Gradient       Hessian

 E(HF-SCF000) / Hartree    -79.23787647   -79.23815435     0.00000000
 D1 / ANG                    1.52977177     1.52794413     1.52689420     0.00190187     1.60393874
 D2 / ANG                    1.08916529     1.08636735     1.08610683     0.00031831     1.71173393
 A1 / DEGREE               112.89288403   111.17247584   111.14846308     0.00001264     0.00006831
 D3 / ANG                    1.08494386     1.08580480     1.08574723     0.00018896     1.74901191
 A2 / DEGREE               110.62696803   111.33586381   111.19240190     0.00000563     0.00006266
 T1 / DEGREE               120.85872080   119.65723617   120.01372854    -0.00002723     0.00005817
 D4 / ANG                    1.08494386     1.08580480     1.08574723     0.00018896     1.74901191
 A3 / DEGREE               110.62696803   111.33586381   111.19240190     0.00000563     0.00006266
 T2 / DEGREE              -120.85872080  -119.65723617  -120.01372866     0.00002723     0.00005817
 D5 / ANG                    1.08916529     1.08636735     1.08610683     0.00031831     1.71173393
 A4 / DEGREE               112.89288403   111.17247584   111.14846308     0.00001264     0.00006831
 T3 / DEGREE               180.00000000   180.00000000   180.00000000     0.00000000     0.00000000
 D6 / ANG                    1.08494386     1.08580480     1.08574723     0.00018896     1.74901191
 A5 / DEGREE               110.62696803   111.33586381   111.19240190     0.00000563     0.00006266
 T4 / DEGREE               120.85872080   119.65723617   120.01372866    -0.00002723     0.00005817
 D7 / ANG                    1.08494386     1.08580480     1.08574723     0.00018896     1.74901191
 A6 / DEGREE               110.62696803   111.33586381   111.19240190     0.00000563     0.00006266
 T5 / DEGREE              -120.85872080  -119.65723617  -120.01372854     0.00002723     0.00005817
 Convergence:                0.00000000  (line search)     0.01359225     0.00350849  (total)

 Optimization point 5

 Variable                      Last           Current        Next           Gradient       Hessian

 E(HF-SCF000) / Hartree    -79.23815435   -79.23817442     0.00000000
 D1 / ANG                    1.52794413     1.52689420     1.52683253     0.00000199     1.60105381
 D2 / ANG                    1.08636735     1.08610683     1.08586377     0.00042730     1.71103780
 A1 / DEGREE               111.17247584   111.14846308   111.21925290    -0.00000669     0.00007238
 D3 / ANG                    1.08580480     1.08574723     1.08577152    -0.00004534     1.74976521
 A2 / DEGREE               111.33586381   111.19240190   111.21825597    -0.00000255     0.00006333
 T1 / DEGREE               119.65723617   120.01372854   120.00306770     0.00000226     0.00005932
 D4 / ANG                    1.08580480     1.08574723     1.08577152    -0.00004534     1.74976521
 A3 / DEGREE               111.33586381   111.19240190   111.21825582    -0.00000255     0.00006333
 T2 / DEGREE              -119.65723617  -120.01372866  -120.00306768    -0.00000226     0.00005932
 D5 / ANG                    1.08636735     1.08610683     1.08586377     0.00042730     1.71103780
 A4 / DEGREE               111.17247584   111.14846308   111.21925290    -0.00000669     0.00007238
 T3 / DEGREE               180.00000000   180.00000000   180.00000000     0.00000000     0.00000000
 D6 / ANG                    1.08580480     1.08574723     1.08577152    -0.00004534     1.74976521
 A5 / DEGREE               111.33586381   111.19240190   111.21825582    -0.00000255     0.00006333
 T4 / DEGREE               119.65723617   120.01372866   120.00306768     0.00000226     0.00005932
 D7 / ANG                    1.08580480     1.08574723     1.08577152    -0.00004534     1.74976521
 A6 / DEGREE               111.33586381   111.19240190   111.21825597    -0.00000255     0.00006333
 T5 / DEGREE              -119.65723617  -120.01372854  -120.00306770    -0.00000226     0.00005932
 Convergence:                0.00000000  (line search)     0.00210948     0.00074255  (total)

 Optimization point 6

 Variable                      Last           Current        Next           Gradient       Hessian

 E(HF-SCF000) / Hartree    -79.23817442   -79.23817518     0.00000000
 D1 / ANG                    1.52689420     1.52683253     1.52670841     0.00019494     1.62565381
 D2 / ANG                    1.08610683     1.08586377     1.08580723     0.00008179     1.67032201
 A1 / DEGREE               111.14846308   111.21925290   111.21747887     0.00000027     0.00007475
 D3 / ANG                    1.08574723     1.08577152     1.08579741    -0.00004299     1.74827881
 A2 / DEGREE               111.19240190   111.21825597   111.21597769     0.00000033     0.00006456
 T1 / DEGREE               120.01372854   120.00306770   119.99896644     0.00000031     0.00005844
 D4 / ANG                    1.08574723     1.08577152     1.08579741    -0.00004299     1.74827881
 A3 / DEGREE               111.19240190   111.21825582   111.21597760     0.00000033     0.00006456
 T2 / DEGREE              -120.01372866  -120.00306768  -119.99896635    -0.00000031     0.00005844
 D5 / ANG                    1.08610683     1.08586377     1.08580723     0.00008179     1.67032201
 A4 / DEGREE               111.14846308   111.21925290   111.21747887     0.00000027     0.00007475
 T3 / DEGREE               180.00000000   180.00000000   180.00000000     0.00000000     0.00000000
 D6 / ANG                    1.08574723     1.08577152     1.08579741    -0.00004299     1.74827881
 A5 / DEGREE               111.19240190   111.21825582   111.21597760     0.00000033     0.00006456
 T4 / DEGREE               120.01372866   120.00306768   119.99896635     0.00000031     0.00005844
 D7 / ANG                    1.08574723     1.08577152     1.08579741    -0.00004299     1.74827881
 A6 / DEGREE               111.19240190   111.21825597   111.21597769     0.00000033     0.00006456
 T5 / DEGREE              -120.01372854  -120.00306770  -119.99896644    -0.00000031     0.00005844
 Convergence:                0.00000000  (line search)     0.00034083     0.00014005  (total)

 END OF GEOMETRY OPTIMIZATION.    TOTAL CPU:        19.3 SEC

 ITER.   ENERGY(OLD)    ENERGY(NEW)      DE          GRADMAX     GRADNORM    GRADRMS     STEPMAX     STEPLEN     STEPRMS
   1   -79.21412353   -79.23639413    -0.02227060  0.05462077  0.12098173  0.00672121  0.21670379  0.44639698  0.02479983
   2   -79.23639413   -79.23787647    -0.00148234  0.02052023  0.03482703  0.00193484  0.10019883  0.15255701  0.00847539
   3   -79.23787647   -79.23815435    -0.00027788  0.00606611  0.01125088  0.00062505  0.03002679  0.06521431  0.00362302
   4   -79.23815435   -79.23817442    -0.00002007  0.00156006  0.00350849  0.00019492  0.00622197  0.01359225  0.00075512
   5   -79.23817442   -79.23817518    -0.00000076  0.00038352  0.00074255  0.00004125  0.00123552  0.00210948  0.00011719
   6   -79.23817518   -79.23817520    -0.00000003  0.00010316  0.00014005  0.00000778  0.00023455  0.00034083  0.00001893

 Geometry written to block  1 of record 700


 **********************************************************************************************************************************
 DATASETS  * FILE   NREC   LENGTH (MB)   RECORD NAMES
              1      19        8.56       500      610      700      900      950      970     1000      129      960     1100   
                                          VAR    BASINP    GEOM    SYMINP    ZMAT    AOBASIS   BASIS     P2S    ABASIS      S 
                                         1400     1410     1200     1210     1080     1600     1650     1300     1700   
                                           T        V       H0       H01     AOSYM     SMH    MOLCAS    ERIS     OPER   

              2       3        0.43       700     1000     2100   
                                         GEOM     BASIS     RHF  

 PROGRAMS   *        TOTAL      OPTG        HF       INT
 CPU TIMES  *        21.45     19.30      0.56      1.06
 REAL TIME  *        25.18 SEC
 DISK USED  *        27.44 MB      
 **********************************************************************************************************************************


 PROGRAM * HESSIAN

 PROGRAM * MCKINLEY (Hessian of the energy)     Author: A. Bernhardsson, R. Lindh

 Orbitals from record         2100.2

 Number of closed-shell orbitals:  9 (  9 )
 Number of occupied orbitals:      9 (  9 )

 Number of electrons= 18     Singlet     Space symmetry=1      Wavefunction type: CLOSED          


 McKinley needed     19.65 seconds of CPU time

 Entering CPHF calculation

 CPHF needed 166 iterations for 24 perturbations.  Total CPU time:    9.89 sec


 HF-SCF hessian saved to record  5300.2

 FREQUENCIES * CALCULATION OF HARMONIC VIBRATIONAL SPECTRA FOR HF-SCF


 Permanent Dipole Moment [debye]
   1-  3    0.000000    0.000000    0.000000

 Dipole Moment Norm    0.0000000 [debye]

 Dipole Moment Derivatives [debye/ang]
                   1             2             3             4             5             6             7             8
         1     0.0000000     0.0000000     0.0000000     0.0000000     0.0000000     0.0000000     0.0000000     0.0000000
         2     0.0000000     0.0000000     0.0000000     0.0000000     0.0000000     0.0000000     0.0000000     0.0000000
         3     0.0000000     0.0000000     0.0000000     0.0000000     0.0000000     0.0000000     0.0000000     0.0000000
                   9            10            11            12            13            14            15            16
         1     0.0000000     0.0000000     0.0000000     0.0000000     0.0000000     0.0000000     0.0000000     0.0000000
         2     0.0000000     0.0000000     0.0000000     0.0000000     0.0000000     0.0000000     0.0000000     0.0000000
         3     0.0000000     0.0000000     0.0000000     0.0000000     0.0000000     0.0000000     0.0000000     0.0000000
                  17            18            19            20            21            22            23            24
         1     0.0000000     0.0000000     0.0000000     0.0000000     0.0000000     0.0000000     0.0000000     0.0000000
         2     0.0000000     0.0000000     0.0000000     0.0000000     0.0000000     0.0000000     0.0000000     0.0000000
         3     0.0000000     0.0000000     0.0000000     0.0000000     0.0000000     0.0000000     0.0000000     0.0000000

 Projecting out rotations and translations

   Low Vibration      Wavenumber
        Nr             [1/cm] 
        1                0.00
        2                0.00
        3                0.00
        4                0.00
        5                0.00
        6                0.00

     Vibration        Wavenumber
        Nr             [1/cm] 
        1              327.54
        2              884.78
        3              884.79
        4             1058.44
        5             1328.72
        6             1328.73
        7             1531.34
        8             1564.13
        9             1627.17
       10             1627.19
       11             1632.21
       12             1632.23
       13             3178.96
       14             3184.59
       15             3232.84
       16             3232.91
       17             3257.83
       18             3257.90

 FREQUENCIES * CALCULATION OF NORMAL MODES FOR HF-SCF


 Atomic Coordinates

  Nr  Atom  Charge       X              Y              Z

   1   C1    6.00    1.442530392   -0.000010061    0.000000000
   2   C2    6.00   -1.442530392    0.000010061   -0.000000000
   3   H3    1.00    2.185136894    1.912773274   -0.000006712
   4   H4    1.00    2.185060053   -0.956374884    1.656545926
   5   H5    1.00    2.185060050   -0.956386507   -1.656539217
   6   H6    1.00   -2.185136894   -1.912773274    0.000006712
   7   H7    1.00   -2.185060050    0.956386507    1.656539217
   8   H8    1.00   -2.185060053    0.956374884   -1.656545926

 Frequencies dumped to record   5400.2

 Gradient norm at reference geometry: 0.15041D-03

 Normal Modes

                              1 Au        2 Au        3 Au        4 Ag        5 Ag 
 Wavenumbers [cm-1]          327.54      884.78      884.79     1058.44     1328.72
 Intensities [km/mol]          0.00        0.00        0.00        0.00        0.00
 Intensities [relative]        0.00        0.00        0.00        0.00        0.00
           C1X1            -0.00000     0.00000    -0.00000     0.17533    -0.00000
           C1Y1            -0.00000     0.04574    -0.00000     0.00000     0.11838
           C1Z1             0.00000     0.00000     0.04574     0.00000    -0.00000
           C2X2            -0.00000     0.00000    -0.00000    -0.17533     0.00000
           C2Y2            -0.00000     0.04574    -0.00000    -0.00000    -0.11838
           C2Z2             0.00000     0.00000     0.04574    -0.00000     0.00000
           H3X3            -0.00000     0.49622    -0.00001     0.20779     0.41713
           H3Y3             0.00000    -0.15158     0.00000    -0.00868    -0.04825
           H3Z3             0.40662    -0.00000    -0.21183     0.00000     0.00000
           H4X4             0.00001    -0.24811     0.42975     0.20777    -0.20859
           H4Y4            -0.35216    -0.19676    -0.02608     0.00434    -0.16765
           H4Z4            -0.20332    -0.02609    -0.16663    -0.00752    -0.06893
           H5X5            -0.00001    -0.24812    -0.42974     0.20777    -0.20859
           H5Y5             0.35216    -0.19676     0.02608     0.00434    -0.16766
           H5Z5            -0.20332     0.02608    -0.16663     0.00752     0.06893
           H6X6            -0.00000     0.49622    -0.00001    -0.20779    -0.41713
           H6Y6             0.00000    -0.15158     0.00000     0.00868     0.04825
           H6Z6             0.40662    -0.00000    -0.21183    -0.00000    -0.00000
           H7X7            -0.00001    -0.24812    -0.42974    -0.20777     0.20859
           H7Y7             0.35216    -0.19676     0.02608    -0.00434     0.16766
           H7Z7            -0.20332     0.02608    -0.16663    -0.00752    -0.06893
           H8X8             0.00001    -0.24811     0.42975    -0.20777     0.20859
           H8Y8            -0.35216    -0.19676    -0.02608    -0.00434     0.16765
           H8Z8            -0.20332    -0.02609    -0.16663     0.00752     0.06893

                              6 Ag        7 Au        8 Ag        9 Ag       10 Ag 
 Wavenumbers [cm-1]         1328.73     1531.34     1564.13     1627.17     1627.19
 Intensities [km/mol]          0.00        0.00        0.00        0.00        0.00
 Intensities [relative]        0.00        0.00        0.00        0.00        0.00
           C1X1            -0.00000    -0.08496     0.09776    -0.00001     0.00000
           C1Y1             0.00000     0.00000    -0.00001    -0.02346     0.00000
           C1Z1             0.11838    -0.00000     0.00000    -0.00000    -0.02346
           C2X2             0.00000    -0.08496    -0.09776     0.00001    -0.00000
           C2Y2            -0.00000     0.00000     0.00001     0.02346    -0.00000
           C2Z2            -0.11838    -0.00000    -0.00000     0.00000     0.02346
           H3X3             0.00000     0.33747    -0.32117     0.28029    -0.00000
           H3Y3            -0.00000    -0.15098     0.15565    -0.11579     0.00000
           H3Z3            -0.20744     0.00000    -0.00000     0.00000     0.48414
           H4X4             0.36126     0.33748    -0.32119    -0.14010     0.24270
           H4Y4            -0.06894     0.07546    -0.07779     0.33417     0.25977
           H4Z4            -0.08804    -0.13076     0.13482     0.25975     0.03420
           H5X5            -0.36127     0.33748    -0.32119    -0.14011    -0.24270
           H5Y5             0.06893     0.07547    -0.07779     0.33416    -0.25977
           H5Z5            -0.08804     0.13076    -0.13482    -0.25976     0.03420
           H6X6            -0.00000     0.33747     0.32117    -0.28029     0.00000
           H6Y6             0.00000    -0.15098    -0.15565     0.11579    -0.00000
           H6Z6             0.20744     0.00000     0.00000    -0.00000    -0.48414
           H7X7             0.36127     0.33748     0.32119     0.14011     0.24270
           H7Y7            -0.06893     0.07547     0.07779    -0.33416     0.25977
           H7Z7             0.08804     0.13076     0.13482     0.25976    -0.03420
           H8X8            -0.36126     0.33748     0.32119     0.14010    -0.24270
           H8Y8             0.06894     0.07546     0.07779    -0.33417    -0.25977
           H8Z8             0.08804    -0.13076    -0.13482    -0.25975    -0.03420

                             11 Au       12 Au       13 Au       14 Ag       15 Ag 
 Wavenumbers [cm-1]         1632.21     1632.23     3178.96     3184.59     3232.84
 Intensities [km/mol]          0.00        0.00        0.00        0.00        0.00
 Intensities [relative]        0.00        0.00        0.00        0.00        0.00
           C1X1            -0.00000     0.00000    -0.03397    -0.03647     0.00003
           C1Y1            -0.04835     0.00000    -0.00003    -0.00005    -0.06264
           C1Z1            -0.00000    -0.04835     0.00000     0.00000     0.00000
           C2X2            -0.00000     0.00000    -0.03397     0.03647    -0.00003
           C2Y2            -0.04835     0.00000    -0.00003     0.00005     0.06264
           C2Z2            -0.00000    -0.04835     0.00000    -0.00000    -0.00000
           H3X3             0.21375    -0.00000     0.13504     0.13808     0.19346
           H3Y3            -0.11834     0.00000     0.37782     0.37597     0.51144
           H3Z3             0.00000     0.50245    -0.00000    -0.00000    -0.00000
           H4X4            -0.10685     0.18510     0.13489     0.13784    -0.09689
           H4Y4             0.34726     0.26880    -0.18873    -0.18769     0.11775
           H4Z4             0.26879     0.03685     0.32688     0.32507    -0.22782
           H5X5            -0.10686    -0.18510     0.13489     0.13784    -0.09689
           H5Y5             0.34725    -0.26880    -0.18873    -0.18769     0.11775
           H5Z5            -0.26880     0.03686    -0.32688    -0.32507     0.22782
           H6X6             0.21375    -0.00000     0.13504    -0.13808    -0.19346
           H6Y6            -0.11834     0.00000     0.37782    -0.37597    -0.51144
           H6Z6             0.00000     0.50245    -0.00000     0.00000     0.00000
           H7X7            -0.10686    -0.18510     0.13489    -0.13784     0.09689
           H7Y7             0.34725    -0.26880    -0.18873     0.18769    -0.11775
           H7Z7            -0.26880     0.03686    -0.32688     0.32507    -0.22782
           H8X8            -0.10685     0.18510     0.13489    -0.13784     0.09689
           H8Y8             0.34726     0.26880    -0.18873     0.18769    -0.11775
           H8Z8             0.26879     0.03685     0.32688    -0.32507     0.22782

                             16 Ag       17 Au       18 Au 
 Wavenumbers [cm-1]         3232.91     3257.83     3257.90
 Intensities [km/mol]          0.00        0.00        0.00
 Intensities [relative]        0.00        0.00        0.00
           C1X1            -0.00000     0.00002    -0.00000
           C1Y1            -0.00000    -0.06279    -0.00000
           C1Z1            -0.06264     0.00000    -0.06279
           C2X2             0.00000     0.00002    -0.00000
           C2Y2             0.00000    -0.06279    -0.00000
           C2Z2             0.06264     0.00000    -0.06279
           H3X3            -0.00000     0.19688    -0.00000
           H3Y3            -0.00000     0.51018    -0.00000
           H3Z3            -0.01378    -0.00000    -0.01157
           H4X4             0.16762    -0.09853     0.17055
           H4Y4            -0.22755     0.11900    -0.22600
           H4Z4             0.38037    -0.22617     0.37989
           H5X5            -0.16762    -0.09853    -0.17055
           H5Y5             0.22756     0.11900     0.22600
           H5Z5             0.38036     0.22617     0.37988
           H6X6             0.00000     0.19688    -0.00000
           H6Y6             0.00000     0.51018    -0.00000
           H6Z6             0.01378    -0.00000    -0.01157
           H7X7             0.16762    -0.09853    -0.17055
           H7Y7            -0.22756     0.11900     0.22600
           H7Z7            -0.38036     0.22617     0.37988
           H8X8            -0.16762    -0.09853     0.17055
           H8Y8             0.22755     0.11900    -0.22600
           H8Z8            -0.38037    -0.22617     0.37989


 Normal Modes of low/zero frequencies

                                  1           2           3           4           5
 Wavenumbers [cm-1]            0.00        0.00        0.00        0.00        0.00
 Intensities [km/mol]          0.00        0.00        0.00        0.00        0.00
 Intensities [relative]        0.00        0.00        0.00        0.00        0.00
           C1X1            -0.12757     0.12291     0.00942     0.02257     0.02292
           C1Y1             0.02801     0.01237    -0.08889    -0.02960    -0.08330
           C1Z1             0.02758    -0.04545     0.09492     0.04960     0.16744
           C2X2            -0.12757     0.12291     0.00942     0.02257     0.02292
           C2Y2             0.14536     0.15787     0.00877    -0.09528     0.02691
           C2Z2             0.06485     0.03688     0.13351     0.15570    -0.08683
           H3X3            -0.04977     0.21938     0.07416    -0.02098     0.09600
           H3Y3            -0.00220    -0.02508    -0.11402    -0.01269    -0.11167
           H3Z3            -0.07884    -0.13142     0.35401    -0.22916     0.11663
           H4X4            -0.14507     0.12195    -0.00080     0.10527    -0.15960
           H4Y4             0.08166     0.03102    -0.34700     0.20507    -0.01098
           H4Z4             0.06640    -0.03425    -0.04952     0.14800     0.29101
           H5X5            -0.18787     0.02740    -0.04511    -0.01658     0.13238
           H5Y5            -0.08605    -0.08118     0.11896    -0.23045    -0.21235
           H5Z5             0.06640    -0.03425    -0.04952     0.14801     0.29101
           H6X6            -0.20537     0.02644    -0.05533     0.06612    -0.05015
           H6Y6             0.17556     0.19533     0.03390    -0.11219     0.05528
           H6Z6             0.17127     0.12285    -0.12557     0.43446    -0.03602
           H7X7            -0.06727     0.21841     0.06395     0.06172    -0.08653
           H7Y7             0.25941     0.25142    -0.19908     0.10557     0.15596
           H7Z7             0.02603     0.02568     0.27796     0.05729    -0.21040
           H8X8            -0.11007     0.12387     0.01963    -0.06013     0.20545
           H8Y8             0.09170     0.13922     0.26688    -0.32995    -0.04540
           H8Z8             0.02603     0.02568     0.27795     0.05729    -0.21040

                                  6
 Wavenumbers [cm-1]            0.00
 Intensities [km/mol]          0.00
 Intensities [relative]        0.00
           C1X1             0.02743
           C1Y1             0.19936
           C1Z1             0.11859
           C2X2             0.02743
           C2Y2             0.02153
           C2Z2             0.03497
           H3X3            -0.09047
           H3Y3             0.24513
           H3Z3             0.19178
           H4X4             0.03836
           H4Y4             0.20038
           H4Z4             0.11429
           H5X5             0.13439
           H5Y5             0.28986
           H5Z5             0.11429
           H6X6             0.14532
           H6Y6            -0.02424
           H6Z6            -0.03822
           H7X7            -0.07954
           H7Y7            -0.06897
           H7Z7             0.03927
           H8X8             0.01650
           H8Y8             0.02051
           H8Z8             0.03927


 Zero point energy:  0.07921707 [H]    17386.14 [1/CM]      207.98 [KJ/MOL]
 Frequency information read from record  5400.2

 Dump information in style MOLDEN to molpro.molden                                                                   

 Molecular orbitals read from record     2100.2  Type=RHF/CANONICAL (state 1.1)
 Occupation numbers read from record     2100.2  Type=RHF/RHF (state 1.1)
 Orbital energies read from record       2100.2  Type=RHF/CANONICAL (state 1.1)
 Redundancy group numbers read from rec  2100.2  Type=RHF/RHF (state 1.1)

 DUMP ORBITAL  1.1 AS ORBITAL    1  occ=    2.0000  eig=  -11.2100  GROUP=   2
 DUMP ORBITAL  2.1 AS ORBITAL    2  occ=    2.0000  eig=  -11.2094  GROUP=   2
 DUMP ORBITAL  3.1 AS ORBITAL    3  occ=    2.0000  eig=   -1.0186  GROUP=   2
 DUMP ORBITAL  4.1 AS ORBITAL    4  occ=    2.0000  eig=   -0.8433  GROUP=   2
 DUMP ORBITAL  5.1 AS ORBITAL    5  occ=    2.0000  eig=   -0.5967  GROUP=   2
 DUMP ORBITAL  6.1 AS ORBITAL    6  occ=    2.0000  eig=   -0.5967  GROUP=   2
 DUMP ORBITAL  7.1 AS ORBITAL    7  occ=    2.0000  eig=   -0.5085  GROUP=   2
 DUMP ORBITAL  8.1 AS ORBITAL    8  occ=    2.0000  eig=   -0.4865  GROUP=   2
 DUMP ORBITAL  9.1 AS ORBITAL    9  occ=    2.0000  eig=   -0.4865  GROUP=   2

 Total charge:      18.000000
 Frequency information read from record  5400.2

 **********************************************************************************************************************************

        OPTG(HF)        HF-SCF  
    -79.23817520    -79.21412353
 **********************************************************************************************************************************
 Variable memory released
