 Entering Gaussian System, Link 0=/programs/64bit/g09/g09-gfortran/bin/g09
 Input=c2h6_scan.com
 Output=c2h6_scan.log
 Initial command:
 /programs/64bit/g09/g09-gfortran/bin/l1.exe /home/ospite/Desktop/MMfP/Project2/c2h6/Gau-3158.inp -scrdir=/home/ospite/Desktop/MMfP/Project2/c2h6/
 Entering Link 1 = /programs/64bit/g09/g09-gfortran/bin/l1.exe PID=      3165.
  
 Copyright (c) 1988,1990,1992,1993,1995,1998,2003,2009, Gaussian, Inc.
                  All Rights Reserved.
  
 This is part of the Gaussian(R) 09 program.  It is based on
 the Gaussian(R) 03 system (copyright 2003, Gaussian, Inc.),
 the Gaussian(R) 98 system (copyright 1998, Gaussian, Inc.),
 the Gaussian(R) 94 system (copyright 1995, Gaussian, Inc.),
 the Gaussian 92(TM) system (copyright 1992, Gaussian, Inc.),
 the Gaussian 90(TM) system (copyright 1990, Gaussian, Inc.),
 the Gaussian 88(TM) system (copyright 1988, Gaussian, Inc.),
 the Gaussian 86(TM) system (copyright 1986, Carnegie Mellon
 University), and the Gaussian 82(TM) system (copyright 1983,
 Carnegie Mellon University). Gaussian is a federally registered
 trademark of Gaussian, Inc.
  
 This software contains proprietary and confidential information,
 including trade secrets, belonging to Gaussian, Inc.
  
 This software is provided under written license and may be
 used, copied, transmitted, or stored only in accord with that
 written license.
  
 The following legend is applicable only to US Government
 contracts under FAR:
  
                    RESTRICTED RIGHTS LEGEND
  
 Use, reproduction and disclosure by the US Government is
 subject to restrictions as set forth in subparagraphs (a)
 and (c) of the Commercial Computer Software - Restricted
 Rights clause in FAR 52.227-19.
  
 Gaussian, Inc.
 340 Quinnipiac St., Bldg. 40, Wallingford CT 06492
  
  
 ---------------------------------------------------------------
 Warning -- This program may not be used in any manner that
 competes with the business of Gaussian, Inc. or will provide
 assistance to any competitor of Gaussian, Inc.  The licensee
 of this program is prohibited from giving any competitor of
 Gaussian, Inc. access to this program.  By using this program,
 the user acknowledges that Gaussian, Inc. is engaged in the
 business of creating and licensing software in the field of
 computational chemistry and represents and warrants to the
 licensee that it is not a competitor of Gaussian, Inc. and that
 it will not use this program in any manner prohibited above.
 ---------------------------------------------------------------
  

 Cite this work as:
 Gaussian 09, Revision A.02,
 M. J. Frisch, G. W. Trucks, H. B. Schlegel, G. E. Scuseria, 
 M. A. Robb, J. R. Cheeseman, G. Scalmani, V. Barone, B. Mennucci, 
 G. A. Petersson, H. Nakatsuji, M. Caricato, X. Li, H. P. Hratchian, 
 A. F. Izmaylov, J. Bloino, G. Zheng, J. L. Sonnenberg, M. Hada, 
 M. Ehara, K. Toyota, R. Fukuda, J. Hasegawa, M. Ishida, T. Nakajima, 
 Y. Honda, O. Kitao, H. Nakai, T. Vreven, J. A. Montgomery, Jr., 
 J. E. Peralta, F. Ogliaro, M. Bearpark, J. J. Heyd, E. Brothers, 
 K. N. Kudin, V. N. Staroverov, R. Kobayashi, J. Normand, 
 K. Raghavachari, A. Rendell, J. C. Burant, S. S. Iyengar, J. Tomasi, 
 M. Cossi, N. Rega, J. M. Millam, M. Klene, J. E. Knox, J. B. Cross, 
 V. Bakken, C. Adamo, J. Jaramillo, R. Gomperts, R. E. Stratmann, 
 O. Yazyev, A. J. Austin, R. Cammi, C. Pomelli, J. W. Ochterski, 
 R. L. Martin, K. Morokuma, V. G. Zakrzewski, G. A. Voth, 
 P. Salvador, J. J. Dannenberg, S. Dapprich, A. D. Daniels, 
 O. Farkas, J. B. Foresman, J. V. Ortiz, J. Cioslowski, 
 and D. J. Fox, Gaussian, Inc., Wallingford CT, 2009.
 
 ******************************************
 Gaussian 09:  EM64L-G09RevA.02 11-Jun-2009
                13-Aug-2024 
 ******************************************
 ------------------------
 #p scan pop=full gfinput
 ------------------------
 1/38=1,60=1/1,8;
 2/12=2,17=6,18=5,29=3,40=1/2;
 3/11=9,16=1,24=10,25=1,30=1/1,2,3;
 4//1;
 5/5=2,38=5/2;
 6/7=3,18=1,28=1/1;
 1/60=1/8(1);
 99/9=1/99;
 2/29=3/2;
 3/11=9,16=1,25=1,30=1/1,2,3;
 4/5=5,16=3/1;
 5/5=2,38=5/2;
 1/60=1/8(-4);
 99/9=1/99;
 Leave Link    1 at Tue Aug 13 15:14:29 2024, MaxMem=          0 cpu:       0.1
 (Enter /programs/64bit/g09/g09-gfortran/bin/l101.exe)
 ------
 ethane
 ------
 Symbolic Z-matrix:
 Charge =  0 Multiplicity = 1
 C1
 C2                   1    d1
 H3                   1    d2       2    a1
 H4                   1    d3       2    a2       3    t1       0
 H5                   1    d4       2    a3       3    t2       0
 H6                   2    d5       1    a4       3    t3       0
 H7                   2    d6       1    a5       6    t4       0
 H8                   2    d7       1    a6       6    t5       0
       Variables:
  d1                    1.54                     
  d2                    1.09                     
  a1                  111.                       
  d3                    1.09                     
  a2                  111.                       
  t1                  108.                       
  d4                    1.09                     
  a3                  111.                       
  t2                 -108.                       
  d5                    1.09                     
  a4                  111.                       
  t3                  180.     Scan 36   10.     
  d6                    1.09                     
  a5                  111.                       
  t4                  108.                       
  d7                    1.09                     
  a6                  111.                       
  t5                 -108.                       
 
 NAtoms=      8 NQM=      8 NQMF=      0 NMic=      0 NMicF=      0 NTot=      8.
                    Isotopes and Nuclear Properties:
 (Nuclear quadrupole moments (NQMom) in fm**2, nuclear magnetic moments (NMagM)
  in nuclear magnetons)

  Atom         1           2           3           4           5           6           7           8
 IAtWgt=          12          12           1           1           1           1           1           1
 AtmWgt=  12.0000000  12.0000000   1.0078250   1.0078250   1.0078250   1.0078250   1.0078250   1.0078250
 NucSpn=           0           0           1           1           1           1           1           1
 AtZEff=   0.0000000   0.0000000   0.0000000   0.0000000   0.0000000   0.0000000   0.0000000   0.0000000
 NQMom=    0.0000000   0.0000000   0.0000000   0.0000000   0.0000000   0.0000000   0.0000000   0.0000000
 NMagM=    0.0000000   0.0000000   2.7928460   2.7928460   2.7928460   2.7928460   2.7928460   2.7928460
 Leave Link  101 at Tue Aug 13 15:14:29 2024, MaxMem=   33554432 cpu:       0.1
 (Enter /programs/64bit/g09/g09-gfortran/bin/l108.exe)
 Scan the potential surface.
 Variable   Value     No. Steps Step-Size
 -------- ----------- --------- ---------
    12     180.000000      36     10.0000
 A total of     37 points will be computed.
 Leave Link  108 at Tue Aug 13 15:14:29 2024, MaxMem=   33554432 cpu:       0.0
 (Enter /programs/64bit/g09/g09-gfortran/bin/l202.exe)
 ---------------------------------------------------------------------------------------------------
                            Z-MATRIX (ANGSTROMS AND DEGREES)
   CD    Cent   Atom    N1       Length/X        N2       Alpha/Y        N3        Beta/Z          J
 ---------------------------------------------------------------------------------------------------
      1      1  C 
      2      2  C        1   1.540000(     1)
      3      3  H        1   1.090000(     2)      2  111.000(     8)
      4      4  H        1   1.090000(     3)      2  111.000(     9)      3  108.000(    14)      0
      5      5  H        1   1.090000(     4)      2  111.000(    10)      3 -108.000(    15)      0
      6      6  H        2   1.090000(     5)      1  111.000(    11)      3  180.000(    16)      0
      7      7  H        2   1.090000(     6)      1  111.000(    12)      6  108.000(    17)      0
      8      8  H        2   1.090000(     7)      1  111.000(    13)      6 -108.000(    18)      0
 ---------------------------------------------------------------------------------------------------
                         Z-Matrix orientation:                         
 ---------------------------------------------------------------------
 Center     Atomic      Atomic             Coordinates (Angstroms)
 Number     Number       Type             X           Y           Z
 ---------------------------------------------------------------------
      1          6           0        0.000000    0.000000    0.000000
      2          6           0        0.000000    0.000000    1.540000
      3          1           0        1.017603    0.000000   -0.390621
      4          1           0       -0.314457   -0.967798   -0.390621
      5          1           0       -0.314457    0.967798   -0.390621
      6          1           0       -1.017603    0.000000    1.930621
      7          1           0        0.314457   -0.967798    1.930621
      8          1           0        0.314457    0.967798    1.930621
 ---------------------------------------------------------------------
                    Distance matrix (angstroms):
                    1          2          3          4          5
     1  C    0.000000
     2  C    1.540000   0.000000
     3  H    1.090000   2.182387   0.000000
     4  H    1.090000   2.182387   1.646516   0.000000
     5  H    1.090000   2.182387   1.646516   1.935595   0.000000
     6  H    2.182387   1.090000   3.087106   2.611362   2.611362
     7  H    2.182387   1.090000   2.611362   2.404932   3.087106
     8  H    2.182387   1.090000   2.611362   3.087106   2.404932
                    6          7          8
     6  H    0.000000
     7  H    1.646516   0.000000
     8  H    1.646516   1.935595   0.000000
 Stoichiometry    C2H6
 Framework group  C2H[SGH(C2H2),X(H4)]
 Deg. of freedom     6
 Full point group                 C2H     NOp   4
 Largest Abelian subgroup         C2H     NOp   4
 Largest concise Abelian subgroup C2H     NOp   4
                         Standard orientation:                         
 ---------------------------------------------------------------------
 Center     Atomic      Atomic             Coordinates (Angstroms)
 Number     Number       Type             X           Y           Z
 ---------------------------------------------------------------------
      1          6           0       -0.000000    0.770000    0.000000
      2          6           0       -0.000000   -0.770000    0.000000
      3          1           0       -1.017603    1.160621    0.000000
      4          1           0        0.314457    1.160621    0.967798
      5          1           0        0.314457    1.160621   -0.967798
      6          1           0        1.017603   -1.160621   -0.000000
      7          1           0       -0.314457   -1.160621    0.967798
      8          1           0       -0.314457   -1.160621   -0.967798
 ---------------------------------------------------------------------
 Rotational constants (GHZ):     81.2477249     20.3282222     19.2948553
 Leave Link  202 at Tue Aug 13 15:14:29 2024, MaxMem=   33554432 cpu:       0.0
 (Enter /programs/64bit/g09/g09-gfortran/bin/l301.exe)
 Standard basis: STO-3G (5D, 7F)
 Ernie: Thresh=  0.10000D-02 Tol=  0.10000D-05 Strict=F.
 AO basis set in the form of general basis input (Overlap normalization):
      1 0
 S   3 1.00       0.000000000000
      0.7161683735D+02  0.1543289673D+00
      0.1304509632D+02  0.5353281423D+00
      0.3530512160D+01  0.4446345422D+00
 SP   3 1.00       0.000000000000
      0.2941249355D+01 -0.9996722919D-01  0.1559162750D+00
      0.6834830964D+00  0.3995128261D+00  0.6076837186D+00
      0.2222899159D+00  0.7001154689D+00  0.3919573931D+00
 ****
      2 0
 S   3 1.00       0.000000000000
      0.7161683735D+02  0.1543289673D+00
      0.1304509632D+02  0.5353281423D+00
      0.3530512160D+01  0.4446345422D+00
 SP   3 1.00       0.000000000000
      0.2941249355D+01 -0.9996722919D-01  0.1559162750D+00
      0.6834830964D+00  0.3995128261D+00  0.6076837186D+00
      0.2222899159D+00  0.7001154689D+00  0.3919573931D+00
 ****
      3 0
 S   3 1.00       0.000000000000
      0.3425250914D+01  0.1543289673D+00
      0.6239137298D+00  0.5353281423D+00
      0.1688554040D+00  0.4446345422D+00
 ****
      4 0
 S   3 1.00       0.000000000000
      0.3425250914D+01  0.1543289673D+00
      0.6239137298D+00  0.5353281423D+00
      0.1688554040D+00  0.4446345422D+00
 ****
      5 0
 S   3 1.00       0.000000000000
      0.3425250914D+01  0.1543289673D+00
      0.6239137298D+00  0.5353281423D+00
      0.1688554040D+00  0.4446345422D+00
 ****
      6 0
 S   3 1.00       0.000000000000
      0.3425250914D+01  0.1543289673D+00
      0.6239137298D+00  0.5353281423D+00
      0.1688554040D+00  0.4446345422D+00
 ****
      7 0
 S   3 1.00       0.000000000000
      0.3425250914D+01  0.1543289673D+00
      0.6239137298D+00  0.5353281423D+00
      0.1688554040D+00  0.4446345422D+00
 ****
      8 0
 S   3 1.00       0.000000000000
      0.3425250914D+01  0.1543289673D+00
      0.6239137298D+00  0.5353281423D+00
      0.1688554040D+00  0.4446345422D+00
 ****

 There are     6 symmetry adapted basis functions of AG  symmetry.
 There are     2 symmetry adapted basis functions of BG  symmetry.
 There are     2 symmetry adapted basis functions of AU  symmetry.
 There are     6 symmetry adapted basis functions of BU  symmetry.
 Integral buffers will be    131072 words long.
 Raffenetti 1 integral format.
 Two-electron integral symmetry is turned on.
    16 basis functions,    48 primitive gaussians,    16 cartesian basis functions
     9 alpha electrons        9 beta electrons
       nuclear repulsion energy        42.1741896358 Hartrees.
 IExCor=    0 DFT=F Ex=HF Corr=None ExCW=0 ScaHFX=  1.000000
 ScaDFX=  1.000000  1.000000  1.000000  1.000000 ScalE2=  1.000000  1.000000
 IRadAn=      0 IRanWt=     -1 IRanGd=            0 ICorTp=0
 NAtoms=    8 NActive=    8 NUniq=    3 SFac= 3.00D+00 NAtFMM=   80 NAOKFM=F Big=F
 Leave Link  301 at Tue Aug 13 15:14:29 2024, MaxMem=   33554432 cpu:       0.1
 (Enter /programs/64bit/g09/g09-gfortran/bin/l302.exe)
 NPDir=0 NMtPBC=     1 NCelOv=     1 NCel=       1 NClECP=     1 NCelD=      1
         NCelK=      1 NCelE2=     1 NClLst=     1 CellRange=     0.0.
 One-electron integrals computed using PRISM.
 One-electron integral symmetry used in STVInt
 NBasis=    16 RedAO= T  NBF=     6     2     2     6
 NBsUse=    16 1.00D-06 NBFU=     6     2     2     6
 Leave Link  302 at Tue Aug 13 15:14:29 2024, MaxMem=   33554432 cpu:       0.1
 (Enter /programs/64bit/g09/g09-gfortran/bin/l303.exe)
 DipDrv:  MaxL=1.
 Leave Link  303 at Tue Aug 13 15:14:29 2024, MaxMem=   33554432 cpu:       0.0
 (Enter /programs/64bit/g09/g09-gfortran/bin/l401.exe)
 Harris functional with IExCor=  205 diagonalized for initial guess.
 ExpMin= 1.69D-01 ExpMax= 7.16D+01 ExpMxC= 7.16D+01 IAcc=1 IRadAn=         1 AccDes= 0.00D+00
 HarFok:  IExCor=  205 AccDes= 0.00D+00 IRadAn=         1 IDoV= 1
 ScaDFX=  1.000000  1.000000  1.000000  1.000000
 FoFCou: FMM=F IPFlag=           0 FMFlag=      100000 FMFlg1=           0
         NFxFlg=           0 DoJE=T BraDBF=F KetDBF=T FulRan=T
         Omega=  0.000000  0.000000  1.000000  0.000000  0.000000 ICntrl=     500 IOpCl=  0
         NMat0=    1 NMatS0=    1 NMatT0=    0 NMatD0=    1 NMtDS0=    0 NMtDT0=    0
         I1Cent=           4 NGrid=           0.
 Petite list used in FoFCou.
 Harris En= -78.5224964683264    
 Initial guess orbital symmetries:
       Occupied  (BU) (AG) (AG) (BU) (AU) (BU) (AG) (BG) (AG)
       Virtual   (BU) (BU) (AG) (AU) (AG) (BU) (BG)
 The electronic state of the initial guess is 1-AG.
 Leave Link  401 at Tue Aug 13 15:14:30 2024, MaxMem=   33554432 cpu:       0.2
 (Enter /programs/64bit/g09/g09-gfortran/bin/l502.exe)
 Closed shell SCF:
 Requested convergence on RMS density matrix=1.00D-08 within 128 cycles.
 Requested convergence on MAX density matrix=1.00D-06.
 Requested convergence on             energy=1.00D-06.
 No special actions if energy rises.
 Using DIIS extrapolation, IDIIS=  1040.
 Integral symmetry usage will be decided dynamically.
 Keep R1 ints in memory in canonical form, NReq=829171.
 IEnd=       19841 IEndB=       19841 NGot=    33554432 MDV=    33542350
 LenX=    33542350 LenY=    33541468
 Symmetry not used in FoFDir.
 MinBra= 0 MaxBra= 1 Meth= 1.
 IRaf=       0 NMat=   1 IRICut=       1 DoRegI=T DoRafI=F ISym2E= 0 JSym2E=0.

 Cycle   1  Pass 1  IDiag  1:
 E= -78.1854873035867    
 DIIS: error= 5.71D-02 at cycle   1 NSaved=   1.
 NSaved= 1 IEnMin= 1 EnMin= -78.1854873035867     IErMin= 1 ErrMin= 5.71D-02
 ErrMax= 5.71D-02 EMaxC= 1.00D-01 BMatC= 8.07D-02 BMatP= 8.07D-02
 IDIUse=3 WtCom= 4.29D-01 WtEn= 5.71D-01
 Coeff-Com:  0.100D+01
 Coeff-En:   0.100D+01
 Coeff:      0.100D+01
 Gap=     1.052 Goal=   None    Shift=    0.000
 GapD=    1.052 DampG=2.000 DampE=0.500 DampFc=1.0000 IDamp=-1.
 RMSDP=2.54D-02 MaxDP=1.17D-01              OVMax= 0.00D+00

 Cycle   2  Pass 1  IDiag  1:
 E= -78.2722698130866     Delta-E=       -0.086782509500 Rises=F Damp=F
 DIIS: error= 1.12D-02 at cycle   2 NSaved=   2.
 NSaved= 2 IEnMin= 2 EnMin= -78.2722698130866     IErMin= 2 ErrMin= 1.12D-02
 ErrMax= 1.12D-02 EMaxC= 1.00D-01 BMatC= 2.61D-03 BMatP= 8.07D-02
 IDIUse=3 WtCom= 8.88D-01 WtEn= 1.12D-01
 Coeff-Com:  0.114D+00 0.886D+00
 Coeff-En:   0.000D+00 0.100D+01
 Coeff:      0.102D+00 0.898D+00
 Gap=     1.015 Goal=   None    Shift=    0.000
 RMSDP=4.23D-03 MaxDP=1.94D-02 DE=-8.68D-02 OVMax= 0.00D+00

 Cycle   3  Pass 1  IDiag  1:
 E= -78.2751155952396     Delta-E=       -0.002845782153 Rises=F Damp=F
 DIIS: error= 8.51D-04 at cycle   3 NSaved=   3.
 NSaved= 3 IEnMin= 3 EnMin= -78.2751155952396     IErMin= 3 ErrMin= 8.51D-04
 ErrMax= 8.51D-04 EMaxC= 1.00D-01 BMatC= 1.41D-05 BMatP= 2.61D-03
 IDIUse=3 WtCom= 9.91D-01 WtEn= 8.51D-03
 Coeff-Com: -0.104D-01 0.176D-02 0.101D+01
 Coeff-En:   0.000D+00 0.000D+00 0.100D+01
 Coeff:     -0.103D-01 0.174D-02 0.101D+01
 Gap=     0.999 Goal=   None    Shift=    0.000
 RMSDP=3.42D-04 MaxDP=1.30D-03 DE=-2.85D-03 OVMax= 0.00D+00

 Cycle   4  Pass 1  IDiag  1:
 E= -78.2751378874163     Delta-E=       -0.000022292177 Rises=F Damp=F
 DIIS: error= 1.16D-04 at cycle   4 NSaved=   4.
 NSaved= 4 IEnMin= 4 EnMin= -78.2751378874163     IErMin= 4 ErrMin= 1.16D-04
 ErrMax= 1.16D-04 EMaxC= 1.00D-01 BMatC= 3.62D-07 BMatP= 1.41D-05
 IDIUse=3 WtCom= 9.99D-01 WtEn= 1.16D-03
 Coeff-Com:  0.293D-02-0.567D-02-0.331D+00 0.133D+01
 Coeff-En:   0.000D+00 0.000D+00 0.000D+00 0.100D+01
 Coeff:      0.293D-02-0.566D-02-0.331D+00 0.133D+01
 Gap=     0.999 Goal=   None    Shift=    0.000
 RMSDP=8.26D-05 MaxDP=4.81D-04 DE=-2.23D-05 OVMax= 0.00D+00

 Cycle   5  Pass 1  IDiag  1:
 E= -78.2751386283635     Delta-E=       -0.000000740947 Rises=F Damp=F
 DIIS: error= 9.08D-06 at cycle   5 NSaved=   5.
 NSaved= 5 IEnMin= 5 EnMin= -78.2751386283635     IErMin= 5 ErrMin= 9.08D-06
 ErrMax= 9.08D-06 EMaxC= 1.00D-01 BMatC= 1.55D-09 BMatP= 3.62D-07
 IDIUse=1 WtCom= 1.00D+00 WtEn= 0.00D+00
 Coeff-Com: -0.116D-02 0.216D-02 0.131D+00-0.541D+00 0.141D+01
 Coeff:     -0.116D-02 0.216D-02 0.131D+00-0.541D+00 0.141D+01
 Gap=     0.999 Goal=   None    Shift=    0.000
 RMSDP=5.68D-06 MaxDP=2.66D-05 DE=-7.41D-07 OVMax= 0.00D+00

 Cycle   6  Pass 1  IDiag  1:
 E= -78.2751386321779     Delta-E=       -0.000000003814 Rises=F Damp=F
 DIIS: error= 5.19D-07 at cycle   6 NSaved=   6.
 NSaved= 6 IEnMin= 6 EnMin= -78.2751386321779     IErMin= 6 ErrMin= 5.19D-07
 ErrMax= 5.19D-07 EMaxC= 1.00D-01 BMatC= 8.36D-12 BMatP= 1.55D-09
 IDIUse=1 WtCom= 1.00D+00 WtEn= 0.00D+00
 Coeff-Com:  0.132D-03-0.224D-03-0.148D-01 0.618D-01-0.205D+00 0.116D+01
 Coeff:      0.132D-03-0.224D-03-0.148D-01 0.618D-01-0.205D+00 0.116D+01
 Gap=     0.999 Goal=   None    Shift=    0.000
 RMSDP=3.87D-07 MaxDP=1.58D-06 DE=-3.81D-09 OVMax= 0.00D+00

 Cycle   7  Pass 1  IDiag  1:
 E= -78.2751386321959     Delta-E=       -0.000000000018 Rises=F Damp=F
 DIIS: error= 6.53D-08 at cycle   7 NSaved=   7.
 NSaved= 7 IEnMin= 7 EnMin= -78.2751386321959     IErMin= 7 ErrMin= 6.53D-08
 ErrMax= 6.53D-08 EMaxC= 1.00D-01 BMatC= 1.09D-13 BMatP= 8.36D-12
 IDIUse=1 WtCom= 1.00D+00 WtEn= 0.00D+00
 Coeff-Com: -0.834D-05 0.989D-05 0.903D-03-0.392D-02 0.190D-01-0.221D+00
 Coeff-Com:  0.120D+01
 Coeff:     -0.834D-05 0.989D-05 0.903D-03-0.392D-02 0.190D-01-0.221D+00
 Coeff:      0.120D+01
 Gap=     0.999 Goal=   None    Shift=    0.000
 RMSDP=4.18D-08 MaxDP=1.31D-07 DE=-1.81D-11 OVMax= 0.00D+00

 Cycle   8  Pass 1  IDiag  1:
 E= -78.2751386321961     Delta-E=       -0.000000000000 Rises=F Damp=F
 DIIS: error= 4.40D-09 at cycle   8 NSaved=   8.
 NSaved= 8 IEnMin= 8 EnMin= -78.2751386321961     IErMin= 8 ErrMin= 4.40D-09
 ErrMax= 4.40D-09 EMaxC= 1.00D-01 BMatC= 3.30D-16 BMatP= 1.09D-13
 IDIUse=1 WtCom= 1.00D+00 WtEn= 0.00D+00
 Coeff-Com:  0.551D-06-0.250D-06-0.563D-04 0.260D-03-0.167D-02 0.242D-01
 Coeff-Com: -0.152D+00 0.113D+01
 Coeff:      0.551D-06-0.250D-06-0.563D-04 0.260D-03-0.167D-02 0.242D-01
 Coeff:     -0.152D+00 0.113D+01
 Gap=     0.999 Goal=   None    Shift=    0.000
 RMSDP=2.17D-09 MaxDP=8.22D-09 DE=-1.71D-13 OVMax= 0.00D+00

 SCF Done:  E(RHF) =  -78.2751386322     A.U. after    8 cycles
             Convg  =    0.2167D-08             -V/T =  2.0075
 KE= 7.769441550563D+01 PE=-2.658777639008D+02 EE= 6.773402012721D+01
 Leave Link  502 at Tue Aug 13 15:14:30 2024, MaxMem=   33554432 cpu:       0.1
 (Enter /programs/64bit/g09/g09-gfortran/bin/l601.exe)
 Copying SCF densities to generalized density rwf, IOpCl= 0 IROHF=0.

 **********************************************************************

            Population analysis using the SCF density.

 **********************************************************************

 Orbital symmetries:
       Occupied  (BU) (AG) (AG) (BU) (AU) (BU) (BG) (AG) (AG)
       Virtual   (BU) (AG) (BU) (AU) (BU) (AG) (BG)
 The electronic state is 1-AG.
 Alpha  occ. eigenvalues --  -11.03138 -11.03107  -0.97803  -0.81333  -0.59773
 Alpha  occ. eigenvalues --   -0.52955  -0.48835  -0.47428  -0.41393
 Alpha virt. eigenvalues --    0.58535   0.65195   0.68969   0.70515   0.77751
 Alpha virt. eigenvalues --    0.78319   0.86825
     Molecular Orbital Coefficients:
                           1         2         3         4         5
                        (BU)--O   (AG)--O   (AG)--O   (BU)--O   (AU)--O
     Eigenvalues --   -11.03138 -11.03107  -0.97803  -0.81333  -0.59773
   1 1   C  1S          0.70107   0.70178  -0.16506  -0.14402   0.00000
   2        2S          0.03052   0.02264   0.45389   0.43210   0.00000
   3        2PX        -0.00099  -0.00112  -0.01720  -0.03793   0.00000
   4        2PY        -0.00264   0.00330  -0.05633   0.14703   0.00000
   5        2PZ         0.00000   0.00000   0.00000   0.00000   0.39016
   6 2   C  1S         -0.70107   0.70178  -0.16506   0.14402   0.00000
   7        2S         -0.03052   0.02264   0.45389  -0.43210   0.00000
   8        2PX        -0.00099   0.00112   0.01720  -0.03793   0.00000
   9        2PY        -0.00264  -0.00330   0.05633   0.14703   0.00000
  10        2PZ         0.00000   0.00000   0.00000   0.00000   0.39016
  11 3   H  1S         -0.00502  -0.00504   0.11307   0.17915   0.00000
  12 4   H  1S         -0.00489  -0.00474   0.11236   0.16430   0.26564
  13 5   H  1S         -0.00489  -0.00474   0.11236   0.16430  -0.26564
  14 6   H  1S          0.00502  -0.00504   0.11307  -0.17915   0.00000
  15 7   H  1S          0.00489  -0.00474   0.11236  -0.16430   0.26564
  16 8   H  1S          0.00489  -0.00474   0.11236  -0.16430  -0.26564
                           6         7         8         9        10
                        (BU)--O   (BG)--O   (AG)--O   (AG)--O   (BU)--V
     Eigenvalues --    -0.52955  -0.48835  -0.47428  -0.41393   0.58535
   1 1   C  1S         -0.01763   0.00000   0.02487  -0.00345  -0.04014
   2        2S          0.06333   0.00000  -0.10355   0.01323   0.24100
   3        2PX         0.41655   0.00000  -0.10498   0.40361   0.62251
   4        2PY         0.02463   0.00000   0.51984   0.13961   0.09957
   5        2PZ         0.00000   0.40022   0.00000   0.00000   0.00000
   6 2   C  1S          0.01763   0.00000   0.02487  -0.00345   0.04014
   7        2S         -0.06333   0.00000  -0.10355   0.01323  -0.24100
   8        2PX         0.41655   0.00000   0.10498  -0.40361   0.62251
   9        2PY         0.02463   0.00000  -0.51984  -0.13961   0.09957
  10        2PZ         0.00000  -0.40022   0.00000   0.00000   0.00000
  11 3   H  1S         -0.31442   0.00000   0.22216  -0.36867   0.57284
  12 4   H  1S          0.16717   0.32744   0.10229   0.22782  -0.46390
  13 5   H  1S          0.16717  -0.32744   0.10229   0.22782  -0.46390
  14 6   H  1S          0.31442   0.00000   0.22216  -0.36867  -0.57284
  15 7   H  1S         -0.16717  -0.32744   0.10229   0.22782   0.46390
  16 8   H  1S         -0.16717   0.32744   0.10229   0.22782   0.46390
                          11        12        13        14        15
                        (AG)--V   (BU)--V   (AU)--V   (BU)--V   (AG)--V
     Eigenvalues --     0.65195   0.68969   0.70515   0.77751   0.78319
   1 1   C  1S         -0.09956   0.10214   0.00000  -0.17067   0.11052
   2        2S          0.62971  -0.58993   0.00000   1.08579  -0.72150
   3        2PX         0.53525  -0.04008   0.00000  -0.24626   0.60284
   4        2PY         0.30282   0.97446   0.00000   0.21150  -0.32435
   5        2PZ         0.00000   0.00000   0.76126   0.00000   0.00000
   6 2   C  1S         -0.09956  -0.10214   0.00000   0.17067   0.11052
   7        2S          0.62971   0.58993   0.00000  -1.08579  -0.72150
   8        2PX        -0.53525  -0.04008   0.00000  -0.24626  -0.60284
   9        2PY        -0.30282   0.97446   0.00000   0.21150   0.32435
  10        2PZ         0.00000   0.00000   0.76126   0.00000   0.00000
  11 3   H  1S          0.16877  -0.07952   0.00000  -0.68701   0.83681
  12 4   H  1S         -0.57731  -0.03319  -0.62992  -0.44540   0.17822
  13 5   H  1S         -0.57731  -0.03319   0.62992  -0.44540   0.17822
  14 6   H  1S          0.16877   0.07952   0.00000   0.68701   0.83681
  15 7   H  1S         -0.57731   0.03319  -0.62992   0.44540   0.17822
  16 8   H  1S         -0.57731   0.03319   0.62992   0.44540   0.17822
                          16
                        (BG)--V
     Eigenvalues --     0.86825
   1 1   C  1S          0.00000
   2        2S          0.00000
   3        2PX         0.00000
   4        2PY         0.00000
   5        2PZ         0.89698
   6 2   C  1S          0.00000
   7        2S          0.00000
   8        2PX         0.00000
   9        2PY         0.00000
  10        2PZ        -0.89698
  11 3   H  1S          0.00000
  12 4   H  1S         -0.61817
  13 5   H  1S          0.61817
  14 6   H  1S          0.00000
  15 7   H  1S          0.61817
  16 8   H  1S         -0.61817
     Density Matrix:
                           1         2         3         4         5
   1 1   C  1S          2.06586
   2        2S         -0.20720   0.81816
   3        2PX        -0.00906   0.03668   0.69834
   4        2PY         0.00120  -0.02493   0.01485   0.63027
   5        2PZ         0.00000   0.00000   0.00000   0.00000   0.62480
   6 2   C  1S          0.01564  -0.03941   0.00125   0.09505   0.00000
   7        2S         -0.03941   0.05154  -0.00316  -0.28497  -0.00000
   8        2PX        -0.00125   0.00316   0.00148   0.00389  -0.00000
   9        2PY        -0.09505   0.28497   0.00389  -0.54135  -0.00000
  10        2PZ         0.00000   0.00000  -0.00000  -0.00000  -0.01590
  11 3   H  1S         -0.07836   0.16134  -0.62364   0.15248   0.00000
  12 4   H  1S         -0.10030   0.24949   0.28538   0.21385   0.46938
  13 5   H  1S         -0.10030   0.24949   0.28538   0.21385  -0.46938
  14 6   H  1S          0.01676  -0.06805  -0.07260   0.07804   0.00000
  15 7   H  1S          0.01983  -0.07624   0.03175   0.10070  -0.05481
  16 8   H  1S          0.01983  -0.07624   0.03175   0.10070   0.05481
                           6         7         8         9        10
   6 2   C  1S          2.06586
   7        2S         -0.20720   0.81816
   8        2PX         0.00906  -0.03668   0.69834
   9        2PY        -0.00120   0.02493   0.01485   0.63027
  10        2PZ         0.00000   0.00000   0.00000   0.00000   0.62480
  11 3   H  1S          0.01676  -0.06805   0.07260  -0.07804   0.00000
  12 4   H  1S          0.01983  -0.07624  -0.03175  -0.10070  -0.05481
  13 5   H  1S          0.01983  -0.07624  -0.03175  -0.10070   0.05481
  14 6   H  1S         -0.07836   0.16134   0.62364  -0.15248   0.00000
  15 7   H  1S         -0.10030   0.24949  -0.28538  -0.21385   0.46938
  16 8   H  1S         -0.10030   0.24949  -0.28538  -0.21385  -0.46938
                          11        12        13        14        15
  11 3   H  1S          0.65812
  12 4   H  1S         -0.14328   0.61551
  13 5   H  1S         -0.14328  -0.09561   0.61551
  14 6   H  1S          0.13421  -0.05087  -0.05087   0.65812
  15 7   H  1S         -0.05087  -0.03321   0.11339  -0.14328   0.61551
  16 8   H  1S         -0.05087   0.11339  -0.03321  -0.14328  -0.09561
                          16
  16 8   H  1S          0.61551
    Full Mulliken population analysis:
                           1         2         3         4         5
   1 1   C  1S          2.06586
   2        2S         -0.05146   0.81816
   3        2PX         0.00000   0.00000   0.69834
   4        2PY         0.00000   0.00000  -0.00000   0.63027
   5        2PZ         0.00000   0.00000   0.00000   0.00000   0.62480
   6 2   C  1S          0.00000  -0.00105   0.00000  -0.00424   0.00000
   7        2S         -0.00105   0.01539  -0.00000   0.09587   0.00000
   8        2PX         0.00000  -0.00000   0.00024   0.00000  -0.00000
   9        2PY        -0.00424   0.09587   0.00000   0.17006   0.00000
  10        2PZ         0.00000   0.00000  -0.00000   0.00000  -0.00261
  11 3   H  1S         -0.00488   0.07918   0.27206   0.02553   0.00000
  12 4   H  1S         -0.00625   0.12244   0.03847   0.03581   0.19474
  13 5   H  1S         -0.00625   0.12244   0.03847   0.03581   0.19474
  14 6   H  1S          0.00008  -0.00631  -0.00407  -0.00830   0.00000
  15 7   H  1S          0.00010  -0.00706  -0.00055  -0.01072  -0.00292
  16 8   H  1S          0.00010  -0.00706  -0.00055  -0.01072  -0.00292
                           6         7         8         9        10
   6 2   C  1S          2.06586
   7        2S         -0.05146   0.81816
   8        2PX         0.00000   0.00000   0.69834
   9        2PY         0.00000   0.00000  -0.00000   0.63027
  10        2PZ         0.00000   0.00000   0.00000   0.00000   0.62480
  11 3   H  1S          0.00008  -0.00631  -0.00407  -0.00830   0.00000
  12 4   H  1S          0.00010  -0.00706  -0.00055  -0.01072  -0.00292
  13 5   H  1S          0.00010  -0.00706  -0.00055  -0.01072  -0.00292
  14 6   H  1S         -0.00488   0.07918   0.27206   0.02553   0.00000
  15 7   H  1S         -0.00625   0.12244   0.03847   0.03581   0.19474
  16 8   H  1S         -0.00625   0.12244   0.03847   0.03581   0.19474
                          11        12        13        14        15
  11 3   H  1S          0.65812
  12 4   H  1S         -0.02970   0.61551
  13 5   H  1S         -0.02970  -0.01266   0.61551
  14 6   H  1S          0.00204  -0.00204  -0.00204   0.65812
  15 7   H  1S         -0.00204  -0.00196   0.00172  -0.02970   0.61551
  16 8   H  1S         -0.00204   0.00172  -0.00196  -0.02970  -0.01266
                          16
  16 8   H  1S          0.61551
     Gross orbital populations:
                           1
   1 1   C  1S          1.99203
   2        2S          1.18052
   3        2PX         1.04241
   4        2PY         0.95938
   5        2PZ         1.00582
   6 2   C  1S          1.99203
   7        2S          1.18052
   8        2PX         1.04241
   9        2PY         0.95938
  10        2PZ         1.00582
  11 3   H  1S          0.94998
  12 4   H  1S          0.93493
  13 5   H  1S          0.93493
  14 6   H  1S          0.94998
  15 7   H  1S          0.93493
  16 8   H  1S          0.93493
          Condensed to atoms (all electrons):
              1          2          3          4          5          6
     1  C    4.734518   0.364242   0.371891   0.385210   0.385210  -0.018597
     2  C    0.364242   4.734518  -0.018597  -0.021154  -0.021154   0.371891
     3  H    0.371891  -0.018597   0.658125  -0.029700  -0.029700   0.002036
     4  H    0.385210  -0.021154  -0.029700   0.615509  -0.012658  -0.002038
     5  H    0.385210  -0.021154  -0.029700  -0.012658   0.615509  -0.002038
     6  H   -0.018597   0.371891   0.002036  -0.002038  -0.002038   0.658125
     7  H   -0.021154   0.385210  -0.002038  -0.001961   0.001720  -0.029700
     8  H   -0.021154   0.385210  -0.002038   0.001720  -0.001961  -0.029700
              7          8
     1  C   -0.021154  -0.021154
     2  C    0.385210   0.385210
     3  H   -0.002038  -0.002038
     4  H   -0.001961   0.001720
     5  H    0.001720  -0.001961
     6  H   -0.029700  -0.029700
     7  H    0.615509  -0.012658
     8  H   -0.012658   0.615509
 Mulliken atomic charges:
              1
     1  C   -0.180166
     2  C   -0.180166
     3  H    0.050022
     4  H    0.065072
     5  H    0.065072
     6  H    0.050022
     7  H    0.065072
     8  H    0.065072
 Sum of Mulliken atomic charges =   0.00000
 Mulliken charges with hydrogens summed into heavy atoms:
              1
     1  C    0.000000
     2  C    0.000000
 Sum of Mulliken charges with hydrogens summed into heavy atoms =   0.00000
 Electronic spatial extent (au):  <R**2>=            107.9273
 Charge=              0.0000 electrons
 Dipole moment (field-independent basis, Debye):
    X=              0.0000    Y=              0.0000    Z=             -0.0000  Tot=              0.0000
 Quadrupole moment (field-independent basis, Debye-Ang):
   XX=            -14.7020   YY=            -14.2842   ZZ=            -13.3425
   XY=             -0.3010   XZ=             -0.0000   YZ=             -0.0000
 Traceless Quadrupole moment (field-independent basis, Debye-Ang):
   XX=             -0.5924   YY=             -0.1746   ZZ=              0.7670
   XY=             -0.3010   XZ=             -0.0000   YZ=             -0.0000
 Octapole moment (field-independent basis, Debye-Ang**2):
  XXX=              0.0000  YYY=              0.0000  ZZZ=             -0.0000  XYY=              0.0000
  XXY=              0.0000  XXZ=             -0.0000  XZZ=              0.0000  YZZ=              0.0000
  YYZ=             -0.0000  XYZ=             -0.0000
 Hexadecapole moment (field-independent basis, Debye-Ang**3):
 XXXX=            -23.0244 YYYY=            -85.3889 ZZZZ=            -26.1834 XXXY=              0.8916
 XXXZ=              0.0000 YYYX=              1.3568 YYYZ=             -0.0000 ZZZX=              0.0000
 ZZZY=             -0.0000 XXYY=            -17.8013 XXZZ=             -8.7339 YYZZ=            -16.8092
 XXYZ=              0.0000 YYXZ=             -0.0000 ZZXY=              1.4556
 N-N= 4.217418963579D+01 E-N=-2.658777638796D+02  KE= 7.769441550563D+01
 Symmetry AG   KE= 3.834463792351D+01
 Symmetry BG   KE= 2.071331613971D+00
 Symmetry AU   KE= 1.740535105517D+00
 Symmetry BU   KE= 3.553791086263D+01
 Orbital energies and kinetic energies (alpha):
                                 1                 2
   1         (BU)--O         -11.031382         15.615606
   2         (AG)--O         -11.031065         15.647861
   3         (AG)--O          -0.978031          1.227643
   4         (BU)--O          -0.813334          1.206478
   5         (AU)--O          -0.597734          0.870268
   6         (BU)--O          -0.529550          0.946872
   7         (BG)--O          -0.488351          1.035666
   8         (AG)--O          -0.474279          1.192842
   9         (AG)--O          -0.413927          1.103972
  10         (BU)--V           0.585350          1.887340
  11         (AG)--V           0.651945          2.192933
  12         (BU)--V           0.689687          2.811602
  13         (AU)--V           0.705155          2.088113
  14         (BU)--V           0.777515          2.729313
  15         (AG)--V           0.783189          2.475152
  16         (BG)--V           0.868250          2.460941
 Total kinetic energy from orbitals= 7.769441550563D+01
 No NMR shielding tensors so no spin-rotation constants.
 Leave Link  601 at Tue Aug 13 15:14:30 2024, MaxMem=   33554432 cpu:       0.1
 (Enter /programs/64bit/g09/g09-gfortran/bin/l108.exe)
 Variable Step   Value    
 -------- ---- -----------
    12       1    3.316126
 Leave Link  108 at Tue Aug 13 15:14:30 2024, MaxMem=   33554432 cpu:       0.0
 (Enter /programs/64bit/g09/g09-gfortran/bin/l202.exe)
 ---------------------------------------------------------------------------------------------------
                            Z-MATRIX (ANGSTROMS AND DEGREES)
   CD    Cent   Atom    N1       Length/X        N2       Alpha/Y        N3        Beta/Z          J
 ---------------------------------------------------------------------------------------------------
      1      1  C 
      2      2  C        1   1.540000(     1)
      3      3  H        1   1.090000(     2)      2  111.000(     8)
      4      4  H        1   1.090000(     3)      2  111.000(     9)      3  108.000(    14)      0
      5      5  H        1   1.090000(     4)      2  111.000(    10)      3 -108.000(    15)      0
      6      6  H        2   1.090000(     5)      1  111.000(    11)      3  190.000(    16)      0
      7      7  H        2   1.090000(     6)      1  111.000(    12)      6  108.000(    17)      0
      8      8  H        2   1.090000(     7)      1  111.000(    13)      6 -108.000(    18)      0
 ---------------------------------------------------------------------------------------------------
                         Z-Matrix orientation:                         
 ---------------------------------------------------------------------
 Center     Atomic      Atomic             Coordinates (Angstroms)
 Number     Number       Type             X           Y           Z
 ---------------------------------------------------------------------
      1          6           0        0.000000    0.000000    0.000000
      2          6           0        0.000000    0.000000    1.540000
      3          1           0        1.017603    0.000000   -0.390621
      4          1           0       -0.314457   -0.967798   -0.390621
      5          1           0       -0.314457    0.967798   -0.390621
      6          1           0       -1.002143   -0.176705    1.930621
      7          1           0        0.477736   -0.898490    1.930621
      8          1           0        0.141623    1.007699    1.930621
 ---------------------------------------------------------------------
                    Distance matrix (angstroms):
                    1          2          3          4          5
     1  C    0.000000
     2  C    1.540000   0.000000
     3  H    1.090000   2.182387   0.000000
     4  H    1.090000   2.182387   1.646516   0.000000
     5  H    1.090000   2.182387   1.646516   1.935595   0.000000
     6  H    2.182387   1.090000   3.082006   2.546940   2.677866
     7  H    2.182387   1.090000   2.546940   2.453678   3.082006
     8  H    2.182387   1.090000   2.677866   3.082006   2.365960
                    6          7          8
     6  H    0.000000
     7  H    1.646516   0.000000
     8  H    1.646516   1.935595   0.000000
 Stoichiometry    C2H6
 Framework group  C2[X(C2H6)]
 Deg. of freedom    10
 Full point group                 C2      NOp   2
 Omega: Change in point group or standard orientation.

 Old FWG=C02H [SGH(C2H2),X(H4)]
 New FWG=C02  [X(C2H6)]
 Largest Abelian subgroup         C2      NOp   2
 Largest concise Abelian subgroup C2      NOp   2
                         Standard orientation:                         
 ---------------------------------------------------------------------
 Center     Atomic      Atomic             Coordinates (Angstroms)
 Number     Number       Type             X           Y           Z
 ---------------------------------------------------------------------
      1          6           0        0.000000    0.770000    0.003764
      2          6           0       -0.000000   -0.770000    0.003764
      3          1           0        1.013730    1.160621   -0.084926
      4          1           0       -0.397609    1.160621   -0.932944
      5          1           0       -0.228911    1.160621    0.995286
      6          1           0       -1.013730   -1.160621   -0.084926
      7          1           0        0.397609   -1.160621   -0.932944
      8          1           0        0.228911   -1.160621    0.995286
 ---------------------------------------------------------------------
 Rotational constants (GHZ):     81.2459081     20.3202131     19.3024078
 Leave Link  202 at Tue Aug 13 15:14:30 2024, MaxMem=   33554432 cpu:       0.0
 (Enter /programs/64bit/g09/g09-gfortran/bin/l301.exe)
 Standard basis: STO-3G (5D, 7F)
 Ernie: Thresh=  0.10000D-02 Tol=  0.10000D-05 Strict=F.
 There are     8 symmetry adapted basis functions of A   symmetry.
 There are     8 symmetry adapted basis functions of B   symmetry.
 Integral buffers will be    131072 words long.
 Raffenetti 1 integral format.
 Two-electron integral symmetry is turned on.
    16 basis functions,    48 primitive gaussians,    16 cartesian basis functions
     9 alpha electrons        9 beta electrons
       nuclear repulsion energy        42.1744797701 Hartrees.
 IExCor=    0 DFT=F Ex=HF Corr=None ExCW=0 ScaHFX=  1.000000
 ScaDFX=  1.000000  1.000000  1.000000  1.000000 ScalE2=  1.000000  1.000000
 IRadAn=      0 IRanWt=     -1 IRanGd=            0 ICorTp=0
 NAtoms=    8 NActive=    8 NUniq=    4 SFac= 3.00D+00 NAtFMM=   80 NAOKFM=F Big=F
 Leave Link  301 at Tue Aug 13 15:14:30 2024, MaxMem=   33554432 cpu:       0.1
 (Enter /programs/64bit/g09/g09-gfortran/bin/l302.exe)
 NPDir=0 NMtPBC=     1 NCelOv=     1 NCel=       1 NClECP=     1 NCelD=      1
         NCelK=      1 NCelE2=     1 NClLst=     1 CellRange=     0.0.
 One-electron integrals computed using PRISM.
 One-electron integral symmetry used in STVInt
 NBasis=    16 RedAO= T  NBF=     8     8
 NBsUse=    16 1.00D-06 NBFU=     8     8
 Leave Link  302 at Tue Aug 13 15:14:30 2024, MaxMem=   33554432 cpu:       0.1
 (Enter /programs/64bit/g09/g09-gfortran/bin/l303.exe)
 DipDrv:  MaxL=1.
 Leave Link  303 at Tue Aug 13 15:14:30 2024, MaxMem=   33554432 cpu:       0.0
 (Enter /programs/64bit/g09/g09-gfortran/bin/l401.exe)
 Initial guess read from the read-write file.
 B after Tr=     0.000000    0.000000    0.000000
         Rot=    1.000000    0.000000    0.000000    0.000000 Ang=   0.00 deg.
 Guess basis will be translated and rotated to current coordinates.
 Initial guess orbital symmetries:
       Occupied  (B) (A) (A) (B) (A) (B) (B) (A) (A)
       Virtual   (B) (A) (B) (A) (B) (A) (B)
 The electronic state of the initial guess is 1-A.
 Generating alternative initial guess.
 Harris functional with IExCor=  205 diagonalized for initial guess.
 ExpMin= 1.69D-01 ExpMax= 7.16D+01 ExpMxC= 7.16D+01 IAcc=1 IRadAn=         1 AccDes= 0.00D+00
 HarFok:  IExCor=  205 AccDes= 0.00D+00 IRadAn=         1 IDoV= 1
 ScaDFX=  1.000000  1.000000  1.000000  1.000000
 FoFCou: FMM=F IPFlag=           0 FMFlag=      100000 FMFlg1=           0
         NFxFlg=           0 DoJE=T BraDBF=F KetDBF=T FulRan=T
         Omega=  0.000000  0.000000  1.000000  0.000000  0.000000 ICntrl=     500 IOpCl=  0
         NMat0=    1 NMatS0=    1 NMatT0=    0 NMatD0=    1 NMtDS0=    0 NMtDT0=    0
         I1Cent=           4 NGrid=           0.
 Petite list used in FoFCou.
 Harris En= -78.5223216063018    
 Leave Link  401 at Tue Aug 13 15:14:30 2024, MaxMem=   33554432 cpu:       0.4
 (Enter /programs/64bit/g09/g09-gfortran/bin/l502.exe)
 Closed shell SCF:
 Requested convergence on RMS density matrix=1.00D-08 within 128 cycles.
 Requested convergence on MAX density matrix=1.00D-06.
 Requested convergence on             energy=1.00D-06.
 No special actions if energy rises.
 Using DIIS extrapolation, IDIIS=  1040.
 Integral symmetry usage will be decided dynamically.
 Keep R1 ints in memory in canonical form, NReq=829119.
 IEnd=       19789 IEndB=       19789 NGot=    33554432 MDV=    33542402
 LenX=    33542402 LenY=    33541520
 Symmetry not used in FoFDir.
 MinBra= 0 MaxBra= 1 Meth= 1.
 IRaf=       0 NMat=   1 IRICut=       1 DoRegI=T DoRafI=F ISym2E= 0 JSym2E=0.

 Cycle   1  Pass 1  IDiag  1:
 E= -71.8521089934066    
 DIIS: error= 1.01D-01 at cycle   1 NSaved=   1.
 NSaved= 1 IEnMin= 1 EnMin= -71.8521089934066     IErMin= 1 ErrMin= 1.01D-01
 ErrMax= 1.01D-01 EMaxC= 1.00D-01 BMatC= 1.41D-01 BMatP= 1.41D-01
 IDIUse=3 WtCom= 0.00D+00 WtEn= 1.00D+00
 Coeff-Com:  0.100D+01
 Coeff-En:   0.100D+01
 Coeff:      0.100D+01
 Recover alternate guess density for next cycle.
 RMSDP=3.40D-01 MaxDP=1.31D+00              OVMax= 0.00D+00

 Cycle   2  Pass 1  IDiag  1:
 E= -78.1851617759823     Delta-E=       -6.333052782576 Rises=F Damp=F
 DIIS: error= 5.69D-02 at cycle   2 NSaved=   2.
 NSaved= 2 IEnMin= 2 EnMin= -78.1851617759823     IErMin= 2 ErrMin= 5.69D-02
 ErrMax= 5.69D-02 EMaxC= 1.00D-01 BMatC= 8.07D-02 BMatP= 1.41D-01
 IDIUse=3 WtCom= 4.31D-01 WtEn= 5.69D-01
 Coeff-Com:  0.381D+00 0.619D+00
 Coeff-En:   0.000D+00 0.100D+01
 Coeff:      0.164D+00 0.836D+00
 Gap=    -0.906 Goal=   None    Shift=    0.000
 RMSDP=2.74D-02 MaxDP=1.25D-01 DE=-6.33D+00 OVMax= 8.74D-01

 Cycle   3  Pass 1  IDiag  1:
 E= -78.2679510156312     Delta-E=       -0.082789239649 Rises=F Damp=F
 DIIS: error= 1.92D-02 at cycle   3 NSaved=   3.
 NSaved= 3 IEnMin= 3 EnMin= -78.2679510156312     IErMin= 3 ErrMin= 1.92D-02
 ErrMax= 1.92D-02 EMaxC= 1.00D-01 BMatC= 5.73D-03 BMatP= 8.07D-02
 IDIUse=3 WtCom= 8.08D-01 WtEn= 1.92D-01
 Coeff-Com: -0.177D-02 0.164D+00 0.838D+00
 Coeff-En:   0.000D+00 0.000D+00 0.100D+01
 Coeff:     -0.143D-02 0.132D+00 0.869D+00
 Gap=     0.996 Goal=   None    Shift=    0.000
 RMSDP=6.76D-03 MaxDP=2.85D-02 DE=-8.28D-02 OVMax= 0.00D+00

 Cycle   4  Pass 1  IDiag  1:
 E= -78.2747581191214     Delta-E=       -0.006807103490 Rises=F Damp=F
 DIIS: error= 1.79D-03 at cycle   4 NSaved=   4.
 NSaved= 4 IEnMin= 4 EnMin= -78.2747581191214     IErMin= 4 ErrMin= 1.79D-03
 ErrMax= 1.79D-03 EMaxC= 1.00D-01 BMatC= 5.17D-05 BMatP= 5.73D-03
 IDIUse=3 WtCom= 9.82D-01 WtEn= 1.79D-02
 Coeff-Com: -0.986D-02-0.192D-01-0.475D-02 0.103D+01
 Coeff-En:   0.000D+00 0.000D+00 0.000D+00 0.100D+01
 Coeff:     -0.968D-02-0.188D-01-0.466D-02 0.103D+01
 Gap=     1.005 Goal=   None    Shift=    0.000
 RMSDP=7.14D-04 MaxDP=3.01D-03 DE=-6.81D-03 OVMax= 0.00D+00

 Cycle   5  Pass 1  IDiag  1:
 E= -78.2748473769176     Delta-E=       -0.000089257796 Rises=F Damp=F
 DIIS: error= 3.54D-04 at cycle   5 NSaved=   5.
 NSaved= 5 IEnMin= 5 EnMin= -78.2748473769176     IErMin= 5 ErrMin= 3.54D-04
 ErrMax= 3.54D-04 EMaxC= 1.00D-01 BMatC= 2.53D-06 BMatP= 5.17D-05
 IDIUse=3 WtCom= 9.96D-01 WtEn= 3.54D-03
 Coeff-Com:  0.537D-03 0.278D-02 0.223D-01-0.153D+00 0.113D+01
 Coeff-En:   0.000D+00 0.000D+00 0.000D+00 0.000D+00 0.100D+01
 Coeff:      0.535D-03 0.277D-02 0.222D-01-0.152D+00 0.113D+01
 Gap=     0.998 Goal=   None    Shift=    0.000
 RMSDP=1.34D-04 MaxDP=5.58D-04 DE=-8.93D-05 OVMax= 0.00D+00

 Cycle   6  Pass 1  IDiag  1:
 E= -78.2748502533095     Delta-E=       -0.000002876392 Rises=F Damp=F
 DIIS: error= 2.92D-05 at cycle   6 NSaved=   6.
 NSaved= 6 IEnMin= 6 EnMin= -78.2748502533095     IErMin= 6 ErrMin= 2.92D-05
 ErrMax= 2.92D-05 EMaxC= 1.00D-01 BMatC= 2.85D-08 BMatP= 2.53D-06
 IDIUse=1 WtCom= 1.00D+00 WtEn= 0.00D+00
 Coeff-Com: -0.387D-05-0.539D-03-0.700D-02 0.259D-01-0.259D+00 0.124D+01
 Coeff:     -0.387D-05-0.539D-03-0.700D-02 0.259D-01-0.259D+00 0.124D+01
 Gap=     0.999 Goal=   None    Shift=    0.000
 RMSDP=2.05D-05 MaxDP=1.00D-04 DE=-2.88D-06 OVMax= 0.00D+00

 Cycle   7  Pass 1  IDiag  1:
 E= -78.2748503056243     Delta-E=       -0.000000052315 Rises=F Damp=F
 DIIS: error= 3.82D-06 at cycle   7 NSaved=   7.
 NSaved= 7 IEnMin= 7 EnMin= -78.2748503056243     IErMin= 7 ErrMin= 3.82D-06
 ErrMax= 3.82D-06 EMaxC= 1.00D-01 BMatC= 2.75D-10 BMatP= 2.85D-08
 IDIUse=1 WtCom= 1.00D+00 WtEn= 0.00D+00
 Coeff-Com: -0.137D-04 0.679D-04 0.115D-02-0.275D-02 0.371D-01-0.272D+00
 Coeff-Com:  0.124D+01
 Coeff:     -0.137D-04 0.679D-04 0.115D-02-0.275D-02 0.371D-01-0.272D+00
 Coeff:      0.124D+01
 Gap=     0.999 Goal=   None    Shift=    0.000
 RMSDP=2.35D-06 MaxDP=8.67D-06 DE=-5.23D-08 OVMax= 0.00D+00

 Cycle   8  Pass 1  IDiag  1:
 E= -78.2748503062805     Delta-E=       -0.000000000656 Rises=F Damp=F
 DIIS: error= 7.82D-07 at cycle   8 NSaved=   8.
 NSaved= 8 IEnMin= 8 EnMin= -78.2748503062805     IErMin= 8 ErrMin= 7.82D-07
 ErrMax= 7.82D-07 EMaxC= 1.00D-01 BMatC= 8.14D-12 BMatP= 2.75D-10
 IDIUse=1 WtCom= 1.00D+00 WtEn= 0.00D+00
 Coeff-Com:  0.181D-05-0.167D-04-0.247D-03 0.727D-03-0.923D-02 0.689D-01
 Coeff-Com: -0.375D+00 0.131D+01
 Coeff:      0.181D-05-0.167D-04-0.247D-03 0.727D-03-0.923D-02 0.689D-01
 Coeff:     -0.375D+00 0.131D+01
 Gap=     0.999 Goal=   None    Shift=    0.000
 RMSDP=3.43D-07 MaxDP=1.29D-06 DE=-6.56D-10 OVMax= 0.00D+00

 Cycle   9  Pass 1  IDiag  1:
 E= -78.2748503062936     Delta-E=       -0.000000000013 Rises=F Damp=F
 DIIS: error= 6.93D-08 at cycle   9 NSaved=   9.
 NSaved= 9 IEnMin= 9 EnMin= -78.2748503062936     IErMin= 9 ErrMin= 6.93D-08
 ErrMax= 6.93D-08 EMaxC= 1.00D-01 BMatC= 9.11D-14 BMatP= 8.14D-12
 IDIUse=1 WtCom= 1.00D+00 WtEn= 0.00D+00
 Coeff-Com:  0.747D-07 0.352D-05 0.425D-04-0.164D-03 0.184D-02-0.129D-01
 Coeff-Com:  0.729D-01-0.293D+00 0.123D+01
 Coeff:      0.747D-07 0.352D-05 0.425D-04-0.164D-03 0.184D-02-0.129D-01
 Coeff:      0.729D-01-0.293D+00 0.123D+01
 Gap=     0.999 Goal=   None    Shift=    0.000
 RMSDP=2.69D-08 MaxDP=1.11D-07 DE=-1.31D-11 OVMax= 0.00D+00

 Cycle  10  Pass 1  IDiag  1:
 E= -78.2748503062938     Delta-E=       -0.000000000000 Rises=F Damp=F
 DIIS: error= 5.33D-09 at cycle  10 NSaved=  10.
 NSaved=10 IEnMin=10 EnMin= -78.2748503062938     IErMin=10 ErrMin= 5.33D-09
 ErrMax= 5.33D-09 EMaxC= 1.00D-01 BMatC= 6.64D-16 BMatP= 9.11D-14
 IDIUse=1 WtCom= 1.00D+00 WtEn= 0.00D+00
 Coeff-Com: -0.120D-07-0.700D-06-0.859D-05 0.323D-04-0.374D-03 0.264D-02
 Coeff-Com: -0.150D-01 0.631D-01-0.336D+00 0.129D+01
 Coeff:     -0.120D-07-0.700D-06-0.859D-05 0.323D-04-0.374D-03 0.264D-02
 Coeff:     -0.150D-01 0.631D-01-0.336D+00 0.129D+01
 Gap=     0.999 Goal=   None    Shift=    0.000
 RMSDP=3.06D-09 MaxDP=1.09D-08 DE=-1.42D-13 OVMax= 0.00D+00

 SCF Done:  E(RHF) =  -78.2748503063     A.U. after   10 cycles
             Convg  =    0.3059D-08             -V/T =  2.0075
 KE= 7.769541084131D+01 PE=-2.658801126629D+02 EE= 6.773537174516D+01
 Leave Link  502 at Tue Aug 13 15:14:31 2024, MaxMem=   33554432 cpu:       0.1
 (Enter /programs/64bit/g09/g09-gfortran/bin/l108.exe)
 Variable Step   Value    
 -------- ---- -----------
    12       2    3.490659
 Leave Link  108 at Tue Aug 13 15:14:31 2024, MaxMem=   33554432 cpu:       0.0
 (Enter /programs/64bit/g09/g09-gfortran/bin/l202.exe)
 ---------------------------------------------------------------------------------------------------
                            Z-MATRIX (ANGSTROMS AND DEGREES)
   CD    Cent   Atom    N1       Length/X        N2       Alpha/Y        N3        Beta/Z          J
 ---------------------------------------------------------------------------------------------------
      1      1  C 
      2      2  C        1   1.540000(     1)
      3      3  H        1   1.090000(     2)      2  111.000(     8)
      4      4  H        1   1.090000(     3)      2  111.000(     9)      3  108.000(    14)      0
      5      5  H        1   1.090000(     4)      2  111.000(    10)      3 -108.000(    15)      0
      6      6  H        2   1.090000(     5)      1  111.000(    11)      3  200.000(    16)      0
      7      7  H        2   1.090000(     6)      1  111.000(    12)      6  108.000(    17)      0
      8      8  H        2   1.090000(     7)      1  111.000(    13)      6 -108.000(    18)      0
 ---------------------------------------------------------------------------------------------------
                         Z-Matrix orientation:                         
 ---------------------------------------------------------------------
 Center     Atomic      Atomic             Coordinates (Angstroms)
 Number     Number       Type             X           Y           Z
 ---------------------------------------------------------------------
      1          6           0        0.000000    0.000000    0.000000
      2          6           0        0.000000    0.000000    1.540000
      3          1           0        1.017603    0.000000   -0.390621
      4          1           0       -0.314457   -0.967798   -0.390621
      5          1           0       -0.314457    0.967798   -0.390621
      6          1           0       -0.956234   -0.348041    1.930621
      7          1           0        0.626499   -0.801882    1.930621
      8          1           0       -0.035514    1.016983    1.930621
 ---------------------------------------------------------------------
                    Distance matrix (angstroms):
                    1          2          3          4          5
     1  C    0.000000
     2  C    1.540000   0.000000
     3  H    1.090000   2.182387   0.000000
     4  H    1.090000   2.182387   1.646516   0.000000
     5  H    1.090000   2.182387   1.646516   1.935595   0.000000
     6  H    2.182387   1.090000   3.066811   2.486793   2.744353
     7  H    2.182387   1.090000   2.486793   2.510197   3.066811
     8  H    2.182387   1.090000   2.744353   3.066811   2.338460
                    6          7          8
     6  H    0.000000
     7  H    1.646516   0.000000
     8  H    1.646516   1.935595   0.000000
 Stoichiometry    C2H6
 Framework group  C2[X(C2H6)]
 Deg. of freedom    10
 Full point group                 C2      NOp   2
 Largest Abelian subgroup         C2      NOp   2
 Largest concise Abelian subgroup C2      NOp   2
                         Standard orientation:                         
 ---------------------------------------------------------------------
 Center     Atomic      Atomic             Coordinates (Angstroms)
 Number     Number       Type             X           Y           Z
 ---------------------------------------------------------------------
      1          6           0       -0.000000    0.770000    0.007499
      2          6           0       -0.000000   -0.770000    0.007499
      3          1           0        1.002143    1.160621   -0.169205
      4          1           0       -0.477736    1.160621   -0.890990
      5          1           0       -0.141623    1.160621    1.015199
      6          1           0       -1.002143   -1.160621   -0.169205
      7          1           0        0.477736   -1.160621   -0.890990
      8          1           0        0.141623   -1.160621    1.015199
 ---------------------------------------------------------------------
 Rotational constants (GHZ):     81.2404906     20.2964662     19.3248719
 Leave Link  202 at Tue Aug 13 15:14:31 2024, MaxMem=   33554432 cpu:       0.0
 (Enter /programs/64bit/g09/g09-gfortran/bin/l301.exe)
 Standard basis: STO-3G (5D, 7F)
 Ernie: Thresh=  0.10000D-02 Tol=  0.10000D-05 Strict=F.
 There are     8 symmetry adapted basis functions of A   symmetry.
 There are     8 symmetry adapted basis functions of B   symmetry.
 Integral buffers will be    131072 words long.
 Raffenetti 1 integral format.
 Two-electron integral symmetry is turned on.
    16 basis functions,    48 primitive gaussians,    16 cartesian basis functions
     9 alpha electrons        9 beta electrons
       nuclear repulsion energy        42.1752817495 Hartrees.
 IExCor=    0 DFT=F Ex=HF Corr=None ExCW=0 ScaHFX=  1.000000
 ScaDFX=  1.000000  1.000000  1.000000  1.000000 ScalE2=  1.000000  1.000000
 IRadAn=      0 IRanWt=     -1 IRanGd=            0 ICorTp=0
 NAtoms=    8 NActive=    8 NUniq=    4 SFac= 3.00D+00 NAtFMM=   80 NAOKFM=F Big=F
 Leave Link  301 at Tue Aug 13 15:14:31 2024, MaxMem=   33554432 cpu:       0.1
 (Enter /programs/64bit/g09/g09-gfortran/bin/l302.exe)
 NPDir=0 NMtPBC=     1 NCelOv=     1 NCel=       1 NClECP=     1 NCelD=      1
         NCelK=      1 NCelE2=     1 NClLst=     1 CellRange=     0.0.
 One-electron integrals computed using PRISM.
 One-electron integral symmetry used in STVInt
 NBasis=    16 RedAO= T  NBF=     8     8
 NBsUse=    16 1.00D-06 NBFU=     8     8
 Leave Link  302 at Tue Aug 13 15:14:31 2024, MaxMem=   33554432 cpu:       0.1
 (Enter /programs/64bit/g09/g09-gfortran/bin/l303.exe)
 DipDrv:  MaxL=1.
 Leave Link  303 at Tue Aug 13 15:14:31 2024, MaxMem=   33554432 cpu:       0.0
 (Enter /programs/64bit/g09/g09-gfortran/bin/l401.exe)
 Initial guess read from the read-write file.
 B after Tr=     0.000000    0.000000    0.000000
         Rot=    1.000000    0.000000    0.000000    0.000000 Ang=   0.00 deg.
 Guess basis will be translated and rotated to current coordinates.
 Initial guess orbital symmetries:
       Occupied  (B) (A) (A) (B) (A) (B) (B) (A) (A)
       Virtual   (B) (A) (B) (A) (B) (A) (B)
 The electronic state of the initial guess is 1-A.
 Generating alternative initial guess.
 Harris functional with IExCor=  205 diagonalized for initial guess.
 ExpMin= 1.69D-01 ExpMax= 7.16D+01 ExpMxC= 7.16D+01 IAcc=1 IRadAn=         1 AccDes= 0.00D+00
 HarFok:  IExCor=  205 AccDes= 0.00D+00 IRadAn=         1 IDoV= 1
 ScaDFX=  1.000000  1.000000  1.000000  1.000000
 FoFCou: FMM=F IPFlag=           0 FMFlag=      100000 FMFlg1=           0
         NFxFlg=           0 DoJE=T BraDBF=F KetDBF=T FulRan=T
         Omega=  0.000000  0.000000  1.000000  0.000000  0.000000 ICntrl=     500 IOpCl=  0
         NMat0=    1 NMatS0=    1 NMatT0=    0 NMatD0=    1 NMtDS0=    0 NMtDT0=    0
         I1Cent=           4 NGrid=           0.
 Petite list used in FoFCou.
 Harris En= -78.5217726889290    
 Leave Link  401 at Tue Aug 13 15:14:31 2024, MaxMem=   33554432 cpu:       0.4
 (Enter /programs/64bit/g09/g09-gfortran/bin/l502.exe)
 Closed shell SCF:
 Requested convergence on RMS density matrix=1.00D-08 within 128 cycles.
 Requested convergence on MAX density matrix=1.00D-06.
 Requested convergence on             energy=1.00D-06.
 No special actions if energy rises.
 Using DIIS extrapolation, IDIIS=  1040.
 Integral symmetry usage will be decided dynamically.
 Keep R1 ints in memory in canonical form, NReq=829119.
 IEnd=       19789 IEndB=       19789 NGot=    33554432 MDV=    33542402
 LenX=    33542402 LenY=    33541520
 Symmetry not used in FoFDir.
 MinBra= 0 MaxBra= 1 Meth= 1.
 IRaf=       0 NMat=   1 IRICut=       1 DoRegI=T DoRafI=F ISym2E= 0 JSym2E=0.

 Cycle   1  Pass 1  IDiag  1:
 E= -78.2707630399982    
 DIIS: error= 8.25D-03 at cycle   1 NSaved=   1.
 NSaved= 1 IEnMin= 1 EnMin= -78.2707630399982     IErMin= 1 ErrMin= 8.25D-03
 ErrMax= 8.25D-03 EMaxC= 1.00D-01 BMatC= 1.34D-03 BMatP= 1.34D-03
 IDIUse=3 WtCom= 9.17D-01 WtEn= 8.25D-02
 Coeff-Com:  0.100D+01
 Coeff-En:   0.100D+01
 Coeff:      0.100D+01
 Gap=     0.996 Goal=   None    Shift=    0.000
 GapD=    0.996 DampG=2.000 DampE=1.000 DampFc=2.0000 IDamp=-1.
 RMSDP=3.78D-03 MaxDP=1.78D-02              OVMax= 0.00D+00

 Cycle   2  Pass 1  IDiag  1:
 E= -78.2737115177256     Delta-E=       -0.002948477727 Rises=F Damp=F
 DIIS: error= 2.84D-03 at cycle   2 NSaved=   2.
 NSaved= 2 IEnMin= 2 EnMin= -78.2737115177256     IErMin= 2 ErrMin= 2.84D-03
 ErrMax= 2.84D-03 EMaxC= 1.00D-01 BMatC= 1.40D-04 BMatP= 1.34D-03
 IDIUse=3 WtCom= 9.72D-01 WtEn= 2.84D-02
 Coeff-Com: -0.475D+00 0.147D+01
 Coeff-En:   0.000D+00 0.100D+01
 Coeff:     -0.461D+00 0.146D+01
 Gap=     0.997 Goal=   None    Shift=    0.000
 RMSDP=1.80D-03 MaxDP=8.33D-03 DE=-2.95D-03 OVMax= 0.00D+00

 Cycle   3  Pass 1  IDiag  1:
 E= -78.2740575917493     Delta-E=       -0.000346074024 Rises=F Damp=F
 DIIS: error= 9.07D-05 at cycle   3 NSaved=   3.
 NSaved= 3 IEnMin= 3 EnMin= -78.2740575917493     IErMin= 3 ErrMin= 9.07D-05
 ErrMax= 9.07D-05 EMaxC= 1.00D-01 BMatC= 7.61D-08 BMatP= 1.40D-04
 IDIUse=1 WtCom= 1.00D+00 WtEn= 0.00D+00
 Coeff-Com:  0.107D+00-0.347D+00 0.124D+01
 Coeff:      0.107D+00-0.347D+00 0.124D+01
 Gap=     0.997 Goal=   None    Shift=    0.000
 RMSDP=4.19D-05 MaxDP=1.12D-04 DE=-3.46D-04 OVMax= 0.00D+00

 Cycle   4  Pass 1  IDiag  1:
 E= -78.2740577751902     Delta-E=       -0.000000183441 Rises=F Damp=F
 DIIS: error= 6.70D-06 at cycle   4 NSaved=   4.
 NSaved= 4 IEnMin= 4 EnMin= -78.2740577751902     IErMin= 4 ErrMin= 6.70D-06
 ErrMax= 6.70D-06 EMaxC= 1.00D-01 BMatC= 8.20D-10 BMatP= 7.61D-08
 IDIUse=1 WtCom= 1.00D+00 WtEn= 0.00D+00
 Coeff-Com: -0.414D-02 0.140D-01-0.106D+00 0.110D+01
 Coeff:     -0.414D-02 0.140D-01-0.106D+00 0.110D+01
 Gap=     0.997 Goal=   None    Shift=    0.000
 RMSDP=3.47D-06 MaxDP=1.11D-05 DE=-1.83D-07 OVMax= 0.00D+00

 Cycle   5  Pass 1  IDiag  1:
 E= -78.2740577768511     Delta-E=       -0.000000001661 Rises=F Damp=F
 DIIS: error= 1.18D-06 at cycle   5 NSaved=   5.
 NSaved= 5 IEnMin= 5 EnMin= -78.2740577768511     IErMin= 5 ErrMin= 1.18D-06
 ErrMax= 1.18D-06 EMaxC= 1.00D-01 BMatC= 3.53D-11 BMatP= 8.20D-10
 IDIUse=1 WtCom= 1.00D+00 WtEn= 0.00D+00
 Coeff-Com: -0.356D-02 0.115D-01-0.434D-01 0.134D-01 0.102D+01
 Coeff:     -0.356D-02 0.115D-01-0.434D-01 0.134D-01 0.102D+01
 Gap=     0.997 Goal=   None    Shift=    0.000
 RMSDP=6.71D-07 MaxDP=2.27D-06 DE=-1.66D-09 OVMax= 0.00D+00

 Cycle   6  Pass 1  IDiag  1:
 E= -78.2740577769199     Delta-E=       -0.000000000069 Rises=F Damp=F
 DIIS: error= 2.23D-07 at cycle   6 NSaved=   6.
 NSaved= 6 IEnMin= 6 EnMin= -78.2740577769199     IErMin= 6 ErrMin= 2.23D-07
 ErrMax= 2.23D-07 EMaxC= 1.00D-01 BMatC= 8.96D-13 BMatP= 3.53D-11
 IDIUse=1 WtCom= 1.00D+00 WtEn= 0.00D+00
 Coeff-Com:  0.564D-03-0.184D-02 0.805D-02-0.274D-01-0.159D+00 0.118D+01
 Coeff:      0.564D-03-0.184D-02 0.805D-02-0.274D-01-0.159D+00 0.118D+01
 Gap=     0.997 Goal=   None    Shift=    0.000
 RMSDP=1.29D-07 MaxDP=4.92D-07 DE=-6.88D-11 OVMax= 0.00D+00

 Cycle   7  Pass 1  IDiag  1:
 E= -78.2740577769220     Delta-E=       -0.000000000002 Rises=F Damp=F
 DIIS: error= 3.39D-08 at cycle   7 NSaved=   7.
 NSaved= 7 IEnMin= 7 EnMin= -78.2740577769220     IErMin= 7 ErrMin= 3.39D-08
 ErrMax= 3.39D-08 EMaxC= 1.00D-01 BMatC= 1.30D-14 BMatP= 8.96D-13
 IDIUse=1 WtCom= 1.00D+00 WtEn= 0.00D+00
 Coeff-Com: -0.697D-04 0.228D-03-0.106D-02 0.507D-02 0.219D-01-0.257D+00
 Coeff-Com:  0.123D+01
 Coeff:     -0.697D-04 0.228D-03-0.106D-02 0.507D-02 0.219D-01-0.257D+00
 Coeff:      0.123D+01
 Gap=     0.997 Goal=   None    Shift=    0.000
 RMSDP=1.76D-08 MaxDP=5.34D-08 DE=-2.10D-12 OVMax= 0.00D+00

 Cycle   8  Pass 1  IDiag  1:
 E= -78.2740577769219     Delta-E=        0.000000000000 Rises=F Damp=F
 DIIS: error= 2.00D-09 at cycle   8 NSaved=   8.
 NSaved= 8 IEnMin= 7 EnMin= -78.2740577769220     IErMin= 8 ErrMin= 2.00D-09
 ErrMax= 2.00D-09 EMaxC= 1.00D-01 BMatC= 8.55D-17 BMatP= 1.30D-14
 IDIUse=1 WtCom= 1.00D+00 WtEn= 0.00D+00
 Coeff-Com:  0.513D-05-0.168D-04 0.784D-04-0.365D-03-0.193D-02 0.241D-01
 Coeff-Com: -0.164D+00 0.114D+01
 Coeff:      0.513D-05-0.168D-04 0.784D-04-0.365D-03-0.193D-02 0.241D-01
 Coeff:     -0.164D+00 0.114D+01
 Gap=     0.997 Goal=   None    Shift=    0.000
 RMSDP=1.24D-09 MaxDP=3.29D-09 DE= 5.68D-14 OVMax= 0.00D+00

 SCF Done:  E(RHF) =  -78.2740577769     A.U. after    8 cycles
             Convg  =    0.1245D-08             -V/T =  2.0074
 KE= 7.769814892786D+01 PE=-2.658865957460D+02 EE= 6.773910729168D+01
 Leave Link  502 at Tue Aug 13 15:14:31 2024, MaxMem=   33554432 cpu:       0.1
 (Enter /programs/64bit/g09/g09-gfortran/bin/l108.exe)
 Variable Step   Value    
 -------- ---- -----------
    12       3    3.665191
 Leave Link  108 at Tue Aug 13 15:14:31 2024, MaxMem=   33554432 cpu:       0.0
 (Enter /programs/64bit/g09/g09-gfortran/bin/l202.exe)
 ---------------------------------------------------------------------------------------------------
                            Z-MATRIX (ANGSTROMS AND DEGREES)
   CD    Cent   Atom    N1       Length/X        N2       Alpha/Y        N3        Beta/Z          J
 ---------------------------------------------------------------------------------------------------
      1      1  C 
      2      2  C        1   1.540000(     1)
      3      3  H        1   1.090000(     2)      2  111.000(     8)
      4      4  H        1   1.090000(     3)      2  111.000(     9)      3  108.000(    14)      0
      5      5  H        1   1.090000(     4)      2  111.000(    10)      3 -108.000(    15)      0
      6      6  H        2   1.090000(     5)      1  111.000(    11)      3  210.000(    16)      0
      7      7  H        2   1.090000(     6)      1  111.000(    12)      6  108.000(    17)      0
      8      8  H        2   1.090000(     7)      1  111.000(    13)      6 -108.000(    18)      0
 ---------------------------------------------------------------------------------------------------
                         Z-Matrix orientation:                         
 ---------------------------------------------------------------------
 Center     Atomic      Atomic             Coordinates (Angstroms)
 Number     Number       Type             X           Y           Z
 ---------------------------------------------------------------------
      1          6           0        0.000000    0.000000    0.000000
      2          6           0        0.000000    0.000000    1.540000
      3          1           0        1.017603    0.000000   -0.390621
      4          1           0       -0.314457   -0.967798   -0.390621
      5          1           0       -0.314457    0.967798   -0.390621
      6          1           0       -0.881270   -0.508801    1.930621
      7          1           0        0.756226   -0.680909    1.930621
      8          1           0       -0.211571    0.995366    1.930621
 ---------------------------------------------------------------------
                    Distance matrix (angstroms):
                    1          2          3          4          5
     1  C    0.000000
     2  C    1.540000   0.000000
     3  H    1.090000   2.182387   0.000000
     4  H    1.090000   2.182387   1.646516   0.000000
     5  H    1.090000   2.182387   1.646516   1.935595   0.000000
     6  H    2.182387   1.090000   3.041835   2.433130   2.808876
     7  H    2.182387   1.090000   2.433130   2.572320   3.041835
     8  H    2.182387   1.090000   2.808876   3.041835   2.323685
                    6          7          8
     6  H    0.000000
     7  H    1.646516   0.000000
     8  H    1.646516   1.935595   0.000000
 Stoichiometry    C2H6
 Framework group  C2[X(C2H6)]
 Deg. of freedom    10
 Full point group                 C2      NOp   2
 Largest Abelian subgroup         C2      NOp   2
 Largest concise Abelian subgroup C2      NOp   2
                         Standard orientation:                         
 ---------------------------------------------------------------------
 Center     Atomic      Atomic             Coordinates (Angstroms)
 Number     Number       Type             X           Y           Z
 ---------------------------------------------------------------------
      1          6           0        0.000000    0.770000    0.011178
      2          6           0       -0.000000   -0.770000    0.011178
      3          1           0        0.982929    1.160621   -0.252197
      4          1           0       -0.554226    1.160621   -0.842256
      5          1           0       -0.053257    1.160621    1.027386
      6          1           0       -0.982929   -1.160621   -0.252197
      7          1           0        0.554226   -1.160621   -0.842256
      8          1           0        0.053257   -1.160621    1.027386
 ---------------------------------------------------------------------
 Rotational constants (GHZ):     81.2315720     20.2578095     19.3616697
 Leave Link  202 at Tue Aug 13 15:14:31 2024, MaxMem=   33554432 cpu:       0.0
 (Enter /programs/64bit/g09/g09-gfortran/bin/l301.exe)
 Standard basis: STO-3G (5D, 7F)
 Ernie: Thresh=  0.10000D-02 Tol=  0.10000D-05 Strict=F.
 There are     8 symmetry adapted basis functions of A   symmetry.
 There are     8 symmetry adapted basis functions of B   symmetry.
 Integral buffers will be    131072 words long.
 Raffenetti 1 integral format.
 Two-electron integral symmetry is turned on.
    16 basis functions,    48 primitive gaussians,    16 cartesian basis functions
     9 alpha electrons        9 beta electrons
       nuclear repulsion energy        42.1764074270 Hartrees.
 IExCor=    0 DFT=F Ex=HF Corr=None ExCW=0 ScaHFX=  1.000000
 ScaDFX=  1.000000  1.000000  1.000000  1.000000 ScalE2=  1.000000  1.000000
 IRadAn=      0 IRanWt=     -1 IRanGd=            0 ICorTp=0
 NAtoms=    8 NActive=    8 NUniq=    4 SFac= 3.00D+00 NAtFMM=   80 NAOKFM=F Big=F
 Leave Link  301 at Tue Aug 13 15:14:31 2024, MaxMem=   33554432 cpu:       0.1
 (Enter /programs/64bit/g09/g09-gfortran/bin/l302.exe)
 NPDir=0 NMtPBC=     1 NCelOv=     1 NCel=       1 NClECP=     1 NCelD=      1
         NCelK=      1 NCelE2=     1 NClLst=     1 CellRange=     0.0.
 One-electron integrals computed using PRISM.
 One-electron integral symmetry used in STVInt
 NBasis=    16 RedAO= T  NBF=     8     8
 NBsUse=    16 1.00D-06 NBFU=     8     8
 Leave Link  302 at Tue Aug 13 15:14:31 2024, MaxMem=   33554432 cpu:       0.1
 (Enter /programs/64bit/g09/g09-gfortran/bin/l303.exe)
 DipDrv:  MaxL=1.
 Leave Link  303 at Tue Aug 13 15:14:32 2024, MaxMem=   33554432 cpu:       0.0
 (Enter /programs/64bit/g09/g09-gfortran/bin/l401.exe)
 Initial guess read from the read-write file.
 B after Tr=     0.000000    0.000000    0.000000
         Rot=    1.000000    0.000000    0.000000    0.000000 Ang=   0.00 deg.
 Guess basis will be translated and rotated to current coordinates.
 Initial guess orbital symmetries:
       Occupied  (B) (A) (A) (B) (A) (B) (B) (A) (A)
       Virtual   (B) (A) (B) (A) (B) (A) (B)
 The electronic state of the initial guess is 1-A.
 Generating alternative initial guess.
 Harris functional with IExCor=  205 diagonalized for initial guess.
 ExpMin= 1.69D-01 ExpMax= 7.16D+01 ExpMxC= 7.16D+01 IAcc=1 IRadAn=         1 AccDes= 0.00D+00
 HarFok:  IExCor=  205 AccDes= 0.00D+00 IRadAn=         1 IDoV= 1
 ScaDFX=  1.000000  1.000000  1.000000  1.000000
 FoFCou: FMM=F IPFlag=           0 FMFlag=      100000 FMFlg1=           0
         NFxFlg=           0 DoJE=T BraDBF=F KetDBF=T FulRan=T
         Omega=  0.000000  0.000000  1.000000  0.000000  0.000000 ICntrl=     500 IOpCl=  0
         NMat0=    1 NMatS0=    1 NMatT0=    0 NMatD0=    1 NMtDS0=    0 NMtDT0=    0
         I1Cent=           4 NGrid=           0.
 Petite list used in FoFCou.
 Harris En= -78.5209815438996    
 Leave Link  401 at Tue Aug 13 15:14:32 2024, MaxMem=   33554432 cpu:       0.4
 (Enter /programs/64bit/g09/g09-gfortran/bin/l502.exe)
 Closed shell SCF:
 Requested convergence on RMS density matrix=1.00D-08 within 128 cycles.
 Requested convergence on MAX density matrix=1.00D-06.
 Requested convergence on             energy=1.00D-06.
 No special actions if energy rises.
 Using DIIS extrapolation, IDIIS=  1040.
 Integral symmetry usage will be decided dynamically.
 Keep R1 ints in memory in canonical form, NReq=829119.
 IEnd=       19789 IEndB=       19789 NGot=    33554432 MDV=    33542402
 LenX=    33542402 LenY=    33541520
 Symmetry not used in FoFDir.
 MinBra= 0 MaxBra= 1 Meth= 1.
 IRaf=       0 NMat=   1 IRICut=       1 DoRegI=T DoRafI=F ISym2E= 0 JSym2E=0.

 Cycle   1  Pass 1  IDiag  1:
 E= -78.2696205924481    
 DIIS: error= 7.89D-03 at cycle   1 NSaved=   1.
 NSaved= 1 IEnMin= 1 EnMin= -78.2696205924481     IErMin= 1 ErrMin= 7.89D-03
 ErrMax= 7.89D-03 EMaxC= 1.00D-01 BMatC= 1.35D-03 BMatP= 1.35D-03
 IDIUse=3 WtCom= 9.21D-01 WtEn= 7.89D-02
 Coeff-Com:  0.100D+01
 Coeff-En:   0.100D+01
 Coeff:      0.100D+01
 Gap=     0.993 Goal=   None    Shift=    0.000
 GapD=    0.993 DampG=2.000 DampE=1.000 DampFc=2.0000 IDamp=-1.
 RMSDP=3.81D-03 MaxDP=1.76D-02              OVMax= 0.00D+00

 Cycle   2  Pass 1  IDiag  1:
 E= -78.2726082012501     Delta-E=       -0.002987608802 Rises=F Damp=F
 DIIS: error= 2.61D-03 at cycle   2 NSaved=   2.
 NSaved= 2 IEnMin= 2 EnMin= -78.2726082012501     IErMin= 2 ErrMin= 2.61D-03
 ErrMax= 2.61D-03 EMaxC= 1.00D-01 BMatC= 1.42D-04 BMatP= 1.35D-03
 IDIUse=3 WtCom= 9.74D-01 WtEn= 2.61D-02
 Coeff-Com: -0.477D+00 0.148D+01
 Coeff-En:   0.000D+00 0.100D+01
 Coeff:     -0.464D+00 0.146D+01
 Gap=     0.995 Goal=   None    Shift=    0.000
 RMSDP=1.82D-03 MaxDP=8.26D-03 DE=-2.99D-03 OVMax= 0.00D+00

 Cycle   3  Pass 1  IDiag  1:
 E= -78.2729610497765     Delta-E=       -0.000352848526 Rises=F Damp=F
 DIIS: error= 7.97D-05 at cycle   3 NSaved=   3.
 NSaved= 3 IEnMin= 3 EnMin= -78.2729610497765     IErMin= 3 ErrMin= 7.97D-05
 ErrMax= 7.97D-05 EMaxC= 1.00D-01 BMatC= 7.22D-08 BMatP= 1.42D-04
 IDIUse=1 WtCom= 1.00D+00 WtEn= 0.00D+00
 Coeff-Com:  0.111D+00-0.356D+00 0.125D+01
 Coeff:      0.111D+00-0.356D+00 0.125D+01
 Gap=     0.995 Goal=   None    Shift=    0.000
 RMSDP=4.07D-05 MaxDP=1.10D-04 DE=-3.53D-04 OVMax= 0.00D+00

 Cycle   4  Pass 1  IDiag  1:
 E= -78.2729612239235     Delta-E=       -0.000000174147 Rises=F Damp=F
 DIIS: error= 6.15D-06 at cycle   4 NSaved=   4.
 NSaved= 4 IEnMin= 4 EnMin= -78.2729612239235     IErMin= 4 ErrMin= 6.15D-06
 ErrMax= 6.15D-06 EMaxC= 1.00D-01 BMatC= 7.20D-10 BMatP= 7.22D-08
 IDIUse=1 WtCom= 1.00D+00 WtEn= 0.00D+00
 Coeff-Com: -0.118D-01 0.385D-01-0.184D+00 0.116D+01
 Coeff:     -0.118D-01 0.385D-01-0.184D+00 0.116D+01
 Gap=     0.995 Goal=   None    Shift=    0.000
 RMSDP=3.44D-06 MaxDP=1.14D-05 DE=-1.74D-07 OVMax= 0.00D+00

 Cycle   5  Pass 1  IDiag  1:
 E= -78.2729612254711     Delta-E=       -0.000000001548 Rises=F Damp=F
 DIIS: error= 8.50D-07 at cycle   5 NSaved=   5.
 NSaved= 5 IEnMin= 5 EnMin= -78.2729612254711     IErMin= 5 ErrMin= 8.50D-07
 ErrMax= 8.50D-07 EMaxC= 1.00D-01 BMatC= 2.41D-11 BMatP= 7.20D-10
 IDIUse=1 WtCom= 1.00D+00 WtEn= 0.00D+00
 Coeff-Com: -0.256D-02 0.827D-02-0.312D-01 0.888D-02 0.102D+01
 Coeff:     -0.256D-02 0.827D-02-0.312D-01 0.888D-02 0.102D+01
 Gap=     0.995 Goal=   None    Shift=    0.000
 RMSDP=5.45D-07 MaxDP=1.78D-06 DE=-1.55D-09 OVMax= 0.00D+00

 Cycle   6  Pass 1  IDiag  1:
 E= -78.2729612255175     Delta-E=       -0.000000000046 Rises=F Damp=F
 DIIS: error= 2.09D-07 at cycle   6 NSaved=   6.
 NSaved= 6 IEnMin= 6 EnMin= -78.2729612255175     IErMin= 6 ErrMin= 2.09D-07
 ErrMax= 2.09D-07 EMaxC= 1.00D-01 BMatC= 7.93D-13 BMatP= 2.41D-11
 IDIUse=1 WtCom= 1.00D+00 WtEn= 0.00D+00
 Coeff-Com:  0.543D-03-0.176D-02 0.796D-02-0.402D-01-0.849D-01 0.112D+01
 Coeff:      0.543D-03-0.176D-02 0.796D-02-0.402D-01-0.849D-01 0.112D+01
 Gap=     0.995 Goal=   None    Shift=    0.000
 RMSDP=1.18D-07 MaxDP=4.45D-07 DE=-4.64D-11 OVMax= 0.00D+00

 Cycle   7  Pass 1  IDiag  1:
 E= -78.2729612255193     Delta-E=       -0.000000000002 Rises=F Damp=F
 DIIS: error= 3.30D-08 at cycle   7 NSaved=   7.
 NSaved= 7 IEnMin= 7 EnMin= -78.2729612255193     IErMin= 7 ErrMin= 3.30D-08
 ErrMax= 3.30D-08 EMaxC= 1.00D-01 BMatC= 1.41D-14 BMatP= 7.93D-13
 IDIUse=1 WtCom= 1.00D+00 WtEn= 0.00D+00
 Coeff-Com: -0.693D-04 0.226D-03-0.110D-02 0.772D-02 0.426D-02-0.245D+00
 Coeff-Com:  0.123D+01
 Coeff:     -0.693D-04 0.226D-03-0.110D-02 0.772D-02 0.426D-02-0.245D+00
 Coeff:      0.123D+01
 Gap=     0.995 Goal=   None    Shift=    0.000
 RMSDP=1.83D-08 MaxDP=5.45D-08 DE=-1.85D-12 OVMax= 0.00D+00

 Cycle   8  Pass 1  IDiag  1:
 E= -78.2729612255193     Delta-E=        0.000000000000 Rises=F Damp=F
 DIIS: error= 2.05D-09 at cycle   8 NSaved=   8.
 NSaved= 8 IEnMin= 7 EnMin= -78.2729612255193     IErMin= 8 ErrMin= 2.05D-09
 ErrMax= 2.05D-09 EMaxC= 1.00D-01 BMatC= 9.52D-17 BMatP= 1.41D-14
 IDIUse=1 WtCom= 1.00D+00 WtEn= 0.00D+00
 Coeff-Com:  0.478D-05-0.156D-04 0.784D-04-0.590D-03-0.264D-03 0.228D-01
 Coeff-Com: -0.166D+00 0.114D+01
 Coeff:      0.478D-05-0.156D-04 0.784D-04-0.590D-03-0.264D-03 0.228D-01
 Coeff:     -0.166D+00 0.114D+01
 Gap=     0.995 Goal=   None    Shift=    0.000
 RMSDP=1.30D-09 MaxDP=3.31D-09 DE= 0.00D+00 OVMax= 0.00D+00

 SCF Done:  E(RHF) =  -78.2729612255     A.U. after    8 cycles
             Convg  =    0.1300D-08             -V/T =  2.0073
 KE= 7.770194335175D+01 PE=-2.658956499666D+02 EE= 6.774433796234D+01
 Leave Link  502 at Tue Aug 13 15:14:32 2024, MaxMem=   33554432 cpu:       0.1
 (Enter /programs/64bit/g09/g09-gfortran/bin/l108.exe)
 Variable Step   Value    
 -------- ---- -----------
    12       4    3.839724
 Leave Link  108 at Tue Aug 13 15:14:32 2024, MaxMem=   33554432 cpu:       0.0
 (Enter /programs/64bit/g09/g09-gfortran/bin/l202.exe)
 ---------------------------------------------------------------------------------------------------
                            Z-MATRIX (ANGSTROMS AND DEGREES)
   CD    Cent   Atom    N1       Length/X        N2       Alpha/Y        N3        Beta/Z          J
 ---------------------------------------------------------------------------------------------------
      1      1  C 
      2      2  C        1   1.540000(     1)
      3      3  H        1   1.090000(     2)      2  111.000(     8)
      4      4  H        1   1.090000(     3)      2  111.000(     9)      3  108.000(    14)      0
      5      5  H        1   1.090000(     4)      2  111.000(    10)      3 -108.000(    15)      0
      6      6  H        2   1.090000(     5)      1  111.000(    11)      3  220.000(    16)      0
      7      7  H        2   1.090000(     6)      1  111.000(    12)      6  108.000(    17)      0
      8      8  H        2   1.090000(     7)      1  111.000(    13)      6 -108.000(    18)      0
 ---------------------------------------------------------------------------------------------------
                         Z-Matrix orientation:                         
 ---------------------------------------------------------------------
 Center     Atomic      Atomic             Coordinates (Angstroms)
 Number     Number       Type             X           Y           Z
 ---------------------------------------------------------------------
      1          6           0        0.000000    0.000000    0.000000
      2          6           0        0.000000    0.000000    1.540000
      3          1           0        1.017603    0.000000   -0.390621
      4          1           0       -0.314457   -0.967798   -0.390621
      5          1           0       -0.314457    0.967798   -0.390621
      6          1           0       -0.779529   -0.654102    1.930621
      7          1           0        0.862976   -0.539247    1.930621
      8          1           0       -0.381201    0.943505    1.930621
 ---------------------------------------------------------------------
                    Distance matrix (angstroms):
                    1          2          3          4          5
     1  C    0.000000
     2  C    1.540000   0.000000
     3  H    1.090000   2.182387   0.000000
     4  H    1.090000   2.182387   1.646516   0.000000
     5  H    1.090000   2.182387   1.646516   1.935595   0.000000
     6  H    2.182387   1.090000   3.007606   2.388067   2.869672
     7  H    2.182387   1.090000   2.388067   2.637834   3.007606
     8  H    2.182387   1.090000   2.869672   3.007606   2.322329
                    6          7          8
     6  H    0.000000
     7  H    1.646516   0.000000
[...]
 IDIUse=1 WtCom= 1.00D+00 WtEn= 0.00D+00
 Coeff-Com:  0.135D-01-0.427D-01 0.428D-01 0.986D+00
 Coeff:      0.135D-01-0.427D-01 0.428D-01 0.986D+00
 Gap=     0.999 Goal=   None    Shift=    0.000
 RMSDP=4.60D-06 MaxDP=1.28D-05 DE=-1.91D-07 OVMax= 0.00D+00

 Cycle   5  Pass 1  IDiag  1:
 E= -78.2748503061694     Delta-E=       -0.000000003052 Rises=F Damp=F
 DIIS: error= 1.89D-06 at cycle   5 NSaved=   5.
 NSaved= 5 IEnMin= 5 EnMin= -78.2748503061694     IErMin= 5 ErrMin= 1.89D-06
 ErrMax= 1.89D-06 EMaxC= 1.00D-01 BMatC= 5.53D-11 BMatP= 1.69D-09
 IDIUse=1 WtCom= 1.00D+00 WtEn= 0.00D+00
 Coeff-Com: -0.397D-02 0.128D-01-0.401D-01-0.120D+00 0.115D+01
 Coeff:     -0.397D-02 0.128D-01-0.401D-01-0.120D+00 0.115D+01
 Gap=     0.999 Goal=   None    Shift=    0.000
 RMSDP=9.47D-07 MaxDP=3.48D-06 DE=-3.05D-09 OVMax= 0.00D+00

 Cycle   6  Pass 1  IDiag  1:
 E= -78.2748503062916     Delta-E=       -0.000000000122 Rises=F Damp=F
 DIIS: error= 2.51D-07 at cycle   6 NSaved=   6.
 NSaved= 6 IEnMin= 6 EnMin= -78.2748503062916     IErMin= 6 ErrMin= 2.51D-07
 ErrMax= 2.51D-07 EMaxC= 1.00D-01 BMatC= 9.33D-13 BMatP= 5.53D-11
 IDIUse=1 WtCom= 1.00D+00 WtEn= 0.00D+00
 Coeff-Com:  0.560D-03-0.182D-02 0.659D-02 0.110D-01-0.233D+00 0.122D+01
 Coeff:      0.560D-03-0.182D-02 0.659D-02 0.110D-01-0.233D+00 0.122D+01
 Gap=     0.999 Goal=   None    Shift=    0.000
 RMSDP=1.32D-07 MaxDP=5.05D-07 DE=-1.22D-10 OVMax= 0.00D+00

 Cycle   7  Pass 1  IDiag  1:
 E= -78.2748503062937     Delta-E=       -0.000000000002 Rises=F Damp=F
 DIIS: error= 3.50D-08 at cycle   7 NSaved=   7.
 NSaved= 7 IEnMin= 7 EnMin= -78.2748503062937     IErMin= 7 ErrMin= 3.50D-08
 ErrMax= 3.50D-08 EMaxC= 1.00D-01 BMatC= 1.20D-14 BMatP= 9.33D-13
 IDIUse=1 WtCom= 1.00D+00 WtEn= 0.00D+00
 Coeff-Com: -0.693D-04 0.225D-03-0.845D-03-0.136D-02 0.362D-01-0.261D+00
 Coeff-Com:  0.123D+01
 Coeff:     -0.693D-04 0.225D-03-0.845D-03-0.136D-02 0.362D-01-0.261D+00
 Coeff:      0.123D+01
 Gap=     0.999 Goal=   None    Shift=    0.000
 RMSDP=1.69D-08 MaxDP=5.33D-08 DE=-2.16D-12 OVMax= 0.00D+00

 Cycle   8  Pass 1  IDiag  1:
 E= -78.2748503062938     Delta-E=       -0.000000000000 Rises=F Damp=F
 DIIS: error= 2.26D-09 at cycle   8 NSaved=   8.
 NSaved= 8 IEnMin= 8 EnMin= -78.2748503062938     IErMin= 8 ErrMin= 2.26D-09
 ErrMax= 2.26D-09 EMaxC= 1.00D-01 BMatC= 6.84D-17 BMatP= 1.20D-14
 IDIUse=1 WtCom= 1.00D+00 WtEn= 0.00D+00
 Coeff-Com:  0.458D-05-0.149D-04 0.539D-04 0.144D-03-0.275D-02 0.216D-01
 Coeff-Com: -0.150D+00 0.113D+01
 Coeff:      0.458D-05-0.149D-04 0.539D-04 0.144D-03-0.275D-02 0.216D-01
 Coeff:     -0.150D+00 0.113D+01
 Gap=     0.999 Goal=   None    Shift=    0.000
 RMSDP=1.15D-09 MaxDP=3.34D-09 DE=-7.11D-14 OVMax= 0.00D+00

 SCF Done:  E(RHF) =  -78.2748503063     A.U. after    8 cycles
             Convg  =    0.1148D-08             -V/T =  2.0075
 KE= 7.769541083104D+01 PE=-2.658801127880D+02 EE= 6.773537188050D+01
 Leave Link  502 at Tue Aug 13 15:14:58 2024, MaxMem=   33554432 cpu:       0.1
 (Enter /programs/64bit/g09/g09-gfortran/bin/l108.exe)
 Variable Step   Value    
 -------- ---- -----------
    12      36    9.424778
 Leave Link  108 at Tue Aug 13 15:14:58 2024, MaxMem=   33554432 cpu:       0.0
 (Enter /programs/64bit/g09/g09-gfortran/bin/l202.exe)
 ---------------------------------------------------------------------------------------------------
                            Z-MATRIX (ANGSTROMS AND DEGREES)
   CD    Cent   Atom    N1       Length/X        N2       Alpha/Y        N3        Beta/Z          J
 ---------------------------------------------------------------------------------------------------
      1      1  C 
      2      2  C        1   1.540000(     1)
      3      3  H        1   1.090000(     2)      2  111.000(     8)
      4      4  H        1   1.090000(     3)      2  111.000(     9)      3  108.000(    14)      0
      5      5  H        1   1.090000(     4)      2  111.000(    10)      3 -108.000(    15)      0
      6      6  H        2   1.090000(     5)      1  111.000(    11)      3  540.000(    16)      0
      7      7  H        2   1.090000(     6)      1  111.000(    12)      6  108.000(    17)      0
      8      8  H        2   1.090000(     7)      1  111.000(    13)      6 -108.000(    18)      0
 ---------------------------------------------------------------------------------------------------
                         Z-Matrix orientation:                         
 ---------------------------------------------------------------------
 Center     Atomic      Atomic             Coordinates (Angstroms)
 Number     Number       Type             X           Y           Z
 ---------------------------------------------------------------------
      1          6           0        0.000000    0.000000    0.000000
      2          6           0        0.000000    0.000000    1.540000
      3          1           0        1.017603    0.000000   -0.390621
      4          1           0       -0.314457   -0.967798   -0.390621
      5          1           0       -0.314457    0.967798   -0.390621
      6          1           0       -1.017603    0.000000    1.930621
      7          1           0        0.314457   -0.967798    1.930621
      8          1           0        0.314457    0.967798    1.930621
 ---------------------------------------------------------------------
                    Distance matrix (angstroms):
                    1          2          3          4          5
     1  C    0.000000
     2  C    1.540000   0.000000
     3  H    1.090000   2.182387   0.000000
     4  H    1.090000   2.182387   1.646516   0.000000
     5  H    1.090000   2.182387   1.646516   1.935595   0.000000
     6  H    2.182387   1.090000   3.087106   2.611362   2.611362
     7  H    2.182387   1.090000   2.611362   2.404932   3.087106
     8  H    2.182387   1.090000   2.611362   3.087106   2.404932
                    6          7          8
     6  H    0.000000
     7  H    1.646516   0.000000
     8  H    1.646516   1.935595   0.000000
 Stoichiometry    C2H6
 Framework group  C2H[SGH(C2H2),X(H4)]
 Deg. of freedom     6
 Full point group                 C2H     NOp   4
 Omega: Change in point group or standard orientation.

 Old FWG=C02  [X(C2H6)]
 New FWG=C02H [SGH(C2H2),X(H4)]
 Largest Abelian subgroup         C2H     NOp   4
 Largest concise Abelian subgroup C2H     NOp   4
                         Standard orientation:                         
 ---------------------------------------------------------------------
 Center     Atomic      Atomic             Coordinates (Angstroms)
 Number     Number       Type             X           Y           Z
 ---------------------------------------------------------------------
      1          6           0        0.000000    0.770000    0.000000
      2          6           0       -0.000000   -0.770000    0.000000
      3          1           0       -1.017603    1.160621   -0.000000
      4          1           0        0.314457    1.160621    0.967798
      5          1           0        0.314457    1.160621   -0.967798
      6          1           0        1.017603   -1.160621   -0.000000
      7          1           0       -0.314457   -1.160621    0.967798
      8          1           0       -0.314457   -1.160621   -0.967798
 ---------------------------------------------------------------------
 Rotational constants (GHZ):     81.2477249     20.3282222     19.2948553
 Leave Link  202 at Tue Aug 13 15:14:58 2024, MaxMem=   33554432 cpu:       0.0
 (Enter /programs/64bit/g09/g09-gfortran/bin/l301.exe)
 Standard basis: STO-3G (5D, 7F)
 Ernie: Thresh=  0.10000D-02 Tol=  0.10000D-05 Strict=F.
 There are     6 symmetry adapted basis functions of AG  symmetry.
 There are     2 symmetry adapted basis functions of BG  symmetry.
 There are     2 symmetry adapted basis functions of AU  symmetry.
 There are     6 symmetry adapted basis functions of BU  symmetry.
 Integral buffers will be    131072 words long.
 Raffenetti 1 integral format.
 Two-electron integral symmetry is turned on.
    16 basis functions,    48 primitive gaussians,    16 cartesian basis functions
     9 alpha electrons        9 beta electrons
       nuclear repulsion energy        42.1741896358 Hartrees.
 IExCor=    0 DFT=F Ex=HF Corr=None ExCW=0 ScaHFX=  1.000000
 ScaDFX=  1.000000  1.000000  1.000000  1.000000 ScalE2=  1.000000  1.000000
 IRadAn=      0 IRanWt=     -1 IRanGd=            0 ICorTp=0
 NAtoms=    8 NActive=    8 NUniq=    3 SFac= 3.00D+00 NAtFMM=   80 NAOKFM=F Big=F
 Leave Link  301 at Tue Aug 13 15:14:58 2024, MaxMem=   33554432 cpu:       0.1
 (Enter /programs/64bit/g09/g09-gfortran/bin/l302.exe)
 NPDir=0 NMtPBC=     1 NCelOv=     1 NCel=       1 NClECP=     1 NCelD=      1
         NCelK=      1 NCelE2=     1 NClLst=     1 CellRange=     0.0.
 One-electron integrals computed using PRISM.
 One-electron integral symmetry used in STVInt
 NBasis=    16 RedAO= T  NBF=     6     2     2     6
 NBsUse=    16 1.00D-06 NBFU=     6     2     2     6
 Leave Link  302 at Tue Aug 13 15:14:58 2024, MaxMem=   33554432 cpu:       0.1
 (Enter /programs/64bit/g09/g09-gfortran/bin/l303.exe)
 DipDrv:  MaxL=1.
 Leave Link  303 at Tue Aug 13 15:14:58 2024, MaxMem=   33554432 cpu:       0.0
 (Enter /programs/64bit/g09/g09-gfortran/bin/l401.exe)
 Initial guess read from the read-write file.
 B after Tr=     0.000000    0.000000    0.000000
         Rot=    1.000000    0.000000    0.000000    0.000000 Ang=   0.00 deg.
 Guess basis will be translated and rotated to current coordinates.
 Initial guess orbital symmetries:
       Occupied  (BU) (AG) (AG) (BU) (BG) (?A) (?A) (BG) (BG)
       Virtual   (?A) (BG) (BU) (BG) (?A) (BG) (?A)
 Generating alternative initial guess.
 Harris functional with IExCor=  205 diagonalized for initial guess.
 ExpMin= 1.69D-01 ExpMax= 7.16D+01 ExpMxC= 7.16D+01 IAcc=1 IRadAn=         1 AccDes= 0.00D+00
 HarFok:  IExCor=  205 AccDes= 0.00D+00 IRadAn=         1 IDoV= 1
 ScaDFX=  1.000000  1.000000  1.000000  1.000000
 FoFCou: FMM=F IPFlag=           0 FMFlag=      100000 FMFlg1=           0
         NFxFlg=           0 DoJE=T BraDBF=F KetDBF=T FulRan=T
         Omega=  0.000000  0.000000  1.000000  0.000000  0.000000 ICntrl=     500 IOpCl=  0
         NMat0=    1 NMatS0=    1 NMatT0=    0 NMatD0=    1 NMtDS0=    0 NMtDT0=    0
         I1Cent=           4 NGrid=           0.
 Petite list used in FoFCou.
 Harris En= -78.5224964683264    
 Leave Link  401 at Tue Aug 13 15:14:59 2024, MaxMem=   33554432 cpu:       0.3
 (Enter /programs/64bit/g09/g09-gfortran/bin/l502.exe)
 Closed shell SCF:
 Requested convergence on RMS density matrix=1.00D-08 within 128 cycles.
 Requested convergence on MAX density matrix=1.00D-06.
 Requested convergence on             energy=1.00D-06.
 No special actions if energy rises.
 Using DIIS extrapolation, IDIIS=  1040.
 Integral symmetry usage will be decided dynamically.
 Keep R1 ints in memory in canonical form, NReq=829171.
 IEnd=       19841 IEndB=       19841 NGot=    33554432 MDV=    33542350
 LenX=    33542350 LenY=    33541468
 Symmetry not used in FoFDir.
 MinBra= 0 MaxBra= 1 Meth= 1.
 IRaf=       0 NMat=   1 IRICut=       1 DoRegI=T DoRafI=F ISym2E= 0 JSym2E=0.
 An orbital has undefined symmetry, so N**3 symmetry is turned off.

 Cycle   1  Pass 1  IDiag  1:
 Density matrix breaks symmetry, PCut= 1.00D-04
 Density matrix has no symmetry -- integrals replicated.
 E= -78.2718694437807    
 DIIS: error= 7.89D-03 at cycle   1 NSaved=   1.
 NSaved= 1 IEnMin= 1 EnMin= -78.2718694437807     IErMin= 1 ErrMin= 7.89D-03
 ErrMax= 7.89D-03 EMaxC= 1.00D-01 BMatC= 1.34D-03 BMatP= 1.34D-03
 IDIUse=3 WtCom= 9.21D-01 WtEn= 7.89D-02
 Coeff-Com:  0.100D+01
 Coeff-En:   0.100D+01
 Coeff:      0.100D+01
 Gap=     0.998 Goal=   None    Shift=    0.000
 GapD=    0.998 DampG=2.000 DampE=1.000 DampFc=2.0000 IDamp=-1.
 RMSDP=3.76D-03 MaxDP=1.79D-02              OVMax= 0.00D+00

 Cycle   2  Pass 1  IDiag  1:
 Density matrix breaks symmetry, PCut= 1.00D-07
 Density matrix has no symmetry -- integrals replicated.
 E= -78.2747968389357     Delta-E=       -0.002927395155 Rises=F Damp=F
 DIIS: error= 2.55D-03 at cycle   2 NSaved=   2.
 NSaved= 2 IEnMin= 2 EnMin= -78.2747968389357     IErMin= 2 ErrMin= 2.55D-03
 ErrMax= 2.55D-03 EMaxC= 1.00D-01 BMatC= 1.39D-04 BMatP= 1.34D-03
 IDIUse=3 WtCom= 9.75D-01 WtEn= 2.55D-02
 Coeff-Com: -0.473D+00 0.147D+01
 Coeff-En:   0.000D+00 0.100D+01
 Coeff:     -0.461D+00 0.146D+01
 Gap=     0.999 Goal=   None    Shift=    0.000
 RMSDP=1.79D-03 MaxDP=8.40D-03 DE=-2.93D-03 OVMax= 0.00D+00

 Cycle   3  Pass 1  IDiag  1:
 Density matrix breaks symmetry, PCut= 1.00D-07
 Density matrix has no symmetry -- integrals replicated.
 E= -78.2751384550361     Delta-E=       -0.000341616100 Rises=F Damp=F
 DIIS: error= 9.95D-05 at cycle   3 NSaved=   3.
 NSaved= 3 IEnMin= 3 EnMin= -78.2751384550361     IErMin= 3 ErrMin= 9.95D-05
 ErrMax= 9.95D-05 EMaxC= 1.00D-01 BMatC= 7.45D-08 BMatP= 1.39D-04
 IDIUse=1 WtCom= 1.00D+00 WtEn= 0.00D+00
 Coeff-Com:  0.910D-01-0.296D+00 0.121D+01
 Coeff:      0.910D-01-0.296D+00 0.121D+01
 Gap=     0.999 Goal=   None    Shift=    0.000
 RMSDP=4.02D-05 MaxDP=1.07D-04 DE=-3.42D-04 OVMax= 0.00D+00

 Cycle   4  Pass 1  IDiag  1:
 Density matrix breaks symmetry, PCut= 1.00D-07
 Density matrix has no symmetry -- integrals replicated.
 E= -78.2751386296244     Delta-E=       -0.000000174588 Rises=F Damp=F
 DIIS: error= 7.42D-06 at cycle   4 NSaved=   4.
 NSaved= 4 IEnMin= 4 EnMin= -78.2751386296244     IErMin= 4 ErrMin= 7.42D-06
 ErrMax= 7.42D-06 EMaxC= 1.00D-01 BMatC= 1.35D-09 BMatP= 7.45D-08
 IDIUse=1 WtCom= 1.00D+00 WtEn= 0.00D+00
 Coeff-Com:  0.102D-01-0.323D-01 0.247D-01 0.997D+00
 Coeff:      0.102D-01-0.323D-01 0.247D-01 0.997D+00
 Gap=     0.999 Goal=   None    Shift=    0.000
 RMSDP=4.11D-06 MaxDP=1.18D-05 DE=-1.75D-07 OVMax= 0.00D+00

 Cycle   5  Pass 1  IDiag  1:
 Density matrix breaks symmetry, PCut= 1.00D-07
 Density matrix has no symmetry -- integrals replicated.
 E= -78.2751386320841     Delta-E=       -0.000000002460 Rises=F Damp=F
 DIIS: error= 1.75D-06 at cycle   5 NSaved=   5.
 NSaved= 5 IEnMin= 5 EnMin= -78.2751386320841     IErMin= 5 ErrMin= 1.75D-06
 ErrMax= 1.75D-06 EMaxC= 1.00D-01 BMatC= 5.12D-11 BMatP= 1.35D-09
 IDIUse=1 WtCom= 1.00D+00 WtEn= 0.00D+00
 Coeff-Com: -0.393D-02 0.127D-01-0.433D-01-0.863D-01 0.112D+01
 Coeff:     -0.393D-02 0.127D-01-0.433D-01-0.863D-01 0.112D+01
 Gap=     0.999 Goal=   None    Shift=    0.000
 RMSDP=8.87D-07 MaxDP=3.22D-06 DE=-2.46D-09 OVMax= 0.00D+00

 Cycle   6  Pass 1  IDiag  1:
 Density matrix breaks symmetry, PCut= 1.00D-07
 Density matrix has no symmetry -- integrals replicated.
 E= -78.2751386321938     Delta-E=       -0.000000000110 Rises=F Damp=F
 DIIS: error= 2.82D-07 at cycle   6 NSaved=   6.
 NSaved= 6 IEnMin= 6 EnMin= -78.2751386321938     IErMin= 6 ErrMin= 2.82D-07
 ErrMax= 2.82D-07 EMaxC= 1.00D-01 BMatC= 9.25D-13 BMatP= 5.12D-11
 IDIUse=1 WtCom= 1.00D+00 WtEn= 0.00D+00
 Coeff-Com:  0.564D-03-0.183D-02 0.718D-02 0.302D-02-0.224D+00 0.121D+01
 Coeff:      0.564D-03-0.183D-02 0.718D-02 0.302D-02-0.224D+00 0.121D+01
 Gap=     0.999 Goal=   None    Shift=    0.000
 RMSDP=1.31D-07 MaxDP=4.91D-07 DE=-1.10D-10 OVMax= 0.00D+00

 Cycle   7  Pass 1  IDiag  1:
 Density matrix breaks symmetry, PCut= 1.00D-07
 Density matrix has no symmetry -- integrals replicated.
 E= -78.2751386321960     Delta-E=       -0.000000000002 Rises=F Damp=F
 DIIS: error= 3.03D-08 at cycle   7 NSaved=   7.
 NSaved= 7 IEnMin= 7 EnMin= -78.2751386321960     IErMin= 7 ErrMin= 3.03D-08
 ErrMax= 3.03D-08 EMaxC= 1.00D-01 BMatC= 1.17D-14 BMatP= 9.25D-13
 IDIUse=1 WtCom= 1.00D+00 WtEn= 0.00D+00
 Coeff-Com: -0.687D-04 0.223D-03-0.913D-03-0.891D-04 0.341D-01-0.258D+00
 Coeff-Com:  0.122D+01
 Coeff:     -0.687D-04 0.223D-03-0.913D-03-0.891D-04 0.341D-01-0.258D+00
 Coeff:      0.122D+01
 Gap=     0.999 Goal=   None    Shift=    0.000
 RMSDP=1.67D-08 MaxDP=5.32D-08 DE=-2.16D-12 OVMax= 0.00D+00

 Cycle   8  Pass 1  IDiag  1:
 E= -78.2751386321960     Delta-E=       -0.000000000000 Rises=F Damp=F
 DIIS: error= 3.25D-10 at cycle   8 NSaved=   8.
 NSaved= 8 IEnMin= 8 EnMin= -78.2751386321960     IErMin= 8 ErrMin= 3.25D-10
 ErrMax= 3.25D-10 EMaxC= 1.00D-01 BMatC= 2.03D-18 BMatP= 1.17D-14
 IDIUse=1 WtCom= 1.00D+00 WtEn= 0.00D+00
 Coeff-Com:  0.394D-06-0.126D-05 0.305D-05 0.397D-04-0.328D-03 0.151D-02
 Coeff-Com: -0.488D-02 0.100D+01
 Coeff:      0.394D-06-0.126D-05 0.305D-05 0.397D-04-0.328D-03 0.151D-02
 Coeff:     -0.488D-02 0.100D+01
 Gap=     0.999 Goal=   None    Shift=    0.000
 RMSDP=1.22D-09 MaxDP=3.46D-09 DE=-2.84D-14 OVMax= 0.00D+00

 SCF Done:  E(RHF) =  -78.2751386322     A.U. after    8 cycles
             Convg  =    0.1225D-08             -V/T =  2.0075
 KE= 7.769441550925D+01 PE=-2.658777638965D+02 EE= 6.773402011924D+01
 Leave Link  502 at Tue Aug 13 15:14:59 2024, MaxMem=   33554432 cpu:       0.1
 (Enter /programs/64bit/g09/g09-gfortran/bin/l108.exe)
 Scan completed.

 Summary of the potential surface scan:
   N      t3          SCF    
 ----  ---------  -----------
    1   180.0000    -78.27514
    2   190.0000    -78.27485
    3   200.0000    -78.27406
    4   210.0000    -78.27296
    5   220.0000    -78.27184
    6   230.0000    -78.27098
    7   240.0000    -78.27061
    8   250.0000    -78.27082
    9   260.0000    -78.27154
   10   270.0000    -78.27257
   11   280.0000    -78.27362
   12   290.0000    -78.27441
   13   300.0000    -78.27470
   14   310.0000    -78.27442
   15   320.0000    -78.27362
   16   330.0000    -78.27251
   17   340.0000    -78.27138
   18   350.0000    -78.27055
   19   360.0000    -78.27024
   20   370.0000    -78.27055
   21   380.0000    -78.27138
   22   390.0000    -78.27251
   23   400.0000    -78.27362
   24   410.0000    -78.27442
   25   420.0000    -78.27470
   26   430.0000    -78.27441
   27   440.0000    -78.27362
   28   450.0000    -78.27257
   29   460.0000    -78.27154
   30   470.0000    -78.27082
   31   480.0000    -78.27061
   32   490.0000    -78.27098
   33   500.0000    -78.27184
   34   510.0000    -78.27296
   35   520.0000    -78.27406
   36   530.0000    -78.27485
   37   540.0000    -78.27514
 ----  ---------  -----------
  
 Leave Link  108 at Tue Aug 13 15:14:59 2024, MaxMem=   33554432 cpu:       0.0
 (Enter /programs/64bit/g09/g09-gfortran/bin/l9999.exe)
 1\1\GINC-MOLMOD\Scan\RHF\STO-3G\C2H6\OSPITE\13-Aug-2024\1\\#p scan pop
 =full gfinput\\ethane\\0,1\C\C,1,d1\H,1,d2,2,a1\H,1,d3,2,a2,3,t1,0\H,1
 ,d4,2,a3,3,t2,0\H,2,d5,1,a4,3,t3,0\H,2,d6,1,a5,6,t4,0\H,2,d7,1,a6,6,t5
 ,0\\d1=1.54\d2=1.09\a1=111.\d3=1.09\a2=111.\t1=108.\d4=1.09\a3=111.\t2
 =-108.\d5=1.09\a4=111.\t3=180.,s,36,10.\d6=1.09\a5=111.\t4=108.\d7=1.0
 9\a6=111.\t5=-108.\\Version=EM64L-G09RevA.02\HF=-78.2751386,-78.274850
 3,-78.2740578,-78.2729612,-78.2718401,-78.2709828,-78.2706106,-78.2708
 162,-78.271536,-78.2725671,-78.273622,-78.274408,-78.2747041,-78.27441
 95,-78.2736181,-78.2725055,-78.2713783,-78.2705451,-78.2702386,-78.270
 5451,-78.2713783,-78.2725055,-78.2736181,-78.2744195,-78.2747041,-78.2
 74408,-78.273622,-78.2725671,-78.271536,-78.2708162,-78.2706106,-78.27
 09828,-78.2718401,-78.2729612,-78.2740578,-78.2748503,-78.2751386\RMSD
 =2.167e-09,3.059e-09,1.245e-09,1.300e-09,1.319e-09,1.322e-09,1.341e-09
 ,1.394e-09,1.471e-09,1.552e-09,1.622e-09,1.674e-09,2.929e-09,1.693e-09
 ,9.705e-09,7.921e-09,6.057e-09,4.281e-09,3.911e-09,3.789e-09,5.450e-09
 ,7.350e-09,9.245e-09,1.699e-09,1.684e-09,3.005e-09,1.601e-09,1.545e-09
 ,1.477e-09,1.403e-09,1.338e-09,1.297e-09,1.276e-09,1.252e-09,1.206e-09
 ,1.148e-09,1.225e-09\PG=C02H [SGH(C2H2),X(H4)]\\@


 YOU WILL NEVER "FIND" TIME FOR ANYTHING.
 IF YOU WANT TIME, YOU MUST MAKE IT.

                        -- CHARLES BIXTON
 Job cpu time:  0 days  0 hours  0 minutes 27.3 seconds.
 File lengths (MBytes):  RWF=      5 Int=      0 D2E=      0 Chk=      1 Scr=      1
 Normal termination of Gaussian 09 at Tue Aug 13 15:14:59 2024.
