 Entering Gaussian System, Link 0=g09
 Input=c2h6_opt.com
 Output=c2h6_opt.log
 Initial command:
 /programs/64bit/g09/g09-gfortran/bin/l1.exe /data/scratch/Gau-6674.inp -scrdir=/data/scratch/
 Entering Link 1 = /programs/64bit/g09/g09-gfortran/bin/l1.exe PID=      6676.
  
 Copyright (c) 1988,1990,1992,1993,1995,1998,2003,2009, Gaussian, Inc.
                  All Rights Reserved.
  
 This is part of the Gaussian(R) 09 program.  It is based on
 the Gaussian(R) 03 system (copyright 2003, Gaussian, Inc.),
 the Gaussian(R) 98 system (copyright 1998, Gaussian, Inc.),
 the Gaussian(R) 94 system (copyright 1995, Gaussian, Inc.),
 the Gaussian 92(TM) system (copyright 1992, Gaussian, Inc.),
 the Gaussian 90(TM) system (copyright 1990, Gaussian, Inc.),
 the Gaussian 88(TM) system (copyright 1988, Gaussian, Inc.),
 the Gaussian 86(TM) system (copyright 1986, Carnegie Mellon
 University), and the Gaussian 82(TM) system (copyright 1983,
 Carnegie Mellon University). Gaussian is a federally registered
 trademark of Gaussian, Inc.
  
 This software contains proprietary and confidential information,
 including trade secrets, belonging to Gaussian, Inc.
  
 This software is provided under written license and may be
 used, copied, transmitted, or stored only in accord with that
 written license.
  
 The following legend is applicable only to US Government
 contracts under FAR:
  
                    RESTRICTED RIGHTS LEGEND
  
 Use, reproduction and disclosure by the US Government is
 subject to restrictions as set forth in subparagraphs (a)
 and (c) of the Commercial Computer Software - Restricted
 Rights clause in FAR 52.227-19.
  
 Gaussian, Inc.
 340 Quinnipiac St., Bldg. 40, Wallingford CT 06492
  
  
 ---------------------------------------------------------------
 Warning -- This program may not be used in any manner that
 competes with the business of Gaussian, Inc. or will provide
 assistance to any competitor of Gaussian, Inc.  The licensee
 of this program is prohibited from giving any competitor of
 Gaussian, Inc. access to this program.  By using this program,
 the user acknowledges that Gaussian, Inc. is engaged in the
 business of creating and licensing software in the field of
 computational chemistry and represents and warrants to the
 licensee that it is not a competitor of Gaussian, Inc. and that
 it will not use this program in any manner prohibited above.
 ---------------------------------------------------------------
  

 Cite this work as:
 Gaussian 09, Revision A.02,
 M. J. Frisch, G. W. Trucks, H. B. Schlegel, G. E. Scuseria, 
 M. A. Robb, J. R. Cheeseman, G. Scalmani, V. Barone, B. Mennucci, 
 G. A. Petersson, H. Nakatsuji, M. Caricato, X. Li, H. P. Hratchian, 
 A. F. Izmaylov, J. Bloino, G. Zheng, J. L. Sonnenberg, M. Hada, 
 M. Ehara, K. Toyota, R. Fukuda, J. Hasegawa, M. Ishida, T. Nakajima, 
 Y. Honda, O. Kitao, H. Nakai, T. Vreven, J. A. Montgomery, Jr., 
 J. E. Peralta, F. Ogliaro, M. Bearpark, J. J. Heyd, E. Brothers, 
 K. N. Kudin, V. N. Staroverov, R. Kobayashi, J. Normand, 
 K. Raghavachari, A. Rendell, J. C. Burant, S. S. Iyengar, J. Tomasi, 
 M. Cossi, N. Rega, J. M. Millam, M. Klene, J. E. Knox, J. B. Cross, 
 V. Bakken, C. Adamo, J. Jaramillo, R. Gomperts, R. E. Stratmann, 
 O. Yazyev, A. J. Austin, R. Cammi, C. Pomelli, J. W. Ochterski, 
 R. L. Martin, K. Morokuma, V. G. Zakrzewski, G. A. Voth, 
 P. Salvador, J. J. Dannenberg, S. Dapprich, A. D. Daniels, 
 O. Farkas, J. B. Foresman, J. V. Ortiz, J. Cioslowski, 
 and D. J. Fox, Gaussian, Inc., Wallingford CT, 2009.
 
 ******************************************
 Gaussian 09:  EM64L-G09RevA.02 11-Jun-2009
                12-Aug-2024 
 ******************************************
 -----------------------------------------
 #p B3LYP/6-31+g(d,p) opt pop=full gfinput
 -----------------------------------------
 1/14=-1,18=20,19=15,26=3,38=1/1,3;
 2/9=110,12=2,17=6,18=5,40=1/2;
 3/5=1,6=6,7=111,11=2,16=1,24=10,25=1,30=1,71=1,74=-5/1,2,3;
 4//1;
 5/5=2,38=5/2;
 6/7=3,28=1/1;
 7//1,2,3,16;
 1/14=-1,18=20,19=15/3(2);
 2/9=110/2;
 99//99;
 2/9=110/2;
 3/5=1,6=6,7=111,11=2,16=1,25=1,30=1,71=1,74=-5/1,2,3;
 4/5=5,16=3/1;
 5/5=2,38=5/2;
 7//1,2,3,16;
 1/14=-1,18=20,19=15/3(-5);
 2/9=110/2;
 6/7=3,19=2,28=1/1;
 99/9=1/99;
 Leave Link    1 at Mon Aug 12 17:01:59 2024, MaxMem=          0 cpu:       0.1
 (Enter /programs/64bit/g09/g09-gfortran/bin/l101.exe)
 ------
 ethane
 ------
 Symbolic Z-matrix:
 Charge =  0 Multiplicity = 1
 C1
 C2                   1    d1
 H3                   1    d2       2    a1
 H4                   1    d3       2    a2       3    t1       0
 H5                   1    d4       2    a3       3    t2       0
 H6                   2    d5       1    a4       3    t3       0
 H7                   2    d6       1    a5       6    t4       0
 H8                   2    d7       1    a6       6    t5       0
       Variables:
  d1                    1.54                     
  d2                    1.09                     
  a1                  111.                       
  d3                    1.09                     
  a2                  111.                       
  t1                  108.                       
  d4                    1.09                     
  a3                  111.                       
  t2                 -108.                       
  d5                    1.09                     
  a4                  111.                       
  t3                  180.                       
  d6                    1.09                     
  a5                  111.                       
  t4                  108.                       
  d7                    1.09                     
  a6                  111.                       
  t5                 -108.                       
 
 NAtoms=      8 NQM=      8 NQMF=      0 NMic=      0 NMicF=      0 NTot=      8.
                    Isotopes and Nuclear Properties:
 (Nuclear quadrupole moments (NQMom) in fm**2, nuclear magnetic moments (NMagM)
  in nuclear magnetons)

  Atom         1           2           3           4           5           6           7           8
 IAtWgt=          12          12           1           1           1           1           1           1
 AtmWgt=  12.0000000  12.0000000   1.0078250   1.0078250   1.0078250   1.0078250   1.0078250   1.0078250
 NucSpn=           0           0           1           1           1           1           1           1
 AtZEff=   0.0000000   0.0000000   0.0000000   0.0000000   0.0000000   0.0000000   0.0000000   0.0000000
 NQMom=    0.0000000   0.0000000   0.0000000   0.0000000   0.0000000   0.0000000   0.0000000   0.0000000
 NMagM=    0.0000000   0.0000000   2.7928460   2.7928460   2.7928460   2.7928460   2.7928460   2.7928460
 Leave Link  101 at Mon Aug 12 17:01:59 2024, MaxMem=   33554432 cpu:       0.1
 (Enter /programs/64bit/g09/g09-gfortran/bin/l103.exe)

 GradGradGradGradGradGradGradGradGradGradGradGradGradGradGradGradGradGrad
 Berny optimization.
 Initialization pass.
                           ----------------------------
                           !    Initial Parameters    !
                           ! (Angstroms and Degrees)  !
 --------------------------                            --------------------------
 ! Name  Definition              Value          Derivative Info.                !
 --------------------------------------------------------------------------------
 ! R1    R(1,2)                  1.54           estimate D2E/DX2                !
 ! R2    R(1,3)                  1.09           estimate D2E/DX2                !
 ! R3    R(1,4)                  1.09           estimate D2E/DX2                !
 ! R4    R(1,5)                  1.09           estimate D2E/DX2                !
 ! R5    R(2,6)                  1.09           estimate D2E/DX2                !
 ! R6    R(2,7)                  1.09           estimate D2E/DX2                !
 ! R7    R(2,8)                  1.09           estimate D2E/DX2                !
 ! A1    A(2,1,3)              111.0            estimate D2E/DX2                !
 ! A2    A(2,1,4)              111.0            estimate D2E/DX2                !
 ! A3    A(2,1,5)              111.0            estimate D2E/DX2                !
 ! A4    A(3,1,4)               98.1001         estimate D2E/DX2                !
 ! A5    A(3,1,5)               98.1001         estimate D2E/DX2                !
 ! A6    A(4,1,5)              125.218          estimate D2E/DX2                !
 ! A7    A(1,2,6)              111.0            estimate D2E/DX2                !
 ! A8    A(1,2,7)              111.0            estimate D2E/DX2                !
 ! A9    A(1,2,8)              111.0            estimate D2E/DX2                !
 ! A10   A(6,2,7)               98.1001         estimate D2E/DX2                !
 ! A11   A(6,2,8)               98.1001         estimate D2E/DX2                !
 ! A12   A(7,2,8)              125.218          estimate D2E/DX2                !
 ! D1    D(3,1,2,6)            180.0            estimate D2E/DX2                !
 ! D2    D(3,1,2,7)            -72.0            estimate D2E/DX2                !
 ! D3    D(3,1,2,8)             72.0            estimate D2E/DX2                !
 ! D4    D(4,1,2,6)            -72.0            estimate D2E/DX2                !
 ! D5    D(4,1,2,7)             36.0            estimate D2E/DX2                !
 ! D6    D(4,1,2,8)            180.0            estimate D2E/DX2                !
 ! D7    D(5,1,2,6)             72.0            estimate D2E/DX2                !
 ! D8    D(5,1,2,7)            180.0            estimate D2E/DX2                !
 ! D9    D(5,1,2,8)            -36.0            estimate D2E/DX2                !
 --------------------------------------------------------------------------------
 Trust Radius=3.00D-01 FncErr=1.00D-07 GrdErr=1.00D-06
 Number of steps in this run=  38 maximum allowed number of steps= 100.
 GradGradGradGradGradGradGradGradGradGradGradGradGradGradGradGradGradGrad

 Leave Link  103 at Mon Aug 12 17:01:59 2024, MaxMem=   33554432 cpu:       0.0
 (Enter /programs/64bit/g09/g09-gfortran/bin/l202.exe)
                          Input orientation:                          
 ---------------------------------------------------------------------
 Center     Atomic      Atomic             Coordinates (Angstroms)
 Number     Number       Type             X           Y           Z
 ---------------------------------------------------------------------
      1          6           0        0.000000    0.000000    0.000000
      2          6           0        0.000000    0.000000    1.540000
      3          1           0        1.017603    0.000000   -0.390621
      4          1           0       -0.314457   -0.967798   -0.390621
      5          1           0       -0.314457    0.967798   -0.390621
      6          1           0       -1.017603    0.000000    1.930621
      7          1           0        0.314457   -0.967798    1.930621
      8          1           0        0.314457    0.967798    1.930621
 ---------------------------------------------------------------------
                    Distance matrix (angstroms):
                    1          2          3          4          5
     1  C    0.000000
     2  C    1.540000   0.000000
     3  H    1.090000   2.182387   0.000000
     4  H    1.090000   2.182387   1.646516   0.000000
     5  H    1.090000   2.182387   1.646516   1.935595   0.000000
     6  H    2.182387   1.090000   3.087106   2.611362   2.611362
     7  H    2.182387   1.090000   2.611362   2.404932   3.087106
     8  H    2.182387   1.090000   2.611362   3.087106   2.404932
                    6          7          8
     6  H    0.000000
     7  H    1.646516   0.000000
     8  H    1.646516   1.935595   0.000000
 Stoichiometry    C2H6
 Framework group  C2H[SGH(C2H2),X(H4)]
 Deg. of freedom     6
 Full point group                 C2H     NOp   4
 Largest Abelian subgroup         C2H     NOp   4
 Largest concise Abelian subgroup C2H     NOp   4
                         Standard orientation:                         
 ---------------------------------------------------------------------
 Center     Atomic      Atomic             Coordinates (Angstroms)
 Number     Number       Type             X           Y           Z
 ---------------------------------------------------------------------
      1          6           0       -0.000000    0.770000    0.000000
      2          6           0       -0.000000   -0.770000    0.000000
      3          1           0       -1.017603    1.160621    0.000000
      4          1           0        0.314457    1.160621    0.967798
      5          1           0        0.314457    1.160621   -0.967798
      6          1           0        1.017603   -1.160621   -0.000000
      7          1           0       -0.314457   -1.160621    0.967798
      8          1           0       -0.314457   -1.160621   -0.967798
 ---------------------------------------------------------------------
 Rotational constants (GHZ):     81.2477249     20.3282222     19.2948553
 Leave Link  202 at Mon Aug 12 17:01:59 2024, MaxMem=   33554432 cpu:       0.0
 (Enter /programs/64bit/g09/g09-gfortran/bin/l301.exe)
 Standard basis: 6-31+G(d,p) (6D, 7F)
 Ernie: Thresh=  0.10000D-02 Tol=  0.10000D-05 Strict=F.
 AO basis set in the form of general basis input (Overlap normalization):
      1 0
 S   6 1.00       0.000000000000
      0.3047524880D+04  0.1834737132D-02
      0.4573695180D+03  0.1403732281D-01
      0.1039486850D+03  0.6884262226D-01
      0.2921015530D+02  0.2321844432D+00
      0.9286662960D+01  0.4679413484D+00
      0.3163926960D+01  0.3623119853D+00
 SP   3 1.00       0.000000000000
      0.7868272350D+01 -0.1193324198D+00  0.6899906659D-01
      0.1881288540D+01 -0.1608541517D+00  0.3164239610D+00
      0.5442492580D+00  0.1143456438D+01  0.7443082909D+00
 SP   1 1.00       0.000000000000
      0.1687144782D+00  0.1000000000D+01  0.1000000000D+01
 SP   1 1.00       0.000000000000
      0.4380000000D-01  0.1000000000D+01  0.1000000000D+01
 D   1 1.00       0.000000000000
      0.8000000000D+00  0.1000000000D+01
 ****
      2 0
 S   6 1.00       0.000000000000
      0.3047524880D+04  0.1834737132D-02
      0.4573695180D+03  0.1403732281D-01
      0.1039486850D+03  0.6884262226D-01
      0.2921015530D+02  0.2321844432D+00
      0.9286662960D+01  0.4679413484D+00
      0.3163926960D+01  0.3623119853D+00
 SP   3 1.00       0.000000000000
      0.7868272350D+01 -0.1193324198D+00  0.6899906659D-01
      0.1881288540D+01 -0.1608541517D+00  0.3164239610D+00
      0.5442492580D+00  0.1143456438D+01  0.7443082909D+00
 SP   1 1.00       0.000000000000
      0.1687144782D+00  0.1000000000D+01  0.1000000000D+01
 SP   1 1.00       0.000000000000
      0.4380000000D-01  0.1000000000D+01  0.1000000000D+01
 D   1 1.00       0.000000000000
      0.8000000000D+00  0.1000000000D+01
 ****
      3 0
 S   3 1.00       0.000000000000
      0.1873113696D+02  0.3349460434D-01
      0.2825394365D+01  0.2347269535D+00
      0.6401216923D+00  0.8137573261D+00
 S   1 1.00       0.000000000000
      0.1612777588D+00  0.1000000000D+01
 P   1 1.00       0.000000000000
      0.1100000000D+01  0.1000000000D+01
 ****
      4 0
 S   3 1.00       0.000000000000
      0.1873113696D+02  0.3349460434D-01
      0.2825394365D+01  0.2347269535D+00
      0.6401216923D+00  0.8137573261D+00
 S   1 1.00       0.000000000000
      0.1612777588D+00  0.1000000000D+01
 P   1 1.00       0.000000000000
      0.1100000000D+01  0.1000000000D+01
 ****
      5 0
 S   3 1.00       0.000000000000
      0.1873113696D+02  0.3349460434D-01
      0.2825394365D+01  0.2347269535D+00
      0.6401216923D+00  0.8137573261D+00
 S   1 1.00       0.000000000000
      0.1612777588D+00  0.1000000000D+01
 P   1 1.00       0.000000000000
      0.1100000000D+01  0.1000000000D+01
 ****
      6 0
 S   3 1.00       0.000000000000
      0.1873113696D+02  0.3349460434D-01
      0.2825394365D+01  0.2347269535D+00
      0.6401216923D+00  0.8137573261D+00
 S   1 1.00       0.000000000000
      0.1612777588D+00  0.1000000000D+01
 P   1 1.00       0.000000000000
      0.1100000000D+01  0.1000000000D+01
 ****
      7 0
 S   3 1.00       0.000000000000
      0.1873113696D+02  0.3349460434D-01
      0.2825394365D+01  0.2347269535D+00
      0.6401216923D+00  0.8137573261D+00
 S   1 1.00       0.000000000000
      0.1612777588D+00  0.1000000000D+01
 P   1 1.00       0.000000000000
      0.1100000000D+01  0.1000000000D+01
 ****
      8 0
 S   3 1.00       0.000000000000
      0.1873113696D+02  0.3349460434D-01
      0.2825394365D+01  0.2347269535D+00
      0.6401216923D+00  0.8137573261D+00
 S   1 1.00       0.000000000000
      0.1612777588D+00  0.1000000000D+01
 P   1 1.00       0.000000000000
      0.1100000000D+01  0.1000000000D+01
 ****

 There are    23 symmetry adapted basis functions of AG  symmetry.
 There are    11 symmetry adapted basis functions of BG  symmetry.
 There are    11 symmetry adapted basis functions of AU  symmetry.
 There are    23 symmetry adapted basis functions of BU  symmetry.
 Integral buffers will be    131072 words long.
 Raffenetti 2 integral format.
 Two-electron integral symmetry is turned on.
    68 basis functions,   106 primitive gaussians,    68 cartesian basis functions
     9 alpha electrons        9 beta electrons
       nuclear repulsion energy        42.1741896358 Hartrees.
 IExCor=  402 DFT=T Ex+Corr=B3LYP ExCW=0 ScaHFX=  0.200000
 ScaDFX=  0.800000  0.720000  1.000000  0.810000 ScalE2=  1.000000  1.000000
 IRadAn=      0 IRanWt=     -1 IRanGd=            0 ICorTp=0
 NAtoms=    8 NActive=    8 NUniq=    3 SFac= 3.00D+00 NAtFMM=   80 NAOKFM=F Big=F
 Leave Link  301 at Mon Aug 12 17:01:59 2024, MaxMem=   33554432 cpu:       0.1
 (Enter /programs/64bit/g09/g09-gfortran/bin/l302.exe)
 NPDir=0 NMtPBC=     1 NCelOv=     1 NCel=       1 NClECP=     1 NCelD=      1
         NCelK=      1 NCelE2=     1 NClLst=     1 CellRange=     0.0.
 One-electron integrals computed using PRISM.
 One-electron integral symmetry used in STVInt
 NBasis=    68 RedAO= T  NBF=    23    11    11    23
 NBsUse=    68 1.00D-06 NBFU=    23    11    11    23
 Precomputing XC quadrature grid using
 IXCGrd= 2 IRadAn=           0 IRanWt=          -1 IRanGd=           0 AccXCQ= 1.00D-10.
 NRdTot=     510 NPtTot=       65100 NUsed=       68787 NTot=       68819
 NSgBfM=    68    68    68    68    68 NAtAll=     8     8.
 Leave Link  302 at Mon Aug 12 17:01:59 2024, MaxMem=   33554432 cpu:       0.2
 (Enter /programs/64bit/g09/g09-gfortran/bin/l303.exe)
 DipDrv:  MaxL=1.
 Leave Link  303 at Mon Aug 12 17:01:59 2024, MaxMem=   33554432 cpu:       0.0
 (Enter /programs/64bit/g09/g09-gfortran/bin/l401.exe)
 Harris functional with IExCor=  402 diagonalized for initial guess.
 ExpMin= 4.38D-02 ExpMax= 3.05D+03 ExpMxC= 4.57D+02 IAcc=2 IRadAn=         0 AccDes= 0.00D+00
 HarFok:  IExCor=  402 AccDes= 0.00D+00 IRadAn=         0 IDoV= 1
 ScaDFX=  1.000000  1.000000  1.000000  1.000000
 FoFCou: FMM=F IPFlag=           0 FMFlag=      100000 FMFlg1=           0
         NFxFlg=           0 DoJE=T BraDBF=F KetDBF=T FulRan=T
         Omega=  0.000000  0.000000  1.000000  0.000000  0.000000 ICntrl=     500 IOpCl=  0
         NMat0=    1 NMatS0=    1 NMatT0=    0 NMatD0=    1 NMtDS0=    0 NMtDT0=    0
         I1Cent=           4 NGrid=           0.
 Petite list used in FoFCou.
 Harris En= -79.8803498713998    
 Initial guess orbital symmetries:
       Occupied  (AG) (BU) (AG) (BU) (AU) (BU) (AG) (BG) (AG)
       Virtual   (AG) (BU) (AU) (BU) (AG) (BG) (BU) (AG) (AG) (BU)
                 (BU) (AU) (BG) (AG) (BU) (AG) (AU) (BU) (BU) (AG)
                 (BG) (AG) (BU) (AU) (AG) (BG) (BU) (AG) (BU) (AU)
                 (BU) (BG) (AG) (AG) (BG) (AU) (BU) (AG) (AU) (BG)
                 (BU) (AU) (BU) (AG) (BG) (BU) (AG) (BU) (AG) (AU)
                 (BG) (AG) (BU) (AG) (AU) (BG) (BU) (AG) (BU)
 The electronic state of the initial guess is 1-AG.
 Leave Link  401 at Mon Aug 12 17:02:01 2024, MaxMem=   33554432 cpu:       1.0
 (Enter /programs/64bit/g09/g09-gfortran/bin/l502.exe)
 Closed shell SCF:
 Requested convergence on RMS density matrix=1.00D-08 within 128 cycles.
 Requested convergence on MAX density matrix=1.00D-06.
 Requested convergence on             energy=1.00D-06.
 No special actions if energy rises.
 Using DIIS extrapolation, IDIIS=  1040.
 Integral symmetry usage will be decided dynamically.
        68702 words used for storage of precomputed grid.
 Keep R1 ints in memory in canonical form, NReq=3743471.
 IEnd=      101936 IEndB=      101936 NGot=    33554432 MDV=    30720770
 LenX=    30720770 LenY=    30715705
 Symmetry not used in FoFDir.
 MinBra= 0 MaxBra= 2 Meth= 1.
 IRaf=       0 NMat=   1 IRICut=       1 DoRegI=T DoRafI=F ISym2E= 0 JSym2E=0.

 Cycle   1  Pass 1  IDiag  1:
 E= -79.6872124545521    
 DIIS: error= 5.38D-02 at cycle   1 NSaved=   1.
 NSaved= 1 IEnMin= 1 EnMin= -79.6872124545521     IErMin= 1 ErrMin= 5.38D-02
 ErrMax= 5.38D-02 EMaxC= 1.00D-01 BMatC= 1.18D-01 BMatP= 1.18D-01
 IDIUse=3 WtCom= 4.62D-01 WtEn= 5.38D-01
 Coeff-Com:  0.100D+01
 Coeff-En:   0.100D+01
 Coeff:      0.100D+01
 Gap=     0.245 Goal=   None    Shift=    0.000
 GapD=    0.245 DampG=1.000 DampE=0.500 DampFc=0.5000 IDamp=-1.
 Damping current iteration by 5.00D-01
 RMSDP=9.92D-03 MaxDP=1.47D-01              OVMax= 2.11D-01

 Cycle   2  Pass 1  IDiag  1:
 E= -79.7423112717940     Delta-E=       -0.055098817242 Rises=F Damp=T
 DIIS: error= 1.07D-02 at cycle   2 NSaved=   2.
 NSaved= 2 IEnMin= 2 EnMin= -79.7423112717940     IErMin= 2 ErrMin= 1.07D-02
 ErrMax= 1.07D-02 EMaxC= 1.00D-01 BMatC= 4.79D-03 BMatP= 1.18D-01
 IDIUse=3 WtCom= 8.93D-01 WtEn= 1.07D-01
 Coeff-Com:  0.111D+00 0.889D+00
 Coeff-En:   0.190D+00 0.810D+00
 Coeff:      0.119D+00 0.881D+00
 Gap=     0.352 Goal=   None    Shift=    0.000
 RMSDP=1.40D-03 MaxDP=1.24D-02 DE=-5.51D-02 OVMax= 1.22D-01

 Cycle   3  Pass 1  IDiag  1:
 E= -79.8205421272201     Delta-E=       -0.078230855426 Rises=F Damp=F
 DIIS: error= 2.24D-03 at cycle   3 NSaved=   3.
 NSaved= 3 IEnMin= 3 EnMin= -79.8205421272201     IErMin= 3 ErrMin= 2.24D-03
 ErrMax= 2.24D-03 EMaxC= 1.00D-01 BMatC= 1.97D-04 BMatP= 4.79D-03
 IDIUse=3 WtCom= 9.78D-01 WtEn= 2.24D-02
 Coeff-Com:  0.739D-02 0.127D+00 0.865D+00
 Coeff-En:   0.000D+00 0.000D+00 0.100D+01
 Coeff:      0.722D-02 0.125D+00 0.868D+00
 Gap=     0.328 Goal=   None    Shift=    0.000
 RMSDP=2.99D-04 MaxDP=3.37D-03 DE=-7.82D-02 OVMax= 5.25D-03

 Cycle   4  Pass 1  IDiag  1:
 E= -79.8207182178089     Delta-E=       -0.000176090589 Rises=F Damp=F
 DIIS: error= 5.93D-04 at cycle   4 NSaved=   4.
 NSaved= 4 IEnMin= 4 EnMin= -79.8207182178089     IErMin= 4 ErrMin= 5.93D-04
 ErrMax= 5.93D-04 EMaxC= 1.00D-01 BMatC= 1.10D-05 BMatP= 1.97D-04
 IDIUse=3 WtCom= 9.94D-01 WtEn= 5.93D-03
 Coeff-Com: -0.736D-03-0.504D-02 0.181D+00 0.825D+00
 Coeff-En:   0.000D+00 0.000D+00 0.000D+00 0.100D+01
 Coeff:     -0.731D-03-0.501D-02 0.180D+00 0.826D+00
 Gap=     0.328 Goal=   None    Shift=    0.000
 RMSDP=5.61D-05 MaxDP=5.57D-04 DE=-1.76D-04 OVMax= 1.14D-03

 Cycle   5  Pass 1  IDiag  1:
 E= -79.8207287990016     Delta-E=       -0.000010581193 Rises=F Damp=F
 DIIS: error= 2.47D-05 at cycle   5 NSaved=   5.
 NSaved= 5 IEnMin= 5 EnMin= -79.8207287990016     IErMin= 5 ErrMin= 2.47D-05
 ErrMax= 2.47D-05 EMaxC= 1.00D-01 BMatC= 3.27D-08 BMatP= 1.10D-05
 IDIUse=1 WtCom= 1.00D+00 WtEn= 0.00D+00
 Coeff-Com:  0.395D-03-0.834D-03 0.555D-03 0.173D-01 0.983D+00
 Coeff:      0.395D-03-0.834D-03 0.555D-03 0.173D-01 0.983D+00
 Gap=     0.328 Goal=   None    Shift=    0.000
 RMSDP=3.31D-06 MaxDP=3.34D-05 DE=-1.06D-05 OVMax= 7.63D-05

 Cycle   6  Pass 1  IDiag  1:
 E= -79.8207288362355     Delta-E=       -0.000000037234 Rises=F Damp=F
 DIIS: error= 1.75D-06 at cycle   6 NSaved=   6.
 NSaved= 6 IEnMin= 6 EnMin= -79.8207288362355     IErMin= 6 ErrMin= 1.75D-06
 ErrMax= 1.75D-06 EMaxC= 1.00D-01 BMatC= 1.69D-10 BMatP= 3.27D-08
 IDIUse=1 WtCom= 1.00D+00 WtEn= 0.00D+00
 Coeff-Com:  0.536D-04-0.482D-04-0.150D-02-0.524D-02 0.101D+00 0.906D+00
 Coeff:      0.536D-04-0.482D-04-0.150D-02-0.524D-02 0.101D+00 0.906D+00
 Gap=     0.328 Goal=   None    Shift=    0.000
 RMSDP=2.87D-07 MaxDP=2.97D-06 DE=-3.72D-08 OVMax= 5.83D-06

 Cycle   7  Pass 1  IDiag  1:
 E= -79.8207288364203     Delta-E=       -0.000000000185 Rises=F Damp=F
 DIIS: error= 2.42D-07 at cycle   7 NSaved=   7.
 NSaved= 7 IEnMin= 7 EnMin= -79.8207288364203     IErMin= 7 ErrMin= 2.42D-07
 ErrMax= 2.42D-07 EMaxC= 1.00D-01 BMatC= 3.65D-12 BMatP= 1.69D-10
 IDIUse=1 WtCom= 1.00D+00 WtEn= 0.00D+00
 Coeff-Com: -0.157D-05 0.121D-05-0.173D-03-0.739D-03-0.244D-02 0.110D+00
 Coeff-Com:  0.893D+00
 Coeff:     -0.157D-05 0.121D-05-0.173D-03-0.739D-03-0.244D-02 0.110D+00
 Coeff:      0.893D+00
 Gap=     0.328 Goal=   None    Shift=    0.000
 RMSDP=4.86D-08 MaxDP=4.08D-07 DE=-1.85D-10 OVMax= 6.51D-07

 Cycle   8  Pass 1  IDiag  1:
 E= -79.8207288364249     Delta-E=       -0.000000000005 Rises=F Damp=F
 DIIS: error= 2.70D-08 at cycle   8 NSaved=   8.
 NSaved= 8 IEnMin= 8 EnMin= -79.8207288364249     IErMin= 8 ErrMin= 2.70D-08
 ErrMax= 2.70D-08 EMaxC= 1.00D-01 BMatC= 3.51D-14 BMatP= 3.65D-12
 IDIUse=1 WtCom= 1.00D+00 WtEn= 0.00D+00
 Coeff-Com: -0.815D-06 0.516D-06-0.417D-05-0.354D-04-0.131D-02 0.481D-02
 Coeff-Com:  0.120D+00 0.877D+00
 Coeff:     -0.815D-06 0.516D-06-0.417D-05-0.354D-04-0.131D-02 0.481D-02
 Coeff:      0.120D+00 0.877D+00
 Gap=     0.328 Goal=   None    Shift=    0.000
 RMSDP=4.32D-09 MaxDP=5.05D-08 DE=-4.58D-12 OVMax= 8.35D-08

 SCF Done:  E(RB3LYP) =  -79.8207288364     A.U. after    8 cycles
             Convg  =    0.4324D-08             -V/T =  2.0104
 KE= 7.900120454067D+01 PE=-2.680654795807D+02 EE= 6.706935656784D+01
 Leave Link  502 at Mon Aug 12 17:02:08 2024, MaxMem=   33554432 cpu:       7.3
 (Enter /programs/64bit/g09/g09-gfortran/bin/l601.exe)
 Copying SCF densities to generalized density rwf, IOpCl= 0 IROHF=0.

 **********************************************************************

            Population analysis using the SCF density.

 **********************************************************************

 Orbital symmetries:
       Occupied  (AG) (BU) (AG) (BU) (AU) (BU) (BG) (AG) (AG)
       Virtual   (AG) (BU) (AU) (BU) (AG) (BG) (AG) (BU) (AG) (BU)
                 (AU) (BG) (BU) (AG) (BU) (AG) (AU) (BU) (AG) (BU)
                 (BG) (AG) (BU) (AU) (AG) (BG) (BU) (AG) (BU) (AU)
                 (BU) (BG) (AG) (BG) (AG) (AU) (BU) (AG) (AU) (BG)
                 (BU) (AU) (AG) (BU) (BG) (BU) (AG) (BU) (AG) (AU)
                 (BG) (AG) (BU) (AG) (AU) (BG) (BU) (AG) (BU)
 The electronic state is 1-AG.
 Alpha  occ. eigenvalues --  -10.17744 -10.17724  -0.75498  -0.62370  -0.46220
 Alpha  occ. eigenvalues --   -0.40389  -0.37372  -0.37074  -0.31131
 Alpha virt. eigenvalues --    0.01687   0.02971   0.04854   0.05887   0.07931
 Alpha virt. eigenvalues --    0.08541   0.09329   0.14163   0.15897   0.17258
 Alpha virt. eigenvalues --    0.22492   0.24434   0.25257   0.30211   0.32316
 Alpha virt. eigenvalues --    0.62103   0.64385   0.64928   0.68313   0.69347
 Alpha virt. eigenvalues --    0.69392   0.87656   0.88358   0.94946   1.04327
 Alpha virt. eigenvalues --    1.04639   1.10183   1.11176   1.28228   1.31581
 Alpha virt. eigenvalues --    1.54667   1.62547   1.71236   1.88361   1.88506
 Alpha virt. eigenvalues --    1.90674   2.13304   2.16781   2.21132   2.24507
 Alpha virt. eigenvalues --    2.27513   2.32732   2.38538   2.38695   2.58962
 Alpha virt. eigenvalues --    2.63351   2.69275   2.77418   2.79844   2.87846
 Alpha virt. eigenvalues --    2.91297   3.27854   3.33553   3.40906   3.41210
 Alpha virt. eigenvalues --    3.44978   3.64671   4.35347   4.59822
     Molecular Orbital Coefficients:
                           1         2         3         4         5
                        (AG)--O   (BU)--O   (AG)--O   (BU)--O   (AU)--O
     Eigenvalues --   -10.17744 -10.17724  -0.75498  -0.62370  -0.46220
   1 1   C  1S          0.70204   0.70222  -0.14867  -0.12957   0.00000
   2        2S          0.03509   0.03548   0.28426   0.25678   0.00000
   3        2PX        -0.00017  -0.00015  -0.01320  -0.03537   0.00000
   4        2PY         0.00014  -0.00003  -0.05520   0.12514   0.00000
   5        2PZ         0.00000   0.00000   0.00000   0.00000   0.31387
   6        3S         -0.00930  -0.01611   0.23774   0.26236   0.00000
   7        3PX         0.00110   0.00061  -0.01052  -0.01230   0.00000
   8        3PY        -0.00090   0.00258  -0.00791   0.03020   0.00000
   9        3PZ         0.00000   0.00000   0.00000   0.00000   0.13143
  10        4S         -0.00044  -0.00117   0.00721   0.02283   0.00000
  11        4PX         0.00046   0.00016  -0.00338  -0.00100   0.00000
  12        4PY        -0.00020  -0.00005   0.00075   0.00012   0.00000
  13        4PZ         0.00000   0.00000   0.00000   0.00000   0.01543
  14        5XX        -0.00650  -0.00623  -0.01080  -0.00368   0.00000
  15        5YY        -0.00676  -0.00617   0.00231  -0.01704   0.00000
  16        5ZZ        -0.00627  -0.00605  -0.00730  -0.00017   0.00000
  17        5XY        -0.00005   0.00003  -0.00102  -0.00182   0.00000
  18        5XZ         0.00000   0.00000   0.00000   0.00000   0.00635
  19        5YZ         0.00000   0.00000   0.00000   0.00000   0.00239
  20 2   C  1S          0.70204  -0.70222  -0.14867   0.12957   0.00000
  21        2S          0.03509  -0.03548   0.28426  -0.25678   0.00000
  22        2PX         0.00017  -0.00015   0.01320  -0.03537   0.00000
  23        2PY        -0.00014  -0.00003   0.05520   0.12514   0.00000
  24        2PZ         0.00000   0.00000   0.00000   0.00000   0.31387
  25        3S         -0.00930   0.01611   0.23774  -0.26236   0.00000
  26        3PX        -0.00110   0.00061   0.01052  -0.01230   0.00000
  27        3PY         0.00090   0.00258   0.00791   0.03020   0.00000
  28        3PZ         0.00000   0.00000   0.00000   0.00000   0.13143
  29        4S         -0.00044   0.00117   0.00721  -0.02283   0.00000
  30        4PX        -0.00046   0.00016   0.00338  -0.00100   0.00000
  31        4PY         0.00020  -0.00005  -0.00075   0.00012   0.00000
  32        4PZ         0.00000   0.00000   0.00000   0.00000   0.01543
  33        5XX        -0.00650   0.00623  -0.01080   0.00368   0.00000
  34        5YY        -0.00676   0.00617   0.00231   0.01704   0.00000
  35        5ZZ        -0.00627   0.00605  -0.00730   0.00017   0.00000
  36        5XY        -0.00005  -0.00003  -0.00102   0.00182   0.00000
  37        5XZ         0.00000   0.00000   0.00000   0.00000  -0.00635
  38        5YZ         0.00000   0.00000   0.00000   0.00000  -0.00239
  39 3   H  1S         -0.00018   0.00003   0.09201   0.13086   0.00000
  40        2S          0.00290   0.00259   0.01252   0.04761   0.00000
  41        3PX        -0.00009  -0.00015   0.00853   0.00997   0.00000
  42        3PY        -0.00005  -0.00003  -0.00345  -0.00149   0.00000
  43        3PZ         0.00000   0.00000   0.00000   0.00000   0.00618
  44 4   H  1S         -0.00029  -0.00006   0.08898   0.11646   0.15957
  45        2S          0.00202   0.00206   0.01932   0.04327   0.10039
  46        3PX         0.00003   0.00006  -0.00301  -0.00406  -0.00318
  47        3PY         0.00002   0.00004  -0.00389  -0.00160  -0.00431
  48        3PZ         0.00012   0.00017  -0.00754  -0.00841  -0.00280
  49 5   H  1S         -0.00029  -0.00006   0.08898   0.11646  -0.15957
  50        2S          0.00202   0.00206   0.01932   0.04327  -0.10039
  51        3PX         0.00003   0.00006  -0.00301  -0.00406   0.00318
  52        3PY         0.00002   0.00004  -0.00389  -0.00160   0.00431
  53        3PZ        -0.00012  -0.00017   0.00754   0.00841  -0.00280
  54 6   H  1S         -0.00018  -0.00003   0.09201  -0.13086   0.00000
  55        2S          0.00290  -0.00259   0.01252  -0.04761   0.00000
  56        3PX         0.00009  -0.00015  -0.00853   0.00997   0.00000
  57        3PY         0.00005  -0.00003   0.00345  -0.00149   0.00000
  58        3PZ         0.00000   0.00000   0.00000   0.00000   0.00618
  59 7   H  1S         -0.00029   0.00006   0.08898  -0.11646   0.15957
  60        2S          0.00202  -0.00206   0.01932  -0.04327   0.10039
  61        3PX        -0.00003   0.00006   0.00301  -0.00406   0.00318
  62        3PY        -0.00002   0.00004   0.00389  -0.00160   0.00431
  63        3PZ         0.00012  -0.00017  -0.00754   0.00841  -0.00280
  64 8   H  1S         -0.00029   0.00006   0.08898  -0.11646  -0.15957
  65        2S          0.00202  -0.00206   0.01932  -0.04327  -0.10039
  66        3PX        -0.00003   0.00006   0.00301  -0.00406  -0.00318
  67        3PY        -0.00002   0.00004   0.00389  -0.00160  -0.00431
  68        3PZ        -0.00012   0.00017   0.00754  -0.00841  -0.00280
                           6         7         8         9        10
                        (BU)--O   (BG)--O   (AG)--O   (AG)--O   (AG)--V
     Eigenvalues --    -0.40389  -0.37372  -0.37074  -0.31131   0.01687
   1 1   C  1S         -0.01623   0.00000   0.01979  -0.00315   0.05803
   2        2S          0.03767   0.00000  -0.04730   0.00527  -0.10747
   3        2PX         0.32134   0.00000  -0.07747   0.30568   0.00993
   4        2PY         0.01769   0.00000   0.40060   0.09868  -0.10897
   5        2PZ         0.00000   0.31482   0.00000   0.00000   0.00000
   6        3S          0.02522   0.00000  -0.05436   0.00792  -0.49241
   7        3PX         0.14697   0.00000  -0.03599   0.14413  -0.05916
   8        3PY         0.01459   0.00000   0.17420   0.04659  -0.10119
   9        3PZ         0.00000   0.14058   0.00000   0.00000   0.00000
  10        4S         -0.04090   0.00000   0.01958   0.01067   0.87397
  11        4PX         0.02197   0.00000  -0.01145   0.05817  -0.16530
  12        4PY         0.01445   0.00000   0.03852   0.01386   0.15506
  13        4PZ         0.00000   0.04096   0.00000   0.00000   0.00000
  14        5XX        -0.01352   0.00000   0.01154  -0.01691   0.01254
  15        5YY        -0.00106   0.00000  -0.01379  -0.00240   0.00148
  16        5ZZ         0.01172   0.00000   0.00795   0.01868   0.01044
  17        5XY        -0.00056   0.00000  -0.00664   0.01801   0.00058
  18        5XZ         0.00000   0.00907   0.00000   0.00000   0.00000
  19        5YZ         0.00000   0.02022   0.00000   0.00000   0.00000
  20 2   C  1S          0.01623   0.00000   0.01979  -0.00315   0.05803
  21        2S         -0.03767   0.00000  -0.04730   0.00527  -0.10747
  22        2PX         0.32134   0.00000   0.07747  -0.30568  -0.00993
  23        2PY         0.01769   0.00000  -0.40060  -0.09868   0.10897
  24        2PZ         0.00000  -0.31482   0.00000   0.00000   0.00000
  25        3S         -0.02522   0.00000  -0.05436   0.00792  -0.49241
  26        3PX         0.14697   0.00000   0.03599  -0.14413   0.05916
  27        3PY         0.01459   0.00000  -0.17420  -0.04659   0.10119
  28        3PZ         0.00000  -0.14058   0.00000   0.00000   0.00000
  29        4S          0.04090   0.00000   0.01958   0.01067   0.87397
  30        4PX         0.02197   0.00000   0.01145  -0.05817   0.16530
  31        4PY         0.01445   0.00000  -0.03852  -0.01386  -0.15506
  32        4PZ         0.00000  -0.04096   0.00000   0.00000   0.00000
  33        5XX         0.01352   0.00000   0.01154  -0.01691   0.01254
  34        5YY         0.00106   0.00000  -0.01379  -0.00240   0.00148
  35        5ZZ        -0.01172   0.00000   0.00795   0.01868   0.01044
  36        5XY         0.00056   0.00000  -0.00664   0.01801   0.00058
  37        5XZ         0.00000   0.00907   0.00000   0.00000   0.00000
  38        5YZ         0.00000   0.02022   0.00000   0.00000   0.00000
  39 3   H  1S         -0.17125   0.00000   0.12323  -0.19927   0.00310
  40        2S         -0.13073   0.00000   0.10852  -0.21143  -0.14158
  41        3PX        -0.00197   0.00000   0.00458  -0.00178  -0.01247
  42        3PY         0.00426   0.00000   0.00619   0.00386   0.00174
  43        3PZ         0.00000   0.00708   0.00000   0.00000   0.00000
  44 4   H  1S          0.09078   0.18952   0.06134   0.11819   0.00708
  45        2S          0.07452   0.15747   0.05294   0.13021  -0.04587
  46        3PX         0.00531  -0.00342  -0.00322   0.00561   0.00395
  47        3PY        -0.00212  -0.00239   0.00656   0.00010   0.00004
  48        3PZ        -0.00389  -0.00313  -0.00283  -0.00380   0.01002
  49 5   H  1S          0.09078  -0.18952   0.06134   0.11819   0.00708
  50        2S          0.07452  -0.15747   0.05294   0.13021  -0.04587
  51        3PX         0.00531   0.00342  -0.00322   0.00561   0.00395
  52        3PY        -0.00212   0.00239   0.00656   0.00010   0.00004
  53        3PZ         0.00389  -0.00313   0.00283   0.00380  -0.01002
  54 6   H  1S          0.17125   0.00000   0.12323  -0.19927   0.00310
  55        2S          0.13073   0.00000   0.10852  -0.21143  -0.14158
  56        3PX        -0.00197   0.00000  -0.00458   0.00178   0.01247
  57        3PY         0.00426   0.00000  -0.00619  -0.00386  -0.00174
  58        3PZ         0.00000  -0.00708   0.00000   0.00000   0.00000
  59 7   H  1S         -0.09078  -0.18952   0.06134   0.11819   0.00708
  60        2S         -0.07452  -0.15747   0.05294   0.13021  -0.04587
  61        3PX         0.00531  -0.00342   0.00322  -0.00561  -0.00395
  62        3PY        -0.00212  -0.00239  -0.00656  -0.00010  -0.00004
  63        3PZ         0.00389   0.00313  -0.00283  -0.00380   0.01002
  64 8   H  1S         -0.09078   0.18952   0.06134   0.11819   0.00708
  65        2S         -0.07452   0.15747   0.05294   0.13021  -0.04587
  66        3PX         0.00531   0.00342   0.00322  -0.00561  -0.00395
  67        3PY        -0.00212   0.00239  -0.00656  -0.00010  -0.00004
  68        3PZ        -0.00389   0.00313   0.00283   0.00380  -0.01002
                          11        12        13        14        15
                        (BU)--V   (AU)--V   (BU)--V   (AG)--V   (BG)--V
     Eigenvalues --     0.02971   0.04854   0.05887   0.07931   0.08541
   1 1   C  1S         -0.05388   0.00000  -0.00537  -0.03055   0.00000
   2        2S          0.11791   0.00000   0.00602   0.04390   0.00000
   3        2PX        -0.02063   0.00000   0.15501   0.00850   0.00000
   4        2PY         0.00028   0.00000  -0.00459  -0.06011   0.00000
   5        2PZ         0.00000  -0.16159   0.00000   0.00000  -0.13740
   6        3S          0.39191   0.00000   0.07059   0.39805   0.00000
   7        3PX        -0.02625   0.00000   0.22389   0.09565   0.00000
   8        3PY         0.00725   0.00000  -0.01551  -0.04247   0.00000
   9        3PZ         0.00000  -0.21843   0.00000   0.00000  -0.03493
  10        4S          4.67307   0.00000   2.33557   0.13192   0.00000
  11        4PX         0.07223   0.00000  -0.61567   0.21327   0.00000
  12        4PY        -2.15651   0.00000  -0.80602   1.31311   0.00000
  13        4PZ         0.00000   0.61840   0.00000   0.00000   1.98177
  14        5XX         0.00039   0.00000  -0.00592  -0.01199   0.00000
  15        5YY        -0.01487   0.00000  -0.00193   0.01312   0.00000
  16        5ZZ         0.00182   0.00000   0.00458  -0.01849   0.00000
  17        5XY         0.00031   0.00000  -0.00413   0.00086   0.00000
  18        5XZ         0.00000  -0.00202   0.00000   0.00000  -0.00329
  19        5YZ         0.00000   0.00389   0.00000   0.00000  -0.00109
  20 2   C  1S          0.05388   0.00000   0.00537  -0.03055   0.00000
  21        2S         -0.11791   0.00000  -0.00602   0.04390   0.00000
  22        2PX        -0.02063   0.00000   0.15501  -0.00850   0.00000
  23        2PY         0.00028   0.00000  -0.00459   0.06011   0.00000
  24        2PZ         0.00000  -0.16159   0.00000   0.00000   0.13740
  25        3S         -0.39191   0.00000  -0.07059   0.39805   0.00000
  26        3PX        -0.02625   0.00000   0.22389  -0.09565   0.00000
  27        3PY         0.00725   0.00000  -0.01551   0.04247   0.00000
  28        3PZ         0.00000  -0.21843   0.00000   0.00000   0.03493
  29        4S         -4.67307   0.00000  -2.33557   0.13192   0.00000
  30        4PX         0.07223   0.00000  -0.61567  -0.21327   0.00000
  31        4PY        -2.15651   0.00000  -0.80602  -1.31311   0.00000
  32        4PZ         0.00000   0.61840   0.00000   0.00000  -1.98177
  33        5XX        -0.00039   0.00000   0.00592  -0.01199   0.00000
  34        5YY         0.01487   0.00000   0.00193   0.01312   0.00000
  35        5ZZ        -0.00182   0.00000  -0.00458  -0.01849   0.00000
  36        5XY        -0.00031   0.00000   0.00413   0.00086   0.00000
  37        5XZ         0.00000   0.00202   0.00000   0.00000  -0.00329
  38        5YZ         0.00000  -0.00389   0.00000   0.00000  -0.00109
  39 3   H  1S          0.00404   0.00000  -0.00929  -0.01521   0.00000
  40        2S         -0.01452   0.00000  -0.06600   0.10189   0.00000
  41        3PX         0.00542   0.00000  -0.00695   0.00597   0.00000
  42        3PY        -0.00718   0.00000   0.00214   0.00343   0.00000
  43        3PZ         0.00000   0.00171   0.00000   0.00000   0.00067
  44 4   H  1S          0.00467  -0.00573   0.01064  -0.03963  -0.02167
  45        2S         -0.02169  -0.03097  -0.01315  -0.11711  -0.20128
  46        3PX        -0.00113   0.00174  -0.00234  -0.00071   0.00148
  47        3PY        -0.00678   0.00305  -0.00158   0.00635   0.00698
  48        3PZ        -0.00394   0.00741  -0.00122  -0.00514   0.00750
  49 5   H  1S          0.00467   0.00573   0.01064  -0.03963   0.02167
  50        2S         -0.02169   0.03097  -0.01315  -0.11711   0.20128
  51        3PX        -0.00113  -0.00174  -0.00234  -0.00071  -0.00148
  52        3PY        -0.00678  -0.00305  -0.00158   0.00635  -0.00698
  53        3PZ         0.00394   0.00741   0.00122   0.00514   0.00750
  54 6   H  1S         -0.00404   0.00000   0.00929  -0.01521   0.00000
  55        2S          0.01452   0.00000   0.06600   0.10189   0.00000
  56        3PX         0.00542   0.00000  -0.00695  -0.00597   0.00000
  57        3PY        -0.00718   0.00000   0.00214  -0.00343   0.00000
  58        3PZ         0.00000   0.00171   0.00000   0.00000  -0.00067
  59 7   H  1S         -0.00467  -0.00573  -0.01064  -0.03963   0.02167
  60        2S          0.02169  -0.03097   0.01315  -0.11711   0.20128
  61        3PX        -0.00113  -0.00174  -0.00234   0.00071   0.00148
  62        3PY        -0.00678  -0.00305  -0.00158  -0.00635   0.00698
  63        3PZ         0.00394   0.00741   0.00122  -0.00514  -0.00750
  64 8   H  1S         -0.00467   0.00573  -0.01064  -0.03963  -0.02167
  65        2S          0.02169   0.03097   0.01315  -0.11711  -0.20128
  66        3PX        -0.00113   0.00174  -0.00234   0.00071  -0.00148
  67        3PY        -0.00678   0.00305  -0.00158  -0.00635  -0.00698
  68        3PZ        -0.00394   0.00741  -0.00122   0.00514  -0.00750
                          16        17        18        19        20
                        (AG)--V   (BU)--V   (AG)--V   (BU)--V   (AU)--V
     Eigenvalues --     0.09329   0.14163   0.15897   0.17258   0.22492
   1 1   C  1S          0.00598   0.04280  -0.02167  -0.00108   0.00000
   2        2S         -0.00561  -0.10048   0.02732   0.00322   0.00000
   3        2PX        -0.10055  -0.04254   0.24350   0.19694   0.00000
   4        2PY         0.00857  -0.09408   0.05508   0.02778   0.00000
   5        2PZ         0.00000   0.00000   0.00000   0.00000  -0.22477
   6        3S         -0.08493  -0.27829   0.35779   0.01674   0.00000
   7        3PX        -0.04564  -0.18052   0.92761   0.60305   0.00000
   8        3PY        -0.00320  -0.38549   0.17806   0.10350   0.00000
   9        3PZ         0.00000   0.00000   0.00000   0.00000  -0.94443
  10        4S          0.05501  24.34592   0.23446   8.18350   0.00000
  11        4PX         1.93979  -0.02445   0.13683   0.24864   0.00000
  12        4PY        -0.13140  -7.60157  -0.24805  -2.52147   0.00000
  13        4PZ         0.00000   0.00000   0.00000   0.00000  -0.43853
  14        5XX         0.01162   0.00528   0.01385   0.01843   0.00000
  15        5YY        -0.00083   0.00239   0.00020   0.00317   0.00000
  16        5ZZ        -0.00576   0.01278  -0.02016  -0.02057   0.00000
  17        5XY        -0.00029   0.00445   0.00870  -0.02410   0.00000
  18        5XZ         0.00000   0.00000   0.00000   0.00000   0.01293
  19        5YZ         0.00000   0.00000   0.00000   0.00000   0.03017
  20 2   C  1S          0.00598  -0.04280  -0.02167   0.00108   0.00000
  21        2S         -0.00561   0.10048   0.02732  -0.00322   0.00000
  22        2PX         0.10055  -0.04254  -0.24350   0.19694   0.00000
  23        2PY        -0.00857  -0.09408  -0.05508   0.02778   0.00000
  24        2PZ         0.00000   0.00000   0.00000   0.00000  -0.22477
  25        3S         -0.08493   0.27829   0.35779  -0.01674   0.00000
  26        3PX         0.04564  -0.18052  -0.92761   0.60305   0.00000
  27        3PY         0.00320  -0.38549  -0.17806   0.10350   0.00000
  28        3PZ         0.00000   0.00000   0.00000   0.00000  -0.94443
  29        4S          0.05501 -24.34592   0.23446  -8.18350   0.00000
  30        4PX        -1.93979  -0.02445  -0.13683   0.24864   0.00000
  31        4PY         0.13140  -7.60157   0.24805  -2.52147   0.00000
  32        4PZ         0.00000   0.00000   0.00000   0.00000  -0.43853
  33        5XX         0.01162  -0.00528   0.01385  -0.01843   0.00000
  34        5YY        -0.00083  -0.00239   0.00020  -0.00317   0.00000
  35        5ZZ        -0.00576  -0.01278  -0.02016   0.02057   0.00000
  36        5XY        -0.00029  -0.00445   0.00870   0.02410   0.00000
  37        5XZ         0.00000   0.00000   0.00000   0.00000  -0.01293
  38        5YZ         0.00000   0.00000   0.00000   0.00000  -0.03017
  39 3   H  1S          0.03773  -0.00235   0.05630   0.15813   0.00000
  40        2S          0.26527  -0.35871   0.82241   0.98131   0.00000
  41        3PX         0.00469  -0.01005  -0.00246  -0.00125   0.00000
  42        3PY        -0.00740   0.00084  -0.00684   0.00911   0.00000
  43        3PZ         0.00000   0.00000   0.00000   0.00000  -0.00584
  44 4   H  1S         -0.02041   0.05739  -0.06785  -0.10381   0.12074
  45        2S         -0.13013   0.05095  -0.82759  -0.74449   1.33883
  46        3PX         0.00343   0.00219   0.00886   0.00749   0.00367
  47        3PY         0.00245   0.00210   0.00518  -0.00072   0.01065
  48        3PZ         0.00132   0.00979  -0.00549  -0.00279  -0.00372
  49 5   H  1S         -0.02041   0.05739  -0.06785  -0.10381  -0.12074
  50        2S         -0.13013   0.05095  -0.82759  -0.74449  -1.33883
  51        3PX         0.00343   0.00219   0.00886   0.00749  -0.00367
  52        3PY         0.00245   0.00210   0.00518  -0.00072  -0.01065
  53        3PZ        -0.00132  -0.00979   0.00549   0.00279  -0.00372
  54 6   H  1S          0.03773   0.00235   0.05630  -0.15813   0.00000
  55        2S          0.26527   0.35871   0.82241  -0.98131   0.00000
  56        3PX        -0.00469  -0.01005   0.00246  -0.00125   0.00000
  57        3PY         0.00740   0.00084   0.00684   0.00911   0.00000
  58        3PZ         0.00000   0.00000   0.00000   0.00000  -0.00584
  59 7   H  1S         -0.02041  -0.05739  -0.06785   0.10381   0.12074
  60        2S         -0.13013  -0.05095  -0.82759   0.74449   1.33883
  61        3PX        -0.00343   0.00219  -0.00886   0.00749  -0.00367
  62        3PY        -0.00245   0.00210  -0.00518  -0.00072  -0.01065
  63        3PZ         0.00132  -0.00979  -0.00549   0.00279  -0.00372
  64 8   H  1S         -0.02041  -0.05739  -0.06785   0.10381  -0.12074
  65        2S         -0.13013  -0.05095  -0.82759   0.74449  -1.33883
  66        3PX        -0.00343   0.00219  -0.00886   0.00749   0.00367
  67        3PY        -0.00245   0.00210  -0.00518  -0.00072   0.01065
  68        3PZ        -0.00132   0.00979   0.00549  -0.00279  -0.00372
                          21        22        23        24        25
                        (BG)--V   (BU)--V   (AG)--V   (BU)--V   (AG)--V
     Eigenvalues --     0.24434   0.25257   0.30211   0.32316   0.62103
   1 1   C  1S          0.00000   0.07218   0.08132  -0.11957   0.01425
   2        2S          0.00000  -0.09836  -0.13502   0.10350  -0.00135
   3        2PX         0.00000  -0.04074   0.11996  -0.07712  -0.03489
   4        2PY         0.00000   0.37579  -0.13057   0.02422  -0.62848
   5        2PZ         0.23465   0.00000   0.00000   0.00000   0.00000
   6        3S          0.00000  -1.15974  -1.75049   2.65946   0.48087
   7        3PX         0.00000  -0.14544   0.67635  -0.31096  -0.07339
   8        3PY         0.00000   1.58643  -0.68199  -0.15361   1.10747
   9        3PZ         1.73145   0.00000   0.00000   0.00000   0.00000
  10        4S          0.00000   8.61778  -1.18324  19.20475  -0.08820
  11        4PX         0.00000  -0.06608   0.50869  -0.17722  -0.09504
  12        4PY         0.00000  -2.86538   0.40770  -5.25371  -0.71052
  13        4PZ         1.06712   0.00000   0.00000   0.00000   0.00000
  14        5XX         0.00000  -0.01033   0.00506  -0.00592  -0.02201
  15        5YY         0.00000   0.03375  -0.01098  -0.00950   0.12368
  16        5ZZ         0.00000  -0.01279   0.00634  -0.01271  -0.03435
  17        5XY         0.00000   0.00248   0.00469   0.01038  -0.00291
  18        5XZ        -0.02232   0.00000   0.00000   0.00000   0.00000
  19        5YZ         0.01125   0.00000   0.00000   0.00000   0.00000
  20 2   C  1S          0.00000  -0.07218   0.08132   0.11957   0.01425
  21        2S          0.00000   0.09836  -0.13502  -0.10350  -0.00135
  22        2PX         0.00000  -0.04074  -0.11996  -0.07712   0.03489
  23        2PY         0.00000   0.37579   0.13057   0.02422   0.62848
  24        2PZ        -0.23465   0.00000   0.00000   0.00000   0.00000
  25        3S          0.00000   1.15974  -1.75049  -2.65946   0.48087
  26        3PX         0.00000  -0.14544  -0.67635  -0.31096   0.07339
  27        3PY         0.00000   1.58643   0.68199  -0.15361  -1.10747
  28        3PZ        -1.73145   0.00000   0.00000   0.00000   0.00000
  29        4S          0.00000  -8.61778  -1.18324 -19.20475  -0.08820
  30        4PX         0.00000  -0.06608  -0.50869  -0.17722   0.09504
  31        4PY         0.00000  -2.86538  -0.40770  -5.25371   0.71052
  32        4PZ        -1.06712   0.00000   0.00000   0.00000   0.00000
  33        5XX         0.00000   0.01033   0.00506   0.00592  -0.02201
  34        5YY         0.00000  -0.03375  -0.01098   0.00950   0.12368
  35        5ZZ         0.00000   0.01279   0.00634   0.01271  -0.03435
  36        5XY         0.00000  -0.00248   0.00469  -0.01038  -0.00291
  37        5XZ        -0.02232   0.00000   0.00000   0.00000   0.00000
  38        5YZ         0.01125   0.00000   0.00000   0.00000   0.00000
  39 3   H  1S          0.00000  -0.05454   0.06040  -0.06854  -0.08744
  40        2S          0.00000  -0.53242   2.02872  -1.81703  -0.25531
  41        3PX         0.00000   0.00173  -0.00148   0.00262  -0.01015
  42        3PY         0.00000   0.01073  -0.00317  -0.00382   0.02596
  43        3PZ         0.00887   0.00000   0.00000   0.00000   0.00000
  44 4   H  1S         -0.06329  -0.02779   0.04188  -0.06441  -0.11925
  45        2S         -1.65705  -0.22720   1.09101  -1.33143  -0.07510
  46        3PX        -0.00941  -0.00171   0.00059   0.00053   0.00399
  47        3PY         0.00759   0.01352  -0.00175   0.00266   0.02904
  48        3PZ         0.00608  -0.00258   0.00265  -0.00502   0.01045
  49 5   H  1S          0.06329  -0.02779   0.04188  -0.06441  -0.11925
  50        2S          1.65705  -0.22720   1.09101  -1.33143  -0.07510
  51        3PX         0.00941  -0.00171   0.00059   0.00053   0.00399
  52        3PY        -0.00759   0.01352  -0.00175   0.00266   0.02904
  53        3PZ         0.00608   0.00258  -0.00265   0.00502  -0.01045
  54 6   H  1S          0.00000   0.05454   0.06040   0.06854  -0.08744
  55        2S          0.00000   0.53242   2.02872   1.81703  -0.25531
  56        3PX         0.00000   0.00173   0.00148   0.00262   0.01015
  57        3PY         0.00000   0.01073   0.00317  -0.00382  -0.02596
  58        3PZ        -0.00887   0.00000   0.00000   0.00000   0.00000
  59 7   H  1S          0.06329   0.02779   0.04188   0.06441  -0.11925
  60        2S          1.65705   0.22720   1.09101   1.33143  -0.07510
  61        3PX        -0.00941  -0.00171  -0.00059   0.00053  -0.00399
  62        3PY         0.00759   0.01352   0.00175   0.00266  -0.02904
  63        3PZ        -0.00608   0.00258   0.00265   0.00502   0.01045
  64 8   H  1S         -0.06329   0.02779   0.04188   0.06441  -0.11925
  65        2S         -1.65705   0.22720   1.09101   1.33143  -0.07510
  66        3PX         0.00941  -0.00171  -0.00059   0.00053  -0.00399
  67        3PY        -0.00759   0.01352   0.00175   0.00266  -0.02904
  68        3PZ        -0.00608  -0.00258  -0.00265  -0.00502  -0.01045
                          26        27        28        29        30
                        (AU)--V   (BU)--V   (AG)--V   (BU)--V   (BG)--V
     Eigenvalues --     0.64385   0.64928   0.68313   0.69347   0.69392
   1 1   C  1S          0.00000  -0.00661   0.00587  -0.02579   0.00000
   2        2S          0.00000   0.02290  -0.15775   0.17443   0.00000
   3        2PX         0.00000   0.60590  -0.72229   0.09931   0.00000
   4        2PY         0.00000   0.14670   0.02079  -0.78932   0.00000
   5        2PZ        -0.60255   0.00000   0.00000   0.00000  -0.74443
   6        3S          0.00000   0.35331  -0.04722  -1.00309   0.00000
   7        3PX         0.00000  -0.81827   1.62702  -0.21526   0.00000
   8        3PY         0.00000  -0.24931  -0.13900   2.00541   0.00000
   9        3PZ         1.00777   0.00000   0.00000   0.00000   2.24401
  10        4S          0.00000   2.64383  -0.21398   2.10551   0.00000
  11        4PX         0.00000   0.33094  -0.66325   0.03138   0.00000
  12        4PY         0.00000  -0.69480   0.11017  -0.87758   0.00000
  13        4PZ        -0.28588   0.00000   0.00000   0.00000  -0.33327
  14        5XX         0.00000  -0.03727   0.00396   0.02667   0.00000
  15        5YY         0.00000   0.01734  -0.03491  -0.07476   0.00000
  16        5ZZ         0.00000   0.03569  -0.01877   0.02835   0.00000
  17        5XY         0.00000   0.02970   0.02291   0.01919   0.00000
  18        5XZ        -0.02799   0.00000   0.00000   0.00000  -0.04016
  19        5YZ        -0.05195   0.00000   0.00000   0.00000   0.03406
  20 2   C  1S          0.00000   0.00661   0.00587   0.02579   0.00000
  21        2S          0.00000  -0.02290  -0.15775  -0.17443   0.00000
  22        2PX         0.00000   0.60590   0.72229   0.09931   0.00000
  23        2PY         0.00000   0.14670  -0.02079  -0.78932   0.00000
  24        2PZ        -0.60255   0.00000   0.00000   0.00000   0.74443
  25        3S          0.00000  -0.35331  -0.04722   1.00309   0.00000
  26        3PX         0.00000  -0.81827  -1.62702  -0.21526   0.00000
  27        3PY         0.00000  -0.24931   0.13900   2.00541   0.00000
  28        3PZ         1.00777   0.00000   0.00000   0.00000  -2.24401
  29        4S          0.00000  -2.64383  -0.21398  -2.10551   0.00000
  30        4PX         0.00000   0.33094   0.66325   0.03138   0.00000
  31        4PY         0.00000  -0.69480  -0.11017  -0.87758   0.00000
  32        4PZ        -0.28588   0.00000   0.00000   0.00000   0.33327
  33        5XX         0.00000   0.03727   0.00396  -0.02667   0.00000
  34        5YY         0.00000  -0.01734  -0.03491   0.07476   0.00000
  35        5ZZ         0.00000  -0.03569  -0.01877  -0.02835   0.00000
  36        5XY         0.00000  -0.02970   0.02291  -0.01919   0.00000
  37        5XZ         0.02799   0.00000   0.00000   0.00000  -0.04016
  38        5YZ         0.05195   0.00000   0.00000   0.00000   0.03406
  39 3   H  1S          0.00000  -0.28784   0.07707  -0.13843   0.00000
  40        2S          0.00000   0.04266   0.58514  -0.27730   0.00000
  41        3PX         0.00000  -0.03168   0.04352  -0.02187   0.00000
  42        3PY         0.00000  -0.00352  -0.05700  -0.02042   0.00000
  43        3PZ         0.00581   0.00000   0.00000   0.00000   0.02246
  44 4   H  1S         -0.25132   0.14618  -0.03555  -0.06375  -0.05819
  45        2S         -0.08756  -0.27610   0.00780  -0.23251  -0.87669
  46        3PX         0.00496  -0.00929   0.01237   0.00431  -0.00688
  47        3PY        -0.01713   0.00346   0.01636  -0.01159   0.05082
  48        3PZ         0.04225  -0.01274   0.01525   0.01015   0.05428
  49 5   H  1S          0.25132   0.14618  -0.03555  -0.06375   0.05819
  50        2S          0.08756  -0.27610   0.00780  -0.23251   0.87669
  51        3PX        -0.00496  -0.00929   0.01237   0.00431   0.00688
  52        3PY         0.01713   0.00346   0.01636  -0.01159  -0.05082
  53        3PZ         0.04225   0.01274  -0.01525  -0.01015   0.05428
  54 6   H  1S          0.00000   0.28784   0.07707   0.13843   0.00000
  55        2S          0.00000  -0.04266   0.58514   0.27730   0.00000
  56        3PX         0.00000  -0.03168  -0.04352  -0.02187   0.00000
  57        3PY         0.00000  -0.00352   0.05700  -0.02042   0.00000
  58        3PZ         0.00581   0.00000   0.00000   0.00000  -0.02246
  59 7   H  1S         -0.25132  -0.14618  -0.03555   0.06375   0.05819
  60        2S         -0.08756   0.27610   0.00780   0.23251   0.87669
  61        3PX        -0.00496  -0.00929  -0.01237   0.00431  -0.00688
  62        3PY         0.01713   0.00346  -0.01636  -0.01159   0.05082
  63        3PZ         0.04225   0.01274   0.01525  -0.01015  -0.05428
  64 8   H  1S          0.25132  -0.14618  -0.03555   0.06375  -0.05819
  65        2S          0.08756   0.27610   0.00780   0.23251  -0.87669
  66        3PX         0.00496  -0.00929  -0.01237   0.00431   0.00688
  67        3PY        -0.01713   0.00346  -0.01636  -0.01159  -0.05082
  68        3PZ         0.04225  -0.01274  -0.01525   0.01015  -0.05428
                          31        32        33        34        35
                        (AG)--V   (BU)--V   (AU)--V   (AG)--V   (BG)--V
     Eigenvalues --     0.87656   0.88358   0.94946   1.04327   1.04639
   1 1   C  1S          0.02272   0.00998   0.00000  -0.05696   0.00000
   2        2S          0.09474  -0.09302   0.00000  -0.24341   0.00000
   3        2PX        -0.22475  -0.46208   0.00000  -0.07916   0.00000
   4        2PY        -0.13729  -0.02685   0.00000   0.27888   0.00000
   5        2PZ         0.00000   0.00000   0.49045   0.00000   0.24888
   6        3S         -0.04058   0.15806   0.00000   0.25301   0.00000
   7        3PX         0.26232   0.85783   0.00000  -0.10331   0.00000
   8        3PY         0.13276   0.06257   0.00000  -0.18721   0.00000
   9        3PZ         0.00000   0.00000  -1.06710   0.00000  -0.21881
  10        4S          0.22123   0.55036   0.00000  -0.47310   0.00000
  11        4PX         0.53516   0.18014   0.00000   0.34417   0.00000
  12        4PY        -0.07619  -0.14272   0.00000   0.09236   0.00000
  13        4PZ         0.00000   0.00000  -0.29594   0.00000  -0.81075
  14        5XX        -0.13480  -0.13285   0.00000  -0.14207   0.00000
  15        5YY         0.00786  -0.00789   0.00000   0.02413   0.00000
  16        5ZZ         0.19196   0.13840   0.00000  -0.05184   0.00000
  17        5XY         0.03696   0.13007   0.00000   0.03247   0.00000
  18        5XZ         0.00000   0.00000  -0.10223   0.00000  -0.21484
  19        5YZ         0.00000   0.00000  -0.20102   0.00000  -0.07569
  20 2   C  1S          0.02272  -0.00998   0.00000  -0.05696   0.00000
  21        2S          0.09474   0.09302   0.00000  -0.24341   0.00000
  22        2PX         0.22475  -0.46208   0.00000   0.07916   0.00000
  23        2PY         0.13729  -0.02685   0.00000  -0.27888   0.00000
  24        2PZ         0.00000   0.00000   0.49045   0.00000  -0.24888
  25        3S         -0.04058  -0.15806   0.00000   0.25301   0.00000
  26        3PX        -0.26232   0.85783   0.00000   0.10331   0.00000
  27        3PY        -0.13276   0.06257   0.00000   0.18721   0.00000
  28        3PZ         0.00000   0.00000  -1.06710   0.00000   0.21881
  29        4S          0.22123  -0.55036   0.00000  -0.47310   0.00000
  30        4PX        -0.53516   0.18014   0.00000  -0.34417   0.00000
  31        4PY         0.07619  -0.14272   0.00000  -0.09236   0.00000
  32        4PZ         0.00000   0.00000  -0.29594   0.00000   0.81075
  33        5XX        -0.13480   0.13285   0.00000  -0.14207   0.00000
  34        5YY         0.00786   0.00789   0.00000   0.02413   0.00000
  35        5ZZ         0.19196  -0.13840   0.00000  -0.05184   0.00000
  36        5XY         0.03696  -0.13007   0.00000   0.03247   0.00000
  37        5XZ         0.00000   0.00000   0.10223   0.00000  -0.21484
  38        5YZ         0.00000   0.00000   0.20102   0.00000  -0.07569
  39 3   H  1S         -0.41821  -0.50735   0.00000  -0.77480   0.00000
  40        2S          0.84881   1.44586   0.00000   0.84127   0.00000
  41        3PX         0.02011   0.04857   0.00000   0.06075   0.00000
  42        3PY        -0.02165  -0.01366   0.00000  -0.00967   0.00000
  43        3PZ         0.00000   0.00000   0.02288   0.00000   0.10227
  44 4   H  1S          0.48523   0.34915  -0.51448  -0.35662  -0.59627
  45        2S         -0.78167  -0.89049   1.46268   0.32060   0.98293
  46        3PX        -0.02421  -0.00767  -0.02423  -0.05161  -0.05504
  47        3PY         0.01660   0.00391  -0.02292   0.00172  -0.02194
  48        3PZ         0.04157   0.03376  -0.04920  -0.02672  -0.01910
  49 5   H  1S          0.48523   0.34915   0.51448  -0.35662   0.59627
  50        2S         -0.78167  -0.89049  -1.46268   0.32060  -0.98293
  51        3PX        -0.02421  -0.00767   0.02423  -0.05161   0.05504
  52        3PY         0.01660   0.00391   0.02292   0.00172   0.02194
  53        3PZ        -0.04157  -0.03376  -0.04920   0.02672  -0.01910
  54 6   H  1S         -0.41821   0.50735   0.00000  -0.77480   0.00000
  55        2S          0.84881  -1.44586   0.00000   0.84127   0.00000
  56        3PX        -0.02011   0.04857   0.00000  -0.06075   0.00000
  57        3PY         0.02165  -0.01366   0.00000   0.00967   0.00000
  58        3PZ         0.00000   0.00000   0.02288   0.00000  -0.10227
  59 7   H  1S          0.48523  -0.34915  -0.51448  -0.35662   0.59627
  60        2S         -0.78167   0.89049   1.46268   0.32060  -0.98293
  61        3PX         0.02421  -0.00767   0.02423   0.05161  -0.05504
  62        3PY        -0.01660   0.00391   0.02292  -0.00172  -0.02194
  63        3PZ         0.04157  -0.03376  -0.04920  -0.02672   0.01910
  64 8   H  1S          0.48523  -0.34915   0.51448  -0.35662  -0.59627
  65        2S         -0.78167   0.89049  -1.46268   0.32060   0.98293
  66        3PX         0.02421  -0.00767  -0.02423   0.05161   0.05504
  67        3PY        -0.01660   0.00391  -0.02292  -0.00172   0.02194
  68        3PZ        -0.04157   0.03376  -0.04920   0.02672   0.01910
                          36        37        38        39        40
                        (BU)--V   (AG)--V   (BU)--V   (AU)--V   (BU)--V
     Eigenvalues --     1.10183   1.11176   1.28228   1.31581   1.54667
   1 1   C  1S          0.00950  -0.04632   0.06187   0.00000  -0.11453
   2        2S         -1.13943  -1.50677   0.77339   0.00000  -1.28667
   3        2PX         0.11896   0.13321  -0.00400   0.00000   0.00686
   4        2PY        -0.16517  -0.10291  -0.07017   0.00000   0.02682
   5        2PZ         0.00000   0.00000   0.00000   0.00000   0.00000
   6        3S          3.66846   3.79964  -2.70148   0.00000   4.78367
   7        3PX        -0.36114  -0.78114   0.00067   0.00000  -0.20736
   8        3PY         0.11048   0.80348   0.87457   0.00000  -1.25778
   9        3PZ         0.00000   0.00000   0.00000   0.07833   0.00000
  10        4S          9.16195   0.53283   4.26491   0.00000  -2.69467
  11        4PX        -0.11309  -0.21957   0.03117   0.00000   0.00226
  12        4PY        -2.40062  -0.07580  -1.28615   0.00000   0.87985
  13        4PZ         0.00000   0.00000   0.00000  -0.03597   0.00000
  14        5XX         0.02056  -0.01454  -0.12041   0.00000  -0.16157
  15        5YY        -0.05667  -0.17786   0.01334   0.00000   0.00193
  16        5ZZ         0.04217   0.01820   0.20676   0.00000   0.02357
  17        5XY        -0.03483  -0.00776  -0.39327   0.00000  -0.25596
  18        5XZ         0.00000   0.00000   0.00000  -0.32863   0.00000
  19        5YZ         0.00000   0.00000   0.00000   0.33640   0.00000
  20 2   C  1S         -0.00950  -0.04632  -0.06187   0.00000   0.11453
  21        2S          1.13943  -1.50677  -0.77339   0.00000   1.28667
  22        2PX         0.11896  -0.13321  -0.00400   0.00000   0.00686
  23        2PY        -0.16517   0.10291  -0.07017   0.00000   0.02682
  24        2PZ         0.00000   0.00000   0.00000   0.00000   0.00000
  25        3S         -3.66846   3.79964   2.70148   0.00000  -4.78367
  26        3PX        -0.36114   0.78114   0.00067   0.00000  -0.20736
  27        3PY         0.11048  -0.80348   0.87457   0.00000  -1.25778
  28        3PZ         0.00000   0.00000   0.00000   0.07833   0.00000
  29        4S         -9.16195   0.53283  -4.26491   0.00000   2.69467
  30        4PX        -0.11309   0.21957   0.03117   0.00000   0.00226
  31        4PY        -2.40062   0.07580  -1.28615   0.00000   0.87985
  32        4PZ         0.00000   0.00000   0.00000  -0.03597   0.00000
  33        5XX        -0.02056  -0.01454   0.12041   0.00000   0.16157
  34        5YY         0.05667  -0.17786  -0.01334   0.00000  -0.00193
  35        5ZZ        -0.04217   0.01820  -0.20676   0.00000  -0.02357
  36        5XY         0.03483  -0.00776   0.39327   0.00000   0.25596
  37        5XZ         0.00000   0.00000   0.00000   0.32863   0.00000
  38        5YZ         0.00000   0.00000   0.00000  -0.33640   0.00000
  39 3   H  1S          0.47134   0.04958   0.20471   0.00000  -0.49606
  40        2S         -1.81186  -1.81382   0.05246   0.00000  -0.39238
  41        3PX        -0.07591  -0.04714   0.05684   0.00000   0.05741
  42        3PY         0.01163  -0.01058   0.13112   0.00000   0.07023
  43        3PZ         0.00000   0.00000   0.00000   0.21870   0.00000
  44 4   H  1S          0.35489   0.07869   0.24958  -0.07958  -0.38109
  45        2S         -1.38153  -1.24310   0.00017   0.01746  -0.29960
  46        3PX         0.02567   0.00049  -0.09232  -0.14795  -0.12836
  47        3PY         0.01667  -0.01521  -0.04548   0.10542  -0.05137
  48        3PZ         0.04817   0.03447   0.04367  -0.00421   0.05027
  49 5   H  1S          0.35489   0.07869   0.24958   0.07958  -0.38109
  50        2S         -1.38153  -1.24310   0.00017  -0.01746  -0.29960
  51        3PX         0.02567   0.00049  -0.09232   0.14795  -0.12836
  52        3PY         0.01667  -0.01521  -0.04548  -0.10542  -0.05137
  53        3PZ        -0.04817  -0.03447  -0.04367  -0.00421  -0.05027
  54 6   H  1S         -0.47134   0.04958  -0.20471   0.00000   0.49606
  55        2S          1.81186  -1.81382  -0.05246   0.00000   0.39238
  56        3PX        -0.07591   0.04714   0.05684   0.00000   0.05741
  57        3PY         0.01163   0.01058   0.13112   0.00000   0.07023
  58        3PZ         0.00000   0.00000   0.00000   0.21870   0.00000
  59 7   H  1S         -0.35489   0.07869  -0.24958  -0.07958   0.38109
  60        2S          1.38153  -1.24310  -0.00017   0.01746   0.29960
  61        3PX         0.02567  -0.00049  -0.09232   0.14795  -0.12836
  62        3PY         0.01667   0.01521  -0.04548  -0.10542  -0.05137
  63        3PZ        -0.04817   0.03447  -0.04367  -0.00421  -0.05027
  64 8   H  1S         -0.35489   0.07869  -0.24958   0.07958   0.38109
  65        2S          1.38153  -1.24310  -0.00017  -0.01746   0.29960
  66        3PX         0.02567  -0.00049  -0.09232  -0.14795  -0.12836
  67        3PY         0.01667   0.01521  -0.04548   0.10542  -0.05137
  68        3PZ         0.04817  -0.03447   0.04367  -0.00421   0.05027
                          41        42        43        44        45
                        (BG)--V   (AG)--V   (BG)--V   (AG)--V   (AU)--V
     Eigenvalues --     1.62547   1.71236   1.88361   1.88506   1.90674
   1 1   C  1S          0.00000   0.00182   0.00000   0.02902   0.00000
   2        2S          0.00000  -0.02776   0.00000  -0.43184   0.00000
   3        2PX         0.00000  -0.08632   0.00000  -0.00459   0.00000
   4        2PY         0.00000   0.02170   0.00000   0.33617   0.00000
   5        2PZ        -0.11459   0.00000  -0.06625   0.00000  -0.05941
   6        3S          0.00000  -0.06257   0.00000   0.14117   0.00000
   7        3PX         0.00000   0.60808   0.00000  -0.00557   0.00000
   8        3PY         0.00000  -0.06747   0.00000  -0.50403   0.00000
   9        3PZ         1.05129   0.00000   0.79541   0.00000   0.36602
  10        4S          0.00000  -0.03415   0.00000   0.12425   0.00000
  11        4PX         0.00000  -0.06026   0.00000  -0.01861   0.00000
  12        4PY         0.00000   0.02085   0.00000   0.19394   0.00000
  13        4PZ         0.01526   0.00000  -0.14286   0.00000  -0.06965
  14        5XX         0.00000  -0.27032   0.00000  -0.20266   0.00000
  15        5YY         0.00000   0.03429   0.00000   0.60621   0.00000
  16        5ZZ         0.00000   0.22703   0.00000  -0.25754   0.00000
  17        5XY         0.00000  -0.36905   0.00000  -0.01669   0.00000
  18        5XZ         0.31191   0.00000   0.34693   0.00000   0.27720
  19        5YZ        -0.34527   0.00000   0.18917   0.00000   0.31891
  20 2   C  1S          0.00000   0.00182   0.00000   0.02902   0.00000
  21        2S          0.00000  -0.02776   0.00000  -0.43184   0.00000
  22        2PX         0.00000   0.08632   0.00000   0.00459   0.00000
  23        2PY         0.00000  -0.02170   0.00000  -0.33617   0.00000
  24        2PZ         0.11459   0.00000   0.06625   0.00000  -0.05941
  25        3S          0.00000  -0.06257   0.00000   0.14117   0.00000
  26        3PX         0.00000  -0.60808   0.00000   0.00557   0.00000
  27        3PY         0.00000   0.06747   0.00000   0.50403   0.00000
  28        3PZ        -1.05129   0.00000  -0.79541   0.00000   0.36602
  29        4S          0.00000  -0.03415   0.00000   0.12425   0.00000
  30        4PX         0.00000   0.06026   0.00000   0.01861   0.00000
  31        4PY         0.00000  -0.02085   0.00000  -0.19394   0.00000
  32        4PZ        -0.01526   0.00000   0.14286   0.00000  -0.06965
  33        5XX         0.00000  -0.27032   0.00000  -0.20266   0.00000
  34        5YY         0.00000   0.03429   0.00000   0.60621   0.00000
  35        5ZZ         0.00000   0.22703   0.00000  -0.25754   0.00000
  36        5XY         0.00000  -0.36905   0.00000  -0.01669   0.00000
  37        5XZ         0.31191   0.00000   0.34693   0.00000  -0.27720
  38        5YZ        -0.34527   0.00000   0.18917   0.00000  -0.31891
  39 3   H  1S          0.00000   0.14804   0.00000   0.17962   0.00000
  40        2S          0.00000   0.23706   0.00000  -0.13322   0.00000
  41        3PX         0.00000   0.12314   0.00000  -0.03225   0.00000
  42        3PY         0.00000   0.35016   0.00000   0.09795   0.00000
  43        3PZ        -0.07253   0.00000   0.13028   0.00000   0.12783
  44 4   H  1S         -0.17262  -0.08741  -0.34728   0.21007  -0.32533
  45        2S         -0.38221  -0.03599  -0.13319  -0.14146   0.02172
  46        3PX         0.12259  -0.04859   0.20815   0.05014   0.22071
  47        3PY        -0.24661  -0.14981   0.15823   0.14520   0.06267
  48        3PZ         0.06111   0.05568  -0.22709   0.02062  -0.23263
  49 5   H  1S          0.17262  -0.08741   0.34728   0.21007   0.32533
  50        2S          0.38221  -0.03599   0.13319  -0.14146  -0.02172
  51        3PX        -0.12259  -0.04859  -0.20815   0.05014  -0.22071
  52        3PY         0.24661  -0.14981  -0.15823   0.14520  -0.06267
  53        3PZ         0.06111  -0.05568  -0.22709  -0.02062  -0.23263
  54 6   H  1S          0.00000   0.14804   0.00000   0.17962   0.00000
  55        2S          0.00000   0.23706   0.00000  -0.13322   0.00000
  56        3PX         0.00000  -0.12314   0.00000   0.03225   0.00000
  57        3PY         0.00000  -0.35016   0.00000  -0.09795   0.00000
  58        3PZ         0.07253   0.00000  -0.13028   0.00000   0.12783
  59 7   H  1S          0.17262  -0.08741   0.34728   0.21007  -0.32533
  60        2S          0.38221  -0.03599   0.13319  -0.14146   0.02172
  61        3PX         0.12259   0.04859   0.20815  -0.05014  -0.22071
  62        3PY        -0.24661   0.14981   0.15823  -0.14520  -0.06267
  63        3PZ        -0.06111   0.05568   0.22709   0.02062  -0.23263
  64 8   H  1S         -0.17262  -0.08741  -0.34728   0.21007   0.32533
  65        2S         -0.38221  -0.03599  -0.13319  -0.14146  -0.02172
  66        3PX        -0.12259   0.04859  -0.20815  -0.05014   0.22071
  67        3PY         0.24661   0.14981  -0.15823  -0.14520   0.06267
  68        3PZ        -0.06111  -0.05568   0.22709  -0.02062  -0.23263
                          46        47        48        49        50
                        (BU)--V   (AG)--V   (AU)--V   (BG)--V   (BU)--V
     Eigenvalues --     2.13304   2.16781   2.21132   2.24507   2.27513
   1 1   C  1S         -0.01022  -0.00030   0.00000   0.00000  -0.00273
   2        2S         -0.03034  -0.00384   0.00000   0.00000  -0.13222
   3        2PX         0.02071   0.13081   0.00000   0.00000   0.09823
   4        2PY        -0.03931  -0.02663   0.00000   0.00000   0.00641
   5        2PZ         0.00000   0.00000   0.07802  -0.09708   0.00000
   6        3S          0.39050   0.03087   0.00000   0.00000   0.35226
   7        3PX         0.01075  -0.29137   0.00000   0.00000  -0.32725
   8        3PY        -0.26789  -0.01508   0.00000   0.00000   0.07739
   9        3PZ         0.00000   0.00000  -0.24311   0.77419   0.00000
  10        4S          0.05642   0.03683   0.00000   0.00000   1.21959
  11        4PX         0.10799   0.23723   0.00000   0.00000   0.05351
  12        4PY         0.01790  -0.00282   0.00000   0.00000  -0.34535
  13        4PZ         0.00000   0.00000   0.07001  -0.17221   0.00000
  14        5XX         0.26336   0.46098   0.00000   0.00000   0.15237
  15        5YY         0.04572  -0.09154   0.00000   0.00000  -0.01701
  16        5ZZ        -0.30692  -0.33633   0.00000   0.00000  -0.11012
  17        5XY        -0.33669  -0.30334   0.00000   0.00000  -0.02843
  18        5XZ         0.00000   0.00000  -0.16390   0.28303   0.00000
  19        5YZ         0.00000   0.00000  -0.22006   0.05210   0.00000
  20 2   C  1S          0.01022  -0.00030   0.00000   0.00000   0.00273
  21        2S          0.03034  -0.00384   0.00000   0.00000   0.13222
  22        2PX         0.02071  -0.13081   0.00000   0.00000   0.09823
  23        2PY        -0.03931   0.02663   0.00000   0.00000   0.00641
  24        2PZ         0.00000   0.00000   0.07802   0.09708   0.00000
  25        3S         -0.39050   0.03087   0.00000   0.00000  -0.35226
  26        3PX         0.01075   0.29137   0.00000   0.00000  -0.32725
  27        3PY        -0.26789   0.01508   0.00000   0.00000   0.07739
  28        3PZ         0.00000   0.00000  -0.24311  -0.77419   0.00000
  29        4S         -0.05642   0.03683   0.00000   0.00000  -1.21959
  30        4PX         0.10799  -0.23723   0.00000   0.00000   0.05351
  31        4PY         0.01790   0.00282   0.00000   0.00000  -0.34535
  32        4PZ         0.00000   0.00000   0.07001   0.17221   0.00000
  33        5XX        -0.26336   0.46098   0.00000   0.00000  -0.15237
  34        5YY        -0.04572  -0.09154   0.00000   0.00000   0.01701
  35        5ZZ         0.30692  -0.33633   0.00000   0.00000   0.11012
  36        5XY         0.33669  -0.30334   0.00000   0.00000   0.02843
  37        5XZ         0.00000   0.00000   0.16390   0.28303   0.00000
  38        5YZ         0.00000   0.00000   0.22006   0.05210   0.00000
  39 3   H  1S         -0.38005  -0.42445   0.00000   0.00000  -0.21311
  40        2S          0.42689   0.24193   0.00000   0.00000  -0.09055
  41        3PX         0.10486   0.28427   0.00000   0.00000   0.32518
  42        3PY        -0.27516   0.06637   0.00000   0.00000   0.29152
  43        3PZ         0.00000   0.00000   0.49195  -0.46633   0.00000
  44 4   H  1S          0.21848   0.22368   0.22320  -0.28620   0.07966
  45        2S         -0.26975  -0.18354  -0.09343  -0.08083  -0.16630
  46        3PX         0.02790   0.02976   0.29603  -0.31920   0.33293
  47        3PY         0.25962   0.06897   0.02246   0.06084  -0.19711
  48        3PZ         0.02613   0.11423   0.06958  -0.05387   0.06813
  49 5   H  1S          0.21848   0.22368  -0.22320   0.28620   0.07966
  50        2S         -0.26975  -0.18354   0.09343   0.08083  -0.16630
  51        3PX         0.02790   0.02976  -0.29603   0.31920   0.33293
  52        3PY         0.25962   0.06897  -0.02246  -0.06084  -0.19711
  53        3PZ        -0.02613  -0.11423   0.06958  -0.05387  -0.06813
  54 6   H  1S          0.38005  -0.42445   0.00000   0.00000   0.21311
  55        2S         -0.42689   0.24193   0.00000   0.00000   0.09055
  56        3PX         0.10486  -0.28427   0.00000   0.00000   0.32518
  57        3PY        -0.27516  -0.06637   0.00000   0.00000   0.29152
  58        3PZ         0.00000   0.00000   0.49195   0.46633   0.00000
  59 7   H  1S         -0.21848   0.22368   0.22320   0.28620  -0.07966
  60        2S          0.26975  -0.18354  -0.09343   0.08083   0.16630
  61        3PX         0.02790  -0.02976  -0.29603  -0.31920   0.33293
  62        3PY         0.25962  -0.06897  -0.02246   0.06084  -0.19711
  63        3PZ        -0.02613   0.11423   0.06958   0.05387  -0.06813
  64 8   H  1S         -0.21848   0.22368  -0.22320  -0.28620  -0.07966
  65        2S          0.26975  -0.18354   0.09343  -0.08083   0.16630
  66        3PX         0.02790  -0.02976   0.29603   0.31920   0.33293
  67        3PY         0.25962  -0.06897   0.02246  -0.06084  -0.19711
  68        3PZ         0.02613  -0.11423   0.06958   0.05387   0.06813
                          51        52        53        54        55
                        (AU)--V   (AG)--V   (BU)--V   (BG)--V   (BU)--V
     Eigenvalues --     2.32732   2.38538   2.38695   2.58962   2.63351
   1 1   C  1S          0.00000   0.01021  -0.08230   0.00000  -0.04396
   2        2S          0.00000   0.11556  -0.19083   0.00000  -0.23523
   3        2PX         0.00000   0.02031   0.00017   0.00000  -0.12281
   4        2PY         0.00000   0.01960  -0.24143   0.00000  -0.13909
   5        2PZ        -0.05981   0.00000   0.00000   0.17389   0.00000
   6        3S          0.00000  -0.43741   2.52330   0.00000   1.27356
   7        3PX         0.00000   0.77470  -0.05329   0.00000  -0.22802
   8        3PY         0.00000  -0.19604  -1.56426   0.00000  -0.48607
   9        3PZ         0.37804   0.00000   0.00000   0.85474   0.00000
  10        4S          0.00000  -0.07870  -0.74946   0.00000  -0.38315
  11        4PX         0.00000  -0.16788  -0.02180   0.00000  -0.02596
[...]
  36        5XY         0.00078
  37        5XZ         0.00000   0.00073
  38        5YZ        -0.00000  -0.00000   0.00078
  39 3   H  1S          0.00007   0.00000   0.00000   0.21833
  40        2S          0.00033   0.00000  -0.00000   0.10492   0.12941
  41        3PX         0.00000   0.00000   0.00000   0.00000   0.00000
  42        3PY         0.00000   0.00000  -0.00000   0.00000   0.00000
  43        3PZ         0.00000  -0.00000   0.00000   0.00000   0.00000
  44 4   H  1S          0.00002   0.00000   0.00005  -0.00042  -0.00634
  45        2S          0.00008   0.00003   0.00024  -0.00634  -0.01720
  46        3PX         0.00000  -0.00000   0.00000   0.00010   0.00029
  47        3PY         0.00000  -0.00000   0.00000   0.00000   0.00000
  48        3PZ         0.00000   0.00000   0.00000   0.00001  -0.00007
  49 5   H  1S          0.00002   0.00000   0.00005  -0.00042  -0.00634
  50        2S          0.00008   0.00003   0.00024  -0.00634  -0.01720
  51        3PX         0.00000  -0.00000   0.00000   0.00010   0.00029
  52        3PY         0.00000  -0.00000   0.00000   0.00000   0.00000
  53        3PZ         0.00000   0.00000   0.00000   0.00001  -0.00007
  54 6   H  1S          0.00177   0.00000  -0.00000   0.00000   0.00036
  55        2S          0.00039   0.00000  -0.00000   0.00036   0.00377
  56        3PX         0.00004   0.00000  -0.00000   0.00000   0.00000
  57        3PY        -0.00001  -0.00000   0.00000  -0.00000  -0.00001
  58        3PZ        -0.00000  -0.00009   0.00003  -0.00000  -0.00000
  59 7   H  1S          0.00044   0.00205   0.00132  -0.00001  -0.00056
  60        2S          0.00010   0.00042   0.00030  -0.00056  -0.00291
  61        3PX         0.00000  -0.00001   0.00003  -0.00000  -0.00000
  62        3PY        -0.00000   0.00003  -0.00001  -0.00000  -0.00002
  63        3PZ         0.00003   0.00001   0.00001  -0.00000  -0.00001
  64 8   H  1S          0.00044   0.00205   0.00132  -0.00001  -0.00056
  65        2S          0.00010   0.00042   0.00030  -0.00056  -0.00291
  66        3PX         0.00000  -0.00001   0.00003  -0.00000  -0.00000
  67        3PY        -0.00000   0.00003  -0.00001  -0.00000  -0.00002
  68        3PZ         0.00003   0.00001   0.00001  -0.00000  -0.00001
                          41        42        43        44        45
  41        3PX         0.00039
  42        3PY         0.00000   0.00017
  43        3PZ         0.00000   0.00000   0.00015
  44 4   H  1S          0.00006  -0.00000   0.00005   0.21827
  45        2S          0.00005  -0.00000   0.00018   0.10495   0.12949
  46        3PX         0.00000   0.00000   0.00000   0.00000   0.00000
  47        3PY        -0.00000   0.00000  -0.00000   0.00000   0.00000
  48        3PZ         0.00000  -0.00000   0.00000   0.00000   0.00000
  49 5   H  1S          0.00006  -0.00000   0.00005  -0.00042  -0.00633
  50        2S          0.00005  -0.00000   0.00018  -0.00633  -0.01718
  51        3PX         0.00000   0.00000   0.00000  -0.00000  -0.00000
  52        3PY        -0.00000   0.00000  -0.00000  -0.00000  -0.00000
  53        3PZ         0.00000  -0.00000   0.00000   0.00010   0.00022
  54 6   H  1S          0.00000  -0.00000  -0.00000  -0.00001  -0.00056
  55        2S          0.00000  -0.00001  -0.00000  -0.00056  -0.00291
  56        3PX        -0.00000  -0.00000  -0.00000  -0.00000  -0.00000
  57        3PY        -0.00000   0.00000   0.00000  -0.00000  -0.00002
  58        3PZ        -0.00000   0.00000  -0.00000  -0.00000  -0.00001
  59 7   H  1S         -0.00000  -0.00000  -0.00000  -0.00001  -0.00056
  60        2S         -0.00000  -0.00002  -0.00001  -0.00056  -0.00291
  61        3PX         0.00000   0.00000   0.00000  -0.00000  -0.00001
  62        3PY        -0.00000   0.00000   0.00000  -0.00000  -0.00002
  63        3PZ        -0.00000  -0.00000  -0.00000   0.00000   0.00000
  64 8   H  1S         -0.00000  -0.00000  -0.00000   0.00000   0.00036
  65        2S         -0.00000  -0.00002  -0.00001   0.00036   0.00376
  66        3PX         0.00000   0.00000   0.00000   0.00000   0.00000
  67        3PY        -0.00000   0.00000   0.00000  -0.00000  -0.00001
  68        3PZ        -0.00000  -0.00000  -0.00000   0.00000   0.00000
                          46        47        48        49        50
  46        3PX         0.00021
  47        3PY        -0.00000   0.00017
  48        3PZ        -0.00000   0.00000   0.00033
  49 5   H  1S          0.00000  -0.00000   0.00010   0.21827
  50        2S          0.00000  -0.00000   0.00022   0.10495   0.12949
  51        3PX         0.00000  -0.00000   0.00000   0.00000   0.00000
  52        3PY         0.00000   0.00000  -0.00000   0.00000   0.00000
  53        3PZ        -0.00000   0.00000   0.00001   0.00000   0.00000
  54 6   H  1S         -0.00000  -0.00000  -0.00000  -0.00001  -0.00056
  55        2S         -0.00000  -0.00002  -0.00001  -0.00056  -0.00291
  56        3PX         0.00000  -0.00000  -0.00000  -0.00000  -0.00000
  57        3PY         0.00000   0.00000  -0.00000  -0.00000  -0.00002
  58        3PZ         0.00000   0.00000  -0.00000  -0.00000  -0.00001
  59 7   H  1S         -0.00000  -0.00000   0.00000   0.00000   0.00036
  60        2S         -0.00001  -0.00002   0.00000   0.00036   0.00376
  61        3PX        -0.00000   0.00000  -0.00000   0.00000   0.00000
  62        3PY         0.00000   0.00000  -0.00000  -0.00000  -0.00001
  63        3PZ         0.00000   0.00000  -0.00000   0.00000   0.00000
  64 8   H  1S          0.00000  -0.00000   0.00000  -0.00001  -0.00056
  65        2S          0.00000  -0.00001   0.00000  -0.00056  -0.00291
  66        3PX         0.00000  -0.00000  -0.00000  -0.00000  -0.00001
  67        3PY        -0.00000   0.00000  -0.00000  -0.00000  -0.00002
  68        3PZ        -0.00000  -0.00000  -0.00000   0.00000   0.00000
                          51        52        53        54        55
  51        3PX         0.00021
  52        3PY        -0.00000   0.00017
  53        3PZ         0.00000   0.00000   0.00033
  54 6   H  1S         -0.00000  -0.00000  -0.00000   0.21833
  55        2S         -0.00000  -0.00002  -0.00001   0.10492   0.12941
  56        3PX         0.00000  -0.00000  -0.00000   0.00000   0.00000
  57        3PY         0.00000   0.00000  -0.00000   0.00000   0.00000
  58        3PZ         0.00000   0.00000  -0.00000   0.00000   0.00000
  59 7   H  1S          0.00000  -0.00000   0.00000  -0.00042  -0.00634
  60        2S          0.00000  -0.00001   0.00000  -0.00634  -0.01720
  61        3PX         0.00000  -0.00000  -0.00000   0.00010   0.00029
  62        3PY        -0.00000   0.00000  -0.00000   0.00000   0.00000
  63        3PZ        -0.00000  -0.00000  -0.00000   0.00001  -0.00007
  64 8   H  1S         -0.00000  -0.00000   0.00000  -0.00042  -0.00634
  65        2S         -0.00001  -0.00002   0.00000  -0.00634  -0.01720
  66        3PX        -0.00000   0.00000   0.00000   0.00010   0.00029
  67        3PY         0.00000   0.00000   0.00000   0.00000   0.00000
  68        3PZ        -0.00000  -0.00000  -0.00000   0.00001  -0.00007
                          56        57        58        59        60
  56        3PX         0.00039
  57        3PY         0.00000   0.00017
  58        3PZ         0.00000   0.00000   0.00015
  59 7   H  1S          0.00006  -0.00000   0.00005   0.21827
  60        2S          0.00005  -0.00000   0.00018   0.10495   0.12949
  61        3PX         0.00000   0.00000   0.00000   0.00000   0.00000
  62        3PY        -0.00000   0.00000  -0.00000   0.00000   0.00000
  63        3PZ         0.00000  -0.00000   0.00000   0.00000   0.00000
  64 8   H  1S          0.00006  -0.00000   0.00005  -0.00042  -0.00633
  65        2S          0.00005  -0.00000   0.00018  -0.00633  -0.01718
  66        3PX         0.00000   0.00000   0.00000   0.00000   0.00000
  67        3PY        -0.00000   0.00000  -0.00000  -0.00000  -0.00000
  68        3PZ         0.00000  -0.00000   0.00000   0.00010   0.00022
                          61        62        63        64        65
  61        3PX         0.00021
  62        3PY         0.00000   0.00017
  63        3PZ         0.00000   0.00000   0.00033
  64 8   H  1S         -0.00000  -0.00000   0.00010   0.21827
  65        2S         -0.00000  -0.00000   0.00022   0.10495   0.12949
  66        3PX         0.00000   0.00000  -0.00000   0.00000   0.00000
  67        3PY         0.00000   0.00000   0.00000   0.00000   0.00000
  68        3PZ         0.00000  -0.00000   0.00001   0.00000   0.00000
                          66        67        68
  66        3PX         0.00021
  67        3PY        -0.00000   0.00017
  68        3PZ        -0.00000   0.00000   0.00033
     Gross orbital populations:
                           1
   1 1   C  1S          1.99195
   2        2S          0.68325
   3        2PX         0.71294
   4        2PY         0.68727
   5        2PZ         0.71274
   6        3S          0.64350
   7        3PX         0.33584
   8        3PY         0.24897
   9        3PZ         0.33594
  10        4S          0.03289
  11        4PX         0.02841
  12        4PY        -0.00023
  13        4PZ         0.02843
  14        5XX        -0.00992
  15        5YY        -0.00654
  16        5ZZ        -0.00992
  17        5XY         0.00659
  18        5XZ         0.00571
  19        5YZ         0.00659
  20 2   C  1S          1.99195
  21        2S          0.68325
  22        2PX         0.71294
  23        2PY         0.68727
  24        2PZ         0.71274
  25        3S          0.64350
  26        3PX         0.33584
  27        3PY         0.24897
  28        3PZ         0.33594
  29        4S          0.03289
  30        4PX         0.02841
  31        4PY        -0.00023
  32        4PZ         0.02843
  33        5XX        -0.00992
  34        5YY        -0.00654
  35        5ZZ        -0.00992
  36        5XY         0.00659
  37        5XZ         0.00571
  38        5YZ         0.00659
  39 3   H  1S          0.53342
  40        2S          0.31003
  41        3PX         0.00639
  42        3PY         0.00288
  43        3PZ         0.00241
  44 4   H  1S          0.53327
  45        2S          0.31028
  46        3PX         0.00340
  47        3PY         0.00287
  48        3PZ         0.00539
  49 5   H  1S          0.53327
  50        2S          0.31028
  51        3PX         0.00340
  52        3PY         0.00287
  53        3PZ         0.00539
  54 6   H  1S          0.53342
  55        2S          0.31003
  56        3PX         0.00639
  57        3PY         0.00288
  58        3PZ         0.00241
  59 7   H  1S          0.53327
  60        2S          0.31028
  61        3PX         0.00340
  62        3PY         0.00287
  63        3PZ         0.00539
  64 8   H  1S          0.53327
  65        2S          0.31028
  66        3PX         0.00340
  67        3PY         0.00287
  68        3PZ         0.00539
          Condensed to atoms (all electrons):
              1          2          3          4          5          6
     1  C    5.086670   0.268359   0.404324   0.404307   0.404307  -0.044504
     2  C    0.268359   5.086670  -0.044504  -0.044513  -0.044513   0.404324
     3  H    0.404324  -0.044504   0.558296  -0.029632  -0.029632   0.004488
     4  H    0.404307  -0.044513  -0.029632   0.558378  -0.029607  -0.004102
     5  H    0.404307  -0.044513  -0.029632  -0.029607   0.558378  -0.004102
     6  H   -0.044504   0.404324   0.004488  -0.004102  -0.004102   0.558296
     7  H   -0.044513   0.404307  -0.004102  -0.004102   0.004485  -0.029632
     8  H   -0.044513   0.404307  -0.004102   0.004485  -0.004102  -0.029632
              7          8
     1  C   -0.044513  -0.044513
     2  C    0.404307   0.404307
     3  H   -0.004102  -0.004102
     4  H   -0.004102   0.004485
     5  H    0.004485  -0.004102
     6  H   -0.029632  -0.029632
     7  H    0.558378  -0.029607
     8  H   -0.029607   0.558378
 Mulliken atomic charges:
              1
     1  C   -0.434436
     2  C   -0.434436
     3  H    0.144864
     4  H    0.144786
     5  H    0.144786
     6  H    0.144864
     7  H    0.144786
     8  H    0.144786
 Sum of Mulliken atomic charges =  -0.00000
 Mulliken charges with hydrogens summed into heavy atoms:
              1
     1  C   -0.000000
     2  C   -0.000000
 Sum of Mulliken charges with hydrogens summed into heavy atoms =  -0.00000
 Electronic spatial extent (au):  <R**2>=            110.6774
 Charge=             -0.0000 electrons
 Dipole moment (field-independent basis, Debye):
    X=             -0.0000    Y=             -0.0000    Z=              0.0000  Tot=              0.0000
 Quadrupole moment (field-independent basis, Debye-Ang):
   XX=            -15.0735   YY=            -15.7660   ZZ=            -15.0730
   XY=             -0.0014   XZ=              0.0000   YZ=             -0.0000
 Traceless Quadrupole moment (field-independent basis, Debye-Ang):
   XX=              0.2306   YY=             -0.4618   ZZ=              0.2312
   XY=             -0.0014   XZ=              0.0000   YZ=             -0.0000
 Octapole moment (field-independent basis, Debye-Ang**2):
  XXX=              0.0000  YYY=             -0.0000  ZZZ=              0.0000  XYY=              0.0000
  XXY=             -0.0000  XXZ=              0.0000  XZZ=              0.0000  YZZ=             -0.0000
  YYZ=             -0.0000  XYZ=             -0.0000
 Hexadecapole moment (field-independent basis, Debye-Ang**3):
 XXXX=            -31.3391 YYYY=            -98.9905 ZZZZ=            -31.3522 XXXY=             -1.2842
 XXXZ=             -0.0000 YYYX=             -0.0102 YYYZ=             -0.0000 ZZZX=             -0.0000
 ZZZY=             -0.0000 XXYY=            -20.6988 XXZZ=            -10.4479 YYZZ=            -20.7011
 XXYZ=             -0.0000 YYXZ=             -0.0000 ZZXY=              1.2753
 N-N= 4.210047627693D+01 E-N=-2.679376386927D+02  KE= 7.897251728798D+01
 Symmetry AG   KE= 3.891665561709D+01
 Symmetry BG   KE= 2.079633243242D+00
 Symmetry AU   KE= 1.806848352656D+00
 Symmetry BU   KE= 3.616938007499D+01
 Orbital energies and kinetic energies (alpha):
                                 1                 2
   1         (AG)--O         -10.177986         15.880778
   2         (BU)--O         -10.177779         15.886423
   3         (AG)--O          -0.752940          1.325485
   4         (BU)--O          -0.617221          1.294617
   5         (BU)--O          -0.434778          0.903650
   6         (AU)--O          -0.434734          0.903424
   7         (AG)--O          -0.368277          1.211969
   8         (AG)--O          -0.344664          1.040096
   9         (BG)--O          -0.344610          1.039817
  10         (AG)--V           0.017499          0.380997
  11         (BU)--V           0.030306          0.299213
  12         (AU)--V           0.053687          0.279885
  13         (BU)--V           0.053701          0.279753
  14         (AG)--V           0.080413          0.247355
  15         (BG)--V           0.089658          0.245205
  16         (AG)--V           0.089658          0.245170
  17         (BU)--V           0.142690          0.391501
  18         (BG)--V           0.195790          0.804670
  19         (AG)--V           0.195881          0.804509
  20         (AU)--V           0.198006          0.875951
  21         (BU)--V           0.198092          0.875918
  22         (BU)--V           0.254630          1.461311
  23         (AG)--V           0.297679          1.032476
  24         (BU)--V           0.326977          1.252364
  25         (AG)--V           0.620006          1.701787
  26         (BU)--V           0.642729          1.827350
  27         (AU)--V           0.642834          1.827798
  28         (BG)--V           0.670095          2.121948
  29         (AG)--V           0.670101          2.121424
  30         (BU)--V           0.695884          2.570268
  31         (AU)--V           0.915805          2.282847
  32         (BU)--V           0.915903          2.283268
  33         (BG)--V           0.967668          2.202710
  34         (AG)--V           0.967729          2.203310
  35         (AG)--V           1.002975          2.237991
  36         (BU)--V           1.099932          2.635803
  37         (AG)--V           1.110129          2.225220
  38         (AU)--V           1.324667          2.340030
  39         (BU)--V           1.324751          2.340113
  40         (BU)--V           1.459697          2.350634
  41         (AG)--V           1.673122          2.628603
  42         (BG)--V           1.673195          2.628598
  43         (AG)--V           1.889347          3.269183
  44         (AU)--V           2.052097          2.840865
  45         (BG)--V           2.052538          2.841272
  46         (AU)--V           2.100030          3.224360
  47         (BU)--V           2.100524          3.224912
  48         (BG)--V           2.112864          3.231974
  49         (AG)--V           2.113430          3.232517
  50         (AU)--V           2.265040          3.087653
  51         (BU)--V           2.265128          3.087773
  52         (BU)--V           2.382183          3.583254
  53         (BG)--V           2.474474          3.422563
  54         (AG)--V           2.474617          3.422541
  55         (AG)--V           2.691316          3.538024
  56         (BU)--V           2.786626          3.921643
  57         (BU)--V           2.797370          3.781817
  58         (AU)--V           2.797722          3.782167
  59         (AG)--V           2.900578          3.942782
  60         (BG)--V           2.900739          3.942739
  61         (AG)--V           3.211648          4.800821
  62         (BU)--V           3.261919          4.917837
  63         (BG)--V           3.391168          4.967808
  64         (AG)--V           3.391767          4.969344
  65         (AU)--V           3.517018          5.146964
  66         (BU)--V           3.517603          5.148610
  67         (AG)--V           4.329428          9.990642
  68         (BU)--V           4.580885         10.129166
 Total kinetic energy from orbitals= 7.897251728798D+01
 No NMR shielding tensors so no spin-rotation constants.
 Leave Link  601 at Mon Aug 12 17:02:55 2024, MaxMem=   33554432 cpu:       0.2
 (Enter /programs/64bit/g09/g09-gfortran/bin/l9999.exe)
 B after Tr=    -0.000000    0.000000    1.455089
         Rot=   -0.017880    0.017880    0.706881   -0.706881 Ang= 182.05 deg.
 Final structure in terms of initial Z-matrix:
 C
 C,1,d1
 H,1,d2,2,a1
 H,1,d3,2,a2,3,t1,0
 H,1,d4,2,a3,3,t2,0
 H,2,d5,1,a4,3,t3,0
 H,2,d6,1,a5,6,t4,0
 H,2,d7,1,a6,6,t5,0
      Variables:
 d1=1.53297892
 d2=1.09497432
 a1=111.31876513
 d3=1.09543719
 a2=111.30552938
 t1=120.00000913
 d4=1.09543719
 a3=111.30552938
 t2=-120.00000913
 d5=1.09497432
 a4=111.31876513
 t3=180.
 d6=1.09543719
 a5=111.30552938
 t4=120.00000913
 d7=1.09543719
 a6=111.30552938
 t5=-120.00000913
 1\1\GINC-MOLMOD\FOpt\RB3LYP\6-31+G(d,p)\C2H6\OSPITE\12-Aug-2024\0\\#p 
 B3LYP/6-31+g(d,p) opt pop=full gfinput\\ethane\\0,1\C,0.0574249335,0.,
 0.0056646856\C,-0.0574249335,0.,1.5343353144\H,1.1044301121,0.,-0.3148
 800426\H,-0.4216072773,-0.8838401695,-0.429464412\H,-0.4216072773,0.88
 38401695,-0.429464412\H,-1.1044301121,0.,1.8548800426\H,0.4216072773,-
 0.8838401695,1.969464412\H,0.4216072773,0.8838401695,1.969464412\\Vers
 ion=EM64L-G09RevA.02\State=1-AG\HF=-79.8416407\RMSD=1.074e-09\RMSF=2.5
 25e-04\Dipole=0.,0.,0.\Quadrupole=0.1687406,0.1718937,-0.3406343,0.,0.
 0374519,0.\PG=C02H [SGH(C2H2),X(H4)]\\@


 ONLY A FOOL KNOWS EVERYTHING.

               -- THE CHEMIST ANALYST, SEPTEMBER 1946
 Job cpu time:  0 days  0 hours  0 minutes 55.2 seconds.
 File lengths (MBytes):  RWF=      5 Int=      0 D2E=      0 Chk=      1 Scr=      1
 Normal termination of Gaussian 09 at Mon Aug 12 17:02:55 2024.
