[Molden Format]
[Molpro variables]
_NUMVAR=  726.0000000000000    
_EV2006= 0.3674930886769165E-01
_EV= 0.3674932534394180E-01
_KJOULE= 0.3808798324128737E-03
_KJOULE/MOL= 0.3808798324128737E-03
_CM= 0.4556335267302901E-05
_CM-1= 0.4556335267302901E-05
_KCAL= 0.1593601117815568E-02
_KCAL/MOL= 0.1593601117815568E-02
_KELVIN2006= 0.3166828861084835E-05
_KELVIN= 0.3166814820820034E-05
_HERTZ2006= 0.1519829850815779E-15
_HERTZ= 0.1519829846011223E-15
_HZ2006= 0.1519829850815779E-15
_HZ= 0.1519829846011223E-15
_TOA2006= 0.5291772490000000    
_TOA= 0.5291772090000000    
_TOANG2006= 0.5291772490000000    
_TOANG= 0.5291772090000000    
_TORAD= 0.1745329251994330E-01
_TOCM=  219474.6306700000    
_TODEBYE=  2.541580000000000    
_TOEV2006=  27.21139610000000    
_TOEV=  27.21138390000000    
_TOHERTZ2006=  6579683899900000.    
_TOHERTZ=  6579683920700000.    
_TOHZ2006=  6579683899900000.    
_TOHZ=  6579683920700000.    
_TOK2006=  315773.3000000000    
_TOK=  315774.7000000000    
_TOKCAL=  627.5096000000000    
_TOKELVIN2006=  315773.3000000000    
_TOKELVIN=  315774.7000000000    
_TOKJ=  2625.500000000000    
_TOKJOULE=  2625.500000000000    
_ANG2006=  1.889725988578923    
_ANG=  1.889726131421507    
_ANGSTROM2006=  1.889725988578923    
_ANGSTROM=  1.889726131421507    
_IGNORE_UNDEF=  2.000000000000000    
_STRICTCHECK=  0.000000000000000    
_SEW_ONEEL=  0.000000000000000    
_CPPDONE=FALSE
_DKROLL_DONE=  0.000000000000000    
_FOCKDONE=TRUE
_GRADONE=FALSE
_HESSDONE=TRUE
_INTDONE=TRUE
_SCFDONE=TRUE
_MODUL_CUDA=FALSE
_MODUL_SLATER=FALSE
_MODUL_MRCC=FALSE
_MRCC_EXEC=
_FITC_AO_SAVED=FALSE
_FITC_MO_SAVED=FALSE
_SHARED_FS=TRUE
_LSTYP=SEWARD
_INTYP=INTS
_GEOMTYP=ZMAT
_GRADTYP=ALASKA
_DIRECT=FALSE
_SYNCM=  0.000000000000000    
_BASIS=6-31G(D,P)
_ZUNIT=ANG
_ZORIENT=  1.000000000000000    
_NELEC=  18.00000000000000    
!SPIN=  0.000000000000000    
_OPTCONV= 0.3408276079138778E-03
_QSDSTEP=  0.000000000000000    
_QSDIRC=  0.000000000000000    
_PROGRAM=FREQ
_CPUSTEP=  29.62000000000000    
_SYSSTEP= 0.8800000000000000    
_WALLSTEP=  31.11000000000000    
!DFSCF=  0.000000000000000    
!SCSGRD=  0.000000000000000    
_BASINP=  610.0000000000000    
_CPUTOT=  51.07000000000000    
_DFTEXFAC=  1.000000000000000    
_DMX=-0.7011167753138980E-10
_DMY= 0.9236112525831675E-11
_DMZ=-0.1662684096306877E-10
_FREQUENCIES= 0.4053662963808640E-04
_ENERGY= -79.23817520499469    
_ENUC=  42.38667225091393    
_EPS1= -11.21314724151565    
_GRADENERG= -79.23817517974005    
_GRADEXFAC=  9999.000000000000    
_GRADMETHOD=  1.000000000000000    
_VIRIAL= 0.2885628188563272E-03
!GRID_FREEZE= -1.000000000000000    
_ITERATIONS=  6.000000000000000    
_LASTNELEC=  18.00000000000000    
_LASTSPIN=  0.000000000000000    
_LASTSYM=  1.000000000000000    
_MPP_PROG=  0.000000000000000    
_NPROC_MPP=  1.000000000000000    
_NPROC_SMP=  1.000000000000000    
_NUMSTEP=  0.000000000000000    
_OPTCONVMX= 0.2345489118838924E-03
_OPTCONVRMS= 0.1893486710632655E-04
_OPTGRAD= 0.1400510481094123E-03
_OPTGRADMX= 0.1031561768626293E-03
_OPTGRADRMS= 0.7780613783856238E-05
_OPTSTEP=  6.000000000000000    
_ORBITAL=  2100.200000000000    
_PI=  3.141592653589793    
_SEIG_MIN= 0.8853896515857490E-02
_SEWPROP=TRUE
_STATUS=  1.000000000000000    
_SYSTOT=  1.450000000000000    
_VERSION=  2010001.000000000    
_WALLTOT=  56.29000000000000    
_ZPE= 0.7921706689073976E-01
_DATE=12-Aug-24
_LASTORB=RHF
_MACHINE=Linux-3.10.0-1160.108.1.el7.x86_64/molmod(x86_64) 64 bit serial version
_OUTPUT=/home/ospite/QM/c2h6/c2h6.xml
_PGROUP=C1
_TIME=23:28:20
_LIBMOL=/usr/local/molpro/molpros_2010_1_Linux_x86_64_i8/lib/
!SURFREC=  0.000000000000000    
!POLYREC=  0.000000000000000    
!DIPREC=  0.000000000000000    
!VSCFREC=  0.000000000000000    
!VCIREC=  0.000000000000000    
!PVCIREC=  0.000000000000000    
!VMP2REC=  0.000000000000000    
!VMCSCFREC=  0.000000000000000    
!GAREC=  0.000000000000000    
!SCFORB=  21002.00000000000    
!NEWMOL=  0.000000000000000    
!NEWSYM=  0.000000000000000    
_SLFILES=slscratch
_NGSSTO=  9.000000000000000    
_SIN=SIN
_COS=COS
_TAN=TAN
_ACOS=ACOS
_ASIN=ASIN
_ATAN=ATAN
_COSH=COSH
_SINH=SINH
_TANH=TANH
_ABS=ABS
_MOD=MOD
_ERF=ERF
_REFC=REFC
_ERFC=ERFC
_HYPOT=HYPOT
_J0=J0
_J1=J1
_JN=JN
_GAMMA=GAMMA
_LGAMMA=LGAMMA
_Y0=Y0
_Y1=Y1
_YN=YN
_EXP=EXP
_LOG=LOG
_LOG10=LOG10
_SQRT=SQRT
_INT=INT
_NINT=NINT
_MAX=MAX
_MIN=MIN
_COSMO=  0.000000000000000    
_COSMOIT=  0.000000000000000    
_COSMOES=  0.000000000000000    
_COSMOEDS=  0.000000000000000    
_COSMOEC=  0.000000000000000    
_COSMOEDCORR=  0.000000000000000    
_FEPSI=  1.000000000000000    
_SL_IsMM=  0.000000000000000    
_SL_NSYM=  0.000000000000000    
_SL_System_BitSw=  0.000000000000000    
_SL_Unique_atoms=  0.000000000000000    
_SL_GRAD=  0.000000000000000    
_SL_MAXUPD_Hess=  5.000000000000000    
_SL_N_PRINT_COD=  5.000000000000000    
_SL_PRINT_CODES=  0.000000000000000    
_SL_BasType=  0.000000000000000    
_SL_Energy_Pred=  0.000000000000000    
_SL_New_Coords=  0.000000000000000    
_SL_Total_Nuclea=  0.000000000000000    
_SL_Highest_Mltp=  0.000000000000000    
_SL_Ref_Geom=  0.000000000000000    
!LATTICE= -1.000000000000000    
!NEWLATTICE=  0.000000000000000    
!LATGRAD_VAR=FALSE
!SEW_LATTICE=  1.000000000000000    
!LOCAL=  0.000000000000000    
!SAVEDOM= -1.000000000000000    
!RESTDOM= -1.000000000000000    
!SAVEDOM_HF= -1.000000000000000    
!RESTDOM_HF= -1.000000000000000    
!HESSREC=  5300.200000000000    
!FREQREC=  5400.200000000000    
!NMODREC=  5450.200000000000    
!GTASKS=  0.000000000000000    
!HTASKS=  0.000000000000000    
!THRCHG= 0.1000000000000000    
!DEBUG= -1.000000000000000    
!CFIT_CPHF=  0.000000000000000    
!RDOMAUX_CPHF=  5.000000000000000    
!THRAO_CPHF= 0.9999999999999999E-11
!THRMO_CPHF= 0.9999999999999999E-11
!THROV_CPHF= 0.1000000000000000E-11
!THRSW_CPHF= 0.1000000000000000E-09
!THRPROD_CPHF= 0.9999999999999999E-11
!THRAOPR_CPHF= 0.1000000000000000E-11
!CFIT_SCFGRD=  0.000000000000000    
!RDOMAUX_SCFGRD=  7.000000000000000    
!THRAO_SCFGRD= 0.9999999999999999E-11
!THRMO_SCFGRD= 0.9999999999999999E-11
!THROV_SCFGRD= 0.1000000000000000E-11
!THRSW_SCFGRD= 0.1000000000000000E-09
!THRPROD_SCFGRD= 0.9999999999999999E-11
!THRAOPR_SCFGRD= 0.1000000000000000E-11
!LOCFIT_SCF=  0.000000000000000    
!LOCFIT_MP2= -1.000000000000000    
_RIDOM=  0.000000000000000    
!CC2_METHOD=  0.000000000000000    
_BASIS2006=FALSE
_SVDDEL= -1.000000000000000    
_SVDDELA= -1.000000000000000    
_SVDDELP= -1.000000000000000    
_SVDDELF= -1.000000000000000    
_SVDDELS= -1.000000000000000    
_SVDDEL_ABS= -1.000000000000000    
_SVDDELA_ABS= -1.000000000000000    
_SVDDELP_ABS= -1.000000000000000    
_SVDDELF_ABS= -1.000000000000000    
_SVDDELS_ABS= -1.000000000000000    
_MAXBASIS=  0.000000000000000    
!OPT_CONICAL=  0.000000000000000    
!CLEARSP_JGRID=  0.000000000000000    
D1=  1.526708413694220    
D2=  1.085807225097009    
A1=  111.2174788668290    
D3=  1.085797408380026    
A2=  111.2159776885841    
T1=  119.9989664401919    
D4=  1.085797408391584    
A3=  111.2159775968564    
T2= -119.9989663513610    
D5=  1.085807225095553    
A4=  111.2174788683259    
T3=  180.0000000000000    
D6=  1.085797408391118    
A5=  111.2159775964763    
T4=  119.9989663523502    
D7=  1.085797408381164    
A6=  111.2159776880057    
T5= -119.9989664407615    
GX1=  1.442530392175020    
GY1=-0.1006116251867903E-04
GZ1= 0.5542800634542602E-10
GX2= -1.442530392173851    
GY2= 0.1006115756870263E-04
GZ2=-0.5464522623317690E-10
GX3=  2.185136893619368    
GY3=  1.912773274302580    
GZ3=-0.6711600999411269E-05
GX4=  2.185060052658654    
GY4=-0.9563748837321144    
GZ4=  1.656545926330377    
GX5=  2.185060049649610    
GY5=-0.9563865068815751    
GZ5= -1.656539217210113    
GX6= -2.185136893667176    
GY6= -1.912773274285564    
GZ6= 0.6711601781880055E-05
GX7= -2.185060049635432    
GY7= 0.9563865069072761    
GZ7=  1.656539217197939    
GX8= -2.185060052638953    
GY8= 0.9563748837483829    
GZ8= -1.656545926328314    
C1X1=  1.442530392175020    
C1Y1=-0.1006116251867903E-04
C1Z1= 0.5542800634542602E-10
C2X2= -1.442530392173851    
C2Y2= 0.1006115756870263E-04
C2Z2=-0.5464522623317690E-10
H3X3=  2.185136893619368    
H3Y3=  1.912773274302580    
H3Z3=-0.6711600999411269E-05
H4X4=  2.185060052658654    
H4Y4=-0.9563748837321144    
H4Z4=  1.656545926330377    
H5X5=  2.185060049649610    
H5Y5=-0.9563865068815751    
H5Z5= -1.656539217210113    
H6X6= -2.185136893667176    
H6Y6= -1.912773274285564    
H6Z6= 0.6711601781880055E-05
H7X7= -2.185060049635432    
H7Y7= 0.9563865069072761    
H7Z7=  1.656539217197939    
H8X8= -2.185060052638953    
H8Y8= 0.9563748837483829    
H8Z8= -1.656545926328314    
[Atoms] Angs
C     1    6         0.7633542068       -0.0000053241        0.0000000000
C     2    6        -0.7633542068        0.0000053241       -0.0000000000
H     3    1         1.1563246426        1.0121960227       -0.0000035516
H     4    1         1.1562839802       -0.5060917917        0.8766063499
H     5    1         1.1562839786       -0.5060979424       -0.8766027996
H     6    1        -1.1563246427       -1.0121960227        0.0000035516
H     7    1        -1.1562839786        0.5060979425        0.8766027996
H     8    1        -1.1562839802        0.5060917917       -0.8766063499
[GTO]
  1 0
 s    6  1.00
  0.3047524900D+04  0.1834737091D-02
  0.4573695200D+03  0.1403732293D-01
  0.1039486800D+03  0.6884262165D-01
  0.2921015500D+02  0.2321844388D+00
  0.9286663000D+01  0.4679413476D+00
  0.3163927000D+01  0.3623119882D+00
 s    3  1.00
  0.7868272300D+01 -0.1193324245D+00
  0.1881288500D+01 -0.1608541561D+00
  0.5442492600D+00  0.1143456443D+01
 s    1  1.00
  0.1687144800D+00  0.1000000000D+01
 p    3  1.00
  0.7868272300D+01  0.6899906693D-01
  0.1881288500D+01  0.3164239597D+00
  0.5442492600D+00  0.7443082892D+00
 p    1  1.00
  0.1687144800D+00  0.1000000000D+01
 d    1  1.00
  0.8000000000D+00  0.1000000000D+01
  
  2 0
 s    6  1.00
  0.3047524900D+04  0.1834737091D-02
  0.4573695200D+03  0.1403732293D-01
  0.1039486800D+03  0.6884262165D-01
  0.2921015500D+02  0.2321844388D+00
  0.9286663000D+01  0.4679413476D+00
  0.3163927000D+01  0.3623119882D+00
 s    3  1.00
  0.7868272300D+01 -0.1193324245D+00
  0.1881288500D+01 -0.1608541561D+00
  0.5442492600D+00  0.1143456443D+01
 s    1  1.00
  0.1687144800D+00  0.1000000000D+01
 p    3  1.00
  0.7868272300D+01  0.6899906693D-01
  0.1881288500D+01  0.3164239597D+00
  0.5442492600D+00  0.7443082892D+00
 p    1  1.00
  0.1687144800D+00  0.1000000000D+01
 d    1  1.00
  0.8000000000D+00  0.1000000000D+01
  
  3 0
 s    3  1.00
  0.1873113700D+02  0.3349460400D-01
  0.2825394400D+01  0.2347269500D+00
  0.6401216900D+00  0.8137573301D+00
 s    1  1.00
  0.1612777600D+00  0.1000000000D+01
 p    1  1.00
  0.1100000000D+01  0.1000000000D+01
  
  4 0
 s    3  1.00
  0.1873113700D+02  0.3349460400D-01
  0.2825394400D+01  0.2347269500D+00
  0.6401216900D+00  0.8137573301D+00
 s    1  1.00
  0.1612777600D+00  0.1000000000D+01
 p    1  1.00
  0.1100000000D+01  0.1000000000D+01
  
  5 0
 s    3  1.00
  0.1873113700D+02  0.3349460400D-01
  0.2825394400D+01  0.2347269500D+00
  0.6401216900D+00  0.8137573301D+00
 s    1  1.00
  0.1612777600D+00  0.1000000000D+01
 p    1  1.00
  0.1100000000D+01  0.1000000000D+01
  
  6 0
 s    3  1.00
  0.1873113700D+02  0.3349460400D-01
  0.2825394400D+01  0.2347269500D+00
  0.6401216900D+00  0.8137573301D+00
 s    1  1.00
  0.1612777600D+00  0.1000000000D+01
 p    1  1.00
  0.1100000000D+01  0.1000000000D+01
  
  7 0
 s    3  1.00
  0.1873113700D+02  0.3349460400D-01
  0.2825394400D+01  0.2347269500D+00
  0.6401216900D+00  0.8137573301D+00
 s    1  1.00
  0.1612777600D+00  0.1000000000D+01
 p    1  1.00
  0.1100000000D+01  0.1000000000D+01
  
  8 0
 s    3  1.00
  0.1873113700D+02  0.3349460400D-01
  0.2825394400D+01  0.2347269500D+00
  0.6401216900D+00  0.8137573301D+00
 s    1  1.00
  0.1612777600D+00  0.1000000000D+01
 p    1  1.00
  0.1100000000D+01  0.1000000000D+01


[MO]
 Sym=      1.1
 Ene=     -11.2100
 Spin= Alpha
 Occup=    2.000000
1 0.70435198701508
2 0.018160293744431
3 -0.009416980353082
4 0.000157468467021
5 0.000000020715488
6 0.000000000007721
7 -0.000857739419116
8 -0.000000092957368
9 -0.000000000054968
10 -0.000430003113322
11 0.000214979606390
12 0.000215023506932
13 0.000000019249525
14 -0.000000000002697
15 0.000000000000436
16 0.70435198979659
17 0.018160293820498
18 -0.009416980419751
19 -0.000157468467630
20 -0.000000020715660
21 -0.000000000007909
22 0.000857739411493
23 0.000000092955404
24 0.000000000056409
25 -0.000430003113013
26 0.000214979606935
27 0.000215023506078
28 0.000000019249711
29 -0.000000000002695
30 0.000000000000676
31 -0.000234521303627
32 0.002151213456341
33 0.000058841703824
34 0.000307417094009
35 -0.000000001062404
36 -0.000234546923044
37 0.002151189759158
38 0.000058830596242
39 -0.000153703503687
40 0.000266222420306
41 -0.000234546934983
42 0.002151189711810
43 0.000058830594808
44 -0.000153705376217
45 -0.000266221344912
46 -0.000234521303356
47 0.002151213463553
48 -0.000058841705828
49 -0.000307417095595
50 0.000000001062353
51 -0.000234546934293
52 0.002151189720876
53 -0.000058830595183
54 0.000153705376596
55 0.000266221345748
56 -0.000234546922656
57 0.002151189771371
58 -0.000058830595419
59 0.000153703504186
60 -0.000266222421160
 Sym=      2.1
 Ene=     -11.2094
 Spin= Alpha
 Occup=    2.000000
1 0.70445636541364
2 0.018637306696553
3 -0.014863902879551
4 0.000079278259272
5 0.000000005163081
6 -0.000000000004942
7 0.002060221265670
8 -0.000000014896785
9 0.000000000014443
10 0.000106974130110
11 -0.000053510220651
12 -0.000053463909459
13 0.000000002700815
14 -0.000000000003901
15 -0.000000000001349
16 -0.70445636263252
17 -0.018637306624052
18 0.014863902837905
19 0.000079278258718
20 0.000000005163519
21 -0.000000000004942
22 0.002060221270032
23 -0.000000014896186
24 0.000000000014462
25 -0.000106974131523
26 0.000053510220860
27 0.000053463910663
28 -0.000000002700627
29 0.000000000003591
30 0.000000000001287
31 0.000055458584522
32 0.001914875411076
33 0.000092834996993
34 0.000294921351448
35 -0.000000001028664
36 0.000055440271857
37 0.001914922870528
38 0.000092846505549
39 -0.000147459883358
40 0.000255399491022
41 0.000055440269422
42 0.001914922893586
43 0.000092846502015
44 -0.000147461674880
45 -0.000255398459312
46 -0.000055458585280
47 -0.001914875400132
48 0.000092834998206
49 0.000294921350729
50 -0.000000001028724
51 -0.000055440270558
52 -0.001914922883655
53 0.000092846501780
54 -0.000147461674039
55 -0.000255398458385
56 -0.000055440272560
57 -0.001914922860925
58 0.000092846504270
59 -0.000147459882954
60 0.000255399490381
 Sym=      3.1
 Ene=      -1.0186
 Spin= Alpha
 Occup=    2.000000
1 -0.14621643691862
2 0.27357199864532
3 0.23248448762024
4 -0.060060200187539
5 0.000000051213880
6 -0.000000000019713
7 -0.009820950629638
8 0.000001028092220
9 -0.000000000687765
10 0.009421291031528
11 -0.004711040105332
12 -0.004710250926195
13 0.000000030276629
14 0.000000000000136
15 0.000000000007589
16 -0.14621643692015
17 0.27357199863143
18 0.23248448768753
19 0.060060200191608
20 -0.000000051208684
21 0.000000000016437
22 0.009820950619066
23 -0.000001028099919
24 0.000000000719584
25 0.009421291031471
26 -0.004711040105158
27 -0.004710250926313
28 0.000000030276157
29 -0.000000000000955
30 0.000000000007886
31 0.088388558064903
32 0.021595986205751
33 -0.003824697865060
34 -0.008327382387733
35 0.000000029346938
36 0.088390595923024
37 0.021596762058372
38 -0.003824475965962
39 0.004163646769372
40 -0.007211965241420
41 0.088390595857681
42 0.021596761306700
43 -0.003824475929191
44 0.004163697385162
45 0.007211935992311
46 0.088388558064998
47 0.021595986171447
48 0.003824697864700
49 0.008327382385633
50 -0.000000029347993
51 0.088390595864807
52 0.021596761249710
53 0.003824475927763
54 -0.004163697385178
55 -0.007211935990497
56 0.088390595917777
57 0.021596762077576
58 0.003824475964009
59 -0.004163646769416
60 0.007211965242046
 Sym=      4.1
 Ene=      -0.8433
 Spin= Alpha
 Occup=    2.000000
1 -0.12714804600645
2 0.23798205932502
3 0.26691380315792
4 0.12394587583389
5 -0.000000727022007
6 -0.000000000105170
7 0.029149769622368
8 0.000000240945651
9 -0.000000000142087
10 -0.011595185249875
11 0.005797190259951
12 0.005797994989924
13 0.000000585158324
14 -0.000000000004369
15 0.000000000008100
16 0.12714804600601
17 -0.23798205932753
18 -0.26691380313638
19 0.12394587584058
20 -0.000000727025631
21 -0.000000000111872
22 0.029149769614768
23 0.000000240995822
24 -0.000000000061712
25 0.011595185248096
26 -0.005797190258402
27 -0.005797994989693
28 -0.000000585155844
29 0.000000000003865
30 -0.000000000005650
31 0.11941835295589
32 0.051857159607185
33 -0.002290928218038
34 -0.009751371799452
35 0.000000034277336
36 0.11941870726484
37 0.051856969611777
38 -0.002290571753799
39 0.004875588196497
40 -0.008445021074184
41 0.11941870722631
42 0.051856969396586
43 -0.002290571717916
44 0.004875647499608
45 0.008444986820713
46 -0.11941835295870
47 -0.051857159570504
48 -0.002290928219727
49 -0.009751371800089
50 0.000000034274645
51 -0.11941870722511
52 -0.051856969490484
53 -0.002290571719194
54 0.004875647503865
55 0.008444986822571
56 -0.11941870726702
57 -0.051856969582038
58 -0.002290571752929
59 0.004875588192413
60 -0.008445021074728
 Sym=      5.1
 Ene=      -0.5967
 Spin= Alpha
 Occup=    2.000000
1 -0.000000000135916
2 -0.000000000387144
3 0.000000003183465
4 0.000000000062631
5 -0.000002020195116
6 0.30549595583853
7 -0.000000000652582
8 -0.000000934015904
9 0.14119129337383
10 0.000000000057372
11 -0.000000225224429
12 0.000000225167057
13 -0.000000030147431
14 0.004569433160427
15 -0.015190573603341
16 0.000000000132575
17 0.000000000358421
18 -0.000000003059545
19 0.000000000058615
20 -0.000002020193962
21 0.30549595584578
22 -0.000000000690846
23 -0.000000934134369
24 0.14119129337259
25 -0.000000000060940
26 0.000000225234451
27 -0.000000225173511
28 0.000000030150006
29 -0.004569433157665
30 0.015190573601403
31 -0.000001843009838
32 -0.000001454342050
33 0.000000051774327
34 0.000000087283412
35 0.004802445121104
36 0.15772973179279
37 0.12444053858490
38 -0.004421150230649
39 0.005086694144369
40 -0.004008425916422
41 -0.15772788908419
42 -0.12443908603331
43 0.004421098581675
44 -0.005086760113286
45 -0.004008287199192
46 0.000001842997752
47 0.000001454224720
48 0.000000051770391
49 0.000000087276514
50 0.004802445120333
51 0.15772788909024
52 0.12443908603747
53 0.004421098583594
54 -0.005086760112902
55 -0.004008287203203
56 -0.15772973178988
57 -0.12444053860718
58 -0.004421150228129
59 0.005086694146415
60 -0.004008425915586
 Sym=      6.1
 Ene=      -0.5967
 Spin= Alpha
 Occup=    2.000000
1 0.000000887208783
2 -0.000002487202993
3 0.000000714119391
4 0.000003126984352
5 0.30549585803395
6 0.000002020262032
7 0.000000700225564
8 0.14119402451999
9 0.000000934002878
10 0.000000457569394
11 0.013155495051123
12 -0.013155952620517
13 0.004569776108010
14 0.000000030149732
15 -0.000000260136900
16 -0.000000887209696
17 0.000002487190365
18 -0.000000714058963
19 0.000003126992063
20 0.30549585804046
21 0.000002020254055
22 0.000000700211330
23 0.14119402455648
24 0.000000934059370
25 -0.000000457568415
26 -0.013155495052022
27 0.013155952620437
28 -0.004569776102738
29 -0.000000030149382
30 0.000000260138949
31 0.18212807347750
32 0.14369562142800
33 -0.005105393096253
34 -0.006944832118149
35 0.000000073108091
36 -0.091062977228136
37 -0.071846717200809
38 0.002552599263263
39 0.001865855926662
40 0.005086736589603
41 -0.091066169169010
42 -0.071849235053552
43 0.002552688758236
44 0.001865717181771
45 -0.005086830841752
46 -0.18212807348606
47 -0.14369562141941
48 -0.005105393096868
49 -0.006944832121218
50 0.000000073106606
51 0.091066169168727
52 0.071849234958151
53 0.002552688754674
54 0.001865717183567
55 -0.005086830840455
56 0.091062977230042
57 0.071846717207745
58 0.002552599264185
59 0.001865855923745
60 0.005086736589736
 Sym=      7.1
 Ene=      -0.5085
 Spin= Alpha
 Occup=    2.000000
1 0.016913057282537
2 -0.037597243186236
3 -0.049760703333516
4 0.40148421914444
5 0.000047941650324
6 0.000000002008948
7 0.19836932307566
8 0.000026156867931
9 0.000000002178711
10 -0.025081856301060
11 0.012543629415280
12 0.012538226885780
13 0.000004274537051
14 0.000000000095323
15 -0.000000000210388
16 0.016913057274791
17 -0.037597243200264
18 -0.049760703124444
19 -0.40148421913235
20 -0.000047941633203
21 -0.000000002011251
22 -0.19836932310782
23 -0.000026156949677
24 -0.000000002152466
25 -0.025081856299834
26 0.012543629415641
27 0.012538226884194
28 0.000004274537198
29 0.000000000093680
30 -0.000000000207244
31 0.082646741839081
32 0.080097178960432
33 0.004263840578939
34 -0.005254255493402
35 0.000000018441196
36 0.082590831166251
37 0.080045144933034
38 0.004265401566572
39 0.002626622319258
40 -0.004548112580010
41 0.082590828341761
42 0.080045143599409
43 0.004265401605614
44 0.002626654205999
45 0.004548094087983
46 0.082646741851180
47 0.080097178754011
48 -0.004263840580920
49 0.005254255487704
50 -0.000000018441029
51 0.082590828337229
52 0.080045143536301
53 -0.004265401608981
54 -0.002626654203734
55 -0.004548094084839
56 0.082590831164397
57 0.080045144938638
58 -0.004265401558262
59 -0.002626622318810
60 0.004548112580364
 Sym=      8.1
 Ene=      -0.4865
 Spin= Alpha
 Occup=    2.000000
1 -0.000000000141316
2 0.000000000391127
3 0.000000000015740
4 -0.000000002841380
5 -0.000000098761130
6 0.30405511888728
7 -0.000000001486189
8 -0.000000057066341
9 0.16835454413322
10 0.000000000200010
11 -0.000000187093588
12 0.000000186893578
13 -0.000000007037033
14 0.021628243217357
15 -0.019921180660311
16 -0.000000000150121
17 0.000000000340073
18 0.000000000306513
19 0.000000002844762
20 0.000000098754220
21 -0.30405511888609
22 0.000000001546952
23 0.000000057094925
24 -0.16835454413280
25 0.000000000205043
26 -0.000000187097791
27 0.000000186892748
28 -0.000000007037995
29 0.021628243214239
30 -0.019921180657345
31 -0.000000814635051
32 -0.000000798841373
33 0.000000016104571
34 0.000000044998430
35 0.005025887193144
36 0.18408123064299
37 0.18099088775494
38 -0.003656557746885
39 0.005268260834304
40 -0.004099522167235
41 -0.18408041777033
42 -0.18099009019897
43 0.003656541511447
44 -0.005268304866778
45 -0.004099444896152
46 -0.000000814651308
47 -0.000000798837515
48 -0.000000016105449
49 -0.000000044997376
50 -0.005025887194513
51 -0.18408041777271
52 -0.18099009026534
53 -0.003656541514653
54 0.005268304869234
55 0.004099444900827
56 0.18408123063711
57 0.18099088766547
58 0.003656557742601
59 -0.005268260832744
60 0.004099522165279
 Sym=      9.1
 Ene=      -0.4865
 Spin= Alpha
 Occup=    2.000000
1 -0.000003013088405
2 0.000006351258024
3 0.000011646993601
4 -0.000068576651476
5 0.30405340150336
6 0.000000098741301
7 -0.000035071560333
8 0.16835659335524
9 0.000000056967100
10 0.000005066080721
11 0.017249958771982
12 -0.017255024852704
13 0.021628696839746
14 0.000000006921529
15 -0.000000215987222
16 -0.000003013092569
17 0.000006351239376
18 0.000011647117645
19 0.000068576665141
20 -0.30405340150364
21 -0.000000098738343
22 0.000035071591496
23 -0.16835659329242
24 -0.000000056969081
25 0.000005066084803
26 0.017249958767740
27 -0.017255024852543
28 0.021628696832469
29 0.000000006921603
30 -0.000000215985787
31 0.21254348634523
32 0.20898239534753
33 -0.004223403606552
34 -0.007139853729699
35 0.000000044399304
36 -0.10629218803291
37 -0.10451190570056
38 0.002110371229727
39 0.001983919855965
40 0.005269040514788
41 -0.10629359808669
42 -0.10451328878764
43 0.002110399167717
44 0.001983842501562
45 -0.005269085813905
46 0.21254348634041
47 0.20898239540062
48 0.004223403605955
49 0.007139853736310
50 -0.000000044398971
51 -0.10629359807939
52 -0.10451328886291
53 -0.002110399176857
54 -0.001983842501518
55 0.005269085817601
56 -0.10629218802901
57 -0.10451190574830
58 -0.002110371229198
59 -0.001983919854951
60 -0.005269040515533
 Sym=     10.1
 Ene=       0.2429
 Spin= Alpha
 Occup=    0.000000
1 0.093464192126186
2 -0.060636835032717
3 -1.71661750153017
4 -0.098776526592171
5 0.000002358794155
6 0.000000000926183
7 -0.53235563951784
8 0.000003123877242
9 0.000000018190467
10 -0.004914541575280
11 0.002457193491585
12 0.002457348083695
13 -0.000000402210813
14 0.000000000091288
15 -0.000000000186161
16 0.093464192045020
17 -0.060636835073471
18 -1.71661749970656
19 0.098776526765759
20 -0.000002358652886
21 -0.000000000750136
22 0.53235564048638
23 -0.000003123566518
24 -0.000000017280452
25 -0.004914541538211
26 0.002457193466706
27 0.002457348071506
28 -0.000000402205854
29 0.000000000081587
30 -0.000000000149566
31 -0.004023881995598
32 0.82748166620042
33 -0.003525648417634
34 -0.002748076898305
35 0.000000009339234
36 -0.004022017109855
37 0.82749955788632
38 -0.003525546979922
39 0.001374388327975
40 -0.002379660259635
41 -0.004022015745707
42 0.82749958537386
43 -0.003525547382154
44 0.001374405357218
45 0.002379651025530
46 -0.004023881948733
47 0.82748166649814
48 0.003525648422287
49 0.002748076913782
50 -0.000000009339696
51 -0.004022015766140
52 0.82749958377587
53 0.003525547345473
54 -0.001374405335837
55 -0.002379651006024
56 -0.004022017055783
57 0.82749955849167
58 0.003525546999978
59 -0.001374388333125
60 0.002379660281587
 Sym=     11.1
 Ene=       0.3028
 Spin= Alpha
 Occup=    0.000000
1 -0.12368880863151
2 0.038445976832145
3 2.47307367288351
4 0.036370906362607
5 0.000048262472161
6 0.000000017615827
7 -0.22390292869252
8 0.000174365140062
9 0.000000070188531
10 -0.003707065797694
11 0.001852555982899
12 0.001854509814795
13 -0.000002896445969
14 -0.000000001065139
15 0.000000000081103
16 0.12368880866921
17 -0.038445977082762
18 -2.47307367313636
19 0.036370906483536
20 0.000048261684767
21 0.000000017304353
22 -0.22390292869372
23 0.000174358650685
24 0.000000068075622
25 0.003707065774778
26 -0.001852555973737
27 -0.001854509801042
28 0.000002896496747
29 0.000000001091677
30 -0.000000000066130
31 0.003921997894710
32 -0.85316643537733
33 0.000489441061946
34 0.002083006931890
35 -0.000000007229273
36 0.003939527869939
37 -0.85279456308551
38 0.000490721247826
39 -0.001040374107414
40 0.001802750760225
41 0.003939535849522
42 -0.85279438050950
43 0.000490721457826
44 -0.001040386209499
45 -0.001802742396838
46 -0.003921998069341
47 0.85316642920159
48 0.000489441001908
49 0.002083006884417
50 -0.000000007222156
51 -0.003939535758827
52 0.85279438581048
53 0.000490721531369
54 -0.001040386220424
55 -0.001802742423802
56 -0.003939527873492
57 0.85279456472609
58 0.000490721258411
59 -0.001040374117658
60 0.001802750768108
 Sym=     12.1
 Ene=       0.3180
 Spin= Alpha
 Occup=    0.000000
1 -0.000024378189195
2 0.000007104907119
3 0.000520206182253
4 0.000009487122625
5 -0.23957621030268
6 -0.000056149014794
7 -0.000053702102300
8 -0.86689686138244
9 -0.000203183887189
10 0.000000025198805
11 0.002078407451054
12 -0.002078432649858
13 0.015903855894264
14 0.000003726784769
15 -0.000000587193140
16 0.000024378228821
17 -0.000007104789303
18 -0.000520207233031
19 0.000009487080305
20 -0.23957621092113
21 -0.000056148281813
22 -0.000053701694486
23 -0.86689686609203
24 -0.000203178106817
25 -0.000000025196869
26 -0.002078407463385
27 0.002078432660254
28 -0.015903855839963
29 -0.000003726836336
30 0.000000587194292
31 0.054652199058256
32 1.30852673168310
33 0.003756390934096
34 -0.005206316079765
35 -0.000000610916327
36 -0.027313863991717
37 -0.65426832387570
38 -0.001877069756801
39 -0.003285639854064
40 0.001108384150144
41 -0.027336376938424
42 -0.65480754706914
43 -0.001878617061460
44 -0.003286175729786
45 -0.001110533921135
46 -0.054652199197958
47 -1.30852673589051
48 0.003756390904044
49 -0.005206316106089
50 -0.000000610901851
51 0.027336376942281
52 0.65480754473922
53 -0.001878617115723
54 -0.003286175730528
55 -0.001110533897199
56 0.027313864185430
57 0.65426833166439
58 -0.001877069689450
59 -0.003285639874331
60 0.001108384190933
 Sym=     13.1
 Ene=       0.3180
 Spin= Alpha
 Occup=    0.000000
1 -0.000000003508352
2 0.000000003831567
3 0.000000056669305
4 0.000000001703963
5 0.000056149697248
6 -0.23957828953074
7 0.000000005120700
8 0.000203171693470
9 -0.86693275806887
10 -0.000000000566425
11 -0.000000508930120
12 0.000000509496545
13 -0.000003727668814
14 0.015902181358633
15 -0.002398471269739
16 0.000000003578509
17 -0.000000004152843
18 -0.000000057522554
19 0.000000001840520
20 0.000056149112751
21 -0.23957828940387
22 0.000000005372993
23 0.000203166361736
24 -0.86693275708640
25 0.000000000550709
26 0.000000508939039
27 -0.000000509489748
28 0.000003727706501
29 -0.015902181369984
30 0.002398471262262
31 -0.000012999660341
32 -0.000311333541678
33 -0.000000893863477
34 0.000001228810810
35 -0.002644522489134
36 0.047326856766551
37 1.13356381393345
38 0.003253203940736
39 0.001110141797821
40 -0.004566898792579
41 -0.047313856102238
42 -1.13325255380157
43 -0.003252310606693
44 -0.001108610733559
45 -0.004566363518209
46 0.000012999431779
47 0.000311328950526
48 -0.000000893920867
49 0.000001228770313
50 -0.002644522485356
51 0.047313856140041
52 1.13325255606888
53 -0.003252310584497
54 -0.001108610739801
55 -0.004566363494263
56 -0.047326856772624
57 -1.13356380987064
58 0.003253203972736
59 0.001110141776565
60 -0.004566898791266
 Sym=     14.1
 Ene=       0.3383
 Spin= Alpha
 Occup=    0.000000
1 0.000001050309791
2 -0.000000456259030
3 -0.000024109939422
4 -0.000006759388975
5 -0.20719188839337
6 0.000051613977532
7 -0.000032298400682
8 -1.41319908171131
9 0.000352078349125
10 0.000000185342132
11 0.005517040152193
12 -0.005517225494325
13 -0.013225092247171
14 0.000003294527162
15 0.000001519498978
16 0.000001050797960
17 -0.000000456555069
18 -0.000024119702889
19 0.000006759887739
20 0.20719188758678
21 -0.000051614830615
22 0.000032297625577
23 1.41319907907161