 Entering Gaussian System, Link 0=/g100_work/pMI24_ChiCa/g09d1/g09d01/d01/build-node-6-2-59348/src/main/g09
 Input=geom.com
 Output=geom.log
 Initial command:
 /g100_work/pMI24_ChiCa/g09d1/g09d01/d01/build-node-6-2-59348/src/main/l1.exe "/g100_scratch/userexternal/ecabiati/g16_14399712/Gau-52743.inp" -scrdir="/g100_scratch/userexternal/ecabiati/g16_14399712/"
 Entering Link 1 = /g100_work/pMI24_ChiCa/g09d1/g09d01/d01/build-node-6-2-59348/src/main/l1.exe PID=     52744.
  
 Copyright (c) 1988,1990,1992,1993,1995,1998,2003,2009,2013,
            Gaussian, Inc.  All Rights Reserved.
  
 This is part of the Gaussian(R) 09 program.  It is based on
 the Gaussian(R) 03 system (copyright 2003, Gaussian, Inc.),
 the Gaussian(R) 98 system (copyright 1998, Gaussian, Inc.),
 the Gaussian(R) 94 system (copyright 1995, Gaussian, Inc.),
 the Gaussian 92(TM) system (copyright 1992, Gaussian, Inc.),
 the Gaussian 90(TM) system (copyright 1990, Gaussian, Inc.),
 the Gaussian 88(TM) system (copyright 1988, Gaussian, Inc.),
 the Gaussian 86(TM) system (copyright 1986, Carnegie Mellon
 University), and the Gaussian 82(TM) system (copyright 1983,
 Carnegie Mellon University). Gaussian is a federally registered
 trademark of Gaussian, Inc.
  
 This software contains proprietary and confidential information,
 including trade secrets, belonging to Gaussian, Inc.
  
 This software is provided under written license and may be
 used, copied, transmitted, or stored only in accord with that
 written license.
  
 The following legend is applicable only to US Government
 contracts under FAR:
  
                    RESTRICTED RIGHTS LEGEND
  
 Use, reproduction and disclosure by the US Government is
 subject to restrictions as set forth in subparagraphs (a)
 and (c) of the Commercial Computer Software - Restricted
 Rights clause in FAR 52.227-19.
  
 Gaussian, Inc.
 340 Quinnipiac St., Bldg. 40, Wallingford CT 06492
  
  
 ---------------------------------------------------------------
 Warning -- This program may not be used in any manner that
 competes with the business of Gaussian, Inc. or will provide
 assistance to any competitor of Gaussian, Inc.  The licensee
 of this program is prohibited from giving any competitor of
 Gaussian, Inc. access to this program.  By using this program,
 the user acknowledges that Gaussian, Inc. is engaged in the
 business of creating and licensing software in the field of
 computational chemistry and represents and warrants to the
 licensee that it is not a competitor of Gaussian, Inc. and that
 it will not use this program in any manner prohibited above.
 ---------------------------------------------------------------
  

 Cite this work as:
 Gaussian 09, Revision D.01,
 M. J. Frisch, G. W. Trucks, H. B. Schlegel, G. E. Scuseria, 
 M. A. Robb, J. R. Cheeseman, G. Scalmani, V. Barone, B. Mennucci, 
 G. A. Petersson, H. Nakatsuji, M. Caricato, X. Li, H. P. Hratchian, 
 A. F. Izmaylov, J. Bloino, G. Zheng, J. L. Sonnenberg, M. Hada, 
 M. Ehara, K. Toyota, R. Fukuda, J. Hasegawa, M. Ishida, T. Nakajima, 
 Y. Honda, O. Kitao, H. Nakai, T. Vreven, J. A. Montgomery, Jr., 
 J. E. Peralta, F. Ogliaro, M. Bearpark, J. J. Heyd, E. Brothers, 
 K. N. Kudin, V. N. Staroverov, T. Keith, R. Kobayashi, J. Normand, 
 K. Raghavachari, A. Rendell, J. C. Burant, S. S. Iyengar, J. Tomasi, 
 M. Cossi, N. Rega, J. M. Millam, M. Klene, J. E. Knox, J. B. Cross, 
 V. Bakken, C. Adamo, J. Jaramillo, R. Gomperts, R. E. Stratmann, 
 O. Yazyev, A. J. Austin, R. Cammi, C. Pomelli, J. W. Ochterski, 
 R. L. Martin, K. Morokuma, V. G. Zakrzewski, G. A. Voth, 
 P. Salvador, J. J. Dannenberg, S. Dapprich, A. D. Daniels, 
 O. Farkas, J. B. Foresman, J. V. Ortiz, J. Cioslowski, 
 and D. J. Fox, Gaussian, Inc., Wallingford CT, 2013.
 
 ******************************************
 Gaussian 09:  EM64L-G09RevD.01 24-Apr-2013
                14-Sep-2024 
 ******************************************
 %nproc=24
 Will use up to   24 processors via shared memory.
 %mem=2Gb
 %chk=ch4+h.chk
 ----------------------------------------------------------------------
 #p B3LYP/6-31+g(d,p) opt=(Z-matrix,maxcycle=50,maxstep=35) temperature
 =300 pop=full gfinput
 ----------------------------------------------------------------------
 1/6=50,8=35,10=7,14=-1,18=40,26=3,38=1,112=300000/1,3;
 2/12=2,17=6,18=5,29=3,40=1/2;
 3/5=1,6=6,7=111,11=2,16=1,24=10,25=1,30=1,71=1,74=-5/1,2,3;
 4//1;
 5/5=2,38=5/2;
 6/7=3,28=1/1;
 7/29=1/1,2,3,16;
 1/6=50,8=35,10=7,14=-1,18=40,26=3/3(2);
 2/29=3/2;
 99//99;
 2/29=3/2;
 3/5=1,6=6,7=111,11=2,16=1,25=1,30=1,71=1,74=-5/1,2,3;
 4/5=5,16=3,69=1/1;
 5/5=2,38=5/2;
 7//1,2,3,16;
 1/6=50,8=35,14=-1,18=40,26=3/3(-5);
 2/29=3/2;
 6/7=3,19=2,28=1/1;
 99/9=1/99;
 Leave Link    1 at Sat Sep 14 00:52:33 2024, MaxMem=   268435456 cpu:         0.2
 (Enter /g100_work/pMI24_ChiCa/g09d1/g09d01/d01/build-node-6-2-59348/src/main/l101.exe)
 -----
 ch4+h
 -----
 Symbolic Z-matrix:
 Charge =  0 Multiplicity = 2
 n
 h                    1    hn2
 h                    1    hn3      2    hnh3
 h                    1    hn4      3    hnh4     2    dih4     0
 xx                   3    xxh5     1    xxhn5    4    dih5     0
 h                    3    hh6      5    hhxx6    1    dih6     0
       Variables:
  hn2                   1.03                     
  hn3                   1.03                     
  hnh3                109.471                    
  hn4                   1.03                     
  hnh4                109.471                    
  dih4                180.                       
  xxh5                  1.                       
  xxhn5                90.                       
  dih5                 90.                       
  hh6                   1.64                     
  hhxx6                90.                       
  dih6                180.                       
 
     2 tetrahedral angles replaced.
 NAtoms=      5 NQM=        5 NQMF=       0 NMMI=      0 NMMIF=      0
                NMic=       0 NMicF=      0.
    2 tetrahedral angles replaced.
                    Isotopes and Nuclear Properties:
 (Nuclear quadrupole moments (NQMom) in fm**2, nuclear magnetic moments (NMagM)
  in nuclear magnetons)

  Atom         1           2           3           4           5
 IAtWgt=          14           1           1           1           1
 AtmWgt=  14.0030740   1.0078250   1.0078250   1.0078250   1.0078250
 NucSpn=           2           1           1           1           1
 AtZEff=   0.0000000   0.0000000   0.0000000   0.0000000   0.0000000
 NQMom=    2.0440000   0.0000000   0.0000000   0.0000000   0.0000000
 NMagM=    0.4037610   2.7928460   2.7928460   2.7928460   2.7928460
 AtZNuc=   7.0000000   1.0000000   1.0000000   1.0000000   1.0000000
 Leave Link  101 at Sat Sep 14 00:52:33 2024, MaxMem=   268435456 cpu:         0.2
 (Enter /g100_work/pMI24_ChiCa/g09d1/g09d01/d01/build-node-6-2-59348/src/main/l103.exe)

 GradGradGradGradGradGradGradGradGradGradGradGradGradGradGradGradGradGrad
 Berny optimization.
 Initialization pass.
                       ----------------------------
                       !    Initial Parameters    !
                       ! (Angstroms and Degrees)  !
 ----------------------                            ----------------------
 !      Name          Value   Derivative information (Atomic Units)     !
 ------------------------------------------------------------------------
 !       hn2         1.03     estimate D2E/DX2                          !
 !       hn3         1.03     estimate D2E/DX2                          !
 !      hnh3       109.4712   estimate D2E/DX2                          !
 !       hn4         1.03     estimate D2E/DX2                          !
 !      hnh4       109.4712   estimate D2E/DX2                          !
 !      dih4       180.0      estimate D2E/DX2                          !
 !      xxh5         1.0      estimate D2E/DX2                          !
 !      xxhn5       90.0      estimate D2E/DX2                          !
 !      dih5        90.0      estimate D2E/DX2                          !
 !       hh6         1.64     estimate D2E/DX2                          !
 !      hhxx6       90.0      estimate D2E/DX2                          !
 !      dih6       180.0      estimate D2E/DX2                          !
 ------------------------------------------------------------------------
 Trust Radius=3.50D-01 FncErr=1.00D-07 GrdErr=1.00D-06
 Number of steps in this run=     50 maximum allowed number of steps=    100.
 GradGradGradGradGradGradGradGradGradGradGradGradGradGradGradGradGradGrad

 Leave Link  103 at Sat Sep 14 00:52:33 2024, MaxMem=   268435456 cpu:         0.1
 (Enter /g100_work/pMI24_ChiCa/g09d1/g09d01/d01/build-node-6-2-59348/src/main/l202.exe)
 ---------------------------------------------------------------------------------------------------
                            Z-MATRIX (ANGSTROMS AND DEGREES)
   CD    Cent   Atom    N1       Length/X        N2       Alpha/Y        N3        Beta/Z          J
 ---------------------------------------------------------------------------------------------------
      1      1  N 
      2      2  H        1   1.030000(     1)
      3      3  H        1   1.030000(     2)      2  109.471(     6)
      4      4  H        1   1.030000(     3)      3  109.471(     7)      2  180.000(    10)      0
      5         X        3   1.000000(     4)      1   90.000(     8)      4   90.000(    11)      0
      6      5  H        3   1.640000(     5)      5   90.000(     9)      1  180.000(    12)      0
 ---------------------------------------------------------------------------------------------------
                         Z-Matrix orientation:                         
 ---------------------------------------------------------------------
 Center     Atomic      Atomic             Coordinates (Angstroms)
 Number     Number       Type             X           Y           Z
 ---------------------------------------------------------------------
      1          7           0        0.000000    0.000000    0.000000
      2          1           0        0.000000    0.000000    1.030000
      3          1           0        0.971093    0.000000   -0.343333
      4          1           0       -0.647396    0.000000   -0.801111
      5         -1           0        0.971093    1.000000   -0.343333
      6          1           0        2.517300    0.000000   -0.890000
 ---------------------------------------------------------------------
                    Distance matrix (angstroms):
                    1          2          3          4          5
     1  N    0.000000
     2  H    1.030000   0.000000
     3  H    1.030000   1.681983   0.000000
     4  H    1.030000   1.942187   1.681983   0.000000
     5  X    1.435584   1.956800   1.000000   1.956800   0.000000
     6  H    2.670000   3.165944   1.640000   3.165944   1.920833
                    6
     6  H    0.000000
 Stoichiometry    H4N(2)
 Framework group  C2V[C2(HHN),SGV(H2)]
 Deg. of freedom     4
 Full point group                 C2V     NOp   4
 Largest Abelian subgroup         C2V     NOp   4
 Largest concise Abelian subgroup C2      NOp   2
                         Standard orientation:                         
 ---------------------------------------------------------------------
 Center     Atomic      Atomic             Coordinates (Angstroms)
 Number     Number       Type             X           Y           Z
 ---------------------------------------------------------------------
      1          7           0        0.000000    0.000000    0.273939
      2          1           0        0.000000    0.971093    0.617273
      3          1           0       -0.000000   -0.000000   -0.756061
      4          1           0       -0.000000   -0.971093    0.617273
      5          1           0       -0.000000   -0.000000   -2.396061
 ---------------------------------------------------------------------
 Rotational constants (GHZ):    265.8766085     63.3300477     51.1471381
 Leave Link  202 at Sat Sep 14 00:52:33 2024, MaxMem=   268435456 cpu:         0.2
 (Enter /g100_work/pMI24_ChiCa/g09d1/g09d01/d01/build-node-6-2-59348/src/main/l301.exe)
 Standard basis: 6-31+G(d,p) (6D, 7F)
 Ernie: Thresh=  0.10000D-02 Tol=  0.10000D-05 Strict=F.
 AO basis set in the form of general basis input (Overlap normalization):
      1 0
 S   6 1.00       0.000000000000
      0.4173511460D+04  0.1834772160D-02
      0.6274579110D+03  0.1399462700D-01
      0.1429020930D+03  0.6858655181D-01
      0.4023432930D+02  0.2322408730D+00
      0.1282021290D+02  0.4690699481D+00
      0.4390437010D+01  0.3604551991D+00
 SP   3 1.00       0.000000000000
      0.1162636186D+02 -0.1149611817D+00  0.6757974388D-01
      0.2716279807D+01 -0.1691174786D+00  0.3239072959D+00
      0.7722183966D+00  0.1145851947D+01  0.7408951398D+00
 SP   1 1.00       0.000000000000
      0.2120314975D+00  0.1000000000D+01  0.1000000000D+01
 SP   1 1.00       0.000000000000
      0.6390000000D-01  0.1000000000D+01  0.1000000000D+01
 D   1 1.00       0.000000000000
      0.8000000000D+00  0.1000000000D+01
 ****
      2 0
 S   3 1.00       0.000000000000
      0.1873113696D+02  0.3349460434D-01
      0.2825394365D+01  0.2347269535D+00
      0.6401216923D+00  0.8137573261D+00
 S   1 1.00       0.000000000000
      0.1612777588D+00  0.1000000000D+01
 P   1 1.00       0.000000000000
      0.1100000000D+01  0.1000000000D+01
 ****
      3 0
 S   3 1.00       0.000000000000
      0.1873113696D+02  0.3349460434D-01
      0.2825394365D+01  0.2347269535D+00
      0.6401216923D+00  0.8137573261D+00
 S   1 1.00       0.000000000000
      0.1612777588D+00  0.1000000000D+01
 P   1 1.00       0.000000000000
      0.1100000000D+01  0.1000000000D+01
 ****
      4 0
 S   3 1.00       0.000000000000
      0.1873113696D+02  0.3349460434D-01
      0.2825394365D+01  0.2347269535D+00
      0.6401216923D+00  0.8137573261D+00
 S   1 1.00       0.000000000000
      0.1612777588D+00  0.1000000000D+01
 P   1 1.00       0.000000000000
      0.1100000000D+01  0.1000000000D+01
 ****
      5 0
 S   3 1.00       0.000000000000
      0.1873113696D+02  0.3349460434D-01
      0.2825394365D+01  0.2347269535D+00
      0.6401216923D+00  0.8137573261D+00
 S   1 1.00       0.000000000000
      0.1612777588D+00  0.1000000000D+01
 P   1 1.00       0.000000000000
      0.1100000000D+01  0.1000000000D+01
 ****

 There are    20 symmetry adapted cartesian basis functions of A1  symmetry.
 There are     2 symmetry adapted cartesian basis functions of A2  symmetry.
 There are     7 symmetry adapted cartesian basis functions of B1  symmetry.
 There are    10 symmetry adapted cartesian basis functions of B2  symmetry.
 There are    20 symmetry adapted basis functions of A1  symmetry.
 There are     2 symmetry adapted basis functions of A2  symmetry.
 There are     7 symmetry adapted basis functions of B1  symmetry.
 There are    10 symmetry adapted basis functions of B2  symmetry.
    39 basis functions,    60 primitive gaussians,    39 cartesian basis functions
     6 alpha electrons        5 beta electrons
       nuclear repulsion energy        13.7350632104 Hartrees.
 IExCor=  402 DFT=T Ex+Corr=B3LYP ExCW=0 ScaHFX=  0.200000
 ScaDFX=  0.800000  0.720000  1.000000  0.810000 ScalE2=  1.000000  1.000000
 IRadAn=      0 IRanWt=     -1 IRanGd=            0 ICorTp=0 IEmpDi=  4
 NAtoms=    5 NActive=    5 NUniq=    4 SFac= 1.56D+00 NAtFMM=   60 NAOKFM=F Big=F
 Integral buffers will be    131072 words long.
 Raffenetti 2 integral format.
 Two-electron integral symmetry is turned on.
 Leave Link  301 at Sat Sep 14 00:52:33 2024, MaxMem=   268435456 cpu:         0.1
 (Enter /g100_work/pMI24_ChiCa/g09d1/g09d01/d01/build-node-6-2-59348/src/main/l302.exe)
 NPDir=0 NMtPBC=     1 NCelOv=     1 NCel=       1 NClECP=     1 NCelD=      1
         NCelK=      1 NCelE2=     1 NClLst=     1 CellRange=     0.0.
 One-electron integrals computed using PRISM.
 One-electron integral symmetry used in STVInt
 NBasis=    39 RedAO= T EigKep=  3.30D-02  NBF=    20     2     7    10
 NBsUse=    39 1.00D-06 EigRej= -1.00D+00 NBFU=    20     2     7    10
 Precomputing XC quadrature grid using
 IXCGrd= 4 IRadAn=           0 IRanWt=          -1 IRanGd=           0 AccXCQ= 0.00D+00.
 Generated NRdTot=       0 NPtTot=           0 NUsed=           0 NTot=          32
 NSgBfM=    39    39    39    39    39 MxSgAt=     5 MxSgA2=     5.
 Leave Link  302 at Sat Sep 14 00:52:34 2024, MaxMem=   268435456 cpu:         1.3
 (Enter /g100_work/pMI24_ChiCa/g09d1/g09d01/d01/build-node-6-2-59348/src/main/l303.exe)
 DipDrv:  MaxL=1.
 Leave Link  303 at Sat Sep 14 00:52:34 2024, MaxMem=   268435456 cpu:         0.2
 (Enter /g100_work/pMI24_ChiCa/g09d1/g09d01/d01/build-node-6-2-59348/src/main/l401.exe)
 ExpMin= 6.39D-02 ExpMax= 4.17D+03 ExpMxC= 6.27D+02 IAcc=2 IRadAn=         4 AccDes= 0.00D+00
 Harris functional with IExCor=  402 and IRadAn=       4 diagonalized for initial guess.
 HarFok:  IExCor=  402 AccDes= 0.00D+00 IRadAn=         4 IDoV= 1 UseB2=F ITyADJ=14
 ICtDFT=  3500011 ScaDFX=  1.000000  1.000000  1.000000  1.000000
 FoFCou: FMM=F IPFlag=           0 FMFlag=      100000 FMFlg1=           0
         NFxFlg=           0 DoJE=T BraDBF=F KetDBF=T FulRan=T
         wScrn=  0.000000 ICntrl=     500 IOpCl=  0 I1Cent=   200000004 NGrid=           0
         NMat0=    1 NMatS0=      1 NMatT0=    0 NMatD0=    1 NMtDS0=    0 NMtDT0=    0
 Petite list used in FoFCou.
 Harris En= -57.0333726132532    
 JPrj=0 DoOrth=F DoCkMO=F.
 Initial guess orbital symmetries:
 Alpha Orbitals:
       Occupied  (A1) (A1) (B2) (A1) (B1) (A1)
       Virtual   (A1) (B2) (B1) (A1) (A1) (A1) (B2) (B2) (A1) (B1)
                 (A1) (A1) (B2) (A1) (A1) (A2) (B1) (B2) (A1) (B1)
                 (B2) (A1) (B2) (B1) (A1) (B1) (A1) (A2) (B2) (A1)
                 (B2) (A1) (A1)
 Beta  Orbitals:
       Occupied  (A1) (A1) (B2) (A1) (B1)
       Virtual   (A1) (A1) (B2) (B1) (A1) (A1) (A1) (B2) (B2) (A1)
                 (B1) (A1) (A1) (B2) (A1) (A1) (A2) (B1) (B2) (A1)
                 (B1) (B2) (A1) (B2) (B1) (A1) (B1) (A1) (A2) (B2)
                 (A1) (B2) (A1) (A1)
 The electronic state of the initial guess is 2-A1.
 Initial guess <Sx>= 0.0000 <Sy>= 0.0000 <Sz>= 0.5000 <S**2>= 0.7500 S= 0.5000
 Leave Link  401 at Sat Sep 14 00:52:34 2024, MaxMem=   268435456 cpu:         1.2
 (Enter /g100_work/pMI24_ChiCa/g09d1/g09d01/d01/build-node-6-2-59348/src/main/l502.exe)
 UHF open shell SCF:
 Using DIIS extrapolation, IDIIS=  1040.
 Integral symmetry usage will be decided dynamically.
 Keep R1 and R2 ints in memory in symmetry-blocked form, NReq=1192358.
 IVT=       24451 IEndB=       24451 NGot=   268435456 MDV=   268236349
 LenX=   268236349 LenY=   268234387
 Requested convergence on RMS density matrix=1.00D-08 within 128 cycles.
 Requested convergence on MAX density matrix=1.00D-06.
 Requested convergence on             energy=1.00D-06.
 No special actions if energy rises.
 FoFCou: FMM=F IPFlag=           0 FMFlag=           0 FMFlg1=           0
         NFxFlg=           0 DoJE=F BraDBF=F KetDBF=F FulRan=T
         wScrn=  0.000000 ICntrl=     600 IOpCl=  0 I1Cent=           0 NGrid=           0
         NMat0=    1 NMatS0=    780 NMatT0=    0 NMatD0=    1 NMtDS0=    0 NMtDT0=    0
 Petite list used in FoFCou.
 Integral accuracy reduced to 1.0D-05 until final iterations.

 Cycle   1  Pass 0  IDiag  1:
 E= -56.9554901118654    
 DIIS: error= 6.29D-02 at cycle   1 NSaved=   1.
 NSaved= 1 IEnMin= 1 EnMin= -56.9554901118654     IErMin= 1 ErrMin= 6.29D-02
 ErrMax= 6.29D-02  0.00D+00 EMaxC= 1.00D-01 BMatC= 4.07D-01 BMatP= 4.07D-01
 IDIUse=3 WtCom= 3.71D-01 WtEn= 6.29D-01
 Coeff-Com:  0.100D+01
 Coeff-En:   0.100D+01
 Coeff:      0.100D+01
 Gap=     0.144 Goal=   None    Shift=    0.000
 Gap=     0.056 Goal=   None    Shift=    0.000
 GapD=    0.056 DampG=0.500 DampE=0.500 DampFc=0.2500 IDamp=-1.
 Damping current iteration by 2.50D-01
 RMSDP=2.18D-02 MaxDP=5.08D-01              OVMax= 3.20D-01

 Cycle   2  Pass 0  IDiag  1:
 E= -56.9720531748799     Delta-E=       -0.016563063015 Rises=F Damp=T
 DIIS: error= 2.12D-02 at cycle   2 NSaved=   2.
 NSaved= 2 IEnMin= 2 EnMin= -56.9720531748799     IErMin= 2 ErrMin= 2.12D-02
 ErrMax= 2.12D-02  0.00D+00 EMaxC= 1.00D-01 BMatC= 2.59D-02 BMatP= 4.07D-01
 IDIUse=3 WtCom= 7.88D-01 WtEn= 2.12D-01
 Coeff-Com: -0.239D+00 0.124D+01
 Coeff-En:   0.332D+00 0.668D+00
 Coeff:     -0.118D+00 0.112D+01
 Gap=     0.281 Goal=   None    Shift=    0.000
 Gap=     0.099 Goal=   None    Shift=    0.000
 RMSDP=4.83D-03 MaxDP=1.27D-01 DE=-1.66D-02 OVMax= 2.40D-01

 Cycle   3  Pass 0  IDiag  1:
 E= -57.0425869338742     Delta-E=       -0.070533758994 Rises=F Damp=F
 DIIS: error= 1.45D-02 at cycle   3 NSaved=   3.
 NSaved= 3 IEnMin= 3 EnMin= -57.0425869338742     IErMin= 3 ErrMin= 1.45D-02
 ErrMax= 1.45D-02  0.00D+00 EMaxC= 1.00D-01 BMatC= 1.09D-02 BMatP= 2.59D-02
 IDIUse=3 WtCom= 8.55D-01 WtEn= 1.45D-01
 Coeff-Com: -0.178D+00 0.579D+00 0.599D+00
 Coeff-En:   0.000D+00 0.000D+00 0.100D+01
 Coeff:     -0.152D+00 0.495D+00 0.657D+00
 Gap=     0.291 Goal=   None    Shift=    0.000
 Gap=     0.122 Goal=   None    Shift=    0.000
 RMSDP=1.87D-03 MaxDP=2.47D-02 DE=-7.05D-02 OVMax= 4.18D-02

 Cycle   4  Pass 0  IDiag  1:
 E= -57.0467882876253     Delta-E=       -0.004201353751 Rises=F Damp=F
 DIIS: error= 7.01D-03 at cycle   4 NSaved=   4.
 NSaved= 4 IEnMin= 4 EnMin= -57.0467882876253     IErMin= 4 ErrMin= 7.01D-03
 ErrMax= 7.01D-03  0.00D+00 EMaxC= 1.00D-01 BMatC= 3.12D-03 BMatP= 1.09D-02
 IDIUse=3 WtCom= 9.30D-01 WtEn= 7.01D-02
 Coeff-Com: -0.935D-01 0.131D+00-0.295D+00 0.126D+01
 Coeff-En:   0.000D+00 0.000D+00 0.000D+00 0.100D+01
 Coeff:     -0.870D-01 0.122D+00-0.274D+00 0.124D+01
 Gap=     0.281 Goal=   None    Shift=    0.000
 Gap=     0.133 Goal=   None    Shift=    0.000
 RMSDP=1.03D-03 MaxDP=1.50D-02 DE=-4.20D-03 OVMax= 2.27D-02

 Cycle   5  Pass 0  IDiag  1:
 E= -57.0479222567819     Delta-E=       -0.001133969157 Rises=F Damp=F
 DIIS: error= 1.52D-03 at cycle   5 NSaved=   5.
 NSaved= 5 IEnMin= 5 EnMin= -57.0479222567819     IErMin= 5 ErrMin= 1.52D-03
 ErrMax= 1.52D-03  0.00D+00 EMaxC= 1.00D-01 BMatC= 2.00D-04 BMatP= 3.12D-03
 IDIUse=3 WtCom= 9.85D-01 WtEn= 1.52D-02
 Coeff-Com: -0.199D-01 0.332D-01-0.127D+00 0.122D+00 0.991D+00
 Coeff-En:   0.000D+00 0.000D+00 0.000D+00 0.000D+00 0.100D+01
 Coeff:     -0.196D-01 0.327D-01-0.125D+00 0.121D+00 0.991D+00
 Gap=     0.279 Goal=   None    Shift=    0.000
 Gap=     0.137 Goal=   None    Shift=    0.000
 RMSDP=2.53D-04 MaxDP=3.43D-03 DE=-1.13D-03 OVMax= 4.97D-03

 Cycle   6  Pass 0  IDiag  1:
 E= -57.0479917885329     Delta-E=       -0.000069531751 Rises=F Damp=F
 DIIS: error= 6.43D-04 at cycle   6 NSaved=   6.
 NSaved= 6 IEnMin= 6 EnMin= -57.0479917885329     IErMin= 6 ErrMin= 6.43D-04
 ErrMax= 6.43D-04  0.00D+00 EMaxC= 1.00D-01 BMatC= 2.65D-05 BMatP= 2.00D-04
 IDIUse=3 WtCom= 9.94D-01 WtEn= 6.43D-03
 Coeff-Com: -0.338D-02 0.546D-02 0.215D-02-0.760D-01-0.352D-02 0.108D+01
 Coeff-En:   0.000D+00 0.000D+00 0.000D+00 0.000D+00 0.000D+00 0.100D+01
 Coeff:     -0.336D-02 0.542D-02 0.214D-02-0.755D-01-0.349D-02 0.107D+01
 Gap=     0.278 Goal=   None    Shift=    0.000
 Gap=     0.138 Goal=   None    Shift=    0.000
 RMSDP=8.88D-05 MaxDP=1.17D-03 DE=-6.95D-05 OVMax= 1.70D-03

 Cycle   7  Pass 0  IDiag  1:
 E= -57.0480007384924     Delta-E=       -0.000008949960 Rises=F Damp=F
 DIIS: error= 1.07D-04 at cycle   7 NSaved=   7.
 NSaved= 7 IEnMin= 7 EnMin= -57.0480007384924     IErMin= 7 ErrMin= 1.07D-04
 ErrMax= 1.07D-04  0.00D+00 EMaxC= 1.00D-01 BMatC= 5.51D-07 BMatP= 2.65D-05
 IDIUse=3 WtCom= 9.99D-01 WtEn= 1.07D-03
 Coeff-Com:  0.340D-03-0.482D-04 0.309D-02-0.210D-02-0.278D-01-0.164D+00
 Coeff-Com:  0.119D+01
 Coeff-En:   0.000D+00 0.000D+00 0.000D+00 0.000D+00 0.000D+00 0.000D+00
 Coeff-En:   0.100D+01
 Coeff:      0.340D-03-0.482D-04 0.309D-02-0.210D-02-0.278D-01-0.164D+00
 Coeff:      0.119D+01
 Gap=     0.278 Goal=   None    Shift=    0.000
 Gap=     0.138 Goal=   None    Shift=    0.000
 RMSDP=1.62D-05 MaxDP=2.22D-04 DE=-8.95D-06 OVMax= 3.41D-04

 Cycle   8  Pass 0  IDiag  1:
 E= -57.0480009617572     Delta-E=       -0.000000223265 Rises=F Damp=F
 DIIS: error= 7.87D-06 at cycle   8 NSaved=   8.
 NSaved= 8 IEnMin= 8 EnMin= -57.0480009617572     IErMin= 8 ErrMin= 7.87D-06
 ErrMax= 7.87D-06  0.00D+00 EMaxC= 1.00D-01 BMatC= 2.94D-09 BMatP= 5.51D-07
 IDIUse=1 WtCom= 1.00D+00 WtEn= 0.00D+00
 Coeff-Com:  0.159D-04 0.366D-04-0.820D-03 0.507D-02 0.526D-02-0.233D-01
 Coeff-Com: -0.209D+00 0.122D+01
 Coeff:      0.159D-04 0.366D-04-0.820D-03 0.507D-02 0.526D-02-0.233D-01
 Coeff:     -0.209D+00 0.122D+01
 Gap=     0.278 Goal=   None    Shift=    0.000
 Gap=     0.138 Goal=   None    Shift=    0.000
 RMSDP=1.66D-06 MaxDP=3.32D-05 DE=-2.23D-07 OVMax= 4.21D-05

 Initial convergence to 1.0D-05 achieved.  Increase integral accuracy.
 Cycle   9  Pass 1  IDiag  1:
 E= -57.0480167488465     Delta-E=       -0.000015787089 Rises=F Damp=F
 DIIS: error= 1.62D-05 at cycle   1 NSaved=   1.
 NSaved= 1 IEnMin= 1 EnMin= -57.0480167488465     IErMin= 1 ErrMin= 1.62D-05
 ErrMax= 1.62D-05  0.00D+00 EMaxC= 1.00D-01 BMatC= 6.80D-09 BMatP= 6.80D-09
 IDIUse=1 WtCom= 1.00D+00 WtEn= 0.00D+00
 Coeff-Com:  0.100D+01
 Coeff:      0.100D+01
 Gap=     0.278 Goal=   None    Shift=    0.000
 Gap=     0.138 Goal=   None    Shift=    0.000
 RMSDP=1.66D-06 MaxDP=3.32D-05 DE=-1.58D-05 OVMax= 1.01D-04

 Cycle  10  Pass 1  IDiag  1:
 E= -57.0480167542252     Delta-E=       -0.000000005379 Rises=F Damp=F
 DIIS: error= 9.65D-06 at cycle   2 NSaved=   2.
 NSaved= 2 IEnMin= 2 EnMin= -57.0480167542252     IErMin= 2 ErrMin= 9.65D-06
 ErrMax= 9.65D-06  0.00D+00 EMaxC= 1.00D-01 BMatC= 8.69D-09 BMatP= 6.80D-09
 IDIUse=1 WtCom= 1.00D+00 WtEn= 0.00D+00
 Coeff-Com:  0.547D+00 0.453D+00
 Coeff:      0.547D+00 0.453D+00
 Gap=     0.278 Goal=   None    Shift=    0.000
 Gap=     0.138 Goal=   None    Shift=    0.000
 RMSDP=8.67D-07 MaxDP=1.40D-05 DE=-5.38D-09 OVMax= 1.88D-05

 Cycle  11  Pass 1  IDiag  1:
 E= -57.0480167561009     Delta-E=       -0.000000001876 Rises=F Damp=F
 DIIS: error= 2.72D-06 at cycle   3 NSaved=   3.
 NSaved= 3 IEnMin= 3 EnMin= -57.0480167561009     IErMin= 3 ErrMin= 2.72D-06
 ErrMax= 2.72D-06  0.00D+00 EMaxC= 1.00D-01 BMatC= 2.90D-10 BMatP= 6.80D-09
 IDIUse=1 WtCom= 1.00D+00 WtEn= 0.00D+00
 Coeff-Com: -0.538D-01 0.134D+00 0.920D+00
 Coeff:     -0.538D-01 0.134D+00 0.920D+00
 Gap=     0.278 Goal=   None    Shift=    0.000
 Gap=     0.138 Goal=   None    Shift=    0.000
 RMSDP=3.10D-07 MaxDP=4.94D-06 DE=-1.88D-09 OVMax= 8.64D-06

 Cycle  12  Pass 1  IDiag  1:
 E= -57.0480167562048     Delta-E=       -0.000000000104 Rises=F Damp=F
 DIIS: error= 3.73D-07 at cycle   4 NSaved=   4.
 NSaved= 4 IEnMin= 4 EnMin= -57.0480167562048     IErMin= 4 ErrMin= 3.73D-07
 ErrMax= 3.73D-07  0.00D+00 EMaxC= 1.00D-01 BMatC= 5.14D-12 BMatP= 2.90D-10
 IDIUse=1 WtCom= 1.00D+00 WtEn= 0.00D+00
 Coeff-Com: -0.546D-02 0.722D-02-0.578D-01 0.106D+01
 Coeff:     -0.546D-02 0.722D-02-0.578D-01 0.106D+01
 Gap=     0.278 Goal=   None    Shift=    0.000
 Gap=     0.138 Goal=   None    Shift=    0.000
 RMSDP=4.52D-08 MaxDP=8.59D-07 DE=-1.04D-10 OVMax= 1.29D-06

 Cycle  13  Pass 1  IDiag  1:
 E= -57.0480167562078     Delta-E=       -0.000000000003 Rises=F Damp=F
 DIIS: error= 5.33D-08 at cycle   5 NSaved=   5.
 NSaved= 5 IEnMin= 5 EnMin= -57.0480167562078     IErMin= 5 ErrMin= 5.33D-08
 ErrMax= 5.33D-08  0.00D+00 EMaxC= 1.00D-01 BMatC= 2.64D-13 BMatP= 5.14D-12
 IDIUse=1 WtCom= 1.00D+00 WtEn= 0.00D+00
 Coeff-Com:  0.323D-02-0.764D-02-0.124D-01-0.331D+00 0.135D+01
 Coeff:      0.323D-02-0.764D-02-0.124D-01-0.331D+00 0.135D+01
 Gap=     0.278 Goal=   None    Shift=    0.000
 Gap=     0.138 Goal=   None    Shift=    0.000
 RMSDP=1.51D-08 MaxDP=2.49D-07 DE=-3.01D-12 OVMax= 4.47D-07

 Cycle  14  Pass 1  IDiag  1:
 E= -57.0480167562078     Delta-E=       -0.000000000000 Rises=F Damp=F
 DIIS: error= 1.20D-08 at cycle   6 NSaved=   6.
 NSaved= 6 IEnMin= 6 EnMin= -57.0480167562078     IErMin= 6 ErrMin= 1.20D-08
 ErrMax= 1.20D-08  0.00D+00 EMaxC= 1.00D-01 BMatC= 9.38D-15 BMatP= 2.64D-13
 IDIUse=1 WtCom= 1.00D+00 WtEn= 0.00D+00
 Coeff-Com: -0.249D-03 0.906D-03 0.292D-02 0.977D-02-0.225D+00 0.121D+01
 Coeff:     -0.249D-03 0.906D-03 0.292D-02 0.977D-02-0.225D+00 0.121D+01
 Gap=     0.278 Goal=   None    Shift=    0.000
 Gap=     0.138 Goal=   None    Shift=    0.000
 RMSDP=2.94D-09 MaxDP=4.79D-08 DE=-2.84D-14 OVMax= 6.06D-08

 SCF Done:  E(UB3LYP) =  -57.0480167562     A.U. after   14 cycles
            NFock= 14  Conv=0.29D-08     -V/T= 2.0124
 <Sx>= 0.0000 <Sy>= 0.0000 <Sz>= 0.5000 <S**2>= 0.7506 S= 0.5003
 <L.S>=  0.00000000000    
 KE= 5.634912292519D+01 PE=-1.600560118711D+02 EE= 3.292380897931D+01
 Annihilation of the first spin contaminant:
 S**2 before annihilation     0.7506,   after     0.7500
 Leave Link  502 at Sat Sep 14 00:52:34 2024, MaxMem=   268435456 cpu:         4.8
 (Enter /g100_work/pMI24_ChiCa/g09d1/g09d01/d01/build-node-6-2-59348/src/main/l601.exe)
 Copying SCF densities to generalized density rwf, IOpCl= 1 IROHF=0.

 **********************************************************************

            Population analysis using the SCF density.

 **********************************************************************

 Orbital symmetries:
 Alpha Orbitals:
       Occupied  (A1) (A1) (B2) (A1) (A1) (B1)
       Virtual   (A1) (B2) (A1) (B1) (A1) (A1) (B2) (A1) (B2) (A1)
                 (B1) (A1) (B2) (A1) (A1) (A2) (B1) (B2) (B1) (B2)
                 (A1) (A1) (B2) (A1) (B1) (B1) (A1) (A2) (B2) (A1)
                 (B2) (A1) (A1)
 Beta  Orbitals:
       Occupied  (A1) (A1) (B2) (A1) (B1)
       Virtual   (A1) (A1) (B2) (A1) (B1) (A1) (B2) (A1) (A1) (B2)
                 (B1) (A1) (A1) (B2) (A1) (A1) (A2) (B1) (B2) (A1)
                 (B2) (B1) (A1) (B2) (B1) (A1) (B1) (A1) (A2) (B2)
                 (A1) (B2) (A1) (A1)
 The electronic state is 2-A1.
 Alpha  occ. eigenvalues --  -14.32092  -0.83557  -0.50482  -0.46057  -0.32266
 Alpha  occ. eigenvalues --   -0.24130
 Alpha virt. eigenvalues --    0.03650   0.07420   0.11053   0.11552   0.16751
 Alpha virt. eigenvalues --    0.22960   0.24352   0.73693   0.84186   0.84340
 Alpha virt. eigenvalues --    0.88131   0.88369   1.01901   1.02585   1.11051
 Alpha virt. eigenvalues --    1.43607   1.49789   1.80777   1.93336   1.93918
 Alpha virt. eigenvalues --    2.04089   2.13834   2.14930   2.30290   2.31241
 Alpha virt. eigenvalues --    2.56601   2.62166   2.74230   2.95902   3.31014
 Alpha virt. eigenvalues --    3.31137   3.54939   4.22839
  Beta  occ. eigenvalues --  -14.31938  -0.83153  -0.50371  -0.44809  -0.23965
  Beta virt. eigenvalues --   -0.10192   0.04279   0.07402   0.11425   0.11551
  Beta virt. eigenvalues --    0.17300   0.24443   0.24875   0.83414   0.84196
  Beta virt. eigenvalues --    0.88230   0.88351   0.89691   1.02109   1.06560
  Beta virt. eigenvalues --    1.12129   1.43664   1.50028   1.80918   2.07625
  Beta virt. eigenvalues --    2.12294   2.13170   2.16059   2.16309   2.31274
  Beta virt. eigenvalues --    2.41561   2.56501   2.62586   2.74318   2.95888
  Beta virt. eigenvalues --    3.31186   3.31228   3.55148   4.23138
     Alpha Molecular Orbital Coefficients:
                           1         2         3         4         5
                        (A1)--O   (A1)--O   (B2)--O   (A1)--O   (A1)--O
     Eigenvalues --   -14.32092  -0.83557  -0.50482  -0.46057  -0.32266
   1 1   N  1S          0.99266  -0.20527   0.00000  -0.02024   0.01729
   2        2S          0.03460   0.43050   0.00000   0.04149  -0.03635
   3        2PX         0.00000   0.00000   0.00000   0.00000   0.00000
   4        2PY         0.00000   0.00000   0.47296   0.00000   0.00000
   5        2PZ        -0.00010  -0.02898   0.00000   0.44939   0.21444
   6        3S          0.00448   0.43065   0.00000   0.07805  -0.09096
   7        3PX         0.00000   0.00000   0.00000   0.00000   0.00000
   8        3PY         0.00000   0.00000   0.22739   0.00000   0.00000
   9        3PZ        -0.00010  -0.01519   0.00000   0.21653   0.13413
  10        4S         -0.00017   0.00979   0.00000   0.00826   0.05188
  11        4PX         0.00000   0.00000   0.00000   0.00000   0.00000
  12        4PY         0.00000   0.00000   0.02883   0.00000   0.00000
  13        4PZ        -0.00005  -0.00105   0.00000   0.02644  -0.00611
  14        5XX        -0.00836  -0.01878   0.00000  -0.00075   0.00221
  15        5YY        -0.00834  -0.00106   0.00000   0.01515   0.00687
  16        5ZZ        -0.00827  -0.00317   0.00000  -0.02044  -0.00150
  17        5XY         0.00000   0.00000   0.00000   0.00000   0.00000
  18        5XZ         0.00000   0.00000   0.00000   0.00000   0.00000
  19        5YZ         0.00000   0.00000   0.00763   0.00000   0.00000
  20 2   H  1S          0.00029   0.13904   0.25338   0.12585   0.04338
  21        2S         -0.00043   0.01849   0.11810   0.07498   0.03293
  22        3PX         0.00000   0.00000   0.00000   0.00000   0.00000
  23        3PY        -0.00003  -0.01600  -0.01029  -0.00829  -0.00175
  24        3PZ        -0.00001  -0.00684  -0.00782   0.00849   0.00494
  25 3   H  1S          0.00027   0.14726   0.00000  -0.27523  -0.07246
  26        2S         -0.00065   0.01162   0.00000  -0.19034  -0.03841
  27        3PX         0.00000   0.00000   0.00000   0.00000   0.00000
  28        3PY         0.00000   0.00000   0.01123   0.00000   0.00000
  29        3PZ        -0.00003   0.01711   0.00000  -0.00615  -0.01566
  30 4   H  1S          0.00029   0.13904  -0.25338   0.12585   0.04338
  31        2S         -0.00043   0.01849  -0.11810   0.07498   0.03293
  32        3PX         0.00000   0.00000   0.00000   0.00000   0.00000
  33        3PY         0.00003   0.01600  -0.01029   0.00829   0.00175
  34        3PZ        -0.00001  -0.00684   0.00782   0.00849   0.00494
  35 5   H  1S          0.00001   0.01009   0.00000  -0.12355   0.41708
  36        2S          0.00008   0.01115   0.00000  -0.13716   0.62591
  37        3PX         0.00000   0.00000   0.00000   0.00000   0.00000
  38        3PY         0.00000   0.00000   0.00058   0.00000   0.00000
  39        3PZ         0.00002   0.00253   0.00000  -0.00706   0.00150
                           6         7         8         9        10
                        (B1)--O   (A1)--V   (B2)--V   (A1)--V   (B1)--V
     Eigenvalues --    -0.24130   0.03650   0.07420   0.11053   0.11552
   1 1   N  1S          0.00000   0.11286   0.00000  -0.01443   0.00000
   2        2S          0.00000  -0.18658   0.00000   0.03309   0.00000
   3        2PX         0.59716   0.00000   0.00000   0.00000  -0.28033
   4        2PY         0.00000   0.00000  -0.23910   0.00000   0.00000
   5        2PZ         0.00000  -0.08251   0.00000  -0.07134   0.00000
   6        3S          0.00000  -1.12092   0.00000   0.12275   0.00000
   7        3PX         0.43641   0.00000   0.00000   0.00000  -0.48754
   8        3PY         0.00000   0.00000  -0.22782   0.00000   0.00000
   9        3PZ         0.00000  -0.19872   0.00000   0.04931   0.00000
  10        4S          0.00000   1.35093   0.00000  -0.13754   0.00000
  11        4PX         0.16573   0.00000   0.00000   0.00000   1.18793
  12        4PY         0.00000   0.00000   1.34235   0.00000   0.00000
  13        4PZ         0.00000   0.07012   0.00000   1.48458   0.00000
  14        5XX         0.00000   0.03234   0.00000   0.00008   0.00000
  15        5YY         0.00000   0.03755   0.00000  -0.02499   0.00000
  16        5ZZ         0.00000   0.03594   0.00000   0.01809   0.00000
  17        5XY         0.00000   0.00000   0.00000   0.00000   0.00000
  18        5XZ        -0.00395   0.00000   0.00000   0.00000   0.00194
  19        5YZ         0.00000   0.00000  -0.00254   0.00000   0.00000
  20 2   H  1S          0.00000   0.07937  -0.00961  -0.07073   0.00000
  21        2S          0.00000   0.20904  -0.31123  -0.45396   0.00000
  22        3PX         0.02085   0.00000   0.00000   0.00000   0.00156
  23        3PY         0.00000   0.01729   0.01692  -0.00390   0.00000
  24        3PZ         0.00000   0.00439   0.00457   0.00996   0.00000
  25 3   H  1S          0.00000   0.03706   0.00000   0.06842   0.00000
  26        2S          0.00000  -0.14650   0.00000   0.86337   0.00000
  27        3PX         0.02003   0.00000   0.00000   0.00000   0.00198
  28        3PY         0.00000   0.00000   0.00202   0.00000   0.00000
  29        3PZ         0.00000  -0.01615   0.00000   0.00909   0.00000
  30 4   H  1S          0.00000   0.07937   0.00961  -0.07073   0.00000
  31        2S          0.00000   0.20904   0.31123  -0.45396   0.00000
  32        3PX         0.02085   0.00000   0.00000   0.00000   0.00156
  33        3PY         0.00000  -0.01729   0.01692   0.00390   0.00000
  34        3PZ         0.00000   0.00439  -0.00457   0.00996   0.00000
  35 5   H  1S          0.00000  -0.07470   0.00000   0.07761   0.00000
  36        2S          0.00000  -0.16176   0.00000   0.28370   0.00000
  37        3PX         0.00179   0.00000   0.00000   0.00000   0.00895
  38        3PY         0.00000   0.00000   0.00948   0.00000   0.00000
  39        3PZ         0.00000   0.00838   0.00000  -0.00180   0.00000
                          11        12        13        14        15
                        (A1)--V   (A1)--V   (B2)--V   (A1)--V   (B2)--V
     Eigenvalues --     0.16751   0.22960   0.24352   0.73693   0.84186
   1 1   N  1S         -0.05505   0.08368   0.00000   0.00566   0.00000
   2        2S          0.06371  -0.11050   0.00000  -0.09047   0.00000
   3        2PX         0.00000   0.00000   0.00000   0.00000   0.00000
   4        2PY         0.00000   0.00000  -0.33283   0.00000  -0.92578
   5        2PZ         0.24356   0.32649   0.00000   0.03100   0.00000
   6        3S          0.90265  -1.42741   0.00000   0.38583   0.00000
   7        3PX         0.00000   0.00000   0.00000   0.00000   0.00000
   8        3PY         0.00000   0.00000  -1.38736   0.00000   2.19228
   9        3PZ         0.51108   0.95608   0.00000  -0.10799   0.00000
  10        4S          1.89963  -1.40064   0.00000  -0.18253   0.00000
  11        4PX         0.00000   0.00000   0.00000   0.00000   0.00000
  12        4PY         0.00000   0.00000  -1.19724   0.00000  -0.16191
  13        4PZ        -0.25062   0.18698   0.00000   0.02159   0.00000
  14        5XX         0.00481   0.01077   0.00000  -0.06244   0.00000
  15        5YY        -0.04846   0.01853   0.00000  -0.04966   0.00000
  16        5ZZ        -0.00304   0.03687   0.00000   0.08970   0.00000
  17        5XY         0.00000   0.00000   0.00000   0.00000   0.00000
  18        5XZ         0.00000   0.00000   0.00000   0.00000   0.00000
  19        5YZ         0.00000   0.00000   0.02690   0.00000  -0.02958
  20 2   H  1S         -0.18022   0.03371   0.14083  -0.01498  -0.12068
  21        2S         -1.47426   0.43936   2.22831   0.17739  -1.07356
  22        3PX         0.00000   0.00000   0.00000   0.00000   0.00000
  23        3PY        -0.00940  -0.00007  -0.00787  -0.00486   0.12582
  24        3PZ         0.00761   0.00766   0.01251   0.02996   0.00118
  25 3   H  1S          0.02937   0.21261   0.00000   0.42876   0.00000
  26        2S         -0.14022   2.72920   0.00000  -1.00919   0.00000
  27        3PX         0.00000   0.00000   0.00000   0.00000   0.00000
  28        3PY         0.00000   0.00000  -0.01854   0.00000   0.04888
  29        3PZ        -0.00606  -0.00867   0.00000  -0.03209   0.00000
  30 4   H  1S         -0.18022   0.03371  -0.14083  -0.01498   0.12068
  31        2S         -1.47426   0.43936  -2.22831   0.17739   1.07356
  32        3PX         0.00000   0.00000   0.00000   0.00000   0.00000
  33        3PY         0.00940   0.00007  -0.00787   0.00486   0.12582
  34        3PZ         0.00761   0.00766  -0.01251   0.02996  -0.00118
  35 5   H  1S         -0.09139  -0.03440   0.00000  -1.17039   0.00000
  36        2S         -0.28017  -0.54303   0.00000   1.40291   0.00000
  37        3PX         0.00000   0.00000   0.00000   0.00000   0.00000
  38        3PY         0.00000   0.00000  -0.01399   0.00000   0.00926
  39        3PZ         0.00988   0.04055   0.00000  -0.05244   0.00000
                          16        17        18        19        20
                        (A1)--V   (B1)--V   (A1)--V   (B2)--V   (A1)--V
     Eigenvalues --     0.84340   0.88131   0.88369   1.01901   1.02585
   1 1   N  1S         -0.01290   0.00000  -0.02714   0.00000  -0.05338
   2        2S         -0.06776   0.00000   0.40722   0.00000   0.10892
   3        2PX         0.00000  -1.01746   0.00000   0.00000   0.00000
   4        2PY         0.00000   0.00000   0.00000   0.28962   0.00000
   5        2PZ        -0.58805   0.00000   0.69856   0.00000  -0.20929
   6        3S         -0.20730   0.00000  -0.85959   0.00000  -0.44529
   7        3PX         0.00000   1.43360   0.00000   0.00000   0.00000
   8        3PY         0.00000   0.00000   0.00000  -0.30380   0.00000
   9        3PZ         1.35370   0.00000  -1.33421   0.00000   0.24569
  10        4S         -0.66487   0.00000  -0.60025   0.00000  -1.46229
  11        4PX         0.00000  -0.66259   0.00000   0.00000   0.00000
  12        4PY         0.00000   0.00000   0.00000  -0.91892   0.00000
  13        4PZ        -0.80177   0.00000  -0.00512   0.00000   0.48537
  14        5XX         0.02625   0.00000   0.13731   0.00000   0.17708
  15        5YY        -0.20983   0.00000  -0.22363   0.00000  -0.07150
  16        5ZZ         0.06054   0.00000   0.19211   0.00000  -0.28241
  17        5XY         0.00000   0.00000   0.00000   0.00000   0.00000
  18        5XZ         0.00000  -0.00182   0.00000   0.00000   0.00000
  19        5YZ         0.00000   0.00000   0.00000  -0.32488   0.00000
  20 2   H  1S         -0.49418   0.00000  -0.52580  -0.83051  -0.36688
  21        2S          0.76810   0.00000   1.43664   1.67809   0.66684
  22        3PX         0.00000  -0.00062   0.00000   0.00000   0.00000
  23        3PY        -0.01809   0.00000  -0.10720  -0.05552  -0.02394
  24        3PZ         0.03763   0.00000  -0.02564  -0.08018  -0.05823
  25 3   H  1S          0.36371   0.00000   0.14986   0.00000  -1.05350
  26        2S          0.19322   0.00000  -1.06109   0.00000   2.06319
  27        3PX         0.00000  -0.00144   0.00000   0.00000   0.00000
  28        3PY         0.00000   0.00000   0.00000   0.13015   0.00000
  29        3PZ         0.07881   0.00000  -0.09865   0.00000   0.11720
  30 4   H  1S         -0.49418   0.00000  -0.52580   0.83051  -0.36688
  31        2S          0.76810   0.00000   1.43664  -1.67809   0.66684
  32        3PX         0.00000  -0.00062   0.00000   0.00000   0.00000
  33        3PY         0.01809   0.00000   0.10720  -0.05552   0.02394
  34        3PZ         0.03763   0.00000  -0.02564   0.08018  -0.05823
  35 5   H  1S          0.24163   0.00000   0.09579   0.00000  -0.48502
  36        2S         -0.39541   0.00000   0.18220   0.00000   0.35863
  37        3PX         0.00000  -0.01042   0.00000   0.00000   0.00000
  38        3PY         0.00000   0.00000   0.00000  -0.02987   0.00000
  39        3PZ        -0.00840   0.00000  -0.03294   0.00000   0.04568
                          21        22        23        24        25
                        (A1)--V   (A2)--V   (B1)--V   (B2)--V   (B1)--V
     Eigenvalues --     1.11051   1.43607   1.49789   1.80777   1.93336
   1 1   N  1S         -0.05635   0.00000   0.00000   0.00000   0.00000
   2        2S         -1.61029   0.00000   0.00000   0.00000   0.00000
   3        2PX         0.00000   0.00000   0.00430   0.00000  -0.01822
   4        2PY         0.00000   0.00000   0.00000  -0.12396   0.00000
   5        2PZ         0.23289   0.00000   0.00000   0.00000   0.00000
   6        3S          3.96583   0.00000   0.00000   0.00000   0.00000
   7        3PX         0.00000   0.00000   0.03064   0.00000   0.03079
   8        3PY         0.00000   0.00000   0.00000   1.09404   0.00000
   9        3PZ        -0.74498   0.00000   0.00000   0.00000   0.00000
  10        4S         -0.27608   0.00000   0.00000   0.00000   0.00000
  11        4PX         0.00000   0.00000  -0.00642   0.00000  -0.06249
  12        4PY         0.00000   0.00000   0.00000  -0.14147   0.00000
  13        4PZ         0.04510   0.00000   0.00000   0.00000   0.00000
  14        5XX        -0.15078   0.00000   0.00000   0.00000   0.00000
  15        5YY        -0.32852   0.00000   0.00000   0.00000   0.00000
  16        5ZZ        -0.29699   0.00000   0.00000   0.00000   0.00000
  17        5XY         0.00000   0.68455   0.00000   0.00000   0.00000
  18        5XZ         0.00000   0.00000   0.71627   0.00000   0.04893
  19        5YZ         0.00000   0.00000   0.00000   0.56409   0.00000
  20 2   H  1S         -0.12434   0.00000   0.00000  -0.61477   0.00000
  21        2S         -0.45948   0.00000   0.00000  -0.14699   0.00000
  22        3PX         0.00000   0.34171   0.16289   0.00000   0.01521
  23        3PY         0.03207   0.00000   0.00000  -0.22169   0.00000
  24        3PZ        -0.00170   0.00000   0.00000   0.38903   0.00000
  25 3   H  1S         -0.04771   0.00000   0.00000   0.00000   0.00000
  26        2S         -1.44461   0.00000   0.00000   0.00000   0.00000
  27        3PX         0.00000   0.00000  -0.42184   0.00000   0.03582
  28        3PY         0.00000   0.00000   0.00000  -0.00192   0.00000
  29        3PZ        -0.06546   0.00000   0.00000   0.00000   0.00000
  30 4   H  1S         -0.12434   0.00000   0.00000   0.61477   0.00000
  31        2S         -0.45948   0.00000   0.00000   0.14699   0.00000
  32        3PX         0.00000  -0.34171   0.16289   0.00000   0.01521
  33        3PY        -0.03207   0.00000   0.00000  -0.22169   0.00000
  34        3PZ        -0.00170   0.00000   0.00000  -0.38903   0.00000
  35 5   H  1S          0.04190   0.00000   0.00000   0.00000   0.00000
  36        2S          0.31801   0.00000   0.00000   0.00000   0.00000
  37        3PX         0.00000   0.00000  -0.02563   0.00000   0.99881
  38        3PY         0.00000   0.00000   0.00000   0.04455   0.00000
  39        3PZ        -0.11048   0.00000   0.00000   0.00000   0.00000
                          26        27        28        29        30
                        (B2)--V   (A1)--V   (A1)--V   (B2)--V   (A1)--V
     Eigenvalues --     1.93918   2.04089   2.13834   2.14930   2.30290
   1 1   N  1S          0.00000  -0.03157  -0.02018   0.00000  -0.01970
   2        2S          0.00000  -0.14618  -0.29566   0.00000  -0.50854
   3        2PX         0.00000   0.00000   0.00000   0.00000   0.00000
   4        2PY         0.04874   0.00000   0.00000   0.12715   0.00000
   5        2PZ         0.00000   0.04234  -0.09931   0.00000   0.22877
   6        3S          0.00000   0.16986   0.77446   0.00000   1.41117
   7        3PX         0.00000   0.00000   0.00000   0.00000   0.00000
   8        3PY        -0.21046   0.00000   0.00000  -0.76508   0.00000
   9        3PZ         0.00000   0.09931   0.39267   0.00000  -1.03622
  10        4S          0.00000  -0.40714  -0.06261   0.00000   0.12813
  11        4PX         0.00000   0.00000   0.00000   0.00000   0.00000
  12        4PY        -0.15058   0.00000   0.00000   0.13431   0.00000
  13        4PZ         0.00000   0.15534  -0.24588   0.00000   0.14476
  14        5XX         0.00000  -0.81909  -0.44172   0.00000  -0.42631
  15        5YY         0.00000   0.16650   0.43217   0.00000  -0.19356
  16        5ZZ         0.00000   0.34617  -0.10926   0.00000   0.59927
  17        5XY         0.00000   0.00000   0.00000   0.00000   0.00000
  18        5XZ         0.00000   0.00000   0.00000   0.00000   0.00000
  19        5YZ        -0.05445   0.00000   0.00000  -0.27325   0.00000
  20 2   H  1S          0.02027  -0.22640  -0.44557   0.39125   0.02327
  21        2S          0.22855   0.08622   0.18620   0.03608  -0.13204
  22        3PX         0.00000   0.00000   0.00000   0.00000   0.00000
  23        3PY         0.01756  -0.08614  -0.01712   0.00160   0.01026
  24        3PZ         0.01401  -0.04814  -0.48054   0.36620   0.16331
  25 3   H  1S          0.00000  -0.57917   0.36720   0.00000  -0.53325
  26        2S          0.00000   1.00660  -0.71783   0.00000  -1.09220
  27        3PX         0.00000   0.00000   0.00000   0.00000   0.00000
  28        3PY         0.08105   0.00000   0.00000   0.80107   0.00000
  29        3PZ         0.00000   0.25206  -0.19267   0.00000   0.21296
  30 4   H  1S         -0.02027  -0.22640  -0.44557  -0.39125   0.02327
  31        2S         -0.22855   0.08622   0.18620  -0.03608  -0.13204
  32        3PX         0.00000   0.00000   0.00000   0.00000   0.00000
  33        3PY         0.01756   0.08614   0.01712   0.00160  -0.01026
  34        3PZ        -0.01401  -0.04814  -0.48054  -0.36620   0.16331
  35 5   H  1S          0.00000   0.01521  -0.01922   0.00000  -0.08887
  36        2S          0.00000  -0.14912   0.13538   0.00000   0.41518
  37        3PX         0.00000   0.00000   0.00000   0.00000   0.00000
  38        3PY         0.99520   0.00000   0.00000  -0.09632   0.00000
  39        3PZ         0.00000  -0.60484   0.39435   0.00000   0.73507
                          31        32        33        34        35
                        (B1)--V   (B1)--V   (A1)--V   (A2)--V   (B2)--V
     Eigenvalues --     2.31241   2.56601   2.62166   2.74230   2.95902
   1 1   N  1S          0.00000   0.00000   0.00092   0.00000   0.00000
   2        2S          0.00000   0.00000   0.33916   0.00000   0.00000
   3        2PX        -0.03108  -0.01200   0.00000   0.00000   0.00000
   4        2PY         0.00000   0.00000   0.00000   0.00000   0.45545
   5        2PZ         0.00000   0.00000   0.19960   0.00000   0.00000
   6        3S          0.00000   0.00000  -0.36356   0.00000   0.00000
   7        3PX        -0.50094  -0.22665   0.00000   0.00000   0.00000
   8        3PY         0.00000   0.00000   0.00000   0.00000   0.94565
   9        3PZ         0.00000   0.00000   0.64014   0.00000   0.00000
  10        4S          0.00000   0.00000   0.16262   0.00000   0.00000
  11        4PX         0.12161   0.05676   0.00000   0.00000   0.00000
  12        4PY         0.00000   0.00000   0.00000   0.00000   0.26122
  13        4PZ         0.00000   0.00000   0.09856   0.00000   0.00000
  14        5XX         0.00000   0.00000   0.09687   0.00000   0.00000
  15        5YY         0.00000   0.00000  -0.25890   0.00000   0.00000
  16        5ZZ         0.00000   0.00000   0.34561   0.00000   0.00000
  17        5XY         0.00000   0.00000   0.00000   0.88663   0.00000
  18        5XZ        -0.22509   0.77328   0.00000   0.00000   0.00000
  19        5YZ         0.00000   0.00000   0.00000   0.00000  -0.42516
  20 2   H  1S          0.00000   0.00000   0.14370   0.00000  -0.14264
  21        2S          0.00000   0.00000  -0.47479   0.00000  -0.87019
  22        3PX         0.74044  -0.09554   0.00000  -0.71483   0.00000
  23        3PY         0.00000   0.00000   0.61778   0.00000   0.38912
  24        3PZ         0.00000   0.00000  -0.41480   0.00000   0.57639
  25 3   H  1S          0.00000   0.00000  -0.05094   0.00000   0.00000
  26        2S          0.00000   0.00000   0.81802   0.00000   0.00000
  27        3PX         0.25225   0.98391   0.00000   0.00000   0.00000
  28        3PY         0.00000   0.00000   0.00000   0.00000  -0.71098
  29        3PZ         0.00000   0.00000   0.20187   0.00000   0.00000
  30 4   H  1S          0.00000   0.00000   0.14370   0.00000   0.14264
  31        2S          0.00000   0.00000  -0.47479   0.00000   0.87019
  32        3PX         0.74044  -0.09554   0.00000   0.71483   0.00000
  33        3PY         0.00000   0.00000  -0.61778   0.00000   0.38912
  34        3PZ         0.00000   0.00000  -0.41480   0.00000  -0.57639
  35 5   H  1S          0.00000   0.00000  -0.00772   0.00000   0.00000
  36        2S          0.00000   0.00000  -0.14117   0.00000   0.00000
  37        3PX        -0.02274  -0.04887   0.00000   0.00000   0.00000
  38        3PY         0.00000   0.00000   0.00000   0.00000  -0.01030
  39        3PZ         0.00000   0.00000  -0.13540   0.00000   0.00000
                          36        37        38        39
                        (A1)--V   (B2)--V   (A1)--V   (A1)--V
     Eigenvalues --     3.31014   3.31137   3.54939   4.22839
   1 1   N  1S         -0.23159   0.00000   0.23905   0.35188
   2        2S          0.57616   0.00000  -0.57777  -0.72198
   3        2PX         0.00000   0.00000   0.00000   0.00000
   4        2PY         0.00000   0.74824   0.00000   0.00000
   5        2PZ        -0.38724   0.00000  -0.64295   0.14155
   6        3S          2.54759   0.00000  -1.70812  -1.77520
   7        3PX         0.00000   0.00000   0.00000   0.00000
   8        3PY         0.00000   0.61250   0.00000   0.00000
   9        3PZ        -0.81898   0.00000  -0.55718   0.31611
  10        4S          0.27815   0.00000   0.11999   0.27411
  11        4PX         0.00000   0.00000   0.00000   0.00000
  12        4PY         0.00000   0.03181   0.00000   0.00000
  13        4PZ        -0.01597   0.00000   0.11599  -0.05134
  14        5XX        -1.09789   0.00000   0.86269   0.80770
  15        5YY        -0.36816   0.00000  -0.50427   2.59357
  16        5ZZ         0.21082   0.00000   1.80271   1.08707
  17        5XY         0.00000   0.00000   0.00000   0.00000
  18        5XZ         0.00000   0.00000   0.00000   0.00000
  19        5YZ         0.00000   1.11653   0.00000   0.00000
  20 2   H  1S         -0.17844  -0.60859   0.55305  -0.87182
  21        2S         -0.39369  -0.41095   0.32402   0.03090
  22        3PX         0.00000   0.00000   0.00000   0.00000
  23        3PY         0.30114   0.89919  -0.47054   0.81344
  24        3PZ         0.23091  -0.06909  -0.36129   0.46359
  25 3   H  1S         -0.72103   0.00000  -0.87513  -0.15537
  26        2S         -1.39694   0.00000   0.00724   0.38500
  27        3PX         0.00000   0.00000   0.00000   0.00000
  28        3PY         0.00000   0.35801   0.00000   0.00000
  29        3PZ        -1.15947   0.00000  -0.90950  -0.26261
  30 4   H  1S         -0.17844   0.60859   0.55305  -0.87182
  31        2S         -0.39369   0.41095   0.32402   0.03090
  32        3PX         0.00000   0.00000   0.00000   0.00000
  33        3PY        -0.30114   0.89919   0.47054  -0.81344
  34        3PZ         0.23091   0.06909  -0.36129   0.46359
  35 5   H  1S          0.02664   0.00000   0.00026   0.01568
  36        2S          0.18578   0.00000  -0.01093  -0.14342
  37        3PX         0.00000   0.00000   0.00000   0.00000
  38        3PY         0.00000  -0.01676   0.00000   0.00000
  39        3PZ         0.07498   0.00000  -0.06684  -0.06223
     Beta Molecular Orbital Coefficients:
                           1         2         3         4         5
                        (A1)--O   (A1)--O   (B2)--O   (A1)--O   (B1)--O
     Eigenvalues --   -14.31938  -0.83153  -0.50371  -0.44809  -0.23965
   1 1   N  1S          0.99269  -0.20487   0.00000  -0.01737   0.00000
   2        2S          0.03448   0.42834   0.00000   0.03658   0.00000
   3        2PX         0.00000   0.00000   0.00000   0.00000   0.59498
   4        2PY         0.00000   0.00000   0.47175   0.00000   0.00000
   5        2PZ        -0.00004  -0.02313   0.00000   0.46918   0.00000
   6        3S          0.00438   0.42863   0.00000   0.07434   0.00000
   7        3PX         0.00000   0.00000   0.00000   0.00000   0.43651
   8        3PY         0.00000   0.00000   0.22787   0.00000   0.00000
   9        3PZ        -0.00008  -0.01296   0.00000   0.22775   0.00000
  10        4S         -0.00017   0.01021   0.00000   0.00867   0.00000
  11        4PX         0.00000   0.00000   0.00000   0.00000   0.16887
  12        4PY         0.00000   0.00000   0.02973   0.00000   0.00000
  13        4PZ        -0.00005  -0.00139   0.00000   0.02967   0.00000
  14        5XX        -0.00828  -0.01811   0.00000  -0.00065   0.00000
  15        5YY        -0.00824  -0.00011   0.00000   0.01547   0.00000
  16        5ZZ        -0.00827  -0.00470   0.00000  -0.02072   0.00000
  17        5XY         0.00000   0.00000   0.00000   0.00000   0.00000
  18        5XZ         0.00000   0.00000   0.00000   0.00000  -0.00310
  19        5YZ         0.00000   0.00000   0.00821   0.00000   0.00000
  20 2   H  1S          0.00027   0.14026   0.25358   0.13024   0.00000
  21        2S         -0.00042   0.01923   0.11784   0.08078   0.00000
  22        3PX         0.00000   0.00000   0.00000   0.00000   0.02089
  23        3PY        -0.00002  -0.01601  -0.01020  -0.00850   0.00000
  24        3PZ         0.00000  -0.00684  -0.00803   0.00901   0.00000
  25 3   H  1S          0.00029   0.14730   0.00000  -0.29063   0.00000
  26        2S         -0.00061   0.01542   0.00000  -0.21439   0.00000
  27        3PX         0.00000   0.00000   0.00000   0.00000   0.02010
  28        3PY         0.00000   0.00000   0.01123   0.00000   0.00000
  29        3PZ        -0.00001   0.01683   0.00000  -0.00734   0.00000
  30 4   H  1S          0.00027   0.14026  -0.25358   0.13024   0.00000
  31        2S         -0.00042   0.01923  -0.11784   0.08078   0.00000
  32        3PX         0.00000   0.00000   0.00000   0.00000   0.02089
  33        3PY         0.00002   0.01601  -0.01020   0.00850   0.00000
  34        3PZ         0.00000  -0.00684   0.00803   0.00901   0.00000
  35 5   H  1S          0.00002   0.00497   0.00000  -0.03343   0.00000
  36        2S          0.00008   0.00716   0.00000  -0.03144   0.00000
  37        3PX         0.00000   0.00000   0.00000   0.00000   0.00119
  38        3PY         0.00000   0.00000   0.00040   0.00000   0.00000
  39        3PZ         0.00002   0.00200   0.00000  -0.00487   0.00000
                           6         7         8         9        10
                        (A1)--V   (A1)--V   (B2)--V   (A1)--V   (B1)--V
     Eigenvalues --    -0.10192   0.04279   0.07402   0.11425   0.11551
   1 1   N  1S          0.04080   0.10629   0.00000  -0.01926   0.00000
   2        2S         -0.07392  -0.17357   0.00000   0.03764   0.00000
   3        2PX         0.00000   0.00000   0.00000   0.00000  -0.28176
   4        2PY         0.00000   0.00000  -0.23835   0.00000   0.00000
   5        2PZ         0.16942  -0.12685   0.00000  -0.02345   0.00000
   6        3S         -0.32048  -1.06571   0.00000   0.18941   0.00000
   7        3PX         0.00000   0.00000   0.00000   0.00000  -0.48982
   8        3PY         0.00000   0.00000  -0.22338   0.00000   0.00000
   9        3PZ         0.16709  -0.26553   0.00000   0.13900   0.00000
  10        4S          0.29289   1.29844   0.00000  -0.12509   0.00000
  11        4PX         0.00000   0.00000   0.00000   0.00000   1.18792
  12        4PY         0.00000   0.00000   1.34600   0.00000   0.00000
  13        4PZ        -0.10497   0.16706   0.00000   1.46438   0.00000
  14        5XX         0.00758   0.03099   0.00000  -0.00134   0.00000
  15        5YY         0.01056   0.03542   0.00000  -0.02940   0.00000
  16        5ZZ         0.01035   0.03496   0.00000   0.01777   0.00000
  17        5XY         0.00000   0.00000   0.00000   0.00000   0.00000
  18        5XZ         0.00000   0.00000   0.00000   0.00000   0.00146
  19        5YZ         0.00000   0.00000  -0.00290   0.00000   0.00000
  20 2   H  1S          0.03174   0.07604  -0.01089  -0.08425   0.00000
  21        2S          0.01491   0.21715  -0.31798  -0.55093   0.00000
  22        3PX         0.00000   0.00000   0.00000   0.00000   0.00142
  23        3PY         0.00204   0.01709   0.01695  -0.00548   0.00000
  24        3PZ         0.00511   0.00365   0.00460   0.01114   0.00000
  25 3   H  1S          0.00098   0.02946   0.00000   0.08158   0.00000
  26        2S          0.07444  -0.18498   0.00000   0.95245   0.00000
  27        3PX         0.00000   0.00000   0.00000   0.00000   0.00201
  28        3PY         0.00000   0.00000   0.00217   0.00000   0.00000
  29        3PZ        -0.02000  -0.01226   0.00000   0.00682   0.00000
  30 4   H  1S          0.03174   0.07604   0.01089  -0.08425   0.00000
  31        2S          0.01491   0.21715   0.31798  -0.55093   0.00000
  32        3PX         0.00000   0.00000   0.00000   0.00000   0.00142
  33        3PY        -0.00204  -0.01709   0.01695   0.00548   0.00000
  34        3PZ         0.00511   0.00365  -0.00460   0.01114   0.00000
  35 5   H  1S          0.26075  -0.08171   0.00000   0.06207   0.00000
  36        2S          0.64938  -0.25038   0.00000   0.34993   0.00000
  37        3PX         0.00000   0.00000   0.00000   0.00000   0.00538
  38        3PY         0.00000   0.00000   0.00557   0.00000   0.00000
  39        3PZ         0.00632   0.00381   0.00000   0.00018   0.00000
                          11        12        13        14        15
                        (A1)--V   (B2)--V   (A1)--V   (A1)--V   (B2)--V
     Eigenvalues --     0.17300   0.24443   0.24875   0.83414   0.84196
   1 1   N  1S         -0.06206   0.00000   0.07921  -0.00597   0.00000
   2        2S          0.07252   0.00000  -0.11380  -0.08514   0.00000
   3        2PX         0.00000   0.00000   0.00000   0.00000   0.00000
   4        2PY         0.00000  -0.33231   0.00000   0.00000  -0.92544
   5        2PZ         0.19206   0.00000   0.34889  -0.41286   0.00000
   6        3S          1.02937   0.00000  -1.32886   0.01439   0.00000
   7        3PX         0.00000   0.00000   0.00000   0.00000   0.00000
   8        3PY         0.00000  -1.39240   0.00000   0.00000   2.18953
   9        3PZ         0.37473   0.00000   0.98629   0.96505   0.00000
  10        4S          2.10923   0.00000  -1.10721  -0.54397   0.00000
  11        4PX         0.00000   0.00000   0.00000   0.00000   0.00000
  12        4PY         0.00000  -1.19395   0.00000   0.00000  -0.16596
  13        4PZ        -0.37008   0.00000   0.08682  -0.72625   0.00000
  14        5XX         0.00479   0.00000   0.00912  -0.01340   0.00000
  15        5YY        -0.04765   0.00000   0.01007  -0.21278   0.00000
  16        5ZZ        -0.00885   0.00000   0.03698   0.13416   0.00000
  17        5XY         0.00000   0.00000   0.00000   0.00000   0.00000
  18        5XZ         0.00000   0.00000   0.00000   0.00000   0.00000
  19        5YZ         0.00000   0.02584   0.00000   0.00000  -0.03021
  20 2   H  1S         -0.17679   0.14064   0.01469  -0.43457  -0.12309
  21        2S         -1.48026   2.23068   0.29034   0.78078  -1.06618
  22        3PX         0.00000   0.00000   0.00000   0.00000   0.00000
  23        3PY        -0.00853  -0.00797  -0.00123  -0.02321   0.12585
  24        3PZ         0.00572   0.01242   0.00853   0.05053   0.00115
  25 3   H  1S         -0.00534   0.00000   0.21419   0.63681   0.00000
  26        2S         -0.52570   0.00000   2.62927  -0.64605   0.00000
  27        3PX         0.00000   0.00000   0.00000   0.00000   0.00000
  28        3PY         0.00000  -0.01872   0.00000   0.00000   0.04970
  29        3PZ        -0.00407   0.00000  -0.01066   0.03208   0.00000
  30 4   H  1S         -0.17679  -0.14064   0.01469  -0.43457   0.12309
  31        2S         -1.48026  -2.23068   0.29034   0.78078   1.06618
  32        3PX         0.00000   0.00000   0.00000   0.00000   0.00000
  33        3PY         0.00853  -0.00797   0.00123   0.02321   0.12585
  34        3PZ         0.00572  -0.01242   0.00853   0.05053  -0.00115
  35 5   H  1S         -0.07652   0.00000  -0.05460  -0.37142   0.00000
  36        2S         -0.34159   0.00000  -0.69066   0.34986   0.00000
  37        3PX         0.00000   0.00000   0.00000   0.00000   0.00000
  38        3PY         0.00000  -0.00959   0.00000   0.00000   0.00758
  39        3PZ         0.00276   0.00000   0.02293  -0.03324   0.00000
                          16        17        18        19        20
                        (B1)--V   (A1)--V   (A1)--V   (B2)--V   (A1)--V
     Eigenvalues --     0.88230   0.88351   0.89691   1.02109   1.06560
   1 1   N  1S          0.00000   0.00670  -0.03948   0.00000  -0.05282
   2        2S          0.00000  -0.32150   0.31961   0.00000  -0.16042
   3        2PX        -1.01839   0.00000   0.00000   0.00000   0.00000
   4        2PY         0.00000   0.00000   0.00000   0.29303   0.00000
   5        2PZ         0.00000  -0.81179   0.11073   0.00000  -0.13938
   6        3S          0.00000   0.42781  -0.99422   0.00000   0.28472
   7        3PX         1.43289   0.00000   0.00000   0.00000   0.00000
   8        3PY         0.00000   0.00000   0.00000  -0.30804   0.00000
   9        3PZ         0.00000   1.63549  -0.14503   0.00000   0.06902
  10        4S          0.00000   0.07695  -0.94692   0.00000  -1.34651
  11        4PX        -0.66243   0.00000   0.00000   0.00000   0.00000
  12        4PY         0.00000   0.00000   0.00000  -0.92050   0.00000
  13        4PZ         0.00000  -0.20996  -0.15252   0.00000   0.51647
  14        5XX         0.00000  -0.05243   0.18158   0.00000   0.11565
  15        5YY         0.00000   0.10970  -0.19780   0.00000  -0.09618
  16        5ZZ         0.00000  -0.21466   0.00314   0.00000  -0.29407
  17        5XY         0.00000   0.00000   0.00000   0.00000   0.00000
  18        5XZ        -0.00304   0.00000   0.00000   0.00000   0.00000
  19        5YZ         0.00000   0.00000   0.00000  -0.32310   0.00000
  20 2   H  1S          0.00000   0.19539  -0.59007  -0.83173  -0.29589
  21        2S          0.00000  -0.85412   1.23583   1.68186   0.46092
  22        3PX        -0.00084   0.00000   0.00000   0.00000   0.00000
  23        3PY         0.00000   0.07842  -0.07488  -0.05609  -0.01219
  24        3PZ         0.00000   0.01301  -0.03676  -0.08001  -0.04683
  25 3   H  1S          0.00000  -0.32712  -0.35094   0.00000  -0.90449
  26        2S          0.00000   1.67188   0.69497   0.00000   1.50745
  27        3PX        -0.00077   0.00000   0.00000   0.00000   0.00000
  28        3PY         0.00000   0.00000   0.00000   0.13055   0.00000
  29        3PZ         0.00000   0.13891   0.02592   0.00000   0.09182
  30 4   H  1S          0.00000   0.19539  -0.59007   0.83173  -0.29589
  31        2S          0.00000  -0.85412   1.23583  -1.68186   0.46092
  32        3PX        -0.00084   0.00000   0.00000   0.00000   0.00000
  33        3PY         0.00000  -0.07842   0.07488  -0.05609   0.01219
  34        3PZ         0.00000   0.01301  -0.03676   0.08001  -0.04683
  35 5   H  1S          0.00000   0.50331   0.80457   0.00000  -0.85469
  36        2S          0.00000  -0.84612  -0.78434   0.00000   0.76210
  37        3PX        -0.00702   0.00000   0.00000   0.00000   0.00000
  38        3PY         0.00000   0.00000   0.00000  -0.02125   0.00000
  39        3PZ         0.00000   0.03720   0.02304   0.00000  -0.00106
                          21        22        23        24        25
                        (A1)--V   (A2)--V   (B1)--V   (B2)--V   (A1)--V
     Eigenvalues --     1.12129   1.43664   1.50028   1.80918   2.07625
   1 1   N  1S         -0.05088   0.00000   0.00000   0.00000   0.04114
   2        2S         -1.60311   0.00000   0.00000   0.00000   0.33168
   3        2PX         0.00000   0.00000   0.00187   0.00000   0.00000
   4        2PY         0.00000   0.00000   0.00000  -0.12538   0.00000
   5        2PZ         0.27170   0.00000   0.00000   0.00000  -0.05083
   6        3S          3.99326   0.00000   0.00000   0.00000  -0.70201
   7        3PX         0.00000   0.00000   0.03336   0.00000   0.00000
   8        3PY         0.00000   0.00000   0.00000   1.09651   0.00000
   9        3PZ        -0.82094   0.00000   0.00000   0.00000  -0.01795
  10        4S         -0.08549   0.00000   0.00000   0.00000   0.37207
  11        4PX         0.00000   0.00000  -0.00775   0.00000   0.00000
  12        4PY         0.00000   0.00000   0.00000  -0.13573   0.00000
  13        4PZ        -0.02690   0.00000   0.00000   0.00000  -0.08540
  14        5XX        -0.16483   0.00000   0.00000   0.00000   0.98257
  15        5YY        -0.32540   0.00000   0.00000   0.00000  -0.25688
  16        5ZZ        -0.25404   0.00000   0.00000   0.00000  -0.37772
  17        5XY         0.00000   0.68419   0.00000   0.00000   0.00000
  18        5XZ         0.00000   0.00000   0.71424   0.00000   0.00000
  19        5YZ         0.00000   0.00000   0.00000   0.56428   0.00000
  20 2   H  1S         -0.09254   0.00000   0.00000  -0.61200   0.35203
  21        2S         -0.50377   0.00000   0.00000  -0.15506  -0.11866
  22        3PX         0.00000   0.34200   0.16344   0.00000   0.00000
  23        3PY         0.03258   0.00000   0.00000  -0.22203   0.09054
  24        3PZ         0.00346   0.00000   0.00000   0.39040   0.16475
  25 3   H  1S          0.08361   0.00000   0.00000   0.00000   0.49854
  26        2S         -1.76736   0.00000   0.00000   0.00000  -0.46310
  27        3PX         0.00000   0.00000  -0.42448   0.00000   0.00000
  28        3PY         0.00000   0.00000   0.00000  -0.00220   0.00000
  29        3PZ        -0.08464   0.00000   0.00000   0.00000  -0.20810
  30 4   H  1S         -0.09254   0.00000   0.00000   0.61200   0.35203
  31        2S         -0.50377   0.00000   0.00000   0.15506  -0.11866
  32        3PX         0.00000  -0.34200   0.16344   0.00000   0.00000
  33        3PY        -0.03258   0.00000   0.00000  -0.22203  -0.09054
  34        3PZ         0.00346   0.00000   0.00000  -0.39040   0.16475
  35 5   H  1S          0.16012   0.00000   0.00000   0.00000   0.00467
  36        2S          0.24867   0.00000   0.00000   0.00000   0.01376
  37        3PX         0.00000   0.00000  -0.01765   0.00000   0.00000
  38        3PY         0.00000   0.00000   0.00000   0.01777   0.00000
  39        3PZ        -0.08255   0.00000   0.00000   0.00000   0.31908
                          26        27        28        29        30
                        (B2)--V   (B1)--V   (A1)--V   (B2)--V   (B1)--V
     Eigenvalues --     2.12294   2.13170   2.16059   2.16309   2.31274
   1 1   N  1S          0.00000   0.00000  -0.00300   0.00000   0.00000
   2        2S          0.00000   0.00000  -0.08360   0.00000   0.00000
   3        2PX         0.00000  -0.01648   0.00000   0.00000  -0.03065
   4        2PY         0.10925   0.00000   0.00000  -0.08028   0.00000
   5        2PZ         0.00000   0.00000  -0.16818   0.00000   0.00000
   6        3S          0.00000   0.00000   0.23564   0.00000   0.00000
   7        3PX         0.00000   0.00758   0.00000   0.00000  -0.50183
   8        3PY        -0.57668   0.00000   0.00000   0.54102   0.00000
   9        3PZ         0.00000   0.00000   0.63973   0.00000   0.00000
  10        4S          0.00000   0.00000   0.01055   0.00000   0.00000
  11        4PX         0.00000  -0.05176   0.00000   0.00000   0.12295
  12        4PY        -0.03679   0.00000   0.00000  -0.18606   0.00000
  13        4PZ         0.00000   0.00000  -0.30191   0.00000   0.00000
  14        5XX         0.00000   0.00000  -0.06968   0.00000   0.00000
  15        5YY         0.00000   0.00000   0.40898   0.00000   0.00000
  16        5ZZ         0.00000   0.00000  -0.34159   0.00000   0.00000
  17        5XY         0.00000   0.00000   0.00000   0.00000   0.00000
  18        5XZ         0.00000   0.05453   0.00000   0.00000  -0.22460
  19        5YZ        -0.18322   0.00000   0.00000   0.20517   0.00000
  20 2   H  1S          0.22984   0.00000  -0.35462  -0.31825   0.00000
  21        2S          0.18490   0.00000   0.18254   0.07679   0.00000
  22        3PX         0.00000   0.02937   0.00000   0.00000   0.73967
  23        3PY         0.01357   0.00000   0.01141   0.00671   0.00000
  24        3PZ         0.22687   0.00000  -0.48212  -0.28451   0.00000
  25 3   H  1S          0.00000   0.00000   0.62242   0.00000   0.00000
  26        2S          0.00000   0.00000  -0.57704   0.00000   0.00000
  27        3PX         0.00000   0.06607   0.00000   0.00000   0.25338
  28        3PY         0.52226   0.00000   0.00000  -0.61609   0.00000
  29        3PZ         0.00000   0.00000  -0.30066   0.00000   0.00000
  30 4   H  1S         -0.22984   0.00000  -0.35462   0.31825   0.00000
  31        2S         -0.18490   0.00000   0.18254  -0.07679   0.00000
  32        3PX         0.00000   0.02937   0.00000   0.00000   0.73967
  33        3PY         0.01357   0.00000  -0.01141   0.00671   0.00000
  34        3PZ        -0.22687   0.00000  -0.48212   0.28451   0.00000
  35 5   H  1S          0.00000   0.00000  -0.00092   0.00000   0.00000
  36        2S          0.00000   0.00000   0.04255   0.00000   0.00000
  37        3PX         0.00000   0.99695   0.00000   0.00000  -0.04644
  38        3PY         0.76555   0.00000   0.00000   0.64484   0.00000
  39        3PZ         0.00000   0.00000   0.33184   0.00000   0.00000
                          31        32        33        34        35
                        (A1)--V   (B1)--V   (A1)--V   (A2)--V   (B2)--V
     Eigenvalues --     2.41561   2.56501   2.62586   2.74318   2.95888
   1 1   N  1S         -0.00965   0.00000   0.00031   0.00000   0.00000
   2        2S         -0.45683   0.00000   0.37033   0.00000   0.00000
   3        2PX         0.00000  -0.01200   0.00000   0.00000   0.00000
   4        2PY         0.00000   0.00000   0.00000   0.00000   0.45632
   5        2PZ         0.18667   0.00000   0.19138   0.00000   0.00000
   6        3S          1.28717   0.00000  -0.44034   0.00000   0.00000
   7        3PX         0.00000  -0.22565   0.00000   0.00000   0.00000
   8        3PY         0.00000   0.00000   0.00000   0.00000   0.94312
   9        3PZ        -0.83347   0.00000   0.69134   0.00000   0.00000
  10        4S          0.19810   0.00000   0.14555   0.00000   0.00000
  11        4PX         0.00000   0.05740   0.00000   0.00000   0.00000
  12        4PY         0.00000   0.00000   0.00000   0.00000   0.26143
  13        4PZ         0.06732   0.00000   0.09780   0.00000   0.00000
  14        5XX        -0.27528   0.00000   0.10441   0.00000   0.00000
  15        5YY        -0.13838   0.00000  -0.25301   0.00000   0.00000
  16        5ZZ         0.50784   0.00000   0.31457   0.00000   0.00000
  17        5XY         0.00000   0.00000   0.00000   0.88691   0.00000
  18        5XZ         0.00000   0.77492   0.00000   0.00000   0.00000
  19        5YZ         0.00000   0.00000   0.00000   0.00000  -0.42654
  20 2   H  1S         -0.00001   0.00000   0.14352   0.00000  -0.14155
  21        2S         -0.13057   0.00000  -0.46845   0.00000  -0.86968
  22        3PX         0.00000  -0.09723   0.00000  -0.71469   0.00000
  23        3PY         0.06890   0.00000   0.61401   0.00000   0.38926
  24        3PZ         0.03630   0.00000  -0.41353   0.00000   0.57707
  25 3   H  1S         -0.32045   0.00000  -0.03767   0.00000   0.00000
  26        2S         -1.23290   0.00000   0.91144   0.00000   0.00000
  27        3PX         0.00000   0.98091   0.00000   0.00000   0.00000
  28        3PY         0.00000   0.00000   0.00000   0.00000  -0.70861
  29        3PZ         0.11771   0.00000   0.20132   0.00000   0.00000
  30 4   H  1S         -0.00001   0.00000   0.14352   0.00000   0.14155
  31        2S         -0.13057   0.00000  -0.46845   0.00000   0.86968
  32        3PX         0.00000  -0.09723   0.00000   0.71469   0.00000
  33        3PY        -0.06890   0.00000  -0.61401   0.00000   0.38926
  34        3PZ         0.03630   0.00000  -0.41353   0.00000  -0.57707
  35 5   H  1S         -0.10067   0.00000  -0.00066   0.00000   0.00000
  36        2S          0.42568   0.00000  -0.17075   0.00000   0.00000
  37        3PX         0.00000  -0.07014   0.00000   0.00000   0.00000
  38        3PY         0.00000   0.00000   0.00000   0.00000  -0.01142
  39        3PZ         0.91185   0.00000  -0.20925   0.00000   0.00000
                          36        37        38        39
                        (A1)--V   (B2)--V   (A1)--V   (A1)--V
     Eigenvalues --     3.31186   3.31228   3.55148   4.23138
   1 1   N  1S         -0.23056   0.00000   0.23942   0.35225
   2        2S          0.57311   0.00000  -0.57583  -0.72262
   3        2PX         0.00000   0.00000   0.00000   0.00000
   4        2PY         0.00000   0.74791   0.00000   0.00000
   5        2PZ        -0.38903   0.00000  -0.64264   0.14263
   6        3S          2.54377   0.00000  -1.72094  -1.78116
   7        3PX         0.00000   0.00000   0.00000   0.00000
   8        3PY         0.00000   0.61333   0.00000   0.00000
   9        3PZ        -0.82194   0.00000  -0.54974   0.31911
  10        4S          0.27992   0.00000   0.11767   0.27286
  11        4PX         0.00000   0.00000   0.00000   0.00000
  12        4PY         0.00000   0.03196   0.00000   0.00000
  13        4PZ        -0.01619   0.00000   0.11643  -0.05108
  14        5XX        -1.09537   0.00000   0.86513   0.80936
  15        5YY        -0.36509   0.00000  -0.50395   2.59420
  16        5ZZ         0.21831   0.00000   1.80124   1.08594
  17        5XY         0.00000   0.00000   0.00000   0.00000
  18        5XZ         0.00000   0.00000   0.00000   0.00000
  19        5YZ         0.00000   1.11730   0.00000   0.00000
  20 2   H  1S         -0.17884  -0.60892   0.55380  -0.87145
  21        2S         -0.39284  -0.41129   0.32440   0.03138
  22        3PX         0.00000   0.00000   0.00000   0.00000
  23        3PY         0.30128   0.89905  -0.47050   0.81300
  24        3PZ         0.23103  -0.06942  -0.36210   0.46303
  25 3   H  1S         -0.72462   0.00000  -0.87369  -0.15414
  26        2S         -1.40091   0.00000   0.02183   0.39159
  27        3PX         0.00000   0.00000   0.00000   0.00000
  28        3PY         0.00000   0.35678   0.00000   0.00000
  29        3PZ        -1.16169   0.00000  -0.90562  -0.26056
  30 4   H  1S         -0.17884   0.60892   0.55380  -0.87145
  31        2S         -0.39284   0.41129   0.32440   0.03138
  32        3PX         0.00000   0.00000   0.00000   0.00000
  33        3PY        -0.30128   0.89905   0.47050  -0.81300
  34        3PZ         0.23103   0.06942  -0.36210   0.46303
  35 5   H  1S          0.02632   0.00000   0.00022   0.01638
  36        2S          0.18653   0.00000  -0.01454  -0.14554
  37        3PX         0.00000   0.00000   0.00000   0.00000
  38        3PY         0.00000  -0.01910   0.00000   0.00000
  39        3PZ         0.07761   0.00000  -0.07719  -0.06644
     Alpha Density Matrix:
                           1         2         3         4         5
   1 1   N  1S          1.02821
   2        2S         -0.05549   0.18957
   3        2PX         0.00000   0.00000   0.35660
   4        2PY         0.00000  -0.00000  -0.00000   0.22369
   5        2PZ         0.00047  -0.00163   0.00000   0.00000   0.24877
   6        3S         -0.08710   0.19209   0.00000   0.00000   0.00309
   7        3PX         0.00000   0.00000   0.26060  -0.00000   0.00000
   8        3PY         0.00000  -0.00000  -0.00000   0.10755   0.00000
   9        3PZ         0.00096  -0.00244   0.00000   0.00000   0.12651
  10        4S         -0.00145   0.00266   0.00000   0.00000   0.01455
  11        4PX         0.00000   0.00000   0.09897  -0.00000   0.00000
  12        4PY        -0.00000   0.00000  -0.00000   0.01363  -0.00000
  13        4PZ        -0.00047   0.00087   0.00000  -0.00000   0.01060
  14        5XX        -0.00439  -0.00849   0.00000   0.00000   0.00068
  15        5YY        -0.00825  -0.00037   0.00000   0.00000   0.00831
  16        5ZZ        -0.00717  -0.00244  -0.00000  -0.00000  -0.00941
[...]
  36        2S          0.00000   0.00000   0.00421   0.00000   0.00000
  37        3PX         0.00000   0.00000  -0.00000   0.00000  -0.00000
  38        3PY         0.00000   0.00000   0.00000  -0.00000   0.00000
  39        3PZ        -0.00000   0.00000   0.00000  -0.00000  -0.00000
                          16        17        18        19        20
  16        5ZZ         0.00052
  17        5XY         0.00000   0.00000
  18        5XZ         0.00000  -0.00000   0.00000
  19        5YZ        -0.00000   0.00000   0.00000   0.00049
  20 2   H  1S         -0.00119  -0.00000  -0.00000   0.00220   0.21107
  21        2S         -0.00082  -0.00000  -0.00000   0.00022   0.05868
  22        3PX        -0.00000   0.00000   0.00000  -0.00000   0.00000
  23        3PY        -0.00011  -0.00000  -0.00000   0.00005   0.00000
  24        3PZ        -0.00000  -0.00000   0.00000  -0.00002   0.00000
  25 3   H  1S          0.00353  -0.00000  -0.00000   0.00000  -0.00092
  26        2S          0.00182  -0.00000   0.00000   0.00000  -0.00635
  27        3PX        -0.00000  -0.00000  -0.00000  -0.00000  -0.00000
  28        3PY        -0.00000  -0.00000  -0.00000  -0.00013   0.00007
  29        3PZ         0.00008  -0.00000  -0.00000   0.00000   0.00004
  30 4   H  1S         -0.00119   0.00000  -0.00000   0.00220  -0.00093
  31        2S         -0.00082   0.00000   0.00000   0.00022  -0.00626
  32        3PX         0.00000  -0.00000   0.00000  -0.00000   0.00000
  33        3PY        -0.00011   0.00000  -0.00000   0.00005   0.00012
  34        3PZ        -0.00000   0.00000  -0.00000  -0.00002  -0.00000
  35 5   H  1S          0.00000   0.00000   0.00000  -0.00000   0.00000
  36        2S          0.00001   0.00000   0.00000  -0.00000   0.00000
  37        3PX         0.00000  -0.00000  -0.00000  -0.00000  -0.00000
  38        3PY         0.00000  -0.00000  -0.00000  -0.00000   0.00000
  39        3PZ         0.00000  -0.00000   0.00000   0.00000  -0.00000
                          21        22        23        24        25
  21        2S          0.04359
  22        3PX         0.00000   0.00087
  23        3PY         0.00000   0.00000   0.00076
  24        3PZ         0.00000   0.00000   0.00000   0.00043
  25 3   H  1S         -0.00623   0.00000  -0.00002   0.00013   0.21041
  26        2S         -0.00911   0.00000  -0.00014   0.00018   0.05967
  27        3PX        -0.00000   0.00000   0.00000  -0.00000   0.00000
  28        3PY         0.00016   0.00000   0.00000   0.00000   0.00000
  29        3PZ        -0.00011  -0.00000   0.00000   0.00001   0.00000
  30 4   H  1S         -0.00626   0.00000   0.00012  -0.00000  -0.00092
  31        2S         -0.00897   0.00000   0.00004  -0.00000  -0.00623
  32        3PX         0.00000   0.00000  -0.00000   0.00000   0.00000
  33        3PY         0.00004  -0.00000   0.00002  -0.00000  -0.00002
  34        3PZ        -0.00000   0.00000   0.00000   0.00000   0.00013
  35 5   H  1S         -0.00000  -0.00000  -0.00000  -0.00000  -0.00000
  36        2S          0.00000  -0.00000  -0.00000  -0.00000   0.00001
  37        3PX        -0.00000   0.00000   0.00000  -0.00000   0.00000
  38        3PY         0.00000   0.00000   0.00000   0.00000   0.00000
  39        3PZ        -0.00000   0.00000  -0.00000   0.00000   0.00000
                          26        27        28        29        30
  26        2S          0.04576
  27        3PX         0.00000   0.00087
  28        3PY         0.00000   0.00000   0.00027
  29        3PZ         0.00000   0.00000   0.00000   0.00093
  30 4   H  1S         -0.00635   0.00000   0.00007   0.00004   0.21107
  31        2S         -0.00911   0.00000   0.00016  -0.00011   0.05868
  32        3PX         0.00000   0.00000   0.00000   0.00000   0.00000
  33        3PY        -0.00014   0.00000   0.00000   0.00000   0.00000
  34        3PZ         0.00018   0.00000   0.00000   0.00001   0.00000
  35 5   H  1S          0.00037   0.00000   0.00000   0.00000   0.00000
  36        2S          0.00252   0.00000   0.00000   0.00008   0.00000
  37        3PX         0.00000   0.00000   0.00000  -0.00000   0.00000
  38        3PY         0.00000   0.00000   0.00000  -0.00000   0.00000
  39        3PZ         0.00001  -0.00000  -0.00000  -0.00000  -0.00000
                          31        32        33        34        35
  31        2S          0.04359
  32        3PX         0.00000   0.00087
  33        3PY         0.00000   0.00000   0.00076
  34        3PZ         0.00000   0.00000   0.00000   0.00043
  35 5   H  1S         -0.00000   0.00000  -0.00000  -0.00000   0.18659
  36        2S          0.00000   0.00000  -0.00000  -0.00000   0.18467
  37        3PX         0.00000   0.00000   0.00000   0.00000   0.00000
  38        3PY         0.00000   0.00000   0.00000   0.00000   0.00000
  39        3PZ        -0.00000   0.00000  -0.00000   0.00000   0.00000
                          36        37        38        39
  36        2S          0.42182
  37        3PX         0.00000   0.00000
  38        3PY         0.00000   0.00000   0.00000
  39        3PZ         0.00000   0.00000   0.00000   0.00000
     Gross orbital populations:
                         Total     Alpha     Beta      Spin
   1 1   N  1S          1.99146   0.99573   0.99573   0.00000
   2        2S          0.75238   0.37645   0.37593   0.00052
   3        2PX         1.02553   0.51306   0.51247   0.00059
   4        2PY         0.77566   0.38791   0.38775   0.00016
   5        2PZ         0.77657   0.39012   0.38645   0.00368
   6        3S          0.80330   0.40216   0.40114   0.00101
   7        3PX         0.76114   0.38067   0.38047   0.00020
   8        3PY         0.39980   0.19982   0.19998  -0.00016
   9        3PZ         0.39766   0.20047   0.19719   0.00327
  10        4S          0.02258   0.01316   0.00943   0.00373
  11        4PX         0.18326   0.09123   0.09203  -0.00079
  12        4PY         0.02845   0.01412   0.01433  -0.00021
  13        4PZ         0.03347   0.01898   0.01449   0.00449
  14        5XX        -0.02410  -0.01210  -0.01200  -0.00011
  15        5YY        -0.00355  -0.00183  -0.00173  -0.00010
  16        5ZZ        -0.00343  -0.00167  -0.00176   0.00009
  17        5XY         0.00000   0.00000   0.00000   0.00000
  18        5XZ         0.00000   0.00000   0.00000  -0.00000
  19        5YZ         0.00526   0.00262   0.00264  -0.00002
  20 2   H  1S          0.51429   0.25722   0.25708   0.00014
  21        2S          0.15254   0.07633   0.07621   0.00011
  22        3PX         0.01004   0.00502   0.00502  -0.00000
  23        3PY         0.01100   0.00550   0.00550  -0.00000
  24        3PZ         0.00617   0.00309   0.00308   0.00001
  25 3   H  1S          0.51330   0.25642   0.25688  -0.00046
  26        2S          0.15835   0.07770   0.08066  -0.00296
  27        3PX         0.01000   0.00500   0.00500  -0.00000
  28        3PY         0.00374   0.00187   0.00187   0.00000
  29        3PZ         0.01359   0.00690   0.00669   0.00020
  30 4   H  1S          0.51429   0.25722   0.25708   0.00014
  31        2S          0.15254   0.07633   0.07621   0.00011
  32        3PX         0.01004   0.00502   0.00502  -0.00000
  33        3PY         0.01100   0.00550   0.00550  -0.00000
  34        3PZ         0.00617   0.00309   0.00308   0.00001
  35 5   H  1S          0.37303   0.37297   0.00006   0.37291
  36        2S          0.61445   0.61393   0.00051   0.61342
  37        3PX         0.00000   0.00000   0.00000   0.00000
  38        3PY         0.00000   0.00000   0.00000   0.00000
  39        3PZ         0.00002   0.00001   0.00000   0.00001
          Condensed to atoms (all electrons):
               1          2          3          4          5
     1  N    6.827110   0.364313   0.362963   0.364313   0.006736
     2  H    0.364313   0.374083  -0.022280  -0.022074   0.000002
     3  H    0.362963  -0.022280   0.377592  -0.022280   0.002994
     4  H    0.364313  -0.022074  -0.022280   0.374083   0.000002
     5  H    0.006736   0.000002   0.002994   0.000002   0.977756
          Atomic-Atomic Spin Densities.
               1          2          3          4          5
     1  N    0.011310  -0.000312  -0.000678  -0.000312   0.006360
     2  H   -0.000312   0.000199   0.000439  -0.000080   0.000010
     3  H   -0.000678   0.000439  -0.005816   0.000439   0.002394
     4  H   -0.000312  -0.000080   0.000439   0.000199   0.000010
     5  H    0.006360   0.000010   0.002394   0.000010   0.977563
 Mulliken charges and spin densities:
               1          2
     1  N   -0.925435   0.016369
     2  H    0.305956   0.000257
     3  H    0.301012  -0.003222
     4  H    0.305956   0.000257
     5  H    0.012510   0.986339
 Sum of Mulliken charges =  -0.00000   1.00000
 Mulliken charges and spin densities with hydrogens summed into heavy atoms:
               1          2
     1  N   -0.000000   1.000000
 Electronic spatial extent (au):  <R**2>=             68.7254
 Charge=             -0.0000 electrons
 Dipole moment (field-independent basis, Debye):
    X=             -0.0000    Y=              0.0000    Z=             -0.1032  Tot=              0.1032
 Quadrupole moment (field-independent basis, Debye-Ang):
   XX=            -11.7564   YY=             -7.1262   ZZ=             -6.6145
   XY=              0.0000   XZ=             -0.0000   YZ=             -0.0000
 Traceless Quadrupole moment (field-independent basis, Debye-Ang):
   XX=             -3.2574   YY=              1.3729   ZZ=              1.8845
   XY=              0.0000   XZ=             -0.0000   YZ=             -0.0000
 Octapole moment (field-independent basis, Debye-Ang**2):
  XXX=              0.0000  YYY=             -0.0000  ZZZ=              3.2490  XYY=             -0.0000
  XXY=              0.0000  XXZ=              0.7345  XZZ=             -0.0000  YZZ=             -0.0000
  YYZ=              3.4618  XYZ=              0.0000
 Hexadecapole moment (field-independent basis, Debye-Ang**3):
 XXXX=            -16.7890 YYYY=            -11.6378 ZZZZ=            -84.6789 XXXY=             -0.0000
 XXXZ=              0.0000 YYYX=              0.0000 YYYZ=             -0.0000 ZZZX=              0.0000
 ZZZY=             -0.0000 XXYY=             -5.1520 XXZZ=            -18.7858 YYZZ=            -16.2532
 XXYZ=             -0.0000 YYXZ=             -0.0000 ZZXY=              0.0000
 N-N= 1.355495636316D+01 E-N=-1.597904456094D+02  KE= 5.646702701008D+01
 Symmetry A1   KE= 5.081023193859D+01
 Symmetry A2   KE= 3.887253149626D-31
 Symmetry B1   KE= 3.003985366222D+00
 Symmetry B2   KE= 2.652809705271D+00
 Orbital energies and kinetic energies (alpha):
                                 1                 2
   1         (A1)--O         -14.313577         21.956851
   2         (A1)--O          -0.841346          1.865577
   3         (A1)--O          -0.485944          1.319833
   4         (B2)--O          -0.485440          1.326612
   5         (A1)--O          -0.326815          0.525146
   6         (B1)--O          -0.241387          1.502887
   7         (A1)--V           0.032640          0.618069
   8         (B2)--V           0.084398          0.374796
   9         (A1)--V           0.098600          0.397316
  10         (B1)--V           0.117575          0.496375
  11         (A1)--V           0.211218          0.976355
  12         (B2)--V           0.212920          0.930509
  13         (A1)--V           0.217980          0.952025
  14         (A1)--V           0.730443          1.950684
  15         (B2)--V           0.821305          2.445003
  16         (A1)--V           0.850351          2.264947
  17         (B1)--V           0.882859          2.873383
  18         (B2)--V           0.956232          2.364010
  19         (A1)--V           0.959368          2.413749
  20         (A1)--V           0.976683          2.250561
  21         (A1)--V           1.099091          2.212033
  22         (A2)--V           1.466872          2.472270
  23         (B1)--V           1.466904          2.472171
  24         (B1)--V           1.939241          2.750784
  25         (B2)--V           1.939559          2.751434
  26         (A1)--V           1.970547          2.817149
  27         (B2)--V           2.019139          2.856203
  28         (B2)--V           2.102103          3.188449
  29         (A1)--V           2.109299          3.197078
  30         (A1)--V           2.133692          3.285154
  31         (B1)--V           2.375856          3.192843
  32         (A2)--V           2.673588          3.623220
  33         (B1)--V           2.673610          3.622945
  34         (B2)--V           2.886289          4.067975
  35         (A1)--V           2.893179          4.056408
  36         (A1)--V           3.340826          6.374404
  37         (B2)--V           3.478230          5.474328
  38         (A1)--V           3.487372          5.477609
  39         (A1)--V           4.046869          8.241043
 Orbital energies and kinetic energies (beta):
                                 1                 2
   1         (A1)--O         -14.313401         21.957026
   2         (A1)--O          -0.840917          1.864106
   3         (B2)--O          -0.485303          1.326198
   4         (A1)--O          -0.485209          1.321694
   5         (B1)--O          -0.241189          1.501098
   6         (A1)--V          -0.060872          0.361559
   7         (A1)--V           0.037262          0.596053
   8         (B2)--V           0.083395          0.371839
   9         (A1)--V           0.109134          0.387030
  10         (B1)--V           0.116819          0.497220
  11         (B2)--V           0.212494          0.932739
  12         (A1)--V           0.213483          1.012120
  13         (A1)--V           0.217647          0.950213
  14         (B2)--V           0.821303          2.444956
  15         (A1)--V           0.830681          2.439803
  16         (B1)--V           0.882923          2.874344
  17         (A1)--V           0.935927          2.147574
  18         (B2)--V           0.956262          2.365109
  19         (A1)--V           0.976161          2.209543
  20         (A1)--V           0.992011          2.247710
  21         (A1)--V           1.118560          2.212721
  22         (A2)--V           1.466970          2.472253
  23         (B1)--V           1.467200          2.472099
  24         (B2)--V           2.019129          2.856203
  25         (B2)--V           2.101688          3.186114
  26         (A1)--V           2.105474          3.181877
  27         (A1)--V           2.132745          3.283003
  28         (B1)--V           2.191371          2.750841
  29         (B2)--V           2.192204          2.753681
  30         (A1)--V           2.214111          2.835136
  31         (B1)--V           2.375848          3.192769
  32         (B1)--V           2.673615          3.623017
  33         (A2)--V           2.673728          3.623237
  34         (B2)--V           2.886288          4.068184
  35         (A1)--V           2.894053          4.054180
  36         (A1)--V           3.341267          6.371124
  37         (B2)--V           3.478355          5.474297
  38         (A1)--V           3.487962          5.477459
  39         (A1)--V           4.047279          8.242059
 Total kinetic energy from orbitals= 5.646702701008D+01
                          Isotropic Fermi Contact Couplings
        Atom                 a.u.       MegaHertz       Gauss      10(-4) cm-1
     1  N(14)              0.00737       2.38281       0.85025       0.79482
     2  H(1)               0.00013       0.57731       0.20600       0.19257
     3  H(1)              -0.00020      -0.87590      -0.31254      -0.29217
     4  H(1)               0.00013       0.57731       0.20600       0.19257
     5  H(1)               0.30042    1342.85753     479.16494     447.92906
 --------------------------------------------------------
       Center         ----  Spin Dipole Couplings  ----
                      3XX-RR        3YY-RR        3ZZ-RR
 --------------------------------------------------------
     1   Atom       -0.008362     -0.010963      0.019325
     2   Atom       -0.002835     -0.001203      0.004038
     3   Atom       -0.011793     -0.011841      0.023634
     4   Atom       -0.002835     -0.001203      0.004038
     5   Atom       -0.000369     -0.000369      0.000738
 --------------------------------------------------------
                        XY            XZ            YZ
 --------------------------------------------------------
     1   Atom        0.000000     -0.000000      0.000000
     2   Atom       -0.000000     -0.000000      0.001862
     3   Atom        0.000000      0.000000      0.000000
     4   Atom        0.000000     -0.000000     -0.001862
     5   Atom        0.000000     -0.000000      0.000000
 --------------------------------------------------------


 ---------------------------------------------------------------------------------
              Anisotropic Spin Dipole Couplings in Principal Axis System
 ---------------------------------------------------------------------------------

       Atom             a.u.   MegaHertz   Gauss  10(-4) cm-1        Axes

              Baa    -0.0110    -0.423    -0.151    -0.141 -0.0000  1.0000 -0.0000
     1 N(14)  Bbb    -0.0084    -0.322    -0.115    -0.108  1.0000  0.0000  0.0000
              Bcc     0.0193     0.745     0.266     0.249 -0.0000  0.0000  1.0000
 
              Baa    -0.0028    -1.513    -0.540    -0.505  1.0000  0.0000  0.0000
     2 H(1)   Bbb    -0.0018    -0.959    -0.342    -0.320 -0.0000  0.9527 -0.3040
              Bcc     0.0046     2.472     0.882     0.824 -0.0000  0.3040  0.9527
 
              Baa    -0.0118    -6.318    -2.254    -2.107  0.0000  1.0000 -0.0000
     3 H(1)   Bbb    -0.0118    -6.292    -2.245    -2.099  1.0000 -0.0000 -0.0000
              Bcc     0.0236    12.610     4.500     4.206  0.0000  0.0000  1.0000
 
              Baa    -0.0028    -1.513    -0.540    -0.505  1.0000 -0.0000  0.0000
     4 H(1)   Bbb    -0.0018    -0.959    -0.342    -0.320  0.0000  0.9527  0.3040
              Bcc     0.0046     2.472     0.882     0.824 -0.0000 -0.3040  0.9527
 
              Baa    -0.0004    -0.197    -0.070    -0.066  1.0000 -0.0000  0.0000
     5 H(1)   Bbb    -0.0004    -0.197    -0.070    -0.066  0.0000  1.0000 -0.0000
              Bcc     0.0007     0.394     0.140     0.131 -0.0000  0.0000  1.0000
 

 ---------------------------------------------------------------------------------

 No NMR shielding tensors so no spin-rotation constants.
 Leave Link  601 at Sat Sep 14 00:53:24 2024, MaxMem=   268435456 cpu:         2.4
 (Enter /g100_work/pMI24_ChiCa/g09d1/g09d01/d01/build-node-6-2-59348/src/main/l9999.exe)
 1\1\GINC-R500N001\POpt\UB3LYP\6-31+G(d,p)\H4N1(2)\ECABIATI\14-Sep-2024
 \1\\#p B3LYP/6-31+g(d,p) opt=(Z-matrix,maxcycle=50,maxstep=35) tempera
 ture=300 pop=full gfinput\\ch4+h\\0,2\N\H,1,hn2\H,1,hn3,2,hnh3\H,1,hn4
 ,3,hnh4,2,dih4,0\X,3,xxh5,1,xxhn5,4,dih5,0\H,3,hh6,5,hhxx6,1,dih6,0\\h
 n2=1.0013428\hn3=1.00180078\hnh3=120.00773441\hn4=1.0013428\hnh4=120.0
 0773441\dih4=180.\xxh5=1.02151813\xxhn5=76.92255793\dih5=77.36494883\h
 h6=2.46528324\hhxx6=103.07744207\dih6=180.\\Version=EM64L-G09RevD.01\S
 tate=2-A1\HF=-57.0614233\S2=0.750027\S2-1=0.\S2A=0.75\RMSD=3.897e-09\R
 MSF=2.283e-08\Dipole=0.0351607,0.,-0.0203064\Quadrupole=1.305929,-2.42
 17652,1.1158361,0.,-0.164728,0.\PG=C02V [C2(H1H1N1),SGV(H2)]\\@


 NOTHING PUZZLES ME MORE THAN TIME AND SPACE; AND YET NOTHING TROUBLES ME LESS
                                                          -- CHARLES LAMB (1810)
 Job cpu time:       0 days  0 hours  7 minutes 48.1 seconds.
 File lengths (MBytes):  RWF=      5 Int=      0 D2E=      0 Chk=      1 Scr=      1
 Normal termination of Gaussian 09 at Sat Sep 14 00:53:24 2024.
