 Entering Gaussian System, Link 0=/g100_work/pMI24_ChiCa/g09d1/g09d01/d01/build-node-6-2-59348/src/main/g09
 Input=geom.com
 Output=geom.log
 Initial command:
 /g100_work/pMI24_ChiCa/g09d1/g09d01/d01/build-node-6-2-59348/src/main/l1.exe "/g100_scratch/userexternal/ecabiati/g16_14408021/Gau-2310.inp" -scrdir="/g100_scratch/userexternal/ecabiati/g16_14408021/"
 Entering Link 1 = /g100_work/pMI24_ChiCa/g09d1/g09d01/d01/build-node-6-2-59348/src/main/l1.exe PID=      2311.
  
 Copyright (c) 1988,1990,1992,1993,1995,1998,2003,2009,2013,
            Gaussian, Inc.  All Rights Reserved.
  
 This is part of the Gaussian(R) 09 program.  It is based on
 the Gaussian(R) 03 system (copyright 2003, Gaussian, Inc.),
 the Gaussian(R) 98 system (copyright 1998, Gaussian, Inc.),
 the Gaussian(R) 94 system (copyright 1995, Gaussian, Inc.),
 the Gaussian 92(TM) system (copyright 1992, Gaussian, Inc.),
 the Gaussian 90(TM) system (copyright 1990, Gaussian, Inc.),
 the Gaussian 88(TM) system (copyright 1988, Gaussian, Inc.),
 the Gaussian 86(TM) system (copyright 1986, Carnegie Mellon
 University), and the Gaussian 82(TM) system (copyright 1983,
 Carnegie Mellon University). Gaussian is a federally registered
 trademark of Gaussian, Inc.
  
 This software contains proprietary and confidential information,
 including trade secrets, belonging to Gaussian, Inc.
  
 This software is provided under written license and may be
 used, copied, transmitted, or stored only in accord with that
 written license.
  
 The following legend is applicable only to US Government
 contracts under FAR:
  
                    RESTRICTED RIGHTS LEGEND
  
 Use, reproduction and disclosure by the US Government is
 subject to restrictions as set forth in subparagraphs (a)
 and (c) of the Commercial Computer Software - Restricted
 Rights clause in FAR 52.227-19.
  
 Gaussian, Inc.
 340 Quinnipiac St., Bldg. 40, Wallingford CT 06492
  
  
 ---------------------------------------------------------------
 Warning -- This program may not be used in any manner that
 competes with the business of Gaussian, Inc. or will provide
 assistance to any competitor of Gaussian, Inc.  The licensee
 of this program is prohibited from giving any competitor of
 Gaussian, Inc. access to this program.  By using this program,
 the user acknowledges that Gaussian, Inc. is engaged in the
 business of creating and licensing software in the field of
 computational chemistry and represents and warrants to the
 licensee that it is not a competitor of Gaussian, Inc. and that
 it will not use this program in any manner prohibited above.
 ---------------------------------------------------------------
  

 Cite this work as:
 Gaussian 09, Revision D.01,
 M. J. Frisch, G. W. Trucks, H. B. Schlegel, G. E. Scuseria, 
 M. A. Robb, J. R. Cheeseman, G. Scalmani, V. Barone, B. Mennucci, 
 G. A. Petersson, H. Nakatsuji, M. Caricato, X. Li, H. P. Hratchian, 
 A. F. Izmaylov, J. Bloino, G. Zheng, J. L. Sonnenberg, M. Hada, 
 M. Ehara, K. Toyota, R. Fukuda, J. Hasegawa, M. Ishida, T. Nakajima, 
 Y. Honda, O. Kitao, H. Nakai, T. Vreven, J. A. Montgomery, Jr., 
 J. E. Peralta, F. Ogliaro, M. Bearpark, J. J. Heyd, E. Brothers, 
 K. N. Kudin, V. N. Staroverov, T. Keith, R. Kobayashi, J. Normand, 
 K. Raghavachari, A. Rendell, J. C. Burant, S. S. Iyengar, J. Tomasi, 
 M. Cossi, N. Rega, J. M. Millam, M. Klene, J. E. Knox, J. B. Cross, 
 V. Bakken, C. Adamo, J. Jaramillo, R. Gomperts, R. E. Stratmann, 
 O. Yazyev, A. J. Austin, R. Cammi, C. Pomelli, J. W. Ochterski, 
 R. L. Martin, K. Morokuma, V. G. Zakrzewski, G. A. Voth, 
 P. Salvador, J. J. Dannenberg, S. Dapprich, A. D. Daniels, 
 O. Farkas, J. B. Foresman, J. V. Ortiz, J. Cioslowski, 
 and D. J. Fox, Gaussian, Inc., Wallingford CT, 2013.
 
 ******************************************
 Gaussian 09:  EM64L-G09RevD.01 24-Apr-2013
                15-Sep-2024 
 ******************************************
 %nproc=24
 Will use up to   24 processors via shared memory.
 %mem=2Gb
 %chk=nh3+h.chk
 ----------------------------------------------------------------------
 #p B3LYP/6-31+g(d,p) opt=(Z-matrix,maxcycle=50,maxstep=35) temperature
 =300 pop=full gfinput
 ----------------------------------------------------------------------
 1/6=50,8=35,10=7,14=-1,18=40,26=3,38=1,112=300000/1,3;
 2/12=2,17=6,18=5,29=3,40=1/2;
 3/5=1,6=6,7=111,11=2,16=1,24=10,25=1,30=1,71=1,74=-5/1,2,3;
 4//1;
 5/5=2,38=5/2;
 6/7=3,28=1/1;
 7/29=1/1,2,3,16;
 1/6=50,8=35,10=7,14=-1,18=40,26=3/3(2);
 2/29=3/2;
 99//99;
 2/29=3/2;
 3/5=1,6=6,7=111,11=2,16=1,25=1,30=1,71=1,74=-5/1,2,3;
 4/5=5,16=3,69=1/1;
 5/5=2,38=5/2;
 7//1,2,3,16;
 1/6=50,8=35,14=-1,18=40,26=3/3(-5);
 2/29=3/2;
 6/7=3,19=2,28=1/1;
 99/9=1/99;
 Leave Link    1 at Sun Sep 15 21:13:14 2024, MaxMem=   268435456 cpu:         0.2
 (Enter /g100_work/pMI24_ChiCa/g09d1/g09d01/d01/build-node-6-2-59348/src/main/l101.exe)
 -----
 nh3+h
 -----
 Symbolic Z-matrix:
 Charge =  0 Multiplicity = 2
 n
 h                    1    hn2
 h                    1    hn3      2    hnh3
 h                    1    hn4      3    hnh4     2    dih4     0
 xx                   3    xxh5     1    xxhn5    4    dih5     0
 h                    3    hh6      5    hhxx6    1    dih6     0
       Variables:
  hn2                   1.03                     
  hn3                   1.03                     
  hnh3                109.471                    
  hn4                   1.03                     
  hnh4                109.471                    
  dih4                120.                       
  xxh5                  1.      -1        0.     
  xxhn5                90.      -1        0.     
  dih5                 90.      -1        0.     
  hh6                   1.64                     
  hhxx6                90.                       
  dih6                180.                       
 
     2 tetrahedral angles replaced.
 NAtoms=      5 NQM=        5 NQMF=       0 NMMI=      0 NMMIF=      0
                NMic=       0 NMicF=      0.
    2 tetrahedral angles replaced.
                    Isotopes and Nuclear Properties:
 (Nuclear quadrupole moments (NQMom) in fm**2, nuclear magnetic moments (NMagM)
  in nuclear magnetons)

  Atom         1           2           3           4           5
 IAtWgt=          14           1           1           1           1
 AtmWgt=  14.0030740   1.0078250   1.0078250   1.0078250   1.0078250
 NucSpn=           2           1           1           1           1
 AtZEff=   0.0000000   0.0000000   0.0000000   0.0000000   0.0000000
 NQMom=    2.0440000   0.0000000   0.0000000   0.0000000   0.0000000
 NMagM=    0.4037610   2.7928460   2.7928460   2.7928460   2.7928460
 AtZNuc=   7.0000000   1.0000000   1.0000000   1.0000000   1.0000000
 Leave Link  101 at Sun Sep 15 21:13:14 2024, MaxMem=   268435456 cpu:         0.2
 (Enter /g100_work/pMI24_ChiCa/g09d1/g09d01/d01/build-node-6-2-59348/src/main/l103.exe)

 GradGradGradGradGradGradGradGradGradGradGradGradGradGradGradGradGradGrad
 Berny optimization.
 Initialization pass.
                       ----------------------------
                       !    Initial Parameters    !
                       ! (Angstroms and Degrees)  !
 ----------------------                            ----------------------
 !      Name          Value   Derivative information (Atomic Units)     !
 ------------------------------------------------------------------------
 !       hn2         1.03     estimate D2E/DX2                          !
 !       hn3         1.03     estimate D2E/DX2                          !
 !      hnh3       109.4712   estimate D2E/DX2                          !
 !       hn4         1.03     estimate D2E/DX2                          !
 !      hnh4       109.4712   estimate D2E/DX2                          !
 !      dih4       120.0      estimate D2E/DX2                          !
 !      xxh5         1.0      Frozen                                    !
 !      xxhn5       90.0      Frozen                                    !
 !      dih5        90.0      Frozen                                    !
 !       hh6         1.64     estimate D2E/DX2                          !
 !      hhxx6       90.0      estimate D2E/DX2                          !
 !      dih6       180.0      estimate D2E/DX2                          !
 ------------------------------------------------------------------------
 Trust Radius=3.50D-01 FncErr=1.00D-07 GrdErr=1.00D-06
 Number of steps in this run=     50 maximum allowed number of steps=    100.
 GradGradGradGradGradGradGradGradGradGradGradGradGradGradGradGradGradGrad

 Leave Link  103 at Sun Sep 15 21:13:14 2024, MaxMem=   268435456 cpu:         0.1
 (Enter /g100_work/pMI24_ChiCa/g09d1/g09d01/d01/build-node-6-2-59348/src/main/l202.exe)
 ---------------------------------------------------------------------------------------------------
                            Z-MATRIX (ANGSTROMS AND DEGREES)
   CD    Cent   Atom    N1       Length/X        N2       Alpha/Y        N3        Beta/Z          J
 ---------------------------------------------------------------------------------------------------
      1      1  N 
      2      2  H        1   1.030000(     1)
      3      3  H        1   1.030000(     2)      2  109.471(     6)
      4      4  H        1   1.030000(     3)      3  109.471(     7)      2  120.000(    10)      0
      5         X        3   1.000000(     4)      1   90.000(     8)      4   90.000(    11)      0
      6      5  H        3   1.640000(     5)      5   90.000(     9)      1  180.000(    12)      0
 ---------------------------------------------------------------------------------------------------
                         Z-Matrix orientation:                         
 ---------------------------------------------------------------------
 Center     Atomic      Atomic             Coordinates (Angstroms)
 Number     Number       Type             X           Y           Z
 ---------------------------------------------------------------------
      1          7           0        0.000000    0.000000    0.000000
      2          1           0        0.000000    0.000000    1.030000
      3          1           0        0.971093    0.000000   -0.343333
      4          1           0       -0.485547    0.840991   -0.343333
      5         -1           0        1.259768    0.500000    0.473163
      6          1           0        2.517300    0.000000   -0.890000
 ---------------------------------------------------------------------
                    Distance matrix (angstroms):
                    1          2          3          4          5
     1  N    0.000000
     2  H    1.030000   0.000000
     3  H    1.030000   1.681983   0.000000
     4  H    1.030000   1.681983   1.681983   0.000000
     5  X    1.435584   1.465293   1.000000   1.956800   0.000000
     6  H    2.670000   3.165944   1.640000   3.165944   1.920833
                    6
     6  H    0.000000
 Stoichiometry    H4N(2)
 Framework group  CS[SG(H2N),X(H2)]
 Deg. of freedom     6
 Full point group                 CS      NOp   2
 Largest Abelian subgroup         CS      NOp   2
 Largest concise Abelian subgroup CS      NOp   2
                         Standard orientation:                         
 ---------------------------------------------------------------------
 Center     Atomic      Atomic             Coordinates (Angstroms)
 Number     Number       Type             X           Y           Z
 ---------------------------------------------------------------------
      1          7           0       -0.000000    0.287813   -0.000000
      2          1           0        0.567452    0.465664    0.840991
      3          1           0       -0.315933   -0.692537    0.000000
      4          1           0        0.567452    0.465664   -0.840991
      5          1           0       -0.818972   -2.253483    0.000000
 ---------------------------------------------------------------------
 Rotational constants (GHZ):    278.4996514     60.1486189     53.5431320
 Leave Link  202 at Sun Sep 15 21:13:14 2024, MaxMem=   268435456 cpu:         0.2
 (Enter /g100_work/pMI24_ChiCa/g09d1/g09d01/d01/build-node-6-2-59348/src/main/l301.exe)
 Standard basis: 6-31+G(d,p) (6D, 7F)
 Ernie: Thresh=  0.10000D-02 Tol=  0.10000D-05 Strict=F.
 AO basis set in the form of general basis input (Overlap normalization):
      1 0
 S   6 1.00       0.000000000000
      0.4173511460D+04  0.1834772160D-02
      0.6274579110D+03  0.1399462700D-01
      0.1429020930D+03  0.6858655181D-01
      0.4023432930D+02  0.2322408730D+00
      0.1282021290D+02  0.4690699481D+00
      0.4390437010D+01  0.3604551991D+00
 SP   3 1.00       0.000000000000
      0.1162636186D+02 -0.1149611817D+00  0.6757974388D-01
      0.2716279807D+01 -0.1691174786D+00  0.3239072959D+00
      0.7722183966D+00  0.1145851947D+01  0.7408951398D+00
 SP   1 1.00       0.000000000000
      0.2120314975D+00  0.1000000000D+01  0.1000000000D+01
 SP   1 1.00       0.000000000000
      0.6390000000D-01  0.1000000000D+01  0.1000000000D+01
 D   1 1.00       0.000000000000
      0.8000000000D+00  0.1000000000D+01
 ****
      2 0
 S   3 1.00       0.000000000000
      0.1873113696D+02  0.3349460434D-01
      0.2825394365D+01  0.2347269535D+00
      0.6401216923D+00  0.8137573261D+00
 S   1 1.00       0.000000000000
      0.1612777588D+00  0.1000000000D+01
 P   1 1.00       0.000000000000
      0.1100000000D+01  0.1000000000D+01
 ****
      3 0
 S   3 1.00       0.000000000000
      0.1873113696D+02  0.3349460434D-01
      0.2825394365D+01  0.2347269535D+00
      0.6401216923D+00  0.8137573261D+00
 S   1 1.00       0.000000000000
      0.1612777588D+00  0.1000000000D+01
 P   1 1.00       0.000000000000
      0.1100000000D+01  0.1000000000D+01
 ****
      4 0
 S   3 1.00       0.000000000000
      0.1873113696D+02  0.3349460434D-01
      0.2825394365D+01  0.2347269535D+00
      0.6401216923D+00  0.8137573261D+00
 S   1 1.00       0.000000000000
      0.1612777588D+00  0.1000000000D+01
 P   1 1.00       0.000000000000
      0.1100000000D+01  0.1000000000D+01
 ****
      5 0
 S   3 1.00       0.000000000000
      0.1873113696D+02  0.3349460434D-01
      0.2825394365D+01  0.2347269535D+00
      0.6401216923D+00  0.8137573261D+00
 S   1 1.00       0.000000000000
      0.1612777588D+00  0.1000000000D+01
 P   1 1.00       0.000000000000
      0.1100000000D+01  0.1000000000D+01
 ****

 There are    27 symmetry adapted cartesian basis functions of A'  symmetry.
 There are    12 symmetry adapted cartesian basis functions of A"  symmetry.
 There are    27 symmetry adapted basis functions of A'  symmetry.
 There are    12 symmetry adapted basis functions of A"  symmetry.
    39 basis functions,    60 primitive gaussians,    39 cartesian basis functions
     6 alpha electrons        5 beta electrons
       nuclear repulsion energy        13.7772136392 Hartrees.
 IExCor=  402 DFT=T Ex+Corr=B3LYP ExCW=0 ScaHFX=  0.200000
 ScaDFX=  0.800000  0.720000  1.000000  0.810000 ScalE2=  1.000000  1.000000
 IRadAn=      0 IRanWt=     -1 IRanGd=            0 ICorTp=0 IEmpDi=  4
 NAtoms=    5 NActive=    5 NUniq=    4 SFac= 1.56D+00 NAtFMM=   60 NAOKFM=F Big=F
 Integral buffers will be    131072 words long.
 Raffenetti 2 integral format.
 Two-electron integral symmetry is turned on.
 Leave Link  301 at Sun Sep 15 21:13:14 2024, MaxMem=   268435456 cpu:         0.1
 (Enter /g100_work/pMI24_ChiCa/g09d1/g09d01/d01/build-node-6-2-59348/src/main/l302.exe)
 NPDir=0 NMtPBC=     1 NCelOv=     1 NCel=       1 NClECP=     1 NCelD=      1
         NCelK=      1 NCelE2=     1 NClLst=     1 CellRange=     0.0.
 One-electron integrals computed using PRISM.
 One-electron integral symmetry used in STVInt
 NBasis=    39 RedAO= T EigKep=  1.73D-02  NBF=    27    12
 NBsUse=    39 1.00D-06 EigRej= -1.00D+00 NBFU=    27    12
 Precomputing XC quadrature grid using
 IXCGrd= 4 IRadAn=           0 IRanWt=          -1 IRanGd=           0 AccXCQ= 0.00D+00.
 Generated NRdTot=       0 NPtTot=           0 NUsed=           0 NTot=          32
 NSgBfM=    39    39    39    39    39 MxSgAt=     5 MxSgA2=     5.
 Leave Link  302 at Sun Sep 15 21:13:15 2024, MaxMem=   268435456 cpu:         1.2
 (Enter /g100_work/pMI24_ChiCa/g09d1/g09d01/d01/build-node-6-2-59348/src/main/l303.exe)
 DipDrv:  MaxL=1.
 Leave Link  303 at Sun Sep 15 21:13:15 2024, MaxMem=   268435456 cpu:         0.2
 (Enter /g100_work/pMI24_ChiCa/g09d1/g09d01/d01/build-node-6-2-59348/src/main/l401.exe)
 ExpMin= 6.39D-02 ExpMax= 4.17D+03 ExpMxC= 6.27D+02 IAcc=2 IRadAn=         4 AccDes= 0.00D+00
 Harris functional with IExCor=  402 and IRadAn=       4 diagonalized for initial guess.
 HarFok:  IExCor=  402 AccDes= 0.00D+00 IRadAn=         4 IDoV= 1 UseB2=F ITyADJ=14
 ICtDFT=  3500011 ScaDFX=  1.000000  1.000000  1.000000  1.000000
 FoFCou: FMM=F IPFlag=           0 FMFlag=      100000 FMFlg1=           0
         NFxFlg=           0 DoJE=T BraDBF=F KetDBF=T FulRan=T
         wScrn=  0.000000 ICntrl=     500 IOpCl=  0 I1Cent=   200000004 NGrid=           0
         NMat0=    1 NMatS0=      1 NMatT0=    0 NMatD0=    1 NMtDS0=    0 NMtDT0=    0
 Petite list used in FoFCou.
 Harris En= -57.0491357040763    
 JPrj=0 DoOrth=F DoCkMO=F.
 Initial guess orbital symmetries:
 Alpha Orbitals:
       Occupied  (A') (A') (A') (A") (A') (A')
       Virtual   (A') (A") (A') (A') (A") (A') (A') (A") (A') (A')
                 (A') (A") (A') (A') (A') (A') (A") (A') (A") (A')
                 (A") (A') (A") (A') (A") (A') (A') (A") (A') (A')
                 (A") (A') (A')
 Beta  Orbitals:
       Occupied  (A') (A') (A') (A") (A')
       Virtual   (A') (A') (A") (A') (A') (A") (A') (A') (A") (A')
                 (A') (A') (A") (A') (A') (A') (A') (A") (A') (A")
                 (A') (A") (A') (A") (A') (A") (A') (A') (A") (A')
                 (A') (A") (A') (A')
 The electronic state of the initial guess is 2-A'.
 Initial guess <Sx>= 0.0000 <Sy>= 0.0000 <Sz>= 0.5000 <S**2>= 0.7500 S= 0.5000
 Leave Link  401 at Sun Sep 15 21:13:15 2024, MaxMem=   268435456 cpu:         1.2
 (Enter /g100_work/pMI24_ChiCa/g09d1/g09d01/d01/build-node-6-2-59348/src/main/l502.exe)
 UHF open shell SCF:
 Using DIIS extrapolation, IDIIS=  1040.
 Integral symmetry usage will be decided dynamically.
 Keep R1 and R2 ints in memory in symmetry-blocked form, NReq=1200660.
 IVT=       24409 IEndB=       24409 NGot=   268435456 MDV=   268095349
 LenX=   268095349 LenY=   268093387
 Requested convergence on RMS density matrix=1.00D-08 within 128 cycles.
 Requested convergence on MAX density matrix=1.00D-06.
 Requested convergence on             energy=1.00D-06.
 No special actions if energy rises.
 FoFCou: FMM=F IPFlag=           0 FMFlag=           0 FMFlg1=           0
         NFxFlg=           0 DoJE=F BraDBF=F KetDBF=F FulRan=T
         wScrn=  0.000000 ICntrl=     600 IOpCl=  0 I1Cent=           0 NGrid=           0
         NMat0=    1 NMatS0=    780 NMatT0=    0 NMatD0=    1 NMtDS0=    0 NMtDT0=    0
 Petite list used in FoFCou.
 Integral accuracy reduced to 1.0D-05 until final iterations.

 Cycle   1  Pass 0  IDiag  1:
 E= -56.9787527632766    
 DIIS: error= 5.19D-02 at cycle   1 NSaved=   1.
 NSaved= 1 IEnMin= 1 EnMin= -56.9787527632766     IErMin= 1 ErrMin= 5.19D-02
 ErrMax= 5.19D-02  0.00D+00 EMaxC= 1.00D-01 BMatC= 3.78D-01 BMatP= 3.78D-01
 IDIUse=3 WtCom= 4.81D-01 WtEn= 5.19D-01
 Coeff-Com:  0.100D+01
 Coeff-En:   0.100D+01
 Coeff:      0.100D+01
 Gap=     0.393 Goal=   None    Shift=    0.000
 Gap=    -0.030 Goal=   None    Shift=    0.000
 GapD=   -0.030 DampG=0.250 DampE=0.500 DampFc=0.2500 IDamp=-1.
 Damping current iteration by 2.50D-01
 RMSDP=1.82D-02 MaxDP=2.38D-01              OVMax= 7.11D-01

 Cycle   2  Pass 0  IDiag  1:
 E= -57.0034515363427     Delta-E=       -0.024698773066 Rises=F Damp=T
 DIIS: error= 1.63D-02 at cycle   2 NSaved=   2.
 NSaved= 2 IEnMin= 2 EnMin= -57.0034515363427     IErMin= 2 ErrMin= 1.63D-02
 ErrMax= 1.63D-02  0.00D+00 EMaxC= 1.00D-01 BMatC= 3.21D-02 BMatP= 3.78D-01
 IDIUse=3 WtCom= 8.37D-01 WtEn= 1.63D-01
 Coeff-Com: -0.348D+00 0.135D+01
 Coeff-En:   0.139D+00 0.861D+00
 Coeff:     -0.268D+00 0.127D+01
 Gap=     0.296 Goal=   None    Shift=    0.000
 Gap=     0.032 Goal=   None    Shift=    0.000
 RMSDP=3.11D-03 MaxDP=5.60D-02 DE=-2.47D-02 OVMax= 6.57D-01

 Cycle   3  Pass 0  IDiag  1:
 E= -57.0633754994675     Delta-E=       -0.059923963125 Rises=F Damp=F
 DIIS: error= 7.94D-03 at cycle   3 NSaved=   3.
 NSaved= 3 IEnMin= 3 EnMin= -57.0633754994675     IErMin= 3 ErrMin= 7.94D-03
 ErrMax= 7.94D-03  0.00D+00 EMaxC= 1.00D-01 BMatC= 4.41D-03 BMatP= 3.21D-02
 IDIUse=3 WtCom= 9.21D-01 WtEn= 7.94D-02
 Coeff-Com: -0.168D+00 0.452D+00 0.717D+00
 Coeff-En:   0.000D+00 0.000D+00 0.100D+01
 Coeff:     -0.155D+00 0.416D+00 0.739D+00
 Gap=     0.326 Goal=   None    Shift=    0.000
 Gap=     0.140 Goal=   None    Shift=    0.000
 RMSDP=1.32D-03 MaxDP=1.48D-02 DE=-5.99D-02 OVMax= 2.55D-02

 Cycle   4  Pass 0  IDiag  1:
 E= -57.0651131730268     Delta-E=       -0.001737673559 Rises=F Damp=F
 DIIS: error= 3.08D-03 at cycle   4 NSaved=   4.
 NSaved= 4 IEnMin= 4 EnMin= -57.0651131730268     IErMin= 4 ErrMin= 3.08D-03
 ErrMax= 3.08D-03  0.00D+00 EMaxC= 1.00D-01 BMatC= 6.84D-04 BMatP= 4.41D-03
 IDIUse=3 WtCom= 9.69D-01 WtEn= 3.08D-02
 Coeff-Com: -0.477D-01 0.558D-01-0.126D+00 0.112D+01
 Coeff-En:   0.000D+00 0.000D+00 0.000D+00 0.100D+01
 Coeff:     -0.462D-01 0.541D-01-0.122D+00 0.111D+01
 Gap=     0.296 Goal=   None    Shift=    0.000
 Gap=     0.150 Goal=   None    Shift=    0.000
 RMSDP=5.89D-04 MaxDP=8.59D-03 DE=-1.74D-03 OVMax= 1.51D-02

 Cycle   5  Pass 0  IDiag  1:
 E= -57.0654100906437     Delta-E=       -0.000296917617 Rises=F Damp=F
 DIIS: error= 5.67D-04 at cycle   5 NSaved=   5.
 NSaved= 5 IEnMin= 5 EnMin= -57.0654100906437     IErMin= 5 ErrMin= 5.67D-04
 ErrMax= 5.67D-04  0.00D+00 EMaxC= 1.00D-01 BMatC= 4.82D-05 BMatP= 6.84D-04
 IDIUse=3 WtCom= 9.94D-01 WtEn= 5.67D-03
 Coeff-Com: -0.849D-02 0.132D-01-0.106D+00 0.164D+00 0.937D+00
 Coeff-En:   0.000D+00 0.000D+00 0.000D+00 0.000D+00 0.100D+01
 Coeff:     -0.845D-02 0.132D-01-0.105D+00 0.163D+00 0.937D+00
 Gap=     0.295 Goal=   None    Shift=    0.000
 Gap=     0.154 Goal=   None    Shift=    0.000
 RMSDP=1.73D-04 MaxDP=1.94D-03 DE=-2.97D-04 OVMax= 7.27D-03

 Cycle   6  Pass 0  IDiag  1:
 E= -57.0654364639773     Delta-E=       -0.000026373334 Rises=F Damp=F
 DIIS: error= 3.03D-04 at cycle   6 NSaved=   6.
 NSaved= 6 IEnMin= 6 EnMin= -57.0654364639773     IErMin= 6 ErrMin= 3.03D-04
 ErrMax= 3.03D-04  0.00D+00 EMaxC= 1.00D-01 BMatC= 7.95D-06 BMatP= 4.82D-05
 IDIUse=3 WtCom= 9.97D-01 WtEn= 3.03D-03
 Coeff-Com: -0.210D-02 0.344D-02 0.897D-02-0.891D-01-0.165D+00 0.124D+01
 Coeff-En:   0.000D+00 0.000D+00 0.000D+00 0.000D+00 0.000D+00 0.100D+01
 Coeff:     -0.209D-02 0.343D-02 0.895D-02-0.888D-01-0.164D+00 0.124D+01
 Gap=     0.295 Goal=   None    Shift=    0.000
 Gap=     0.155 Goal=   None    Shift=    0.000
 RMSDP=8.77D-05 MaxDP=9.88D-04 DE=-2.64D-05 OVMax= 3.92D-03

 Cycle   7  Pass 0  IDiag  1:
 E= -57.0654413254334     Delta-E=       -0.000004861456 Rises=F Damp=F
 DIIS: error= 5.11D-05 at cycle   7 NSaved=   7.
 NSaved= 7 IEnMin= 7 EnMin= -57.0654413254334     IErMin= 7 ErrMin= 5.11D-05
 ErrMax= 5.11D-05  0.00D+00 EMaxC= 1.00D-01 BMatC= 2.13D-07 BMatP= 7.95D-06
 IDIUse=1 WtCom= 1.00D+00 WtEn= 0.00D+00
 Coeff-Com: -0.506D-04 0.589D-03-0.540D-04 0.151D-01 0.420D-03-0.339D+00
 Coeff-Com:  0.132D+01
 Coeff:     -0.506D-04 0.589D-03-0.540D-04 0.151D-01 0.420D-03-0.339D+00
 Coeff:      0.132D+01
 Gap=     0.294 Goal=   None    Shift=    0.000
 Gap=     0.155 Goal=   None    Shift=    0.000
 RMSDP=2.02D-05 MaxDP=2.08D-04 DE=-4.86D-06 OVMax= 8.91D-04

 Cycle   8  Pass 0  IDiag  1:
 E= -57.0654415078409     Delta-E=       -0.000000182407 Rises=F Damp=F
 DIIS: error= 5.95D-06 at cycle   8 NSaved=   8.
 NSaved= 8 IEnMin= 8 EnMin= -57.0654415078409     IErMin= 8 ErrMin= 5.95D-06
 ErrMax= 5.95D-06  0.00D+00 EMaxC= 1.00D-01 BMatC= 5.94D-09 BMatP= 2.13D-07
 IDIUse=1 WtCom= 1.00D+00 WtEn= 0.00D+00
 Coeff-Com: -0.521D-04 0.937D-04-0.157D-02 0.599D-02 0.124D-01-0.503D-01
 Coeff-Com: -0.511D-01 0.108D+01
 Coeff:     -0.521D-04 0.937D-04-0.157D-02 0.599D-02 0.124D-01-0.503D-01
 Coeff:     -0.511D-01 0.108D+01
 Gap=     0.294 Goal=   None    Shift=    0.000
 Gap=     0.155 Goal=   None    Shift=    0.000
 RMSDP=2.13D-06 MaxDP=2.99D-05 DE=-1.82D-07 OVMax= 4.46D-05

 Initial convergence to 1.0D-05 achieved.  Increase integral accuracy.
 Cycle   9  Pass 1  IDiag  1:
 E= -57.0654348432309     Delta-E=        0.000006664610 Rises=F Damp=F
 DIIS: error= 7.12D-06 at cycle   1 NSaved=   1.
 NSaved= 1 IEnMin= 1 EnMin= -57.0654348432309     IErMin= 1 ErrMin= 7.12D-06
 ErrMax= 7.12D-06  0.00D+00 EMaxC= 1.00D-01 BMatC= 3.76D-09 BMatP= 3.76D-09
 IDIUse=1 WtCom= 1.00D+00 WtEn= 0.00D+00
 Coeff-Com:  0.100D+01
 Coeff:      0.100D+01
 Gap=     0.294 Goal=   None    Shift=    0.000
 Gap=     0.155 Goal=   None    Shift=    0.000
 RMSDP=2.13D-06 MaxDP=2.99D-05 DE= 6.66D-06 OVMax= 5.26D-05

 Cycle  10  Pass 1  IDiag  1:
 E= -57.0654348460213     Delta-E=       -0.000000002790 Rises=F Damp=F
 DIIS: error= 2.36D-06 at cycle   2 NSaved=   2.
 NSaved= 2 IEnMin= 2 EnMin= -57.0654348460213     IErMin= 2 ErrMin= 2.36D-06
 ErrMax= 2.36D-06  0.00D+00 EMaxC= 1.00D-01 BMatC= 5.54D-10 BMatP= 3.76D-09
 IDIUse=1 WtCom= 1.00D+00 WtEn= 0.00D+00
 Coeff-Com:  0.157D+00 0.843D+00
 Coeff:      0.157D+00 0.843D+00
 Gap=     0.294 Goal=   None    Shift=    0.000
 Gap=     0.155 Goal=   None    Shift=    0.000
 RMSDP=5.43D-07 MaxDP=7.51D-06 DE=-2.79D-09 OVMax= 1.45D-05

 Cycle  11  Pass 1  IDiag  1:
 E= -57.0654348460602     Delta-E=       -0.000000000039 Rises=F Damp=F
 DIIS: error= 2.25D-06 at cycle   3 NSaved=   3.
 NSaved= 3 IEnMin= 3 EnMin= -57.0654348460602     IErMin= 3 ErrMin= 2.25D-06
 ErrMax= 2.25D-06  0.00D+00 EMaxC= 1.00D-01 BMatC= 5.87D-10 BMatP= 5.54D-10
 IDIUse=1 WtCom= 1.00D+00 WtEn= 0.00D+00
 Coeff-Com: -0.516D-01 0.514D+00 0.537D+00
 Coeff:     -0.516D-01 0.514D+00 0.537D+00
 Gap=     0.294 Goal=   None    Shift=    0.000
 Gap=     0.155 Goal=   None    Shift=    0.000
 RMSDP=2.45D-07 MaxDP=3.78D-06 DE=-3.89D-11 OVMax= 4.88D-06

 Cycle  12  Pass 1  IDiag  1:
 E= -57.0654348461908     Delta-E=       -0.000000000131 Rises=F Damp=F
 DIIS: error= 3.49D-07 at cycle   4 NSaved=   4.
 NSaved= 4 IEnMin= 4 EnMin= -57.0654348461908     IErMin= 4 ErrMin= 3.49D-07
 ErrMax= 3.49D-07  0.00D+00 EMaxC= 1.00D-01 BMatC= 1.34D-11 BMatP= 5.54D-10
 IDIUse=1 WtCom= 1.00D+00 WtEn= 0.00D+00
 Coeff-Com: -0.181D-01 0.506D-01 0.141D+00 0.827D+00
 Coeff:     -0.181D-01 0.506D-01 0.141D+00 0.827D+00
 Gap=     0.294 Goal=   None    Shift=    0.000
 Gap=     0.155 Goal=   None    Shift=    0.000
 RMSDP=6.60D-08 MaxDP=8.63D-07 DE=-1.31D-10 OVMax= 1.98D-06

 Cycle  13  Pass 1  IDiag  1:
 E= -57.0654348461964     Delta-E=       -0.000000000006 Rises=F Damp=F
 DIIS: error= 8.22D-08 at cycle   5 NSaved=   5.
 NSaved= 5 IEnMin= 5 EnMin= -57.0654348461964     IErMin= 5 ErrMin= 8.22D-08
 ErrMax= 8.22D-08  0.00D+00 EMaxC= 1.00D-01 BMatC= 1.16D-12 BMatP= 1.34D-11
 IDIUse=1 WtCom= 1.00D+00 WtEn= 0.00D+00
 Coeff-Com:  0.826D-02-0.844D-01-0.102D+00-0.121D+00 0.130D+01
 Coeff:      0.826D-02-0.844D-01-0.102D+00-0.121D+00 0.130D+01
 Gap=     0.294 Goal=   None    Shift=    0.000
 Gap=     0.155 Goal=   None    Shift=    0.000
 RMSDP=4.18D-08 MaxDP=5.79D-07 DE=-5.54D-12 OVMax= 1.43D-06

 Cycle  14  Pass 1  IDiag  1:
 E= -57.0654348461975     Delta-E=       -0.000000000001 Rises=F Damp=F
 DIIS: error= 2.38D-08 at cycle   6 NSaved=   6.
 NSaved= 6 IEnMin= 6 EnMin= -57.0654348461975     IErMin= 6 ErrMin= 2.38D-08
 ErrMax= 2.38D-08  0.00D+00 EMaxC= 1.00D-01 BMatC= 5.52D-14 BMatP= 1.16D-12
 IDIUse=1 WtCom= 1.00D+00 WtEn= 0.00D+00
 Coeff-Com:  0.102D-02-0.570D-02-0.176D-01-0.449D-01 0.839D-01 0.983D+00
 Coeff:      0.102D-02-0.570D-02-0.176D-01-0.449D-01 0.839D-01 0.983D+00
 Gap=     0.294 Goal=   None    Shift=    0.000
 Gap=     0.155 Goal=   None    Shift=    0.000
 RMSDP=6.21D-09 MaxDP=7.91D-08 DE=-1.15D-12 OVMax= 1.59D-07

 SCF Done:  E(UB3LYP) =  -57.0654348462     A.U. after   14 cycles
            NFock= 14  Conv=0.62D-08     -V/T= 2.0111
 <Sx>= 0.0000 <Sy>= 0.0000 <Sz>= 0.5000 <S**2>= 0.7511 S= 0.5006
 <L.S>=  0.00000000000    
 KE= 5.644098470345D+01 PE=-1.601877802330D+02 EE= 3.290414704417D+01
 Annihilation of the first spin contaminant:
 S**2 before annihilation     0.7511,   after     0.7500
 Leave Link  502 at Sun Sep 15 21:13:15 2024, MaxMem=   268435456 cpu:         5.2
 (Enter /g100_work/pMI24_ChiCa/g09d1/g09d01/d01/build-node-6-2-59348/src/main/l601.exe)
 Copying SCF densities to generalized density rwf, IOpCl= 1 IROHF=0.

 **********************************************************************

            Population analysis using the SCF density.

 **********************************************************************

 Orbital symmetries:
 Alpha Orbitals:
       Occupied  (A') (A') (A') (A") (A') (A')
       Virtual   (A') (A") (A') (A') (A") (A') (A') (A') (A") (A')
                 (A') (A") (A') (A') (A') (A") (A') (A') (A") (A')
                 (A") (A') (A") (A') (A") (A') (A') (A") (A') (A')
                 (A") (A') (A')
 Beta  Orbitals:
       Occupied  (A') (A') (A') (A") (A')
       Virtual   (A') (A') (A") (A') (A') (A") (A') (A') (A") (A')
                 (A') (A') (A") (A') (A') (A') (A') (A") (A') (A")
                 (A') (A") (A') (A") (A') (A") (A') (A') (A") (A')
                 (A') (A") (A') (A')
 The electronic state is 2-A'.
 Alpha  occ. eigenvalues --  -14.32912  -0.85345  -0.47978  -0.46831  -0.32777
 Alpha  occ. eigenvalues --   -0.26534
 Alpha virt. eigenvalues --    0.02914   0.08644   0.11469   0.11654   0.18952
 Alpha virt. eigenvalues --    0.21616   0.23430   0.73518   0.82723   0.85432
 Alpha virt. eigenvalues --    0.87982   0.91211   0.94512   1.05659   1.14453
 Alpha virt. eigenvalues --    1.41391   1.41484   1.84456   1.93376   1.93443
 Alpha virt. eigenvalues --    2.05190   2.14930   2.20572   2.28031   2.38903
 Alpha virt. eigenvalues --    2.38963   2.70289   2.93059   2.93713   3.23990
 Alpha virt. eigenvalues --    3.37801   3.40403   3.99912
  Beta  occ. eigenvalues --  -14.32741  -0.84864  -0.46938  -0.46716  -0.26450
  Beta virt. eigenvalues --   -0.10969   0.03498   0.08639   0.11568   0.12176
  Beta virt. eigenvalues --    0.18984   0.22863   0.24352   0.82778   0.83607
  Beta virt. eigenvalues --    0.87645   0.89042   0.91279   0.96988   1.08005
  Beta virt. eigenvalues --    1.15392   1.41632   1.41675   1.85650   2.04489
  Beta virt. eigenvalues --    2.11886   2.12460   2.18764   2.20774   2.37332
  Beta virt. eigenvalues --    2.38906   2.41253   2.70335   2.93085   2.93786
  Beta virt. eigenvalues --    3.24095   3.37883   3.40574   4.00257
     Alpha Molecular Orbital Coefficients:
                           1         2         3         4         5
                           O         O         O         O         O
     Eigenvalues --   -14.32912  -0.85345  -0.47978  -0.46831  -0.32777
   1 1   N  1S          0.99268  -0.20260  -0.00592   0.00000   0.03095
   2        2S          0.03461   0.42308   0.00957   0.00000  -0.06887
   3        2PX         0.00099   0.07301   0.27201   0.00000   0.16499
   4        2PY        -0.00072  -0.05824   0.36824   0.00000   0.11009
   5        2PZ         0.00000   0.00000   0.00000   0.48201   0.00000
   6        3S          0.00437   0.43572   0.03230   0.00000  -0.13581
   7        3PX        -0.00045   0.03504   0.12836   0.00000   0.10639
   8        3PY         0.00024  -0.02974   0.16897   0.00000   0.06807
   9        3PZ         0.00000   0.00000   0.00000   0.23321   0.00000
  10        4S         -0.00021   0.02130   0.00601   0.00000   0.05632
  11        4PX         0.00029   0.00621   0.01170   0.00000   0.02265
  12        4PY        -0.00020  -0.00218   0.01496   0.00000  -0.02483
  13        4PZ         0.00000   0.00000   0.00000   0.02351   0.00000
  14        5XX        -0.00825  -0.01131   0.01468   0.00000   0.00990
  15        5YY        -0.00817  -0.00753  -0.02876   0.00000  -0.00410
  16        5ZZ        -0.00818  -0.00725   0.01071   0.00000   0.00403
  17        5XY         0.00007   0.00379   0.00035   0.00000  -0.00033
  18        5XZ         0.00000   0.00000   0.00000   0.02883   0.00000
  19        5YZ         0.00000   0.00000   0.00000  -0.00428   0.00000
  20 2   H  1S          0.00020   0.14311   0.13636   0.24626   0.04930
  21        2S         -0.00042   0.00558   0.08052   0.15268   0.02818
  22        3PX         0.00007  -0.00897   0.00135  -0.00980   0.00347
  23        3PY         0.00003  -0.00423   0.00738  -0.00377   0.00205
  24        3PZ         0.00011  -0.01534  -0.00890  -0.00336  -0.00200
  25 3   H  1S          0.00019   0.14431  -0.27535   0.00000  -0.04807
  26        2S         -0.00055   0.00295  -0.18927   0.00000  -0.02075
  27        3PX        -0.00005   0.00691   0.00022   0.00000  -0.00128
  28        3PY        -0.00013   0.01604  -0.00769   0.00000  -0.01580
  29        3PZ         0.00000   0.00000   0.00000   0.01240   0.00000
  30 4   H  1S          0.00020   0.14311   0.13636  -0.24626   0.04930
  31        2S         -0.00042   0.00558   0.08052  -0.15268   0.02818
  32        3PX         0.00007  -0.00897   0.00135   0.00980   0.00347
  33        3PY         0.00003  -0.00423   0.00738   0.00377   0.00205
  34        3PZ        -0.00011   0.01534   0.00890  -0.00336   0.00200
  35 5   H  1S          0.00002   0.00947  -0.10473   0.00000   0.41440
  36        2S          0.00005   0.01047  -0.11251   0.00000   0.61549
  37        3PX        -0.00000   0.00080  -0.00193   0.00000   0.00131
  38        3PY         0.00002   0.00240  -0.00635   0.00000   0.00220
  39        3PZ         0.00000   0.00000   0.00000   0.00066   0.00000
                           6         7         8         9        10
                           O         V         V         V         V
     Eigenvalues --    -0.26534   0.02914   0.08644   0.11469   0.11654
   1 1   N  1S          0.05622   0.08774   0.00000  -0.04796   0.02711
   2        2S         -0.13310  -0.16253   0.00000   0.07362  -0.02355
   3        2PX         0.43045  -0.16737   0.00000  -0.16939   0.09709
   4        2PY        -0.36560   0.00815   0.00000   0.01876  -0.15861
   5        2PZ         0.00000   0.00000  -0.24288   0.00000   0.00000
   6        3S         -0.19490  -0.80391   0.00000   0.52832  -0.39060
   7        3PX         0.30983  -0.17898   0.00000  -0.24070   0.18892
   8        3PY        -0.26285  -0.06696   0.00000   0.12342  -0.15354
   9        3PZ         0.00000   0.00000  -0.36585   0.00000   0.00000
  10        4S          0.00768   1.53042   0.00000  -0.49216  -0.39126
  11        4PX         0.11831   0.43555   0.00000   1.22460  -0.13522
  12        4PY        -0.08276  -0.02191   0.00000   0.37663   1.42599
  13        4PZ         0.00000   0.00000   1.24190   0.00000   0.00000
  14        5XX         0.01200   0.02011   0.00000  -0.02449   0.01171
  15        5YY         0.00385   0.02956   0.00000  -0.00672   0.02552
  16        5ZZ        -0.00826   0.02717   0.00000  -0.02523   0.00148
  17        5XY        -0.01889   0.00416   0.00000   0.00710   0.00030
  18        5XZ         0.00000   0.00000  -0.01593   0.00000   0.00000
  19        5YZ         0.00000   0.00000   0.00098   0.00000   0.00000
  20 2   H  1S          0.05627   0.04225  -0.00892  -0.03881  -0.00414
  21        2S          0.01721  -0.06554  -0.12417  -0.32948   0.03584
  22        3PX         0.01154   0.00928   0.00370   0.00302   0.00158
  23        3PY        -0.01257   0.00494   0.00091   0.00295   0.00697
  24        3PZ        -0.00397   0.01741   0.00873  -0.00360  -0.00091
  25 3   H  1S          0.06251   0.03762   0.00000   0.01943   0.06177
  26        2S          0.01782  -0.17180   0.00000   0.37090   0.82821
  27        3PX         0.01697  -0.00750   0.00000   0.00719   0.00187
  28        3PY        -0.00360  -0.01359   0.00000   0.00813   0.00556
  29        3PZ         0.00000   0.00000   0.00374   0.00000   0.00000
  30 4   H  1S          0.05627   0.04225   0.00892  -0.03881  -0.00414
  31        2S          0.01721  -0.06554   0.12417  -0.32948   0.03584
  32        3PX         0.01154   0.00928  -0.00370   0.00302   0.00158
  33        3PY        -0.01257   0.00494  -0.00091   0.00295   0.00697
  34        3PZ         0.00397  -0.01741   0.00873   0.00360   0.00091
  35 5   H  1S         -0.07496  -0.07305   0.00000   0.07124   0.07067
  36        2S         -0.13279  -0.16255   0.00000   0.22136   0.26144
  37        3PX         0.00194   0.00477   0.00000   0.00619  -0.00431
  38        3PY         0.00143   0.00686   0.00000  -0.00744   0.00039
  39        3PZ         0.00000   0.00000   0.00899   0.00000   0.00000
                          11        12        13        14        15
                           V         V         V         V         V
     Eigenvalues --     0.18952   0.21616   0.23430   0.73518   0.82723
   1 1   N  1S          0.00000   0.01086  -0.10577   0.00529   0.00000
   2        2S          0.00000  -0.03054   0.11959  -0.12104   0.00000
   3        2PX         0.00000   0.22619   0.12499  -0.07609   0.00000
   4        2PY         0.00000   0.33432  -0.13421   0.03686   0.00000
   5        2PZ        -0.32782   0.00000   0.00000   0.00000  -0.91634
   6        3S          0.00000  -0.10075   1.96127   0.46195   0.00000
   7        3PX         0.00000   0.67361   0.45605   0.07385   0.00000
   8        3PY         0.00000   0.88634  -0.45301  -0.09819   0.00000
   9        3PZ        -1.00769   0.00000   0.00000   0.00000   1.84302
  10        4S          0.00000   0.48537   2.53549  -0.17341   0.00000
  11        4PX         0.00000   0.31442   0.38116  -0.09989   0.00000
  12        4PY         0.00000   0.12665  -0.12875   0.03285   0.00000
  13        4PZ        -0.82923   0.00000   0.00000   0.00000  -0.46775
  14        5XX         0.00000   0.01277  -0.01992  -0.04167   0.00000
  15        5YY         0.00000   0.01204  -0.02496   0.06281   0.00000
  16        5ZZ         0.00000  -0.01890  -0.04431  -0.05357   0.00000
  17        5XY         0.00000   0.00997  -0.02093   0.06166   0.00000
  18        5XZ         0.01393   0.00000   0.00000   0.00000   0.01859
  19        5YZ         0.01977   0.00000   0.00000   0.00000  -0.00769
  20 2   H  1S          0.16343  -0.09680  -0.13132  -0.01618  -0.15745
  21        2S          1.72121  -1.06989  -1.78239   0.15025  -0.54198
  22        3PX         0.00810   0.00506   0.00236   0.01023   0.05123
  23        3PY         0.00145   0.00948  -0.00340   0.03300   0.01312
  24        3PZ        -0.00625  -0.00521  -0.00457   0.00050   0.09828
  25 3   H  1S          0.00000   0.18030  -0.12629   0.43882   0.00000
  26        2S          0.00000   1.89243  -1.95596  -1.02588   0.00000
  27        3PX         0.00000   0.00454   0.00708  -0.01217   0.00000
  28        3PY         0.00000  -0.00977   0.00263  -0.02710   0.00000
  29        3PZ        -0.01687   0.00000   0.00000   0.00000   0.02640
  30 4   H  1S         -0.16343  -0.09680  -0.13132  -0.01618   0.15745
  31        2S         -1.72121  -1.06989  -1.78239   0.15025   0.54198
  32        3PX        -0.00810   0.00506   0.00236   0.01023  -0.05123
  33        3PY        -0.00145   0.00948  -0.00340   0.03300  -0.01312
  34        3PZ        -0.00625   0.00521   0.00457  -0.00050   0.09828
  35 5   H  1S          0.00000  -0.08125  -0.02959  -1.15673   0.00000
  36        2S          0.00000  -0.52078   0.25316   1.38708   0.00000
  37        3PX         0.00000   0.01342  -0.00238  -0.01818   0.00000
  38        3PY         0.00000   0.03180  -0.02255  -0.04994   0.00000
  39        3PZ        -0.00904   0.00000   0.00000   0.00000  -0.00122
                          16        17        18        19        20
                           V         V         V         V         V
     Eigenvalues --     0.85432   0.87982   0.91211   0.94512   1.05659
   1 1   N  1S         -0.00817   0.01680   0.00000   0.00597   0.05504
   2        2S         -0.14710   0.03458   0.00000  -0.28784  -0.37060
   3        2PX        -0.71621   0.65403   0.00000  -0.15471  -0.04236
   4        2PY        -0.47701  -0.70140   0.00000  -0.45423   0.10251
   5        2PZ         0.00000   0.00000   0.29563   0.00000   0.00000
   6        3S          0.37020  -0.61452   0.00000   0.64241   1.12172
   7        3PX         1.47600  -0.92057   0.00000   0.27006   0.08932
   8        3PY         1.19282   1.30099   0.00000   0.71494  -0.14536
   9        3PZ         0.00000   0.00000  -0.30259   0.00000   0.00000
  10        4S          0.21683  -0.49015   0.00000   0.18324   1.71872
  11        4PX        -0.45739   0.22354   0.00000   0.52395   0.27747
  12        4PY        -0.44939  -0.59014   0.00000   0.33861  -0.36395
  13        4PZ         0.00000   0.00000  -0.77179   0.00000   0.00000
  14        5XX        -0.00193  -0.03019   0.00000  -0.01809  -0.07927
  15        5YY        -0.00319   0.03480   0.00000  -0.29710   0.05207
  16        5ZZ        -0.05932  -0.07014   0.00000   0.18852   0.11108
  17        5XY        -0.00315   0.02819   0.00000  -0.05535   0.20483
  18        5XZ         0.00000   0.00000  -0.28538   0.00000   0.00000
  19        5YZ         0.00000   0.00000  -0.12657   0.00000   0.00000
  20 2   H  1S         -0.19659  -0.09883  -0.79245   0.51724   0.65674
  21        2S         -0.41345   0.54835   1.65083  -1.25704  -1.37494
  22        3PX         0.05555  -0.01593  -0.07916   0.00882   0.01460
  23        3PY         0.02936   0.01744  -0.03071  -0.02734   0.05064
  24        3PZ         0.03607  -0.03786  -0.04222   0.08395   0.07113
  25 3   H  1S          0.21339   0.26687   0.00000  -0.66972   0.82339
  26        2S          0.49816   0.33946   0.00000   1.65169  -1.68617
  27        3PX         0.04556   0.01423   0.00000   0.00867  -0.07146
  28        3PY         0.08884   0.05168   0.00000   0.10118  -0.07703
  29        3PZ         0.00000   0.00000   0.08258   0.00000   0.00000
  30 4   H  1S         -0.19659  -0.09883   0.79245   0.51724   0.65674
  31        2S         -0.41345   0.54835  -1.65083  -1.25704  -1.37494
  32        3PX         0.05555  -0.01593   0.07916   0.00882   0.01460
  33        3PY         0.02936   0.01744   0.03071  -0.02734   0.05064
  34        3PZ        -0.03607   0.03786  -0.04222  -0.08395  -0.07113
  35 5   H  1S          0.24557   0.06264   0.00000  -0.35442   0.38096
  36        2S         -0.50340  -0.19930   0.00000   0.12133  -0.30099
  37        3PX         0.00163   0.00483   0.00000   0.02669   0.00253
  38        3PY         0.01014   0.00275   0.00000   0.04491  -0.03593
  39        3PZ         0.00000   0.00000  -0.02144   0.00000   0.00000
                          21        22        23        24        25
                           V         V         V         V         V
     Eigenvalues --     1.14453   1.41391   1.41484   1.84456   1.93376
   1 1   N  1S         -0.06523   0.00000  -0.00085  -0.05173   0.00000
   2        2S         -1.61677   0.00000  -0.01344  -0.47519   0.00000
   3        2PX         0.09299   0.00000  -0.00086  -0.02356   0.00000
   4        2PY         0.12983   0.00000  -0.00012   0.04096   0.00000
   5        2PZ         0.00000   0.00548   0.00000   0.00000   0.01759
   6        3S          4.07995   0.00000   0.03971   1.29488   0.00000
   7        3PX         0.02941   0.00000  -0.10753   0.45669   0.00000
   8        3PY        -0.53935   0.00000  -0.14891  -0.28624   0.00000
   9        3PZ         0.00000   0.16996   0.00000   0.00000  -0.05811
  10        4S         -0.15980   0.00000  -0.00551  -0.13533   0.00000
  11        4PX         0.17353   0.00000   0.03942  -0.03179   0.00000
  12        4PY        -0.03549   0.00000   0.05241   0.11292   0.00000
  13        4PZ         0.00000  -0.05905   0.00000   0.00000  -0.10476
  14        5XX        -0.19365   0.00000   0.58964  -0.44256   0.00000
  15        5YY        -0.23064   0.00000  -0.27327  -0.15381   0.00000
  16        5ZZ        -0.36545   0.00000  -0.32221   0.26757   0.00000
  17        5XY        -0.13842   0.00000   0.32632   0.61562   0.00000
  18        5XZ         0.00000  -0.22583   0.00000   0.00000  -0.03029
  19        5YZ         0.00000   0.63776   0.00000   0.00000   0.00943
  20 2   H  1S         -0.19637  -0.08791   0.04692  -0.40575  -0.00490
  21        2S         -0.61826   0.03265  -0.01949  -0.14856   0.11588
  22        3PX         0.04687  -0.11575   0.21325  -0.18333   0.03003
  23        3PY        -0.03967   0.27006   0.03455   0.13791   0.06195
  24        3PZ        -0.00084   0.00970  -0.14505  -0.00961  -0.01501
  25 3   H  1S         -0.07615   0.00000  -0.09916  -0.46760   0.00000
  26        2S         -1.30299   0.00000   0.01188   0.15413   0.00000
  27        3PX         0.04230   0.00000  -0.29196  -0.15459   0.00000
  28        3PY        -0.06258   0.00000   0.10458   0.19312   0.00000
  29        3PZ         0.00000  -0.24117   0.00000   0.00000   0.11293
  30 4   H  1S         -0.19637   0.08791   0.04692  -0.40575   0.00490
  31        2S         -0.61826  -0.03265  -0.01949  -0.14856  -0.11588
  32        3PX         0.04687   0.11575   0.21325  -0.18333  -0.03003
  33        3PY        -0.03967  -0.27006   0.03455   0.13791  -0.06195
  34        3PZ         0.00084   0.00970   0.14505   0.00961  -0.01501
  35 5   H  1S          0.04571   0.00000  -0.00753   0.01238   0.00000
  36        2S          0.26752   0.00000   0.02052  -0.00026   0.00000
  37        3PX        -0.02308   0.00000  -0.01530  -0.12031   0.00000
  38        3PY        -0.11129   0.00000   0.00143  -0.26005   0.00000
  39        3PZ         0.00000  -0.01365   0.00000   0.00000   0.98870
                          26        27        28        29        30
                           V         V         V         V         V
     Eigenvalues --     1.93443   2.05190   2.14930   2.20572   2.28031
   1 1   N  1S         -0.00259   0.00000   0.01780   0.00000  -0.01190
   2        2S          0.03371   0.00000   0.38183   0.00000  -0.44666
   3        2PX        -0.00157   0.00000   0.08119   0.00000   0.08484
   4        2PY         0.01307   0.00000   0.06783   0.00000   0.16096
   5        2PZ         0.00000  -0.00370   0.00000  -0.18121   0.00000
   6        3S         -0.08855   0.00000  -1.17270   0.00000   1.27539
   7        3PX        -0.00706   0.00000  -0.36544   0.00000  -0.37968
   8        3PY        -0.05189   0.00000   0.01389   0.00000  -1.01124
   9        3PZ         0.00000   0.01239   0.00000   0.80407   0.00000
  10        4S         -0.10292   0.00000  -0.21518   0.00000   0.20236
  11        4PX        -0.08483   0.00000   0.14440   0.00000   0.07630
  12        4PY         0.03355   0.00000   0.21816   0.00000   0.08483
  13        4PZ         0.00000   0.01299   0.00000  -0.25416   0.00000
  14        5XX         0.00743   0.00000   0.06973   0.00000  -0.00588
  15        5YY        -0.01087   0.00000   0.27552   0.00000   0.21904
  16        5ZZ        -0.01247   0.00000  -0.32422   0.00000  -0.16783
  17        5XY         0.04979   0.00000  -0.07021   0.00000   0.28877
  18        5XZ         0.00000   0.00675   0.00000   0.38215   0.00000
  19        5YZ         0.00000  -0.00009   0.00000   0.24192   0.00000
  20 2   H  1S         -0.02342  -0.00277   0.37280  -0.53407   0.04880
  21        2S          0.10890  -0.01439   0.00138   0.18730  -0.11556
  22        3PX         0.00189   0.30670   0.11601   0.24987   0.01957
  23        3PY         0.02570   0.39713   0.27198  -0.20584   0.34182
  24        3PZ        -0.00301  -0.29554   0.01488  -0.41114  -0.00454
  25 3   H  1S         -0.04275   0.00000  -0.44958   0.00000  -0.36784
  26        2S          0.04968   0.00000   1.30937   0.00000  -1.24240
  27        3PX         0.04650   0.00000   0.41223   0.00000   0.40570
  28        3PY        -0.00076   0.00000   0.14311   0.00000  -0.00755
  29        3PZ         0.00000   0.57261   0.00000  -0.39960   0.00000
  30 4   H  1S         -0.02342   0.00277   0.37280   0.53407   0.04880
  31        2S          0.10890   0.01439   0.00138  -0.18730  -0.11556
  32        3PX         0.00189  -0.30670   0.11601  -0.24987   0.01957
  33        3PY         0.02570  -0.39713   0.27198   0.20584   0.34182
  34        3PZ         0.00301  -0.29554  -0.01488  -0.41114   0.00454
  35 5   H  1S         -0.00548   0.00000   0.02604   0.00000  -0.07290
  36        2S          0.00791   0.00000  -0.24142   0.00000   0.39684
  37        3PX         0.94519   0.00000  -0.24702   0.00000   0.18642
  38        3PY        -0.31898   0.00000  -0.62386   0.00000   0.70611
  39        3PZ         0.00000  -0.14202   0.00000   0.05838   0.00000
                          31        32        33        34        35
                           V         V         V         V         V
     Eigenvalues --     2.38903   2.38963   2.70289   2.93059   2.93713
   1 1   N  1S          0.00000  -0.00102  -0.00483   0.00000  -0.00823
   2        2S          0.00000  -0.05284   0.11575   0.00000   0.07378
   3        2PX         0.00000   0.12908  -0.02934   0.00000   0.00699
   4        2PY         0.00000   0.17411   0.00837   0.00000  -0.00693
   5        2PZ        -0.20584   0.00000   0.00000  -0.02920   0.00000
   6        3S          0.00000   0.15056  -0.39226   0.00000  -0.05973
   7        3PX         0.00000  -0.02087  -0.46686   0.00000   0.28320
   8        3PY         0.00000  -0.08638   0.40166   0.00000   0.42126
   9        3PZ        -0.00221   0.00000   0.00000  -0.44335   0.00000
  10        4S          0.00000   0.02261  -0.31963   0.00000  -0.00150
  11        4PX         0.00000   0.11140   0.04509   0.00000   0.00852
  12        4PY         0.00000   0.14688  -0.03432   0.00000  -0.00655
  13        4PZ        -0.18604   0.00000   0.00000  -0.00753   0.00000
  14        5XX         0.00000  -0.37863  -0.34321   0.00000   0.67712
  15        5YY         0.00000   0.73699  -0.08298   0.00000  -0.13507
  16        5ZZ         0.00000  -0.34882   0.27881   0.00000  -0.62047
  17        5XY         0.00000   0.05926   0.52639   0.00000   0.49008
  18        5XZ         0.72374   0.00000   0.00000  -0.05993   0.00000
  19        5YZ        -0.04931   0.00000   0.00000   0.89833   0.00000
  20 2   H  1S         -0.35343   0.19506  -0.01690   0.03181  -0.00391
  21        2S          0.41656  -0.24532   0.27574   0.21545  -0.14105
  22        3PX        -0.50991   0.12409   0.38386  -0.00399  -0.46833
  23        3PY         0.17741  -0.30974  -0.45526  -0.52776  -0.33010
  24        3PZ        -0.01167   0.16741  -0.23105   0.05385   0.42231
  25 3   H  1S          0.00000  -0.42105  -0.02630   0.00000   0.01376
  26        2S          0.00000   0.31088   0.35775   0.00000   0.37942
  27        3PX         0.00000  -0.38695   0.60874   0.00000   0.39679
  28        3PY         0.00000   0.43867  -0.14503   0.00000  -0.10403
  29        3PZ         0.27794   0.00000   0.00000   0.78514   0.00000
  30 4   H  1S          0.35343   0.19506  -0.01690  -0.03181  -0.00391
  31        2S         -0.41656  -0.24532   0.27574  -0.21545  -0.14105
  32        3PX         0.50991   0.12409   0.38386   0.00399  -0.46833
  33        3PY        -0.17741  -0.30974  -0.45526   0.52776  -0.33010
  34        3PZ        -0.01167  -0.16741   0.23105   0.05385  -0.42231
  35 5   H  1S          0.00000  -0.04715  -0.01725   0.00000  -0.00466
  36        2S          0.00000   0.06701  -0.01956   0.00000  -0.06726
  37        3PX         0.00000   0.05911  -0.03168   0.00000  -0.03212
  38        3PY         0.00000   0.10332  -0.03347   0.00000  -0.04728
  39        3PZ         0.00642   0.00000   0.00000  -0.01815   0.00000
                          36        37        38        39
                           V         V         V         V
     Eigenvalues --     3.23990   3.37801   3.40403   3.99912
   1 1   N  1S         -0.21448   0.00000  -0.00680  -0.44207
   2        2S          0.59276   0.00000  -0.04583   0.85604
   3        2PX         0.31550   0.00000  -0.43940  -0.23809
   4        2PY        -0.11817   0.00000  -0.64353   0.15504
   5        2PZ         0.00000   0.80538   0.00000   0.00000
   6        3S          2.52471   0.00000   0.37521   2.86497
   7        3PX         0.37078   0.00000  -0.59032  -0.11475
   8        3PY        -0.30938   0.00000  -0.95404  -0.22127
   9        3PZ         0.00000   0.95473   0.00000   0.00000
  10        4S          0.51942   0.00000   0.04967  -0.18506
  11        4PX         0.09897   0.00000   0.03319   0.11490
  12        4PY        -0.05981   0.00000   0.06379  -0.04618
  13        4PZ         0.00000  -0.02957   0.00000   0.00000
  14        5XX        -0.53326   0.00000  -0.29555  -1.55479
  15        5YY        -0.45163   0.00000   1.24025  -1.55513
  16        5ZZ         0.02094   0.00000  -0.82623  -1.87396
  17        5XY         0.36920   0.00000   0.36654  -0.23992
  18        5XZ         0.00000   1.22300   0.00000   0.00000
  19        5YZ         0.00000   0.38669   0.00000   0.00000
  20 2   H  1S         -0.40485  -0.86566   0.42889   0.43940
  21        2S         -0.83088  -0.51500   0.23668  -0.26502
  22        3PX         0.44553   0.55967  -0.26144  -0.31864
  23        3PY         0.16167   0.17444  -0.07000  -0.04879
  24        3PZ         0.63941   0.83839  -0.40457  -0.44027
  25 3   H  1S         -0.24940   0.00000  -1.06594   0.36413
  26        2S         -0.94926   0.00000  -0.92801  -0.68347
  27        3PX        -0.20640   0.00000  -0.40472   0.08874
  28        3PY        -0.59039   0.00000  -1.22480   0.41631
  29        3PZ         0.00000   0.01048   0.00000   0.00000
  30 4   H  1S         -0.40485   0.86566   0.42889   0.43940
  31        2S         -0.83088   0.51500   0.23668  -0.26502
  32        3PX         0.44553  -0.55967  -0.26144  -0.31864
  33        3PY         0.16167  -0.17444  -0.07000  -0.04879
  34        3PZ        -0.63941   0.83839   0.40457   0.44027
  35 5   H  1S          0.03325   0.00000   0.00734  -0.00722
  36        2S          0.07480   0.00000   0.15547   0.17563
  37        3PX         0.00427   0.00000   0.00784   0.02746
  38        3PY         0.05161   0.00000   0.01709   0.10314
  39        3PZ         0.00000  -0.00810   0.00000   0.00000
     Beta Molecular Orbital Coefficients:
                           1         2         3         4         5
                           O         O         O         O         O
     Eigenvalues --   -14.32741  -0.84864  -0.46938  -0.46716  -0.26450
   1 1   N  1S          0.99273  -0.20210  -0.00210   0.00000   0.06408
   2        2S          0.03444   0.42061   0.00233   0.00000  -0.15051
   3        2PX         0.00099   0.07324   0.28862   0.00000   0.44845
   4        2PY        -0.00067  -0.05257   0.37105   0.00000  -0.32526
   5        2PZ         0.00000   0.00000   0.00000   0.48033   0.00000
   6        3S          0.00422   0.43332   0.02387   0.00000  -0.24209
   7        3PX        -0.00042   0.03538   0.13720   0.00000   0.32648
   8        3PY         0.00027  -0.02775   0.17042   0.00000  -0.23078
   9        3PZ         0.00000   0.00000   0.00000   0.23274   0.00000
  10        4S         -0.00021   0.02158   0.00544   0.00000   0.03793
  11        4PX         0.00028   0.00622   0.01359   0.00000   0.12339
  12        4PY        -0.00019  -0.00254   0.01606   0.00000  -0.09493
  13        4PZ         0.00000   0.00000   0.00000   0.02427   0.00000
  14        5XX        -0.00814  -0.01032   0.01532   0.00000   0.01382
  15        5YY        -0.00817  -0.00957  -0.02911   0.00000   0.00444
  16        5ZZ        -0.00806  -0.00612   0.01080   0.00000  -0.00694
  17        5XY         0.00007   0.00386   0.00000   0.00000  -0.01714
  18        5XZ         0.00000   0.00000   0.00000   0.02864   0.00000
  19        5YZ         0.00000   0.00000   0.00000  -0.00379   0.00000
  20 2   H  1S          0.00018   0.14448   0.14100   0.24694   0.06348
  21        2S         -0.00041   0.00662   0.08636   0.15342   0.01783
  22        3PX         0.00008  -0.00892   0.00173  -0.00982   0.01218
  23        3PY         0.00003  -0.00423   0.00748  -0.00396  -0.01179
  24        3PZ         0.00012  -0.01532  -0.00918  -0.00337  -0.00384
  25 3   H  1S          0.00022   0.14472  -0.28622   0.00000   0.06215
  26        2S         -0.00049   0.00691  -0.20884   0.00000   0.03762
  27        3PX        -0.00004   0.00687   0.00040   0.00000   0.01580
  28        3PY        -0.00011   0.01579  -0.00833   0.00000  -0.00831
  29        3PZ         0.00000   0.00000   0.00000   0.01240   0.00000
  30 4   H  1S          0.00018   0.14448   0.14100  -0.24694   0.06348
  31        2S         -0.00041   0.00662   0.08636  -0.15342   0.01783
  32        3PX         0.00008  -0.00892   0.00173   0.00982   0.01218
  33        3PY         0.00003  -0.00423   0.00748   0.00396  -0.01179
  34        3PZ        -0.00012   0.01532   0.00918  -0.00337   0.00384
  35 5   H  1S          0.00002   0.00501  -0.03127   0.00000   0.02870
  36        2S          0.00004   0.00701  -0.02837   0.00000   0.04238
  37        3PX        -0.00000   0.00066  -0.00135   0.00000   0.00180
  38        3PY         0.00001   0.00194  -0.00429   0.00000   0.00203
  39        3PZ         0.00000   0.00000   0.00000   0.00049   0.00000
                           6         7         8         9        10
                           V         V         V         V         V
     Eigenvalues --    -0.10969   0.03498   0.08639   0.11568   0.12176
   1 1   N  1S          0.03184   0.08089   0.00000  -0.05524  -0.00679
   2        2S         -0.06023  -0.14844   0.00000   0.07428   0.02290
   3        2PX         0.00053  -0.18135   0.00000  -0.18970   0.00414
   4        2PY         0.19456  -0.03003   0.00000   0.11681  -0.07483
   5        2PZ         0.00000   0.00000  -0.24174   0.00000   0.00000
   6        3S         -0.24852  -0.74386   0.00000   0.66116   0.00088
   7        3PX         0.02230  -0.20598   0.00000  -0.29607   0.06170
   8        3PY         0.18425  -0.12129   0.00000   0.20902   0.03160
   9        3PZ         0.00000   0.00000  -0.36206   0.00000   0.00000
  10        4S          0.30631   1.48208   0.00000  -0.17956  -0.69525
  11        4PX        -0.00679   0.48055   0.00000   1.06113   0.60878
  12        4PY        -0.09186   0.05080   0.00000  -0.54540   1.38037
  13        4PZ         0.00000   0.00000   1.24536   0.00000   0.00000
  14        5XX         0.00882   0.01752   0.00000  -0.02639  -0.00483
  15        5YY         0.00449   0.02954   0.00000  -0.02125   0.01622
  16        5ZZ         0.00965   0.02477   0.00000  -0.02125  -0.01568
  17        5XY         0.00690   0.00283   0.00000   0.00540   0.00630
  18        5XZ         0.00000   0.00000  -0.01588   0.00000   0.00000
  19        5YZ         0.00000   0.00000   0.00056   0.00000   0.00000
  20 2   H  1S          0.01967   0.03864  -0.01048  -0.03011  -0.03153
  21        2S         -0.02431  -0.06264  -0.13110  -0.29569  -0.20844
  22        3PX         0.00138   0.00905   0.00374   0.00138   0.00303
  23        3PY         0.00616   0.00426   0.00092  -0.00153   0.00853
  24        3PZ         0.00303   0.01703   0.00878  -0.00253  -0.00402
  25 3   H  1S         -0.00197   0.02918   0.00000  -0.02001   0.08074
  26        2S          0.06733  -0.21351   0.00000  -0.16501   1.05094
  27        3PX        -0.00793  -0.00621   0.00000   0.00476   0.00546
  28        3PY        -0.01810  -0.01016   0.00000   0.00310   0.00669
  29        3PZ         0.00000   0.00000   0.00394   0.00000   0.00000
  30 4   H  1S          0.01967   0.03864   0.01048  -0.03011  -0.03153
  31        2S         -0.02431  -0.06264   0.13110  -0.29569  -0.20844
  32        3PX         0.00138   0.00905  -0.00374   0.00138   0.00303
  33        3PY         0.00616   0.00426  -0.00092  -0.00153   0.00853
  34        3PZ        -0.00303  -0.01703   0.00878   0.00253   0.00402
  35 5   H  1S          0.26728  -0.08059   0.00000   0.01687   0.08327
  36        2S          0.64869  -0.24611   0.00000   0.03901   0.42708
  37        3PX         0.00251   0.00238   0.00000   0.00481   0.00086
  38        3PY         0.00516   0.00327   0.00000  -0.00362  -0.00103
  39        3PZ         0.00000   0.00000   0.00549   0.00000   0.00000
                          11        12        13        14        15
                           V         V         V         V         V
     Eigenvalues --     0.18984   0.22863   0.24352   0.82778   0.83607
   1 1   N  1S          0.00000  -0.04952   0.09527   0.00000   0.00199
   2        2S          0.00000   0.03805  -0.12551   0.00000  -0.17141
   3        2PX         0.00000   0.25384   0.02006   0.00000  -0.48152
   4        2PY         0.00000   0.19937   0.30296   0.00000  -0.25958
   5        2PZ        -0.32811   0.00000   0.00000  -0.91589   0.00000
   6        3S          0.00000   1.00704  -1.68393   0.00000   0.55265
   7        3PX         0.00000   0.81056  -0.00982   0.00000   0.97840
   8        3PY         0.00000   0.47125   0.86241   0.00000   0.69565
   9        3PZ        -1.01204   0.00000   0.00000   1.84043   0.00000
  10        4S          0.00000   1.90255  -1.74454   0.00000   0.16170
  11        4PX         0.00000   0.44351  -0.16718   0.00000  -0.43524
  12        4PY         0.00000  -0.03771   0.10480   0.00000  -0.43078
  13        4PZ        -0.82385   0.00000   0.00000  -0.47118   0.00000
  14        5XX         0.00000  -0.00044   0.02124   0.00000  -0.03540
  15        5YY         0.00000  -0.00528   0.02825   0.00000   0.09487
  16        5ZZ         0.00000  -0.03990   0.02355   0.00000  -0.10403
  17        5XY         0.00000  -0.00381   0.02308   0.00000   0.06691
  18        5XZ         0.01372   0.00000   0.00000   0.01824   0.00000
  19        5YZ         0.01908   0.00000   0.00000  -0.00863   0.00000
  20 2   H  1S          0.16305  -0.15240   0.05448  -0.16010  -0.18465
  21        2S          1.72191  -1.88182   0.88456  -0.53466  -0.07634
  22        3PX         0.00813   0.00541   0.00075   0.05129   0.04442
  23        3PY         0.00136   0.00554   0.00843   0.01297   0.05294
  24        3PZ        -0.00625  -0.00666   0.00087   0.09837   0.01545
  25 3   H  1S          0.00000   0.07244   0.20510   0.00000   0.65475
  26        2S          0.00000   0.41716   2.60934   0.00000  -0.79838
  27        3PX         0.00000   0.00776  -0.00396   0.00000   0.01626
  28        3PY         0.00000  -0.00644  -0.00940   0.00000   0.02099
  29        3PZ        -0.01696   0.00000   0.00000   0.02731   0.00000
  30 4   H  1S         -0.16305  -0.15240   0.05448   0.16010  -0.18465
  31        2S         -1.72191  -1.88182   0.88456   0.53466  -0.07634
  32        3PX        -0.00813   0.00541   0.00075  -0.05129   0.04442
  33        3PY        -0.00136   0.00554   0.00843  -0.01297   0.05294
  34        3PZ        -0.00625   0.00666  -0.00087   0.09837  -0.01545
  35 5   H  1S          0.00000  -0.07465  -0.03650   0.00000  -0.57053
  36        2S          0.00000  -0.40472  -0.59480   0.00000   0.52305
  37        3PX         0.00000   0.00613   0.00499   0.00000  -0.01306
  38        3PY         0.00000   0.00796   0.02093   0.00000  -0.03233
  39        3PZ        -0.00620   0.00000   0.00000  -0.00025   0.00000
                          16        17        18        19        20
                           V         V         V         V         V
     Eigenvalues --     0.87645   0.89042   0.91279   0.96988   1.08005
   1 1   N  1S         -0.02126   0.00170   0.00000  -0.01946   0.05578
   2        2S         -0.08393  -0.04249   0.00000   0.41517  -0.14807
   3        2PX        -0.84327   0.12814   0.00000   0.10814  -0.04481
   4        2PY         0.11882  -0.86388   0.00000   0.30317   0.11691
   5        2PZ         0.00000   0.00000   0.29911   0.00000   0.00000
   6        3S          0.46866  -0.39029   0.00000  -1.06472   0.53464
   7        3PX         1.45442   0.06155   0.00000  -0.16188   0.08920
   8        3PY        -0.06688   1.71786   0.00000  -0.42084  -0.11685
   9        3PZ         0.00000   0.00000  -0.30756   0.00000   0.00000
  10        4S          0.38129  -0.33416   0.00000  -0.54070   1.64560
  11        4PX        -0.27881   0.09768   0.00000  -0.56475   0.15984
  12        4PY         0.27425  -0.50218   0.00000  -0.28225  -0.42907
  13        4PZ         0.00000   0.00000  -0.77164   0.00000   0.00000
  14        5XX         0.03868  -0.00257   0.00000   0.05381  -0.04655
  15        5YY        -0.11563  -0.08735   0.00000   0.24741   0.10884
  16        5ZZ         0.06631  -0.02050   0.00000  -0.18270   0.11240
  17        5XY        -0.07411  -0.04200   0.00000  -0.01211   0.20148
  18        5XZ         0.00000   0.00000  -0.28561   0.00000   0.00000
  19        5YZ         0.00000   0.00000  -0.12486   0.00000   0.00000
  20 2   H  1S          0.01981  -0.08926  -0.79241  -0.64422   0.55071
  21        2S         -0.79028  -0.04415   1.65308   1.43598  -1.08462
  22        3PX         0.03755   0.01155  -0.07956  -0.00969   0.00968
  23        3PY        -0.01935  -0.00028  -0.03044   0.00742   0.05016
  24        3PZ         0.05664   0.00360  -0.04262  -0.09174   0.05557
  25 3   H  1S         -0.45815  -0.15570   0.00000   0.31977   0.82934
  26        2S          0.95241   1.52781   0.00000  -0.73303  -1.55254
  27        3PX         0.02802   0.04645   0.00000   0.01695  -0.06793
  28        3PY         0.05037   0.12507   0.00000  -0.05442  -0.07572
  29        3PZ         0.00000   0.00000   0.08250   0.00000   0.00000
  30 4   H  1S          0.01981  -0.08926   0.79241  -0.64422   0.55071
  31        2S         -0.79028  -0.04415  -1.65308   1.43598  -1.08462
  32        3PX         0.03755   0.01155   0.07956  -0.00969   0.00968
  33        3PY        -0.01935  -0.00028   0.03044   0.00742   0.05016
  34        3PZ        -0.05664  -0.00360  -0.04262   0.09174  -0.05557
  35 5   H  1S          0.47887   0.57615   0.00000   0.62819   0.70369
  36        2S         -0.61859  -0.90045   0.00000  -0.46786  -0.61202
  37        3PX         0.00884   0.01426   0.00000  -0.01128   0.00643
  38        3PY         0.02751   0.03178   0.00000  -0.00473  -0.00631
  39        3PZ         0.00000   0.00000  -0.01563   0.00000   0.00000
                          21        22        23        24        25
                           V         V         V         V         V
     Eigenvalues --     1.15392   1.41632   1.41675   1.85650   2.04489
   1 1   N  1S         -0.06185  -0.00038   0.00000  -0.05461   0.00000
   2        2S         -1.63137  -0.01375   0.00000  -0.54055   0.00000
   3        2PX         0.09431  -0.00167   0.00000  -0.02277   0.00000
   4        2PY         0.15906   0.00133   0.00000   0.05274   0.00000
   5        2PZ         0.00000   0.00000   0.00368   0.00000   0.00576
   6        3S          4.15667   0.03799   0.00000   1.49801   0.00000
   7        3PX         0.01727  -0.10824   0.00000   0.45800   0.00000
   8        3PY        -0.60576  -0.15128   0.00000  -0.36325   0.00000
   9        3PZ         0.00000   0.00000   0.17170   0.00000  -0.02239
  10        4S         -0.01388  -0.00272   0.00000  -0.09806   0.00000
  11        4PX         0.17368   0.03998   0.00000  -0.03846   0.00000
  12        4PY        -0.07884   0.05321   0.00000   0.09944   0.00000
  13        4PZ         0.00000   0.00000  -0.05850   0.00000  -0.01782
  14        5XX        -0.19648   0.58938   0.00000  -0.45301   0.00000
  15        5YY        -0.21240  -0.27078   0.00000  -0.15672   0.00000
  16        5ZZ        -0.36510  -0.32294   0.00000   0.27068   0.00000
  17        5XY        -0.12232   0.32454   0.00000   0.63316   0.00000
  18        5XZ         0.00000   0.00000  -0.22572   0.00000  -0.00863
  19        5YZ         0.00000   0.00000   0.63603   0.00000   0.00191
  20 2   H  1S         -0.16413   0.05032  -0.08619  -0.42652   0.00463
  21        2S         -0.67619  -0.02189   0.03001  -0.16224   0.02167
  22        3PX         0.04830   0.21405  -0.11596  -0.18811   0.29386
  23        3PY        -0.03669   0.03454   0.27106   0.13622   0.39602
  24        3PZ         0.00140  -0.14491   0.01023  -0.01017  -0.27538
  25 3   H  1S          0.01040  -0.09841   0.00000  -0.44693   0.00000
  26        2S         -1.55001   0.00955   0.00000  -0.05835   0.00000
  27        3PX         0.03657  -0.29346   0.00000  -0.16792   0.00000
  28        3PY        -0.07574   0.10478   0.00000   0.18650   0.00000
  29        3PZ         0.00000   0.00000  -0.24288   0.00000   0.58479
  30 4   H  1S         -0.16413   0.05032   0.08619  -0.42652  -0.00463
  31        2S         -0.67619  -0.02189  -0.03001  -0.16224  -0.02167
  32        3PX         0.04830   0.21405   0.11596  -0.18811  -0.29386
  33        3PY        -0.03669   0.03454  -0.27106   0.13622  -0.39602
  34        3PZ        -0.00140   0.14491   0.01023   0.01017  -0.27538
  35 5   H  1S          0.11979  -0.00904   0.00000   0.00962   0.00000
  36        2S          0.23409   0.02230   0.00000   0.04847   0.00000
  37        3PX        -0.01736  -0.01142   0.00000  -0.07163   0.00000
  38        3PY        -0.08529   0.00066   0.00000  -0.18238   0.00000
  39        3PZ         0.00000   0.00000  -0.00987   0.00000   0.20873
                          26        27        28        29        30
                           V         V         V         V         V
     Eigenvalues --     2.11886   2.12460   2.18764   2.20774   2.37332
   1 1   N  1S         -0.00130   0.00000   0.00775   0.00000   0.00601
   2        2S          0.04943   0.00000   0.13824   0.00000   0.32343
   3        2PX         0.01443   0.00000   0.11136   0.00000   0.05433
   4        2PY         0.02939   0.00000   0.13439   0.00000   0.03948
   5        2PZ         0.00000   0.03995   0.00000  -0.17742   0.00000
   6        3S         -0.13080   0.00000  -0.45444   0.00000  -0.90999
   7        3PX        -0.08774   0.00000  -0.45808   0.00000   0.16825
   8        3PY        -0.11327   0.00000  -0.40066   0.00000   0.57976
   9        3PZ         0.00000  -0.15528   0.00000   0.79192   0.00000
  10        4S         -0.10155   0.00000  -0.10302   0.00000  -0.16938
  11        4PX        -0.05275   0.00000   0.17234   0.00000   0.05879
  12        4PY         0.05865   0.00000   0.23270   0.00000   0.10079
  13        4PZ         0.00000  -0.05952   0.00000  -0.26227   0.00000
  14        5XX         0.02296   0.00000   0.02213   0.00000  -0.27139
  15        5YY         0.02633   0.00000   0.34606   0.00000   0.41367
  16        5ZZ        -0.06307   0.00000  -0.36133   0.00000  -0.20791
  17        5XY         0.05466   0.00000   0.06648   0.00000  -0.15278
  18        5XZ         0.00000  -0.07495   0.00000   0.37251   0.00000
  19        5YZ         0.00000  -0.01826   0.00000   0.24034   0.00000
  20 2   H  1S          0.03100   0.06533   0.34621  -0.52802   0.17537
  21        2S          0.09080   0.07576  -0.07513   0.19530  -0.10625
  22        3PX         0.01922  -0.10587   0.10864   0.24539   0.09309
  23        3PY         0.08160  -0.05810   0.37448  -0.20770  -0.35829
  24        3PZ        -0.00205   0.13905   0.01594  -0.40202   0.12065
  25 3   H  1S         -0.10662   0.00000  -0.56671   0.00000  -0.16471
  26        2S          0.10011   0.00000   0.67876   0.00000   1.31876
  27        3PX         0.13875   0.00000   0.50296   0.00000  -0.44637
  28        3PY         0.00460   0.00000   0.15234   0.00000   0.35728
  29        3PZ         0.00000  -0.04200   0.00000  -0.40121   0.00000
  30 4   H  1S          0.03100  -0.06533   0.34621   0.52802   0.17537
  31        2S          0.09080  -0.07576  -0.07513  -0.19530  -0.10625
  32        3PX         0.01922   0.10587   0.10864  -0.24539   0.09309
  33        3PY         0.08160   0.05810   0.37448   0.20770  -0.35829
  34        3PZ         0.00205   0.13905  -0.01594  -0.40202  -0.12065
  35 5   H  1S         -0.00807   0.00000  -0.00194   0.00000   0.02751
  36        2S          0.00788   0.00000  -0.05832   0.00000  -0.27027
  37        3PX         0.91990   0.00000  -0.28918   0.00000  -0.12884
  38        3PY        -0.33868   0.00000  -0.26830   0.00000  -0.59168
  39        3PZ         0.00000   0.96211   0.00000   0.17903   0.00000
                          31        32        33        34        35
                           V         V         V         V         V
     Eigenvalues --     2.38906   2.41253   2.70335   2.93085   2.93786
   1 1   N  1S          0.00000  -0.00596  -0.00491   0.00000  -0.00851
   2        2S          0.00000  -0.36890   0.12083   0.00000   0.07829
   3        2PX         0.00000   0.12254  -0.03005   0.00000   0.00664
   4        2PY         0.00000   0.19638   0.00780   0.00000  -0.00740
   5        2PZ        -0.20676   0.00000   0.00000  -0.02960   0.00000
   6        3S          0.00000   1.03530  -0.40592   0.00000  -0.06877
   7        3PX         0.00000  -0.17316  -0.46355   0.00000   0.28513
   8        3PY         0.00000  -0.63695   0.41106   0.00000   0.42842
   9        3PZ        -0.00030   0.00000   0.00000  -0.44162   0.00000
  10        4S          0.00000   0.18997  -0.32290   0.00000  -0.00425
  11        4PX         0.00000   0.08943   0.04552   0.00000   0.00882
  12        4PY         0.00000   0.09854  -0.03366   0.00000  -0.00618
  13        4PZ        -0.18722   0.00000   0.00000  -0.00734   0.00000
  14        5XX         0.00000  -0.25598  -0.34559   0.00000   0.67560
  15        5YY         0.00000   0.61350  -0.08458   0.00000  -0.13770
  16        5ZZ         0.00000  -0.26895   0.27927   0.00000  -0.62109
  17        5XY         0.00000   0.21440   0.52484   0.00000   0.48966
  18        5XZ         0.72479   0.00000   0.00000  -0.06055   0.00000
  19        5YZ        -0.04696   0.00000   0.00000   0.90016   0.00000
  20 2   H  1S         -0.35499   0.09368  -0.01625   0.03146  -0.00342
  21        2S          0.41793  -0.22663   0.27568   0.21465  -0.14105
  22        3PX        -0.50959   0.08028   0.38413  -0.00341  -0.46786
  23        3PY         0.17510  -0.10310  -0.45670  -0.52861  -0.33110
  24        3PZ        -0.01295   0.11742  -0.23145   0.05355   0.42199
  25 3   H  1S          0.00000  -0.39526  -0.02588   0.00000   0.01415
  26        2S          0.00000  -0.82091   0.37766   0.00000   0.39430
  27        3PX         0.00000  -0.12449   0.60488   0.00000   0.39536
  28        3PY         0.00000   0.26032  -0.14233   0.00000  -0.10274
  29        3PZ         0.27666   0.00000   0.00000   0.78224   0.00000
  30 4   H  1S          0.35499   0.09368  -0.01625  -0.03146  -0.00342
  31        2S         -0.41793  -0.22663   0.27568  -0.21465  -0.14105
  32        3PX         0.50959   0.08028   0.38413   0.00341  -0.46786
  33        3PY        -0.17510  -0.10310  -0.45670   0.52861  -0.33110
  34        3PZ        -0.01295  -0.11742   0.23145   0.05355  -0.42199
  35 5   H  1S          0.00000  -0.09483  -0.01708   0.00000  -0.00395
  36        2S          0.00000   0.34836  -0.02433   0.00000  -0.07137
  37        3PX         0.00000   0.23498  -0.04167   0.00000  -0.03879
  38        3PY         0.00000   0.70942  -0.04566   0.00000  -0.05751
  39        3PZ         0.00907   0.00000   0.00000  -0.02216   0.00000
                          36        37        38        39
                           V         V         V         V
     Eigenvalues --     3.24095   3.37883   3.40574   4.00257
   1 1   N  1S         -0.21364   0.00000  -0.00694  -0.44242
   2        2S          0.59073   0.00000  -0.04393   0.85585
   3        2PX         0.31698   0.00000  -0.43853  -0.23775
   4        2PY        -0.11772   0.00000  -0.64466   0.15419
   5        2PZ         0.00000   0.80564   0.00000   0.00000
   6        3S          2.52055   0.00000   0.37436   2.87447
   7        3PX         0.37127   0.00000  -0.58955  -0.11565
   8        3PY        -0.30893   0.00000  -0.95273  -0.22613
   9        3PZ         0.00000   0.95469   0.00000   0.00000
  10        4S          0.52070   0.00000   0.05008  -0.18238
  11        4PX         0.09874   0.00000   0.03342   0.11499
  12        4PY        -0.06017   0.00000   0.06379  -0.04658
  13        4PZ         0.00000  -0.02964   0.00000   0.00000
  14        5XX        -0.53013   0.00000  -0.29608  -1.55577
  15        5YY        -0.44972   0.00000   1.24223  -1.55400
  16        5ZZ         0.02618   0.00000  -0.82560  -1.87413
  17        5XY         0.36961   0.00000   0.36732  -0.23855
  18        5XZ         0.00000   1.22336   0.00000   0.00000
  19        5YZ         0.00000   0.38682   0.00000   0.00000
  20 2   H  1S         -0.40659  -0.86587   0.42832   0.43864
  21        2S         -0.83084  -0.51476   0.23548  -0.26630
  22        3PX         0.44674   0.55952  -0.26028  -0.31786
  23        3PY         0.16196   0.17436  -0.06987  -0.04822
  24        3PZ         0.64076   0.83824  -0.40298  -0.43939
  25 3   H  1S         -0.24937   0.00000  -1.06802   0.36279
  26        2S         -0.94967   0.00000  -0.92518  -0.69445
  27        3PX        -0.20621   0.00000  -0.40506   0.08792
  28        3PY        -0.58918   0.00000  -1.22472   0.41361
  29        3PZ         0.00000   0.01020   0.00000   0.00000
  30 4   H  1S         -0.40659   0.86587   0.42832   0.43864
  31        2S         -0.83084   0.51476   0.23548  -0.26630
  32        3PX         0.44674  -0.55952  -0.26028  -0.31786
  33        3PY         0.16196  -0.17436  -0.06987  -0.04822
  34        3PZ        -0.64076   0.83824   0.40298   0.43939
  35 5   H  1S          0.03392   0.00000   0.00673  -0.00772
  36        2S          0.07418   0.00000   0.15466   0.17868
  37        3PX         0.00357   0.00000   0.00696   0.02951
  38        3PY         0.05397   0.00000   0.01341   0.11065
  39        3PZ         0.00000  -0.00904   0.00000   0.00000
     Alpha Density Matrix:
                           1         2         3         4         5
   1 1   N  1S          1.03061
   2        2S         -0.06103   0.20274
   3        2PX         0.01389  -0.03513   0.29183
   4        2PY        -0.00824   0.01994  -0.04330   0.28477
   5        2PZ         0.00000  -0.00000  -0.00000   0.00000   0.23233
   6        3S         -0.09929   0.22010  -0.06570   0.04282  -0.00000
   7        3PX         0.01241  -0.03253   0.18840  -0.05633  -0.00000
   8        3PY        -0.00741   0.01934  -0.05812   0.16754   0.00000
   9        3PZ         0.00000  -0.00000  -0.00000   0.00000   0.11241
  10        4S         -0.00238   0.00416   0.01579   0.00437  -0.00000
  11        4PX         0.00631  -0.01456   0.05830  -0.03681  -0.00000
  12        4PY        -0.00526   0.01194  -0.03581   0.03316   0.00000
  13        4PZ         0.00000  -0.00000  -0.00000   0.00000   0.01133
  14        5XX        -0.00501  -0.00721   0.00996   0.00277  -0.00000
  15        5YY        -0.00633  -0.00397  -0.00740  -0.01201   0.00000
  16        5ZZ        -0.00706  -0.00243  -0.00051   0.00783  -0.00000
  17        5XY        -0.00177   0.00414  -0.00781   0.00678   0.00000
  18        5XZ         0.00000   0.00000  -0.00000  -0.00000   0.01389
  19        5YZ        -0.00000  -0.00000   0.00000   0.00000  -0.00206
  20 2   H  1S         -0.02491   0.05097   0.07990   0.02673   0.11870
  21        2S         -0.00019  -0.00111   0.03437   0.02614   0.07359
  22        3PX         0.00263  -0.00555   0.00525  -0.00282  -0.00472
[...]
  33        3PY        -0.00000  -0.00001   0.00003  -0.00013  -0.00001
  34        3PZ         0.00001   0.00001   0.00039  -0.00000   0.00004
  35 5   H  1S          0.00102  -0.00000   0.00002   0.00000   0.00000
  36        2S          0.00438  -0.00000   0.00009   0.00000   0.00000
  37        3PX         0.00001  -0.00000   0.00000   0.00000  -0.00000
  38        3PY        -0.00000   0.00000  -0.00000  -0.00000  -0.00000
  39        3PZ        -0.00000   0.00000   0.00000   0.00000  -0.00000
                          16        17        18        19        20
  16        5ZZ         0.00177
  17        5XY         0.00000   0.00002
  18        5XZ         0.00000   0.00000   0.00082
  19        5YZ         0.00000   0.00000   0.00000   0.00185
  20 2   H  1S          0.00081   0.00023   0.00030   0.00393   0.21395
  21        2S          0.00129   0.00003   0.00004   0.00050   0.06863
  22        3PX        -0.00000  -0.00001   0.00006   0.00005   0.00000
  23        3PY         0.00002   0.00000   0.00003   0.00003   0.00000
  24        3PZ         0.00003   0.00001  -0.00001  -0.00002   0.00000
  25 3   H  1S         -0.00128   0.00000  -0.00011  -0.00000  -0.00095
  26        2S         -0.00166   0.00000  -0.00001  -0.00000  -0.00888
  27        3PX        -0.00012   0.00000  -0.00000  -0.00000   0.00007
  28        3PY        -0.00000  -0.00003  -0.00000  -0.00001   0.00012
  29        3PZ        -0.00000  -0.00000   0.00013   0.00000   0.00005
  30 4   H  1S          0.00081   0.00023   0.00030   0.00393  -0.00095
  31        2S          0.00129   0.00003   0.00004   0.00050  -0.00881
  32        3PX        -0.00000  -0.00001   0.00006   0.00005   0.00000
  33        3PY         0.00002   0.00000   0.00003   0.00003   0.00024
  34        3PZ         0.00003   0.00001  -0.00001  -0.00002   0.00000
  35 5   H  1S          0.00000  -0.00000  -0.00000  -0.00000   0.00000
  36        2S          0.00000  -0.00000  -0.00000  -0.00000   0.00000
  37        3PX        -0.00000   0.00000   0.00000  -0.00000  -0.00000
  38        3PY         0.00000  -0.00000  -0.00000   0.00000   0.00000
  39        3PZ         0.00000   0.00000   0.00000  -0.00000   0.00000
                          21        22        23        24        25
  21        2S          0.06363
  22        3PX         0.00000   0.00045
  23        3PY         0.00000   0.00000   0.00069
  24        3PZ         0.00000   0.00000   0.00000   0.00070
  25 3   H  1S         -0.00870   0.00023   0.00000   0.00000   0.21321
  26        2S         -0.01440   0.00032  -0.00017  -0.00002   0.07012
  27        3PX        -0.00015   0.00001   0.00001   0.00000   0.00000
  28        3PY         0.00023   0.00000   0.00000   0.00000   0.00000
  29        3PZ         0.00005   0.00000   0.00000  -0.00000   0.00000
  30 4   H  1S         -0.00881  -0.00000   0.00024  -0.00000  -0.00095
  31        2S         -0.01415  -0.00000   0.00012  -0.00000  -0.00870
  32        3PX         0.00000   0.00000  -0.00000   0.00000   0.00023
  33        3PY         0.00012   0.00000   0.00003   0.00000   0.00000
  34        3PZ         0.00000   0.00000  -0.00000   0.00000   0.00000
  35 5   H  1S         -0.00000  -0.00000  -0.00000  -0.00000   0.00000
  36        2S         -0.00012  -0.00000  -0.00000  -0.00000   0.00000
  37        3PX        -0.00000   0.00000  -0.00000  -0.00000   0.00000
  38        3PY         0.00000   0.00000   0.00000   0.00000   0.00000
  39        3PZ         0.00000   0.00000   0.00000   0.00000   0.00000
                          26        27        28        29        30
  26        2S          0.06663
  27        3PX         0.00000   0.00089
  28        3PY         0.00000   0.00000   0.00033
  29        3PZ         0.00000   0.00000   0.00000   0.00063
  30 4   H  1S         -0.00888   0.00007   0.00012   0.00005   0.21395
  31        2S         -0.01440  -0.00015   0.00023   0.00005   0.06863
  32        3PX         0.00032   0.00001   0.00000   0.00000   0.00000
  33        3PY        -0.00017   0.00001   0.00000   0.00000   0.00000
  34        3PZ        -0.00002   0.00000   0.00000  -0.00000   0.00000
  35 5   H  1S          0.00032   0.00000   0.00000   0.00000   0.00000
  36        2S          0.00201   0.00009   0.00000   0.00000   0.00000
  37        3PX         0.00001  -0.00000   0.00000   0.00000  -0.00000
  38        3PY         0.00000  -0.00000   0.00000   0.00000   0.00000
  39        3PZ         0.00000  -0.00000   0.00000   0.00000   0.00000
                          31        32        33        34        35
  31        2S          0.06363
  32        3PX         0.00000   0.00045
  33        3PY         0.00000   0.00000   0.00069
  34        3PZ         0.00000   0.00000   0.00000   0.00070
  35 5   H  1S         -0.00000  -0.00000  -0.00000  -0.00000   0.18660
  36        2S         -0.00012  -0.00000  -0.00000  -0.00000   0.18441
  37        3PX        -0.00000   0.00000  -0.00000  -0.00000   0.00000
  38        3PY         0.00000   0.00000   0.00000   0.00000   0.00000
  39        3PZ         0.00000   0.00000   0.00000   0.00000   0.00000
                          36        37        38        39
  36        2S          0.42061
  37        3PX         0.00000   0.00000
  38        3PY         0.00000   0.00000   0.00000
  39        3PZ         0.00000   0.00000   0.00000   0.00000
     Gross orbital populations:
                         Total     Alpha     Beta      Spin
   1 1   N  1S          1.99183   0.99591   0.99592  -0.00000
   2        2S          0.79078   0.39546   0.39532   0.00013
   3        2PX         0.79603   0.40176   0.39427   0.00748
   4        2PY         0.76853   0.38443   0.38411   0.00032
   5        2PZ         0.93230   0.46691   0.46540   0.00151
   6        3S          0.88543   0.44265   0.44278  -0.00014
   7        3PX         0.43706   0.22131   0.21575   0.00556
   8        3PY         0.39698   0.19852   0.19846   0.00006
   9        3PZ         0.66136   0.33064   0.33071  -0.00007
  10        4S          0.03253   0.01939   0.01314   0.00625
  11        4PX         0.04723   0.02517   0.02205   0.00312
  12        4PY         0.02258   0.01119   0.01138  -0.00019
  13        4PZ         0.14438   0.07152   0.07286  -0.00134
  14        5XX        -0.00417  -0.00197  -0.00220   0.00022
  15        5YY        -0.00650  -0.00331  -0.00319  -0.00012
  16        5ZZ        -0.02181  -0.01094  -0.01087  -0.00007
  17        5XY         0.00051   0.00025   0.00026  -0.00000
  18        5XZ         0.00166   0.00083   0.00083   0.00001
  19        5YZ         0.01084   0.00542   0.00541   0.00001
  20 2   H  1S          0.51743   0.25864   0.25879  -0.00015
  21        2S          0.16429   0.08200   0.08229  -0.00029
  22        3PX         0.00590   0.00297   0.00293   0.00003
  23        3PY         0.01003   0.00502   0.00501   0.00000
  24        3PZ         0.00908   0.00453   0.00454  -0.00001
  25 3   H  1S          0.51632   0.25779   0.25853  -0.00075
  26        2S          0.17070   0.08299   0.08771  -0.00473
  27        3PX         0.01309   0.00667   0.00642   0.00025
  28        3PY         0.00434   0.00217   0.00217   0.00000
  29        3PZ         0.00772   0.00386   0.00386   0.00000
  30 4   H  1S          0.51743   0.25864   0.25879  -0.00015
  31        2S          0.16429   0.08200   0.08229  -0.00029
  32        3PX         0.00590   0.00297   0.00293   0.00003
  33        3PY         0.01003   0.00502   0.00501   0.00000
  34        3PZ         0.00908   0.00453   0.00454  -0.00001
  35 5   H  1S          0.37305   0.37276   0.00029   0.37247
  36        2S          0.61376   0.61230   0.00146   0.61084
  37        3PX         0.00003   0.00002   0.00001   0.00001
  38        3PY         0.00000   0.00000   0.00000   0.00000
  39        3PZ         0.00000   0.00000   0.00000   0.00000
          Condensed to atoms (all electrons):
               1          2          3          4          5
     1  N    6.818146   0.354303   0.352152   0.354303   0.008630
     2  H    0.354303   0.416687  -0.032177  -0.031963  -0.000123
     3  H    0.352152  -0.032177   0.421935  -0.032177   0.002436
     4  H    0.354303  -0.031963  -0.032177   0.416689  -0.000123
     5  H    0.008630  -0.000123   0.002436  -0.000123   0.976020
          Atomic-Atomic Spin Densities.
               1          2          3          4          5
     1  N    0.016458  -0.000754   0.000486  -0.000754   0.007304
     2  H   -0.000754  -0.000092   0.000514   0.000018  -0.000105
     3  H    0.000486   0.000514  -0.007985   0.000514   0.001254
     4  H   -0.000754   0.000018   0.000514  -0.000092  -0.000105
     5  H    0.007304  -0.000105   0.001254  -0.000105   0.974970
 Mulliken charges and spin densities:
               1          2
     1  N   -0.887534   0.022740
     2  H    0.293272  -0.000420
     3  H    0.287831  -0.005217
     4  H    0.293271  -0.000420
     5  H    0.013160   0.983317
 Sum of Mulliken charges =  -0.00000   1.00000
 Mulliken charges and spin densities with hydrogens summed into heavy atoms:
               1          2
     1  N   -0.000000   1.000000
 Electronic spatial extent (au):  <R**2>=             67.2376
 Charge=             -0.0000 electrons
 Dipole moment (field-independent basis, Debye):
    X=             -0.7549    Y=             -0.0000    Z=              1.6422  Tot=              1.8074
 Quadrupole moment (field-independent basis, Debye-Ang):
   XX=             -8.0250   YY=             -7.6188   ZZ=            -10.6930
   XY=              0.0000   XZ=              1.7150   YZ=              0.0000
 Traceless Quadrupole moment (field-independent basis, Debye-Ang):
   XX=              0.7540   YY=              1.1601   ZZ=             -1.9141
   XY=              0.0000   XZ=              1.7150   YZ=              0.0000
 Octapole moment (field-independent basis, Debye-Ang**2):
  XXX=              1.6726  YYY=             -0.0003  ZZZ=              1.6048  XYY=              2.5122
  XXY=              0.0002  XXZ=              1.3344  XZZ=              0.8621  YZZ=              0.0000
  YYZ=              1.1058  XYZ=              0.0001
 Hexadecapole moment (field-independent basis, Debye-Ang**3):
 XXXX=            -82.9593 YYYY=            -12.1780 ZZZZ=            -16.3245 XXXY=              0.0001
 XXXZ=              2.6156 YYYX=             -0.0000 YYYZ=             -0.0001 ZZZX=              2.5195
 ZZZY=              0.0000 XXYY=            -16.6218 XXZZ=            -17.9494 YYZZ=             -4.5890
 XXYZ=              0.0001 YYXZ=              1.3321 ZZXY=              0.0001
 N-N= 1.348152183770D+01 E-N=-1.596461638016D+02  KE= 5.649250458612D+01
 Orbital energies and kinetic energies (alpha):
                                 1                 2
   1         O               -14.324157         21.959086
   2         O                -0.857224          1.833505
   3         O                -0.469088          1.312653
   4         O                -0.468410          1.323004
   5         O                -0.329817          0.533113
   6         O                -0.267382          1.552991
   7         V                 0.022965          0.576590
   8         V                 0.089745          0.406197
   9         V                 0.102798          0.413888
  10         V                 0.119990          0.484392
  11         V                 0.195975          0.935451
  12         V                 0.196191          1.002966
  13         V                 0.251583          1.037428
  14         V                 0.732792          1.964532
  15         V                 0.829020          2.474006
  16         V                 0.852587          2.227799
  17         V                 0.883564          2.750750
  18         V                 0.914337          2.270965
  19         V                 0.926637          2.463304
  20         V                 1.059794          2.555561
  21         V                 1.137094          2.090506
  22         V                 1.411947          2.421391
  23         V                 1.412422          2.421020
  24         V                 1.852023          2.903942
  25         V                 1.936873          2.751231
  26         V                 1.937043          2.751488
  27         V                 1.980180          2.834886
  28         V                 2.069020          2.908111
  29         V                 2.241722          3.210679
  30         V                 2.243534          3.214644
  31         V                 2.390328          3.520832
  32         V                 2.391163          3.517198
  33         V                 2.760858          3.674586
  34         V                 2.956763          3.943686
  35         V                 2.959064          3.945559
  36         V                 3.270331          5.836220
  37         V                 3.406450          5.368710
  38         V                 3.426202          5.360361
  39         V                 3.971760          8.833087
 Orbital energies and kinetic energies (beta):
                                 1                 2
   1         O               -14.323891         21.959490
   2         O                -0.856453          1.831215
   3         O                -0.468237          1.322265
   4         O                -0.468064          1.316640
   5         O                -0.267290          1.548543
   6         V                -0.076262          0.374527
   7         V                 0.028948          0.568655
   8         V                 0.088970          0.403629
   9         V                 0.109021          0.416143
  10         V                 0.121234          0.461751
  11         V                 0.195759          0.937824
  12         V                 0.199563          1.040281
  13         V                 0.250758          1.036332
  14         V                 0.829088          2.473694
  15         V                 0.836086          2.456846
  16         V                 0.880534          2.796132
  17         V                 0.898435          2.117980
  18         V                 0.914322          2.272013
  19         V                 0.985009          2.172072
  20         V                 1.059768          2.567065
  21         V                 1.144342          2.099303
  22         V                 1.412467          2.421242
  23         V                 1.412687          2.420867
  24         V                 1.855637          2.911052
  25         V                 2.068885          2.908110
  26         V                 2.167803          2.753846
  27         V                 2.168190          2.751731
  28         V                 2.195477          2.831831
  29         V                 2.242063          3.207860
  30         V                 2.243769          3.215802
  31         V                 2.390397          3.521042
  32         V                 2.392905          3.510712
  33         V                 2.761008          3.674711
  34         V                 2.956861          3.943830
  35         V                 2.959217          3.945573
  36         V                 3.270701          5.833549
  37         V                 3.406561          5.368909
  38         V                 3.427080          5.359132
  39         V                 3.972281          8.834119
 Total kinetic energy from orbitals= 5.649250458612D+01
                          Isotropic Fermi Contact Couplings
        Atom                 a.u.       MegaHertz       Gauss      10(-4) cm-1
     1  N(14)             -0.00080      -0.25975      -0.09269      -0.08664
     2  H(1)              -0.00012      -0.54635      -0.19495      -0.18224
     3  H(1)              -0.00035      -1.54836      -0.55249      -0.51648
     4  H(1)              -0.00012      -0.54654      -0.19502      -0.18231
     5  H(1)               0.30009    1341.36466     478.63225     447.43109
 --------------------------------------------------------
       Center         ----  Spin Dipole Couplings  ----
                      3XX-RR        3YY-RR        3ZZ-RR
 --------------------------------------------------------
     1   Atom        0.031846     -0.019402     -0.012444
     2   Atom        0.004552     -0.001356     -0.003196
     3   Atom        0.026121     -0.013279     -0.012842
     4   Atom        0.004552     -0.001355     -0.003196
     5   Atom        0.000571     -0.000289     -0.000282
 --------------------------------------------------------
                        XY            XZ            YZ
 --------------------------------------------------------
     1   Atom       -0.000002     -0.016742      0.000001
     2   Atom        0.002431      0.000717      0.001399
     3   Atom        0.000000     -0.001456     -0.000000
     4   Atom       -0.002431      0.000716     -0.001399
     5   Atom       -0.000000     -0.000078      0.000000
 --------------------------------------------------------


 ---------------------------------------------------------------------------------
              Anisotropic Spin Dipole Couplings in Principal Axis System
 ---------------------------------------------------------------------------------

       Atom             a.u.   MegaHertz   Gauss  10(-4) cm-1        Axes

              Baa    -0.0194    -0.748    -0.267    -0.250  0.0000  1.0000 -0.0000
     1 N(14)  Bbb    -0.0181    -0.697    -0.249    -0.232  0.3180  0.0000  0.9481
              Bcc     0.0375     1.445     0.516     0.482  0.9481 -0.0000 -0.3180
 
              Baa    -0.0040    -2.129    -0.760    -0.710  0.0774 -0.5222  0.8493
     2 H(1)   Bbb    -0.0016    -0.846    -0.302    -0.282 -0.3675  0.7769  0.5112
              Bcc     0.0056     2.975     1.062     0.992  0.9268  0.3516  0.1318
 
              Baa    -0.0133    -7.085    -2.528    -2.363  0.0000  1.0000  0.0006
     3 H(1)   Bbb    -0.0129    -6.881    -2.455    -2.295  0.0373 -0.0006  0.9993
              Bcc     0.0262    13.966     4.983     4.659  0.9993  0.0000 -0.0373
 
              Baa    -0.0040    -2.129    -0.760    -0.710  0.0774  0.5221  0.8494
     4 H(1)   Bbb    -0.0016    -0.846    -0.302    -0.282  0.3675  0.7770 -0.5111
              Bcc     0.0056     2.975     1.062     0.992  0.9268 -0.3517  0.1318
 
              Baa    -0.0003    -0.154    -0.055    -0.051  0.0000  1.0000  0.0000
     5 H(1)   Bbb    -0.0003    -0.154    -0.055    -0.051  0.0898 -0.0000  0.9960
              Bcc     0.0006     0.309     0.110     0.103  0.9960 -0.0000 -0.0898
 

 ---------------------------------------------------------------------------------

 No NMR shielding tensors so no spin-rotation constants.
 Leave Link  601 at Sun Sep 15 21:13:37 2024, MaxMem=   268435456 cpu:         2.4
 (Enter /g100_work/pMI24_ChiCa/g09d1/g09d01/d01/build-node-6-2-59348/src/main/l9999.exe)
 1\1\GINC-R500N003\POpt\UB3LYP\6-31+G(d,p)\H4N1(2)\ECABIATI\15-Sep-2024
 \1\\#p B3LYP/6-31+g(d,p) opt=(Z-matrix,maxcycle=50,maxstep=35) tempera
 ture=300 pop=full gfinput\\nh3+h\\0,2\N\H,1,hn2\H,1,hn3,2,hnh3\H,1,hn4
 ,3,hnh4,2,dih4,0\X,3,xxh5,1,xxhn5,4,dih5,0\H,3,hh6,5,hhxx6,1,dih6,0\\h
 n2=1.01586359\hn3=1.01638456\hnh3=108.03257455\hn4=1.01586376\hnh4=108
 .03219874\dih4=116.66380189\hh6=2.41111148\hhxx6=84.21693897\dih6=176.
 41050843\xxh5=1.\xxhn5=90.\dih5=90.\\Version=EM64L-G09RevD.01\State=2-
 A\HF=-57.067817\S2=0.75011\S2-1=0.\S2A=0.75\RMSD=1.622e-09\RMSF=1.289e
 -05\Dipole=0.3768311,0.5544862,0.2370184\Quadrupole=0.187627,-0.826932
 2,0.6393052,-1.3239977,-0.6392053,-0.6649065\PG=C01 [X(H4N1)]\\@


 BE LIKE A POSTAGE STAMP.  STICK TO ONE THING UNTIL
 YOU GET THERE -- JOSH BILLINGS
 Job cpu time:       0 days  0 hours  3 minutes 36.6 seconds.
 File lengths (MBytes):  RWF=      5 Int=      0 D2E=      0 Chk=      1 Scr=      1
 Normal termination of Gaussian 09 at Sun Sep 15 21:13:37 2024.
