 Entering Gaussian System, Link 0=/programs/64bit/g09/g09-gfortran/bin/g09
 Input=h2_++.com
 Output=h2_++.log
 Initial command:
 /programs/64bit/g09/g09-gfortran/bin/l1.exe /home/ospite/Desktop/MMfP/Project6/H2/g09/DFT/Gau-12884.inp -scrdir=/home/ospite/Desktop/MMfP/Project6/H2/g09/DFT/
 Entering Link 1 = /programs/64bit/g09/g09-gfortran/bin/l1.exe PID=     12885.
  
 Copyright (c) 1988,1990,1992,1993,1995,1998,2003,2009, Gaussian, Inc.
                  All Rights Reserved.
  
 This is part of the Gaussian(R) 09 program.  It is based on
 the Gaussian(R) 03 system (copyright 2003, Gaussian, Inc.),
 the Gaussian(R) 98 system (copyright 1998, Gaussian, Inc.),
 the Gaussian(R) 94 system (copyright 1995, Gaussian, Inc.),
 the Gaussian 92(TM) system (copyright 1992, Gaussian, Inc.),
 the Gaussian 90(TM) system (copyright 1990, Gaussian, Inc.),
 the Gaussian 88(TM) system (copyright 1988, Gaussian, Inc.),
 the Gaussian 86(TM) system (copyright 1986, Carnegie Mellon
 University), and the Gaussian 82(TM) system (copyright 1983,
 Carnegie Mellon University). Gaussian is a federally registered
 trademark of Gaussian, Inc.
  
 This software contains proprietary and confidential information,
 including trade secrets, belonging to Gaussian, Inc.
  
 This software is provided under written license and may be
 used, copied, transmitted, or stored only in accord with that
 written license.
  
 The following legend is applicable only to US Government
 contracts under FAR:
  
                    RESTRICTED RIGHTS LEGEND
  
 Use, reproduction and disclosure by the US Government is
 subject to restrictions as set forth in subparagraphs (a)
 and (c) of the Commercial Computer Software - Restricted
 Rights clause in FAR 52.227-19.
  
 Gaussian, Inc.
 340 Quinnipiac St., Bldg. 40, Wallingford CT 06492
  
  
 ---------------------------------------------------------------
 Warning -- This program may not be used in any manner that
 competes with the business of Gaussian, Inc. or will provide
 assistance to any competitor of Gaussian, Inc.  The licensee
 of this program is prohibited from giving any competitor of
 Gaussian, Inc. access to this program.  By using this program,
 the user acknowledges that Gaussian, Inc. is engaged in the
 business of creating and licensing software in the field of
 computational chemistry and represents and warrants to the
 licensee that it is not a competitor of Gaussian, Inc. and that
 it will not use this program in any manner prohibited above.
 ---------------------------------------------------------------
  

 Cite this work as:
 Gaussian 09, Revision A.02,
 M. J. Frisch, G. W. Trucks, H. B. Schlegel, G. E. Scuseria, 
 M. A. Robb, J. R. Cheeseman, G. Scalmani, V. Barone, B. Mennucci, 
 G. A. Petersson, H. Nakatsuji, M. Caricato, X. Li, H. P. Hratchian, 
 A. F. Izmaylov, J. Bloino, G. Zheng, J. L. Sonnenberg, M. Hada, 
 M. Ehara, K. Toyota, R. Fukuda, J. Hasegawa, M. Ishida, T. Nakajima, 
 Y. Honda, O. Kitao, H. Nakai, T. Vreven, J. A. Montgomery, Jr., 
 J. E. Peralta, F. Ogliaro, M. Bearpark, J. J. Heyd, E. Brothers, 
 K. N. Kudin, V. N. Staroverov, R. Kobayashi, J. Normand, 
 K. Raghavachari, A. Rendell, J. C. Burant, S. S. Iyengar, J. Tomasi, 
 M. Cossi, N. Rega, J. M. Millam, M. Klene, J. E. Knox, J. B. Cross, 
 V. Bakken, C. Adamo, J. Jaramillo, R. Gomperts, R. E. Stratmann, 
 O. Yazyev, A. J. Austin, R. Cammi, C. Pomelli, J. W. Ochterski, 
 R. L. Martin, K. Morokuma, V. G. Zakrzewski, G. A. Voth, 
 P. Salvador, J. J. Dannenberg, S. Dapprich, A. D. Daniels, 
 O. Farkas, J. B. Foresman, J. V. Ortiz, J. Cioslowski, 
 and D. J. Fox, Gaussian, Inc., Wallingford CT, 2009.
 
 ******************************************
 Gaussian 09:  EM64L-G09RevA.02 11-Jun-2009
                17-Aug-2024 
 ******************************************
 %mem=100MB
 ------------------------------------------
 #p b3lyp/6-31++G opt freq pop=full gfinput
 ------------------------------------------
 1/14=-1,18=20,19=15,26=3,38=1/1,3;
 2/9=110,12=2,17=6,18=5,40=1/2;
 3/5=1,6=6,7=1010,11=2,16=1,24=10,25=1,30=1,71=1,74=-5/1,2,3;
 4//1;
 5/5=2,38=5/2;
 6/7=3,28=1/1;
 7//1,2,3,16;
 1/14=-1,18=20,19=15/3(2);
 2/9=110/2;
 99//99;
 2/9=110/2;
 3/5=1,6=6,7=1010,11=2,16=1,25=1,30=1,71=1,74=-5/1,2,3;
 4/5=5,16=3/1;
 5/5=2,38=5/2;
 7//1,2,3,16;
 1/14=-1,18=20,19=15/3(-5);
 2/9=110/2;
 6/7=3,19=2,28=1/1;
 99/9=1/99;
 Leave Link    1 at Sat Aug 17 19:55:33 2024, MaxMem=   13107200 cpu:       0.1
 (Enter /programs/64bit/g09/g09-gfortran/bin/l101.exe)
 -------------------------------------------------
 hydrogen(molecule) with hf/6-31++G basis function
 -------------------------------------------------
 Symbolic Z-matrix:
 Charge =  0 Multiplicity = 1
 H1
 H2                   1    d
       Variables:
  d                     0.74                     
 
 NAtoms=      2 NQM=      2 NQMF=      0 NMic=      0 NMicF=      0 NTot=      2.
                    Isotopes and Nuclear Properties:
 (Nuclear quadrupole moments (NQMom) in fm**2, nuclear magnetic moments (NMagM)
  in nuclear magnetons)

  Atom         1           2
 IAtWgt=           1           1
 AtmWgt=   1.0078250   1.0078250
 NucSpn=           1           1
 AtZEff=   0.0000000   0.0000000
 NQMom=    0.0000000   0.0000000
 NMagM=    2.7928460   2.7928460
 Leave Link  101 at Sat Aug 17 19:55:34 2024, MaxMem=   13107200 cpu:       0.1
 (Enter /programs/64bit/g09/g09-gfortran/bin/l103.exe)

 GradGradGradGradGradGradGradGradGradGradGradGradGradGradGradGradGradGrad
 Berny optimization.
 Initialization pass.
                           ----------------------------
                           !    Initial Parameters    !
                           ! (Angstroms and Degrees)  !
 --------------------------                            --------------------------
 ! Name  Definition              Value          Derivative Info.                !
 --------------------------------------------------------------------------------
 ! R1    R(1,2)                  0.74           estimate D2E/DX2                !
 --------------------------------------------------------------------------------
 Trust Radius=3.00D-01 FncErr=1.00D-07 GrdErr=1.00D-06
 Number of steps in this run=  20 maximum allowed number of steps= 100.
 GradGradGradGradGradGradGradGradGradGradGradGradGradGradGradGradGradGrad

 Leave Link  103 at Sat Aug 17 19:55:34 2024, MaxMem=   13107200 cpu:       0.0
 (Enter /programs/64bit/g09/g09-gfortran/bin/l202.exe)
                          Input orientation:                          
 ---------------------------------------------------------------------
 Center     Atomic      Atomic             Coordinates (Angstroms)
 Number     Number       Type             X           Y           Z
 ---------------------------------------------------------------------
      1          1           0        0.000000    0.000000    0.000000
      2          1           0        0.000000    0.000000    0.740000
 ---------------------------------------------------------------------
 Stoichiometry    H2
 Framework group  D*H[C*(H.H)]
 Deg. of freedom     1
 Full point group                 D*H     NOp   8
 Largest Abelian subgroup         D2H     NOp   8
 Largest concise Abelian subgroup C2      NOp   2
                         Standard orientation:                         
 ---------------------------------------------------------------------
 Center     Atomic      Atomic             Coordinates (Angstroms)
 Number     Number       Type             X           Y           Z
 ---------------------------------------------------------------------
      1          1           0        0.000000    0.000000    0.370000
      2          1           0        0.000000    0.000000   -0.370000
 ---------------------------------------------------------------------
 Rotational constants (GHZ):      0.0000000   1831.4649389   1831.4649389
 Leave Link  202 at Sat Aug 17 19:55:34 2024, MaxMem=   13107200 cpu:       0.0
 (Enter /programs/64bit/g09/g09-gfortran/bin/l301.exe)
 Standard basis: 6-31++G (6D, 7F)
 Ernie: Thresh=  0.10000D-02 Tol=  0.10000D-05 Strict=F.
 AO basis set in the form of general basis input (Overlap normalization):
      1 0
 S   3 1.00       0.000000000000
      0.1873113696D+02  0.3349460434D-01
      0.2825394365D+01  0.2347269535D+00
      0.6401216923D+00  0.8137573261D+00
 S   1 1.00       0.000000000000
      0.1612777588D+00  0.1000000000D+01
 S   1 1.00       0.000000000000
      0.3600000000D-01  0.1000000000D+01
 ****
      2 0
 S   3 1.00       0.000000000000
      0.1873113696D+02  0.3349460434D-01
      0.2825394365D+01  0.2347269535D+00
      0.6401216923D+00  0.8137573261D+00
 S   1 1.00       0.000000000000
      0.1612777588D+00  0.1000000000D+01
 S   1 1.00       0.000000000000
      0.3600000000D-01  0.1000000000D+01
 ****

 There are     3 symmetry adapted basis functions of AG  symmetry.
 There are     0 symmetry adapted basis functions of B1G symmetry.
 There are     0 symmetry adapted basis functions of B2G symmetry.
 There are     0 symmetry adapted basis functions of B3G symmetry.
 There are     0 symmetry adapted basis functions of AU  symmetry.
 There are     3 symmetry adapted basis functions of B1U symmetry.
 There are     0 symmetry adapted basis functions of B2U symmetry.
 There are     0 symmetry adapted basis functions of B3U symmetry.
 Integral buffers will be    131072 words long.
 Raffenetti 2 integral format.
 Two-electron integral symmetry is turned on.
     6 basis functions,    10 primitive gaussians,     6 cartesian basis functions
     1 alpha electrons        1 beta electrons
       nuclear repulsion energy         0.7151043359 Hartrees.
 IExCor=  402 DFT=T Ex+Corr=B3LYP ExCW=0 ScaHFX=  0.200000
 ScaDFX=  0.800000  0.720000  1.000000  0.810000 ScalE2=  1.000000  1.000000
 IRadAn=      0 IRanWt=     -1 IRanGd=            0 ICorTp=0
 NAtoms=    2 NActive=    2 NUniq=    1 SFac= 3.00D+00 NAtFMM=   80 NAOKFM=F Big=F
 Leave Link  301 at Sat Aug 17 19:55:34 2024, MaxMem=   13107200 cpu:       0.1
 (Enter /programs/64bit/g09/g09-gfortran/bin/l302.exe)
 NPDir=0 NMtPBC=     1 NCelOv=     1 NCel=       1 NClECP=     1 NCelD=      1
         NCelK=      1 NCelE2=     1 NClLst=     1 CellRange=     0.0.
 One-electron integrals computed using PRISM.
 One-electron integral symmetry used in STVInt
 NBasis=     6 RedAO= T  NBF=     3     0     0     0     0     3     0     0
 NBsUse=     6 1.00D-06 NBFU=     3     0     0     0     0     3     0     0
 Precomputing XC quadrature grid using
 IXCGrd= 2 IRadAn=           0 IRanWt=          -1 IRanGd=           0 AccXCQ= 1.00D-10.
 NRdTot=     128 NPtTot=       16336 NUsed=       17271 NTot=       17303
 NSgBfM=     6     6     6     6     6 NAtAll=     2     2.
 Leave Link  302 at Sat Aug 17 19:55:34 2024, MaxMem=   13107200 cpu:       0.1
 (Enter /programs/64bit/g09/g09-gfortran/bin/l303.exe)
 DipDrv:  MaxL=1.
 Leave Link  303 at Sat Aug 17 19:55:34 2024, MaxMem=   13107200 cpu:       0.0
 (Enter /programs/64bit/g09/g09-gfortran/bin/l401.exe)
 Harris functional with IExCor=  402 diagonalized for initial guess.
 ExpMin= 3.60D-02 ExpMax= 1.87D+01 ExpMxC= 1.87D+01 IAcc=3 IRadAn=         0 AccDes= 0.00D+00
 HarFok:  IExCor=  402 AccDes= 0.00D+00 IRadAn=         0 IDoV= 1
 ScaDFX=  1.000000  1.000000  1.000000  1.000000
 FoFCou: FMM=F IPFlag=           0 FMFlag=      100000 FMFlg1=           0
         NFxFlg=           0 DoJE=T BraDBF=F KetDBF=T FulRan=T
         Omega=  0.000000  0.000000  1.000000  0.000000  0.000000 ICntrl=     500 IOpCl=  0
         NMat0=    1 NMatS0=    1 NMatT0=    0 NMatD0=    1 NMtDS0=    0 NMtDT0=    0
         I1Cent=           4 NGrid=           0.
 Petite list used in FoFCou.
 Harris En= -1.18073235429550    
 Initial guess orbital symmetries:
       Occupied  (SGG)
       Virtual   (SGU) (SGG) (SGU) (SGG) (SGU)
 The electronic state of the initial guess is 1-SGG.
 Leave Link  401 at Sat Aug 17 19:55:34 2024, MaxMem=   13107200 cpu:       0.2
 (Enter /programs/64bit/g09/g09-gfortran/bin/l502.exe)
 Closed shell SCF:
 Requested convergence on RMS density matrix=1.00D-08 within 128 cycles.
 Requested convergence on MAX density matrix=1.00D-06.
 Requested convergence on             energy=1.00D-06.
 No special actions if energy rises.
 Using DIIS extrapolation, IDIIS=  1040.
 Integral symmetry usage will be decided dynamically.
        17240 words used for storage of precomputed grid.
 Keep R1 ints in memory in canonical form, NReq=878788.
 IEnd=       37025 IEndB=       37025 NGot=    13107200 MDV=    13087019
 LenX=    13087019 LenY=    13086137
 Symmetry not used in FoFDir.
 MinBra= 0 MaxBra= 0 Meth= 1.
 IRaf=       0 NMat=   1 IRICut=       1 DoRegI=T DoRafI=F ISym2E= 0 JSym2E=0.

 Cycle   1  Pass 1  IDiag  1:
 E= -1.17144779538041    
 DIIS: error= 1.78D-02 at cycle   1 NSaved=   1.
 NSaved= 1 IEnMin= 1 EnMin= -1.17144779538041     IErMin= 1 ErrMin= 1.78D-02
 ErrMax= 1.78D-02 EMaxC= 1.00D-01 BMatC= 2.59D-03 BMatP= 2.59D-03
 IDIUse=3 WtCom= 8.22D-01 WtEn= 1.78D-01
 Coeff-Com:  0.100D+01
 Coeff-En:   0.100D+01
 Coeff:      0.100D+01
 Gap=     0.446 Goal=   None    Shift=    0.000
 GapD=    0.446 DampG=2.000 DampE=0.500 DampFc=1.0000 IDamp=-1.
 RMSDP=9.82D-03 MaxDP=2.56D-02              OVMax= 4.12D-02

 Cycle   2  Pass 1  IDiag  1:
 E= -1.17579288124705     Delta-E=       -0.004345085867 Rises=F Damp=F
 DIIS: error= 3.10D-03 at cycle   2 NSaved=   2.
 NSaved= 2 IEnMin= 2 EnMin= -1.17579288124705     IErMin= 2 ErrMin= 3.10D-03
 ErrMax= 3.10D-03 EMaxC= 1.00D-01 BMatC= 8.35D-05 BMatP= 2.59D-03
 IDIUse=3 WtCom= 9.69D-01 WtEn= 3.10D-02
 Coeff-Com:  0.152D+00 0.848D+00
 Coeff-En:   0.000D+00 0.100D+01
 Coeff:      0.147D+00 0.853D+00
 Gap=     0.458 Goal=   None    Shift=    0.000
 RMSDP=1.46D-03 MaxDP=3.74D-03 DE=-4.35D-03 OVMax= 6.69D-03

 Cycle   3  Pass 1  IDiag  1:
 E= -1.17594151921668     Delta-E=       -0.000148637970 Rises=F Damp=F
 DIIS: error= 3.96D-05 at cycle   3 NSaved=   3.
 NSaved= 3 IEnMin= 3 EnMin= -1.17594151921668     IErMin= 3 ErrMin= 3.96D-05
 ErrMax= 3.96D-05 EMaxC= 1.00D-01 BMatC= 1.06D-08 BMatP= 8.35D-05
 IDIUse=1 WtCom= 1.00D+00 WtEn= 0.00D+00
 Coeff-Com: -0.553D-02-0.194D-01 0.102D+01
 Coeff:     -0.553D-02-0.194D-01 0.102D+01
 Gap=     0.458 Goal=   None    Shift=    0.000
 RMSDP=1.74D-05 MaxDP=4.31D-05 DE=-1.49D-04 OVMax= 4.11D-05

 Cycle   4  Pass 1  IDiag  1:
 E= -1.17594153592121     Delta-E=       -0.000000016705 Rises=F Damp=F
 DIIS: error= 3.14D-07 at cycle   4 NSaved=   4.
 NSaved= 4 IEnMin= 4 EnMin= -1.17594153592121     IErMin= 4 ErrMin= 3.14D-07
 ErrMax= 3.14D-07 EMaxC= 1.00D-01 BMatC= 5.97D-13 BMatP= 1.06D-08
 IDIUse=1 WtCom= 1.00D+00 WtEn= 0.00D+00
 Coeff-Com:  0.141D-04-0.397D-03-0.456D-01 0.105D+01
 Coeff:      0.141D-04-0.397D-03-0.456D-01 0.105D+01
 Gap=     0.458 Goal=   None    Shift=    0.000
 RMSDP=2.73D-07 MaxDP=4.39D-07 DE=-1.67D-08 OVMax= 1.25D-06

 Cycle   5  Pass 1  IDiag  1:
 E= -1.17594153592313     Delta-E=       -0.000000000002 Rises=F Damp=F
 DIIS: error= 2.04D-10 at cycle   5 NSaved=   5.
 NSaved= 5 IEnMin= 5 EnMin= -1.17594153592313     IErMin= 5 ErrMin= 2.04D-10
 ErrMax= 2.04D-10 EMaxC= 1.00D-01 BMatC= 2.70D-19 BMatP= 5.97D-13
 IDIUse=1 WtCom= 1.00D+00 WtEn= 0.00D+00
 Large coefficients: NSaved=  5 BigCof=    0.00 CofMax=   10.00 Det= 8.71D-28
 Inversion failed.  Reducing to  4 matrices.
 Coeff-Com: -0.354D-09 0.568D-05-0.247D-03 0.100D+01
 Coeff:     -0.354D-09 0.568D-05-0.247D-03 0.100D+01
 Gap=     0.458 Goal=   None    Shift=    0.000
 RMSDP=8.57D-11 MaxDP=2.00D-10 DE=-1.92D-12 OVMax= 5.37D-10

 SCF Done:  E(RB3LYP) =  -1.17594153592     A.U. after    5 cycles
             Convg  =    0.8573D-10             -V/T =  2.0310
 KE= 1.140625795449D+00 PE=-3.634045831619D+00 EE= 6.023741643146D-01
 Leave Link  502 at Sat Aug 17 19:55:34 2024, MaxMem=   13107200 cpu:       0.1
 (Enter /programs/64bit/g09/g09-gfortran/bin/l601.exe)
 Copying SCF densities to generalized density rwf, IOpCl= 0 IROHF=0.

 **********************************************************************

            Population analysis using the SCF density.

 **********************************************************************

 Orbital symmetries:
       Occupied  (SGG)
       Virtual   (SGU) (SGG) (SGU) (SGG) (SGU)
 The electronic state is 1-SGG.
 Alpha  occ. eigenvalues --   -0.43774
 Alpha virt. eigenvalues --    0.02022   0.03854   0.18067   0.74758   1.18680
     Molecular Orbital Coefficients:
                           1         2         3         4         5
                       (SGG)--O  (SGU)--V  (SGG)--V  (SGU)--V  (SGG)--V
     Eigenvalues --    -0.43774   0.02022   0.03854   0.18067   0.74758
   1 1   H  1S          0.33541   0.10327  -0.10266  -0.18662  -0.82041
   2        2S          0.25464   0.44503  -0.30775  -1.84433   0.96076
   3        3S          0.01579   3.11277   0.65172   3.15917  -0.36614
   4 2   H  1S          0.33541  -0.10327  -0.10266   0.18662  -0.82041
   5        2S          0.25464  -0.44503  -0.30775   1.84433   0.96076
   6        3S          0.01579  -3.11277   0.65172  -3.15917  -0.36614
                           6
                       (SGU)--V
     Eigenvalues --     1.18680
   1 1   H  1S         -1.13700
   2        2S          1.81173
   3        3S         -1.25238
   4 2   H  1S          1.13700
   5        2S         -1.81173
   6        3S          1.25238
     Density Matrix:
                           1         2         3         4         5
   1 1   H  1S          0.22500
   2        2S          0.17082   0.12968
   3        3S          0.01060   0.00804   0.00050
   4 2   H  1S          0.22500   0.17082   0.01060   0.22500
   5        2S          0.17082   0.12968   0.00804   0.17082   0.12968
   6        3S          0.01060   0.00804   0.00050   0.01060   0.00804
                           6
   6        3S          0.00050
    Full Mulliken population analysis:
                           1         2         3         4         5
   1 1   H  1S          0.22500
   2        2S          0.11245   0.12968
   3        3S          0.00287   0.00546   0.00050
   4 2   H  1S          0.10244   0.08696   0.00268   0.22500
   5        2S          0.08696   0.11076   0.00516   0.11245   0.12968
   6        3S          0.00268   0.00516   0.00048   0.00287   0.00546
                           6
   6        3S          0.00050
     Gross orbital populations:
                           1
   1 1   H  1S          0.53240
   2        2S          0.45046
   3        3S          0.01714
   4 2   H  1S          0.53240
   5        2S          0.45046
   6        3S          0.01714
          Condensed to atoms (all electrons):
              1          2
     1  H    0.596730   0.403270
     2  H    0.403270   0.596730
 Mulliken atomic charges:
              1
     1  H   -0.000000
     2  H   -0.000000
 Sum of Mulliken atomic charges =  -0.00000
 Mulliken charges with hydrogens summed into heavy atoms:
              1
 Sum of Mulliken charges with hydrogens summed into heavy atoms =  -0.00000
 Electronic spatial extent (au):  <R**2>=              5.2991
 Charge=             -0.0000 electrons
 Dipole moment (field-independent basis, Debye):
    X=              0.0000    Y=              0.0000    Z=             -0.0000  Tot=              0.0000
 Quadrupole moment (field-independent basis, Debye-Ang):
   XX=             -2.0756   YY=             -2.0756   ZZ=             -1.6611
   XY=              0.0000   XZ=             -0.0000   YZ=              0.0000
 Traceless Quadrupole moment (field-independent basis, Debye-Ang):
   XX=             -0.1382   YY=             -0.1382   ZZ=              0.2764
   XY=              0.0000   XZ=             -0.0000   YZ=              0.0000
 Octapole moment (field-independent basis, Debye-Ang**2):
  XXX=             -0.0000  YYY=              0.0000  ZZZ=             -0.0000  XYY=             -0.0000
  XXY=              0.0000  XXZ=             -0.0000  XZZ=             -0.0000  YZZ=              0.0000
  YYZ=              0.0000  XYZ=              0.0000
 Hexadecapole moment (field-independent basis, Debye-Ang**3):
 XXXX=             -2.1309 YYYY=             -2.1309 ZZZZ=             -3.1358 XXXY=              0.0000
 XXXZ=              0.0000 YYYX=              0.0000 YYYZ=              0.0000 ZZZX=              0.0000
 ZZZY=              0.0000 XXYY=             -0.7103 XXZZ=             -0.8887 YYZZ=             -0.8887
 XXYZ=              0.0000 YYXZ=              0.0000 ZZXY=              0.0000
 N-N= 7.151043359324D-01 E-N=-3.634045831972D+00  KE= 1.140625795449D+00
 Symmetry AG   KE= 1.140625795449D+00
 Symmetry B1G  KE= 0.000000000000D+00
 Symmetry B2G  KE= 0.000000000000D+00
 Symmetry B3G  KE= 0.000000000000D+00
 Symmetry AU   KE= 0.000000000000D+00
 Symmetry B1U  KE= 6.216863416430D-33
 Symmetry B2U  KE= 0.000000000000D+00
 Symmetry B3U  KE= 0.000000000000D+00
 Orbital energies and kinetic energies (alpha):
                                 1                 2
   1         (SGG)--O         -0.437744          0.570313
   2         (SGU)--V          0.020217          0.158889
   3         (SGG)--V          0.038545          0.152295
   4         (SGU)--V          0.180669          0.523635
   5         (SGG)--V          0.747583          1.567775
   6         (SGU)--V          1.186801          2.586218
 Total kinetic energy from orbitals= 1.140625795449D+00
 No NMR shielding tensors so no spin-rotation constants.
 Leave Link  601 at Sat Aug 17 19:55:34 2024, MaxMem=   13107200 cpu:       0.1
 (Enter /programs/64bit/g09/g09-gfortran/bin/l701.exe)
 Compute integral first derivatives.
 ... and contract with generalized density number  0.
 Leave Link  701 at Sat Aug 17 19:55:35 2024, MaxMem=   13107200 cpu:       0.1
 (Enter /programs/64bit/g09/g09-gfortran/bin/l702.exe)
 L702 exits ... SP integral derivatives will be done elsewhere.
 Leave Link  702 at Sat Aug 17 19:55:35 2024, MaxMem=   13107200 cpu:       0.1
 (Enter /programs/64bit/g09/g09-gfortran/bin/l703.exe)
 Compute integral first derivatives, UseDBF=F ICtDFT=           0.
 Integral derivatives from FoFDir, PRISM(SPDF).
 Calling FoFJK, ICntrl=      2127 FMM=F ISym2X=1 I1Cent= 0 IOpClX= 0 NMat=1 NMatS=1 NMatT=0.
 FoFCou: FMM=F IPFlag=           0 FMFlag=      100000 FMFlg1=         800
         NFxFlg=           0 DoJE=F BraDBF=F KetDBF=F FulRan=T
         Omega=  0.000000  0.000000  1.000000  0.000000  0.000000 ICntrl=    2127 IOpCl=  0
         NMat0=    1 NMatS0=    1 NMatT0=    0 NMatD0=    1 NMtDS0=    0 NMtDT0=    0
         I1Cent=           0 NGrid=           0.
 Petite list used in FoFCou.
 Leave Link  703 at Sat Aug 17 19:55:35 2024, MaxMem=   13107200 cpu:       0.1
 (Enter /programs/64bit/g09/g09-gfortran/bin/l716.exe)
 Dipole        = 0.00000000D+00 0.00000000D+00-1.11022302D-16
 ***** Axes restored to original set *****
 -------------------------------------------------------------------
 Center     Atomic                   Forces (Hartrees/Bohr)
 Number     Number              X              Y              Z
 -------------------------------------------------------------------
      1        1           0.000000000    0.000000000   -0.002423396
      2        1          -0.000000000   -0.000000000    0.002423396
 -------------------------------------------------------------------
 Cartesian Forces:  Max     0.002423396 RMS     0.001399148
 Leave Link  716 at Sat Aug 17 19:55:35 2024, MaxMem=   13107200 cpu:       0.0
 (Enter /programs/64bit/g09/g09-gfortran/bin/l103.exe)

 GradGradGradGradGradGradGradGradGradGradGradGradGradGradGradGradGradGrad
 Berny optimization.
 Internal  Forces:  Max     0.002423396 RMS     0.002423396
 Search for a local minimum.
 Step number   1 out of a maximum of   20
 All quantities printed in internal units (Hartrees-Bohrs-Radians)
 RMS Force = .24234D-02 SwitMx=.10000D-02 MixMth= 1
 Mixed Optimization -- RFO/linear search
 Second derivative matrix not updated -- first step.
 The second derivative matrix:
                          R1
           R1           0.39139
     Eigenvalues ---    0.39139
 RFO step:  Lambda=-1.50043652D-05 EMin= 3.91394209D-01
 Linear search not attempted -- first point.
 Iteration  1 RMS(Cart)=  0.00437803 RMS(Int)=  0.00000000
 Iteration  2 RMS(Cart)=  0.00000000 RMS(Int)=  0.00000000
 ClnCor:  largest displacement from symmetrization is 1.90D-19 for atom     1.
 Variable       Old X    -DE/DX   Delta X   Delta X   Delta X     New X
                                 (Linear)    (Quad)   (Total)
    R1        1.39840   0.00242   0.00000   0.00619   0.00619   1.40459
         Item               Value     Threshold  Converged?
 Maximum Force            0.002423     0.000450     NO 
 RMS     Force            0.002423     0.000300     NO 
 Maximum Displacement     0.003096     0.001800     NO 
 RMS     Displacement     0.004378     0.001200     NO 
 Predicted change in Energy=-7.502470D-06
 GradGradGradGradGradGradGradGradGradGradGradGradGradGradGradGradGradGrad

 Leave Link  103 at Sat Aug 17 19:55:35 2024, MaxMem=   13107200 cpu:       0.0
 (Enter /programs/64bit/g09/g09-gfortran/bin/l202.exe)
                          Input orientation:                          
 ---------------------------------------------------------------------
 Center     Atomic      Atomic             Coordinates (Angstroms)
 Number     Number       Type             X           Y           Z
 ---------------------------------------------------------------------
      1          1           0        0.000000    0.000000   -0.001638
      2          1           0        0.000000    0.000000    0.741638
 ---------------------------------------------------------------------
 Stoichiometry    H2
 Framework group  D*H[C*(H.H)]
 Deg. of freedom     1
 Full point group                 D*H     NOp   8
 Largest Abelian subgroup         D2H     NOp   8
 Largest concise Abelian subgroup C2      NOp   2
                         Standard orientation:                         
 ---------------------------------------------------------------------
 Center     Atomic      Atomic             Coordinates (Angstroms)
 Number     Number       Type             X           Y           Z
 ---------------------------------------------------------------------
      1          1           0        0.000000    0.000000    0.371638
      2          1           0        0.000000    0.000000   -0.371638
 ---------------------------------------------------------------------
 Rotational constants (GHZ):      0.0000000   1815.3542376   1815.3542376
 Leave Link  202 at Sat Aug 17 19:55:35 2024, MaxMem=   13107200 cpu:       0.0
 (Enter /programs/64bit/g09/g09-gfortran/bin/l301.exe)
 Standard basis: 6-31++G (6D, 7F)
 Ernie: Thresh=  0.10000D-02 Tol=  0.10000D-05 Strict=F.
 There are     3 symmetry adapted basis functions of AG  symmetry.
 There are     0 symmetry adapted basis functions of B1G symmetry.
 There are     0 symmetry adapted basis functions of B2G symmetry.
 There are     0 symmetry adapted basis functions of B3G symmetry.
 There are     0 symmetry adapted basis functions of AU  symmetry.
 There are     3 symmetry adapted basis functions of B1U symmetry.
 There are     0 symmetry adapted basis functions of B2U symmetry.
 There are     0 symmetry adapted basis functions of B3U symmetry.
 Integral buffers will be    131072 words long.
 Raffenetti 2 integral format.
 Two-electron integral symmetry is turned on.
     6 basis functions,    10 primitive gaussians,     6 cartesian basis functions
     1 alpha electrons        1 beta electrons
       nuclear repulsion energy         0.7119521378 Hartrees.
 IExCor=  402 DFT=T Ex+Corr=B3LYP ExCW=0 ScaHFX=  0.200000
 ScaDFX=  0.800000  0.720000  1.000000  0.810000 ScalE2=  1.000000  1.000000
 IRadAn=      0 IRanWt=     -1 IRanGd=            0 ICorTp=0
 NAtoms=    2 NActive=    2 NUniq=    1 SFac= 3.00D+00 NAtFMM=   80 NAOKFM=F Big=F
 Leave Link  301 at Sat Aug 17 19:55:35 2024, MaxMem=   13107200 cpu:       0.1
 (Enter /programs/64bit/g09/g09-gfortran/bin/l302.exe)
 NPDir=0 NMtPBC=     1 NCelOv=     1 NCel=       1 NClECP=     1 NCelD=      1
         NCelK=      1 NCelE2=     1 NClLst=     1 CellRange=     0.0.
 One-electron integrals computed using PRISM.
 One-electron integral symmetry used in STVInt
 NBasis=     6 RedAO= T  NBF=     3     0     0     0     0     3     0     0
 NBsUse=     6 1.00D-06 NBFU=     3     0     0     0     0     3     0     0
 Precomputing XC quadrature grid using
 IXCGrd= 2 IRadAn=           0 IRanWt=          -1 IRanGd=           0 AccXCQ= 1.00D-10.
 NRdTot=     128 NPtTot=       16336 NUsed=       17271 NTot=       17303
 NSgBfM=     6     6     6     6     6 NAtAll=     2     2.
 Leave Link  302 at Sat Aug 17 19:55:36 2024, MaxMem=   13107200 cpu:       0.2
 (Enter /programs/64bit/g09/g09-gfortran/bin/l303.exe)
 DipDrv:  MaxL=1.
 Leave Link  303 at Sat Aug 17 19:55:36 2024, MaxMem=   13107200 cpu:       0.0
 (Enter /programs/64bit/g09/g09-gfortran/bin/l401.exe)
 Initial guess read from the read-write file.
 B after Tr=     0.000000    0.000000    0.000000
         Rot=    1.000000    0.000000    0.000000    0.000000 Ang=   0.00 deg.
 Guess basis will be translated and rotated to current coordinates.
 Initial guess orbital symmetries:
       Occupied  (SGG)
       Virtual   (SGU) (SGG) (SGU) (SGG) (SGU)
 The electronic state of the initial guess is 1-SGG.
 Leave Link  401 at Sat Aug 17 19:55:36 2024, MaxMem=   13107200 cpu:       0.2
 (Enter /programs/64bit/g09/g09-gfortran/bin/l502.exe)
 Closed shell SCF:
 Requested convergence on RMS density matrix=1.00D-08 within 128 cycles.
 Requested convergence on MAX density matrix=1.00D-06.
 Requested convergence on             energy=1.00D-06.
 No special actions if energy rises.
 Using DIIS extrapolation, IDIIS=  1040.
 Integral symmetry usage will be decided dynamically.
        17240 words used for storage of precomputed grid.
 Keep R1 ints in memory in canonical form, NReq=878788.
 IEnd=       37025 IEndB=       37025 NGot=    13107200 MDV=    13087019
 LenX=    13087019 LenY=    13086137
 Symmetry not used in FoFDir.
 MinBra= 0 MaxBra= 0 Meth= 1.
 IRaf=       0 NMat=   1 IRICut=       1 DoRegI=T DoRafI=F ISym2E= 0 JSym2E=0.

 Cycle   1  Pass 1  IDiag  1:
 E= -1.17594760350604    
 DIIS: error= 3.77D-04 at cycle   1 NSaved=   1.
 NSaved= 1 IEnMin= 1 EnMin= -1.17594760350604     IErMin= 1 ErrMin= 3.77D-04
 ErrMax= 3.77D-04 EMaxC= 1.00D-01 BMatC= 1.01D-06 BMatP= 1.01D-06
 IDIUse=3 WtCom= 9.96D-01 WtEn= 3.77D-03
 Coeff-Com:  0.100D+01
 Coeff-En:   0.100D+01
 Coeff:      0.100D+01
 Gap=     0.457 Goal=   None    Shift=    0.000
 RMSDP=1.93D-04 MaxDP=4.89D-04              OVMax= 6.05D-04

 Cycle   2  Pass 1  IDiag  1:
 E= -1.17594917865438     Delta-E=       -0.000001575148 Rises=F Damp=F
 DIIS: error= 5.91D-05 at cycle   2 NSaved=   2.
 NSaved= 2 IEnMin= 2 EnMin= -1.17594917865438     IErMin= 2 ErrMin= 5.91D-05
 ErrMax= 5.91D-05 EMaxC= 1.00D-01 BMatC= 2.83D-08 BMatP= 1.01D-06
 IDIUse=1 WtCom= 1.00D+00 WtEn= 0.00D+00
 Coeff-Com:  0.142D+00 0.858D+00
 Coeff:      0.142D+00 0.858D+00
 Gap=     0.457 Goal=   None    Shift=    0.000
 RMSDP=2.72D-05 MaxDP=6.93D-05 DE=-1.58D-06 OVMax= 1.34D-04

 Cycle   3  Pass 1  IDiag  1:
 E= -1.17594923086994     Delta-E=       -0.000000052216 Rises=F Damp=F
 DIIS: error= 1.61D-06 at cycle   3 NSaved=   3.
 NSaved= 3 IEnMin= 3 EnMin= -1.17594923086994     IErMin= 3 ErrMin= 1.61D-06
 ErrMax= 1.61D-06 EMaxC= 1.00D-01 BMatC= 1.28D-11 BMatP= 2.83D-08
 IDIUse=1 WtCom= 1.00D+00 WtEn= 0.00D+00
 Coeff-Com: -0.124D-01-0.537D-01 0.107D+01
 Coeff:     -0.124D-01-0.537D-01 0.107D+01
 Gap=     0.457 Goal=   None    Shift=    0.000
 RMSDP=8.52D-07 MaxDP=1.60D-06 DE=-5.22D-08 OVMax= 1.39D-06

 Cycle   4  Pass 1  IDiag  1:
 E= -1.17594923089119     Delta-E=       -0.000000000021 Rises=F Damp=F
 DIIS: error= 1.80D-10 at cycle   4 NSaved=   4.
 NSaved= 4 IEnMin= 4 EnMin= -1.17594923089119     IErMin= 4 ErrMin= 1.80D-10
 ErrMax= 1.80D-10 EMaxC= 1.00D-01 BMatC= 1.59D-19 BMatP= 1.28D-11
 IDIUse=1 WtCom= 1.00D+00 WtEn= 0.00D+00
 Coeff-Com:  0.667D-07-0.137D-05-0.174D-03 0.100D+01
 Coeff:      0.667D-07-0.137D-05-0.174D-03 0.100D+01
 Gap=     0.457 Goal=   None    Shift=    0.000
 RMSDP=1.25D-10 MaxDP=2.19D-10 DE=-2.13D-11 OVMax= 4.59D-10

 SCF Done:  E(RB3LYP) =  -1.17594923089     A.U. after    4 cycles
             Convg  =    0.1253D-09             -V/T =  2.0337
 KE= 1.137615099743D+00 PE=-3.626649964126D+00 EE= 6.011334956437D-01
 Leave Link  502 at Sat Aug 17 19:55:37 2024, MaxMem=   13107200 cpu:       0.1
 (Enter /programs/64bit/g09/g09-gfortran/bin/l701.exe)
 Compute integral first derivatives.
 ... and contract with generalized density number  0.
 Leave Link  701 at Sat Aug 17 19:55:37 2024, MaxMem=   13107200 cpu:       0.1
 (Enter /programs/64bit/g09/g09-gfortran/bin/l702.exe)
 L702 exits ... SP integral derivatives will be done elsewhere.
 Leave Link  702 at Sat Aug 17 19:55:37 2024, MaxMem=   13107200 cpu:       0.0
 (Enter /programs/64bit/g09/g09-gfortran/bin/l703.exe)
 Compute integral first derivatives, UseDBF=F ICtDFT=           0.
 Integral derivatives from FoFDir, PRISM(SPDF).
 Calling FoFJK, ICntrl=      2127 FMM=F ISym2X=1 I1Cent= 0 IOpClX= 0 NMat=1 NMatS=1 NMatT=0.
 FoFCou: FMM=F IPFlag=           0 FMFlag=      100000 FMFlg1=         800
         NFxFlg=           0 DoJE=F BraDBF=F KetDBF=F FulRan=T
         Omega=  0.000000  0.000000  1.000000  0.000000  0.000000 ICntrl=    2127 IOpCl=  0
         NMat0=    1 NMatS0=    1 NMatT0=    0 NMatD0=    1 NMtDS0=    0 NMtDT0=    0
         I1Cent=           0 NGrid=           0.
 Petite list used in FoFCou.
 Leave Link  703 at Sat Aug 17 19:55:37 2024, MaxMem=   13107200 cpu:       0.1
 (Enter /programs/64bit/g09/g09-gfortran/bin/l716.exe)
 Dipole        =-4.93038066D-32 0.00000000D+00 0.00000000D+00
 ***** Axes restored to original set *****
 -------------------------------------------------------------------
 Center     Atomic                   Forces (Hartrees/Bohr)
 Number     Number              X              Y              Z
 -------------------------------------------------------------------
      1        1           0.000000000    0.000000000   -0.000070633
      2        1          -0.000000000   -0.000000000    0.000070633
 -------------------------------------------------------------------
 Cartesian Forces:  Max     0.000070633 RMS     0.000040780
 Leave Link  716 at Sat Aug 17 19:55:37 2024, MaxMem=   13107200 cpu:       0.0
 (Enter /programs/64bit/g09/g09-gfortran/bin/l103.exe)

 GradGradGradGradGradGradGradGradGradGradGradGradGradGradGradGradGradGrad
 Berny optimization.
 Using GEDIIS/GDIIS optimizer.
 Internal  Forces:  Max     0.000070633 RMS     0.000070633
 Search for a local minimum.
 Step number   2 out of a maximum of   20
 All quantities printed in internal units (Hartrees-Bohrs-Radians)
 RMS Force = .70633D-04 SwitMx=.10000D-02 MixMth= 2
 Mixed Optimization -- En-DIIS/RFO-DIIS
 Update second derivatives using D2CorX and points    1    2
 DE= -7.69D-06 DEPred=-7.50D-06 R= 1.03D+00
 SS=  1.41D+00  RLast= 6.19D-03 DXNew= 5.0454D-01 1.8574D-02
 Trust test= 1.03D+00 RLast= 6.19D-03 DXMaxT set to 3.00D-01
 The second derivative matrix:
                          R1
           R1           0.38000
 Use linear search instead of GDIIS.
     Eigenvalues ---    0.38000
 RFO step:  Lambda= 0.00000000D+00 EMin= 3.80001156D-01
 Quartic linear search produced a step of  0.03035.
 Iteration  1 RMS(Cart)=  0.00013289 RMS(Int)=  0.00000000
 Iteration  2 RMS(Cart)=  0.00000000 RMS(Int)=  0.00000000
 ClnCor:  largest displacement from symmetrization is 2.22D-16 for atom     2.
 Variable       Old X    -DE/DX   Delta X   Delta X   Delta X     New X
                                 (Linear)    (Quad)   (Total)
    R1        1.40459   0.00007   0.00019   0.00000   0.00019   1.40478
         Item               Value     Threshold  Converged?
 Maximum Force            0.000071     0.000450     YES
 RMS     Force            0.000071     0.000300     YES
 Maximum Displacement     0.000094     0.001800     YES
 RMS     Displacement     0.000133     0.001200     YES
 Predicted change in Energy=-6.563594D-09
 Optimization completed.
    -- Stationary point found.
                           ----------------------------
                           !   Optimized Parameters   !
                           ! (Angstroms and Degrees)  !
 --------------------------                            --------------------------
 ! Name  Definition              Value          Derivative Info.                !
 --------------------------------------------------------------------------------
 ! R1    R(1,2)                  0.7433         -DE/DX =    0.0001              !
 --------------------------------------------------------------------------------
 GradGradGradGradGradGradGradGradGradGradGradGradGradGradGradGradGradGrad

 Largest change from initial coordinates is atom    1       0.002 Angstoms.
 Leave Link  103 at Sat Aug 17 19:55:37 2024, MaxMem=   13107200 cpu:       0.0
 (Enter /programs/64bit/g09/g09-gfortran/bin/l202.exe)
                          Input orientation:                          
 ---------------------------------------------------------------------
 Center     Atomic      Atomic             Coordinates (Angstroms)
 Number     Number       Type             X           Y           Z
 ---------------------------------------------------------------------
      1          1           0        0.000000    0.000000   -0.001638
      2          1           0        0.000000    0.000000    0.741638
 ---------------------------------------------------------------------
 Stoichiometry    H2
 Framework group  D*H[C*(H.H)]
 Deg. of freedom     1
 Full point group                 D*H     NOp   8
 Largest Abelian subgroup         D2H     NOp   8
 Largest concise Abelian subgroup C2      NOp   2
                         Standard orientation:                         
 ---------------------------------------------------------------------
 Center     Atomic      Atomic             Coordinates (Angstroms)
 Number     Number       Type             X           Y           Z
 ---------------------------------------------------------------------
      1          1           0        0.000000    0.000000    0.371638
      2          1           0        0.000000    0.000000   -0.371638
 ---------------------------------------------------------------------
 Rotational constants (GHZ):      0.0000000   1815.3542376   1815.3542376
 Leave Link  202 at Sat Aug 17 19:55:37 2024, MaxMem=   13107200 cpu:       0.0
 (Enter /programs/64bit/g09/g09-gfortran/bin/l601.exe)
 Copying SCF densities to generalized density rwf, IOpCl= 0 IROHF=0.

 **********************************************************************

            Population analysis using the SCF density.

 **********************************************************************

 Orbital symmetries:
       Occupied  (SGG)
       Virtual   (SGU) (SGG) (SGU) (SGG) (SGU)
 The electronic state is 1-SGG.
 Alpha  occ. eigenvalues --   -0.43710
 Alpha virt. eigenvalues --    0.01989   0.03858   0.17984   0.74915   1.18299
     Molecular Orbital Coefficients:
                           1         2         3         4         5
                       (SGG)--O  (SGU)--V  (SGG)--V  (SGU)--V  (SGG)--V
     Eigenvalues --    -0.43710   0.01989   0.03858   0.17984   0.74915
   1 1   H  1S          0.33499   0.10408  -0.10259  -0.18708  -0.82196
   2        2S          0.25533   0.44714  -0.30854  -1.83358   0.96121
   3        3S          0.01585   3.09140   0.65202   3.15284  -0.36604
   4 2   H  1S          0.33499  -0.10408  -0.10259   0.18708  -0.82196
   5        2S          0.25533  -0.44714  -0.30854   1.83358   0.96121
   6        3S          0.01585  -3.09140   0.65202  -3.15284  -0.36604
                           6
                       (SGU)--V
     Eigenvalues --     1.18299
   1 1   H  1S         -1.13421
   2        2S          1.80851
   3        3S         -1.25016
   4 2   H  1S          1.13421
   5        2S         -1.80851
   6        3S          1.25016
     Density Matrix:
                           1         2         3         4         5
   1 1   H  1S          0.22444
   2        2S          0.17106   0.13038
   3        3S          0.01062   0.00809   0.00050
   4 2   H  1S          0.22444   0.17106   0.01062   0.22444
   5        2S          0.17106   0.13038   0.00809   0.17106   0.13038
   6        3S          0.01062   0.00809   0.00050   0.01062   0.00809
                           6
   6        3S          0.00050
    Full Mulliken population analysis:
                           1         2         3         4         5
   1 1   H  1S          0.22444
   2        2S          0.11261   0.13038
   3        3S          0.00287   0.00550   0.00050
   4 2   H  1S          0.10153   0.08688   0.00268   0.22444
   5        2S          0.08688   0.11121   0.00519   0.11261   0.13038
   6        3S          0.00268   0.00519   0.00049   0.00287   0.00550
                           6
   6        3S          0.00050
     Gross orbital populations:
                           1
   1 1   H  1S          0.53101
   2        2S          0.45176
   3        3S          0.01723
   4 2   H  1S          0.53101
   5        2S          0.45176
   6        3S          0.01723
          Condensed to atoms (all electrons):
              1          2
     1  H    0.597275   0.402725
     2  H    0.402725   0.597275
 Mulliken atomic charges:
              1
     1  H   -0.000000
     2  H   -0.000000
 Sum of Mulliken atomic charges =  -0.00000
 Mulliken charges with hydrogens summed into heavy atoms:
              1
 Sum of Mulliken charges with hydrogens summed into heavy atoms =  -0.00000
 Electronic spatial extent (au):  <R**2>=              5.3164
 Charge=             -0.0000 electrons
 Dipole moment (field-independent basis, Debye):
    X=             -0.0000    Y=              0.0000    Z=              0.0000  Tot=              0.0000
 Quadrupole moment (field-independent basis, Debye-Ang):
   XX=             -2.0805   YY=             -2.0805   ZZ=             -1.6628
   XY=              0.0000   XZ=             -0.0000   YZ=              0.0000
 Traceless Quadrupole moment (field-independent basis, Debye-Ang):
   XX=             -0.1392   YY=             -0.1392   ZZ=              0.2785
   XY=              0.0000   XZ=             -0.0000   YZ=              0.0000
 Octapole moment (field-independent basis, Debye-Ang**2):
  XXX=             -0.0000  YYY=              0.0000  ZZZ=             -0.0000  XYY=             -0.0000
  XXY=              0.0000  XXZ=             -0.0000  XZZ=             -0.0000  YZZ=              0.0000
  YYZ=             -0.0000  XYZ=              0.0000
 Hexadecapole moment (field-independent basis, Debye-Ang**3):
 XXXX=             -2.1395 YYYY=             -2.1395 ZZZZ=             -3.1559 XXXY=              0.0000
 XXXZ=              0.0000 YYYX=              0.0000 YYYZ=              0.0000 ZZZX=              0.0000
 ZZZY=              0.0000 XXYY=             -0.7132 XXZZ=             -0.8936 YYZZ=             -0.8936
 XXYZ=              0.0000 YYXZ=              0.0000 ZZXY=              0.0000
 N-N= 7.119521378486D-01 E-N=-3.626649964135D+00  KE= 1.137615099743D+00
 Symmetry AG   KE= 1.137615099743D+00
 Symmetry B1G  KE= 0.000000000000D+00
 Symmetry B2G  KE= 0.000000000000D+00
 Symmetry B3G  KE= 0.000000000000D+00
 Symmetry AU   KE= 0.000000000000D+00
 Symmetry B1U  KE= 1.189989457069D-33
 Symmetry B2U  KE= 0.000000000000D+00
 Symmetry B3U  KE= 0.000000000000D+00
 Orbital energies and kinetic energies (alpha):
                                 1                 2
   1         (SGG)--O         -0.437103          0.568808
   2         (SGU)--V          0.019893          0.160022
   3         (SGG)--V          0.038576          0.152353
   4         (SGU)--V          0.179841          0.523463
   5         (SGG)--V          0.749148          1.570199
   6         (SGU)--V          1.182993          2.579931
 Total kinetic energy from orbitals= 1.137615099743D+00
 No NMR shielding tensors so no spin-rotation constants.
 Leave Link  601 at Sat Aug 17 19:55:38 2024, MaxMem=   13107200 cpu:       0.1
 (Enter /programs/64bit/g09/g09-gfortran/bin/l9999.exe)
 B after Tr=     0.000000    0.000000    0.699199
         Rot=    0.000000   -0.000000    1.000000   -0.000000 Ang= 180.00 deg.
 Final structure in terms of initial Z-matrix:
 H
 H,1,d
      Variables:
 d=0.74327638
 1\1\GINC-MOLMOD\FOpt\RB3LYP\6-31++G\H2\OSPITE\17-Aug-2024\0\\#p b3lyp/
 6-31++G opt freq pop=full gfinput\\hydrogen(molecule) with hf/6-31++G 
 basis function\\0,1\H,0.,0.,-0.0016381906\H,0.,0.,0.7416381906\\Versio
 n=EM64L-G09RevA.02\State=1-SGG\HF=-1.1759492\RMSD=1.253e-10\RMSF=4.078
 e-05\Dipole=0.,0.,0.\Quadrupole=-0.1035128,-0.1035128,0.2070256,0.,0.,
 0.\PG=D*H [C*(H1.H1)]\\@


 10 WHATSOEVER THY HAND FINDETH TO DO, DO IT WITH THY  
 MIGHT. FOR THERE IS NO WORK, NOR DEVICE, NOR KNOWLEDGE, NOR  
 WISDOM, IN THE GRAVE, WHITHER THOU GOEST.                    
 11 I RETURNED AND SAW UNDER THE SUN, THAT THE RACE IS NOT TO 
 THE SWIFT, NOR THE BATTLE TO THE STRONG, NEITHER YET BREAD TO
 THE WISE, NOR YET RICHES TO MEN OF UNDERSTANDING, NOR YET    
 FAVOR TO MEN OF SKILL. BUT TIME AND CHANCE HAPPEN TO THEM ALL.
 12 FOR MAN ALSO KNOWETH NOT HIS TIME. AS THE FISHES   
 THAT ARE TAKEN IN AN EVIL NET, AND AS THE BIRDS THAT ARE     
 CAUGHT IN THE SNARE. SO ARE THE SONS OF MEN SNARED IN AN EVIL
 TIME, WHEN IT FALLETH SUDDENLY UPON THEM.
                                         ECCLESIASTES 9
 Leave Link 9999 at Sat Aug 17 19:55:38 2024, MaxMem=   13107200 cpu:       0.1
 Job cpu time:  0 days  0 hours  0 minutes  2.7 seconds.
 File lengths (MBytes):  RWF=      5 Int=      0 D2E=      0 Chk=      1 Scr=      1
 Normal termination of Gaussian 09 at Sat Aug 17 19:55:38 2024.
 (Enter /programs/64bit/g09/g09-gfortran/bin/l1.exe)
 Link1:  Proceeding to internal job step number  2.
 -------------------------------------------------------------------
 #P Geom=AllCheck Guess=TCheck SCRF=Check GenChk RB3LYP/6-31++G Freq
 -------------------------------------------------------------------
 1/10=4,29=7,30=1,38=1,40=1/1,3;
 2/12=2,40=1/2;
 3/5=1,6=6,7=1010,11=2,14=-4,16=1,24=10,25=1,30=1,70=2,71=2,74=-5,116=1/1,2,3;
 4/5=101/1;
 5/5=2,98=1/2;
 8/6=4,10=90,11=11/1;
 11/6=1,8=1,9=11,15=111,16=1/1,2,10;
 10/6=1/2;
 6/7=3,18=1,28=1/1;
 7/8=1,10=1,25=1/1,2,3,16;
 1/10=4,30=1/3;
 99//99;
 Leave Link    1 at Sat Aug 17 19:55:38 2024, MaxMem=   13107200 cpu:       0.1
 (Enter /programs/64bit/g09/g09-gfortran/bin/l101.exe)
 -------------------------------------------------
 hydrogen(molecule) with hf/6-31++G basis function
 -------------------------------------------------
 Redundant internal coordinates taken from checkpoint file:
 /home/ospite/Desktop/MMfP/Project6/H2/g09/DFT/Gau-12885.chk
 Charge =  0 Multiplicity = 1
 H,0,0.,0.,-0.0016381906
 H,0,0.,0.,0.7416381906
 Recover connectivity data from disk.
                    Isotopes and Nuclear Properties:
 (Nuclear quadrupole moments (NQMom) in fm**2, nuclear magnetic moments (NMagM)
  in nuclear magnetons)

  Atom         1           2
 IAtWgt=           1           1
 AtmWgt=   1.0078250   1.0078250
 NucSpn=           1           1
 AtZEff=  -1.0000000  -1.0000000
 NQMom=    0.0000000   0.0000000
 NMagM=    2.7928460   2.7928460
 Leave Link  101 at Sat Aug 17 19:55:38 2024, MaxMem=   13107200 cpu:       0.1
 (Enter /programs/64bit/g09/g09-gfortran/bin/l103.exe)

 GradGradGradGradGradGradGradGradGradGradGradGradGradGradGradGradGradGrad
 Berny optimization.
 Initialization pass.
                           ----------------------------
                           !    Initial Parameters    !
                           ! (Angstroms and Degrees)  !
 --------------------------                            --------------------------
 ! Name  Definition              Value          Derivative Info.                !
 --------------------------------------------------------------------------------
 ! R1    R(1,2)                  0.7433         calculate D2E/DX2 analytically  !
 --------------------------------------------------------------------------------
 Trust Radius=3.00D-01 FncErr=1.00D-07 GrdErr=1.00D-07
 Number of steps in this run=   2 maximum allowed number of steps=   2.
 GradGradGradGradGradGradGradGradGradGradGradGradGradGradGradGradGradGrad

 Leave Link  103 at Sat Aug 17 19:55:38 2024, MaxMem=   13107200 cpu:       0.0
 (Enter /programs/64bit/g09/g09-gfortran/bin/l202.exe)
                          Input orientation:                          
 ---------------------------------------------------------------------
 Center     Atomic      Atomic             Coordinates (Angstroms)
 Number     Number       Type             X           Y           Z
 ---------------------------------------------------------------------
      1          1           0       -0.000000    0.000000   -0.001638
      2          1           0        0.000000    0.000000    0.741638
 ---------------------------------------------------------------------
 Stoichiometry    H2
 Framework group  D*H[C*(H.H)]
 Deg. of freedom     1
 Full point group                 D*H     NOp   8
 Largest Abelian subgroup         D2H     NOp   8
 Largest concise Abelian subgroup C2      NOp   2
                         Standard orientation:                         
 ---------------------------------------------------------------------
 Center     Atomic      Atomic             Coordinates (Angstroms)
 Number     Number       Type             X           Y           Z
 ---------------------------------------------------------------------
      1          1           0        0.000000    0.000000    0.371638
      2          1           0        0.000000    0.000000   -0.371638
 ---------------------------------------------------------------------
 Rotational constants (GHZ):      0.0000000   1815.3542376   1815.3542376
 Leave Link  202 at Sat Aug 17 19:55:39 2024, MaxMem=   13107200 cpu:       0.0
 (Enter /programs/64bit/g09/g09-gfortran/bin/l301.exe)
 Standard basis: 6-31++G (6D, 7F)
 Ernie: Thresh=  0.10000D-02 Tol=  0.10000D-05 Strict=F.
 AO basis set in the form of general basis input (Overlap normalization):
      1 0
 S   3 1.00       0.000000000000
      0.1873113696D+02  0.3349460434D-01
      0.2825394365D+01  0.2347269535D+00
      0.6401216923D+00  0.8137573261D+00
 S   1 1.00       0.000000000000
      0.1612777588D+00  0.1000000000D+01
 S   1 1.00       0.000000000000
      0.3600000000D-01  0.1000000000D+01
 ****
      2 0
 S   3 1.00       0.000000000000
      0.1873113696D+02  0.3349460434D-01
      0.2825394365D+01  0.2347269535D+00
      0.6401216923D+00  0.8137573261D+00
 S   1 1.00       0.000000000000
      0.1612777588D+00  0.1000000000D+01
 S   1 1.00       0.000000000000
      0.3600000000D-01  0.1000000000D+01
 ****

 There are     3 symmetry adapted basis functions of AG  symmetry.
 There are     0 symmetry adapted basis functions of B1G symmetry.
 There are     0 symmetry adapted basis functions of B2G symmetry.
 There are     0 symmetry adapted basis functions of B3G symmetry.
 There are     0 symmetry adapted basis functions of AU  symmetry.
 There are     3 symmetry adapted basis functions of B1U symmetry.
 There are     0 symmetry adapted basis functions of B2U symmetry.
 There are     0 symmetry adapted basis functions of B3U symmetry.
 Integral buffers will be    131072 words long.
 Raffenetti 2 integral format.
 Two-electron integral symmetry is turned on.
     6 basis functions,    10 primitive gaussians,     6 cartesian basis functions
     1 alpha electrons        1 beta electrons
       nuclear repulsion energy         0.7119521378 Hartrees.
 IExCor=  402 DFT=T Ex+Corr=B3LYP ExCW=0 ScaHFX=  0.200000
 ScaDFX=  0.800000  0.720000  1.000000  0.810000 ScalE2=  1.000000  1.000000
 IRadAn=      0 IRanWt=     -1 IRanGd=            0 ICorTp=0
 NAtoms=    2 NActive=    2 NUniq=    1 SFac= 3.00D+00 NAtFMM=   80 NAOKFM=F Big=F
 Leave Link  301 at Sat Aug 17 19:55:39 2024, MaxMem=   13107200 cpu:       0.1
 (Enter /programs/64bit/g09/g09-gfortran/bin/l302.exe)
 NPDir=0 NMtPBC=     1 NCelOv=     1 NCel=       1 NClECP=     1 NCelD=      1
         NCelK=      1 NCelE2=     1 NClLst=     1 CellRange=     0.0.
 One-electron integrals computed using PRISM.
 One-electron integral symmetry used in STVInt
 NBasis=     6 RedAO= T  NBF=     3     0     0     0     0     3     0     0
 NBsUse=     6 1.00D-06 NBFU=     3     0     0     0     0     3     0     0
 Precomputing XC quadrature grid using
 IXCGrd= 2 IRadAn=           0 IRanWt=          -1 IRanGd=           0 AccXCQ= 1.00D-10.
 NRdTot=     128 NPtTot=       16336 NUsed=       17271 NTot=       17303
 NSgBfM=     6     6     6     6     6 NAtAll=     2     2.
 Leave Link  302 at Sat Aug 17 19:55:39 2024, MaxMem=   13107200 cpu:       0.1
 (Enter /programs/64bit/g09/g09-gfortran/bin/l303.exe)
 DipDrv:  MaxL=1.
 Leave Link  303 at Sat Aug 17 19:55:39 2024, MaxMem=   13107200 cpu:       0.0
 (Enter /programs/64bit/g09/g09-gfortran/bin/l401.exe)
 Initial guess read from the checkpoint file:  /home/ospite/Desktop/MMfP/Project6
 /H2/g09/DFT/Gau-12885.chk
 B after Tr=    -0.000000    0.000000   -0.000000
         Rot=    1.000000    0.000000    0.000000    0.000000 Ang=   0.00 deg.
 Guess basis will be translated and rotated to current coordinates.
 Initial guess orbital symmetries:
       Occupied  (SGG)
       Virtual   (SGU) (SGG) (SGU) (SGG) (SGU)
 The electronic state of the initial guess is 1-SGG.
 Leave Link  401 at Sat Aug 17 19:55:39 2024, MaxMem=   13107200 cpu:       0.2
 (Enter /programs/64bit/g09/g09-gfortran/bin/l502.exe)
 Closed shell SCF:
 Requested convergence on RMS density matrix=1.00D-08 within 128 cycles.
 Requested convergence on MAX density matrix=1.00D-06.
 Requested convergence on             energy=1.00D-06.
 No special actions if energy rises.
 Using DIIS extrapolation, IDIIS=  1040.
 Integral symmetry usage will be decided dynamically.
        17240 words used for storage of precomputed grid.
 Keep R1 ints in memory in canonical form, NReq=878788.
 IEnd=       37025 IEndB=       37025 NGot=    13107200 MDV=    13087019
 LenX=    13087019 LenY=    13086137
 Symmetry not used in FoFDir.
 MinBra= 0 MaxBra= 0 Meth= 1.
 IRaf=       0 NMat=   1 IRICut=       1 DoRegI=T DoRafI=F ISym2E= 0 JSym2E=0.

 Cycle   1  Pass 1  IDiag  1:
 E= -1.17594923089119    
 DIIS: error= 8.04D-16 at cycle   1 NSaved=   1.
 NSaved= 1 IEnMin= 1 EnMin= -1.17594923089119     IErMin= 1 ErrMin= 8.04D-16
 ErrMax= 8.04D-16 EMaxC= 1.00D-01 BMatC= 4.41D-30 BMatP= 4.41D-30
 IDIUse=1 WtCom= 1.00D+00 WtEn= 0.00D+00
 Coeff-Com:  0.100D+01
 Coeff:      0.100D+01
 Gap=     0.457 Goal=   None    Shift=    0.000
 RMSDP=5.91D-16 MaxDP=8.38D-16              OVMax= 3.79D-15

 SCF Done:  E(RB3LYP) =  -1.17594923089     A.U. after    1 cycles
             Convg  =    0.5908D-15             -V/T =  2.0337
 KE= 1.137615099743D+00 PE=-3.626649964135D+00 EE= 6.011334956521D-01
 Leave Link  502 at Sat Aug 17 19:55:39 2024, MaxMem=   13107200 cpu:       0.1
 (Enter /programs/64bit/g09/g09-gfortran/bin/l801.exe)
 Range of M.O.s used for correlation:     1     6
 NBasis=     6 NAE=     1 NBE=     1 NFC=     0 NFV=     0
 NROrb=      6 NOA=     1 NOB=     1 NVA=     5 NVB=     5
 Leave Link  801 at Sat Aug 17 19:55:39 2024, MaxMem=   13107200 cpu:       0.0
 (Enter /programs/64bit/g09/g09-gfortran/bin/l1101.exe)
 Using compressed storage, NAtomX=     2.
 Will process   3 centers per pass.
 Leave Link 1101 at Sat Aug 17 19:55:40 2024, MaxMem=   13107200 cpu:       0.1
 (Enter /programs/64bit/g09/g09-gfortran/bin/l1102.exe)
 Symmetrizing basis deriv contribution to polar:
 IMax=3 JMax=2 DiffMx= 0.00D+00
 Leave Link 1102 at Sat Aug 17 19:55:40 2024, MaxMem=   13107200 cpu:       0.0
 (Enter /programs/64bit/g09/g09-gfortran/bin/l1110.exe)
 Forming Gx(P) for the SCF density, NAtomX=     2.
 Integral derivatives from FoFDir/FoFCou, PRISM(SPDF).
 Do as many integral derivatives as possible in FoFDir.
 G2DrvN: MDV=      13107080.
 G2DrvN: will do     3 centers at a time, making    1 passes doing MaxLOS=1.
 Calling FoFCou, ICntrl=  3107 FMM=F I1Cent=   0 AccDes= 0.00D+00.
 FoFCou: FMM=F IPFlag=           0 FMFlag=      100000 FMFlg1=           0
         NFxFlg=           0 DoJE=F BraDBF=F KetDBF=F FulRan=T
         Omega=  0.000000  0.000000  1.000000  0.000000  0.000000 ICntrl=    3107 IOpCl=  0
         NMat0=    1 NMatS0=    1 NMatT0=    0 NMatD0=    1 NMtDS0=    0 NMtDT0=    0
         I1Cent=           0 NGrid=           0.
 Petite list used in FoFCou.
 FoFDir/FoFCou used for L=0 through L=1.
 End of G2Drv Frequency-dependent properties file   721 does not exist.
 End of G2Drv Frequency-dependent properties file   722 does not exist.
 Leave Link 1110 at Sat Aug 17 19:55:40 2024, MaxMem=   13107200 cpu:       0.1
 (Enter /programs/64bit/g09/g09-gfortran/bin/l1002.exe)
 Minotr:  Closed shell wavefunction.
          IDoAtm=11
          Direct CPHF calculation.
          Differentiating once with respect to electric field.
                with respect to dipole field.
          Differentiating once with respect to nuclear coordinates.
          Using symmetry in CPHF.
          Requested convergence is 1.0D-08 RMS, and 1.0D-07 maximum.
          Secondary convergence is 1.0D-12 RMS, and 1.0D-12 maximum.
          NewPWx=T KeepS1=F KeepF1=F KeepIn=T MapXYZ=F SortEE=F KeepMc=T.
          MDV=      13107176 using IRadAn=       2.
 Generate precomputed XC quadrature information.
          Keep R1 ints in memory in canonical form, NReq=801122.
 Symmetry not used in FoFDir.
 MinBra= 0 MaxBra= 0 Meth= 1.
 IRaf=       0 NMat=   1 IRICut=       1 DoRegI=T DoRafI=F ISym2E= 0 JSym2E=0.
          Solving linear equations simultaneously, MaxMat=       0.
          There are     6 degrees of freedom in the 1st order CPHF.  IDoFFX=4.
      2 vectors produced by pass  0 Test12= 8.33D-17 1.67D-08 XBig12= 4.10D+00 1.67D+00.
 AX will form     2 AO Fock derivatives at one time.
      2 vectors produced by pass  1 Test12= 8.33D-17 1.67D-08 XBig12= 8.73D-02 2.06D-01.
      1 vectors produced by pass  2 Test12= 8.33D-17 1.67D-08 XBig12= 4.01D-05 4.52D-03.
 Inverted reduced A of dimension     5 with in-core refinement.
 FullF1:  Do perturbations    1 to     6.
 Isotropic polarizability for W=    0.000000        2.31 Bohr**3.
 End of Minotr Frequency-dependent properties file   721 does not exist.
 End of Minotr Frequency-dependent properties file   722 does not exist.
 Leave Link 1002 at Sat Aug 17 19:55:41 2024, MaxMem=   13107200 cpu:       0.2
 (Enter /programs/64bit/g09/g09-gfortran/bin/l601.exe)
 Copying SCF densities to generalized density rwf, IOpCl= 0 IROHF=0.

 **********************************************************************

            Population analysis using the SCF density.

 **********************************************************************

 Orbital symmetries:
       Occupied  (SGG)
       Virtual   (SGU) (SGG) (SGU) (SGG) (SGU)
 The electronic state is 1-SGG.
 Alpha  occ. eigenvalues --   -0.43710
 Alpha virt. eigenvalues --    0.01989   0.03858   0.17984   0.74915   1.18299
     Molecular Orbital Coefficients:
                           1         2         3         4         5
                       (SGG)--O  (SGU)--V  (SGG)--V  (SGU)--V  (SGG)--V
     Eigenvalues --    -0.43710   0.01989   0.03858   0.17984   0.74915
   1 1   H  1S          0.33499   0.10408  -0.10259  -0.18708  -0.82196
   2        2S          0.25533   0.44714  -0.30854  -1.83358   0.96121
   3        3S          0.01585   3.09140   0.65202   3.15284  -0.36604
   4 2   H  1S          0.33499  -0.10408  -0.10259   0.18708  -0.82196
   5        2S          0.25533  -0.44714  -0.30854   1.83358   0.96121
   6        3S          0.01585  -3.09140   0.65202  -3.15284  -0.36604
                           6
                       (SGU)--V
     Eigenvalues --     1.18299
   1 1   H  1S         -1.13421
   2        2S          1.80851
   3        3S         -1.25016
   4 2   H  1S          1.13421
   5        2S         -1.80851
   6        3S          1.25016
     Density Matrix:
                           1         2         3         4         5
   1 1   H  1S          0.22444
   2        2S          0.17106   0.13038
   3        3S          0.01062   0.00809   0.00050
   4 2   H  1S          0.22444   0.17106   0.01062   0.22444
   5        2S          0.17106   0.13038   0.00809   0.17106   0.13038
   6        3S          0.01062   0.00809   0.00050   0.01062   0.00809
                           6
   6        3S          0.00050
    Full Mulliken population analysis:
                           1         2         3         4         5
   1 1   H  1S          0.22444
   2        2S          0.11261   0.13038
   3        3S          0.00287   0.00550   0.00050
   4 2   H  1S          0.10153   0.08688   0.00268   0.22444
   5        2S          0.08688   0.11121   0.00519   0.11261   0.13038
   6        3S          0.00268   0.00519   0.00049   0.00287   0.00550
                           6
   6        3S          0.00050
     Gross orbital populations:
                           1
   1 1   H  1S          0.53101
   2        2S          0.45176
   3        3S          0.01723
   4 2   H  1S          0.53101
   5        2S          0.45176
   6        3S          0.01723
          Condensed to atoms (all electrons):
              1          2
     1  H    0.597275   0.402725
     2  H    0.402725   0.597275
 Mulliken atomic charges:
              1
     1  H   -0.000000
     2  H   -0.000000
 Sum of Mulliken atomic charges =  -0.00000
 Mulliken charges with hydrogens summed into heavy atoms:
              1
 Sum of Mulliken charges with hydrogens summed into heavy atoms =  -0.00000
 APT atomic charges:
              1
     1  H    0.000000
     2  H    0.000000
 Sum of APT charges=   0.00000
 APT Atomic charges with hydrogens summed into heavy atoms:
              1
     1  H    0.000000
     2  H    0.000000
 Sum of APT charges=   0.00000
 Electronic spatial extent (au):  <R**2>=              5.3164
 Charge=             -0.0000 electrons
 Dipole moment (field-independent basis, Debye):
    X=             -0.0000    Y=              0.0000    Z=              0.0000  Tot=              0.0000
 Quadrupole moment (field-independent basis, Debye-Ang):
   XX=             -2.0805   YY=             -2.0805   ZZ=             -1.6628
   XY=              0.0000   XZ=             -0.0000   YZ=              0.0000
 Traceless Quadrupole moment (field-independent basis, Debye-Ang):
   XX=             -0.1392   YY=             -0.1392   ZZ=              0.2785
   XY=              0.0000   XZ=             -0.0000   YZ=              0.0000
 Octapole moment (field-independent basis, Debye-Ang**2):
  XXX=             -0.0000  YYY=              0.0000  ZZZ=             -0.0000  XYY=             -0.0000
  XXY=              0.0000  XXZ=             -0.0000  XZZ=             -0.0000  YZZ=              0.0000
  YYZ=             -0.0000  XYZ=              0.0000
 Hexadecapole moment (field-independent basis, Debye-Ang**3):
 XXXX=             -2.1395 YYYY=             -2.1395 ZZZZ=             -3.1559 XXXY=              0.0000
 XXXZ=              0.0000 YYYX=              0.0000 YYYZ=              0.0000 ZZZX=              0.0000
 ZZZY=              0.0000 XXYY=             -0.7132 XXZZ=             -0.8936 YYZZ=             -0.8936
 XXYZ=              0.0000 YYXZ=              0.0000 ZZXY=              0.0000
 N-N= 7.119521378486D-01 E-N=-3.626649964135D+00  KE= 1.137615099743D+00
 Symmetry AG   KE= 1.137615099743D+00
 Symmetry B1G  KE= 0.000000000000D+00
 Symmetry B2G  KE= 0.000000000000D+00
 Symmetry B3G  KE= 0.000000000000D+00
 Symmetry AU   KE= 0.000000000000D+00
 Symmetry B1U  KE= 1.065195731391D-33
 Symmetry B2U  KE= 0.000000000000D+00
 Symmetry B3U  KE= 0.000000000000D+00
 Orbital energies and kinetic energies (alpha):
                                 1                 2
   1         (SGG)--O         -0.437103          0.568808
   2         (SGU)--V          0.019893          0.160022
   3         (SGG)--V          0.038576          0.152353
   4         (SGU)--V          0.179841          0.523463
   5         (SGG)--V          0.749148          1.570199
   6         (SGU)--V          1.182993          2.579931
 Total kinetic energy from orbitals= 1.137615099743D+00
  Exact polarizability:   0.000   0.000   0.000  -0.000   0.000   6.917
 Approx polarizability:   0.000  -0.000  -0.000  -0.000  -0.000   8.379
 No NMR shielding tensors so no spin-rotation constants.
 Leave Link  601 at Sat Aug 17 19:55:41 2024, MaxMem=   13107200 cpu:       0.1
 (Enter /programs/64bit/g09/g09-gfortran/bin/l701.exe)
 Compute integral second derivatives.
 ... and contract with generalized density number  0.
 Leave Link  701 at Sat Aug 17 19:55:42 2024, MaxMem=   13107200 cpu:       0.1
 (Enter /programs/64bit/g09/g09-gfortran/bin/l702.exe)
 L702 exits ... SP integral derivatives will be done elsewhere.
 Leave Link  702 at Sat Aug 17 19:55:42 2024, MaxMem=   13107200 cpu:       0.1
 (Enter /programs/64bit/g09/g09-gfortran/bin/l703.exe)
 Compute integral second derivatives, UseDBF=F ICtDFT=           0.
 Integral derivatives from FoFDir, PRISM(SPDF).
 Calling FoFJK, ICntrl=    100127 FMM=F ISym2X=1 I1Cent= 0 IOpClX= 0 NMat=1 NMatS=1 NMatT=0.
 FoFCou: FMM=F IPFlag=           0 FMFlag=      100000 FMFlg1=         800
         NFxFlg=           0 DoJE=F BraDBF=F KetDBF=F FulRan=T
         Omega=  0.000000  0.000000  1.000000  0.000000  0.000000 ICntrl=  100127 IOpCl=  0
         NMat0=    1 NMatS0=    1 NMatT0=    0 NMatD0=    1 NMtDS0=    0 NMtDT0=    0
         I1Cent=           0 NGrid=           0.
 Petite list used in FoFCou.
 Leave Link  703 at Sat Aug 17 19:55:43 2024, MaxMem=   13107200 cpu:       0.1
 (Enter /programs/64bit/g09/g09-gfortran/bin/l716.exe)
 Dipole        =-1.23259516D-32 0.00000000D+00 7.69783542D-18
 Polarizability= 2.59359885D-32 0.00000000D+00 0.00000000D+00
                -4.23566837D-16 0.00000000D+00 6.91737139D+00
 Full mass-weighted force constant matrix:
 Low frequencies ---  -52.6235  -52.6235   -0.0002   -0.0001    0.0001 4440.1814
 Diagonal vibrational polarizability:
        0.0000000       0.0000000       0.0000000
 Harmonic frequencies (cm**-1), IR intensities (KM/Mole), Raman scattering
 activities (A**4/AMU), depolarization ratios for plane and unpolarized
 incident light, reduced masses (AMU), force constants (mDyne/A),
 and normal coordinates:
                     1
                    SGG
 Frequencies --  4440.1814
 Red. masses --     1.0078
 Frc consts  --    11.7068
 IR Inten    --     0.0000
  Atom  AN      X      Y      Z
     1   1    -0.00   0.00   0.71
     2   1     0.00   0.00  -0.71

 -------------------
 - Thermochemistry -
 -------------------
 Temperature   298.150 Kelvin.  Pressure   1.00000 Atm.
 Atom     1 has atomic number  1 and mass   1.00783
 Atom     2 has atomic number  1 and mass   1.00783
 Molecular mass:     2.01565 amu.
 Principal axes and moments of inertia in atomic units:
                           1         2         3
     Eigenvalues --     0.00000   0.99415   0.99415
           X           -0.00000   1.00000  -0.00000
           Y            0.00000   0.00000   1.00000
           Z            1.00000   0.00000  -0.00000
 This molecule is a prolate symmetric top.
 Rotational symmetry number  2.
 Rotational temperature (Kelvin)     87.12316
 Rotational constant (GHZ):        1815.354238
 Zero-point vibrational energy      26558.2 (Joules/Mol)
                                    6.34756 (Kcal/Mol)
 Vibrational temperatures:   6388.42
          (Kelvin)
 
 Zero-point correction=                           0.010115 (Hartree/Particle)
 Thermal correction to Energy=                    0.012476
 Thermal correction to Enthalpy=                  0.013420
 Thermal correction to Gibbs Free Energy=        -0.001373
 Sum of electronic and zero-point Energies=             -1.165834
 Sum of electronic and thermal Energies=                -1.163473
 Sum of electronic and thermal Enthalpies=              -1.162529
 Sum of electronic and thermal Free Energies=           -1.177322
 
                     E (Thermal)             CV                S
                      KCal/Mol        Cal/Mol-Kelvin    Cal/Mol-Kelvin
 Total                    7.829              4.968             31.135
 Electronic               0.000              0.000              0.000
 Translational            0.889              2.981             28.080
 Rotational               0.592              1.987              3.055
 Vibrational              6.348              0.000              0.000
                       Q            Log10(Q)             Ln(Q)
 Total Bot       0.428117D+01          0.631562          1.454226
 Total V=0       0.192464D+06          5.284349         12.167664
 Vib (Bot)       0.222440D-04         -4.652787        -10.713437
 Vib (V=0)       0.100000D+01          0.000000          0.000000
 Electronic      0.100000D+01          0.000000          0.000000
 Translational   0.112481D+06          5.051078         11.630537
 Rotational      0.171108D+01          0.233271          0.537127
 ***** Axes restored to original set *****
 -------------------------------------------------------------------
 Center     Atomic                   Forces (Hartrees/Bohr)
 Number     Number              X              Y              Z
 -------------------------------------------------------------------
      1        1           0.000000000    0.000000000   -0.000070633
      2        1          -0.000000000   -0.000000000    0.000070633
 -------------------------------------------------------------------
 Cartesian Forces:  Max     0.000070633 RMS     0.000040780
 Force constants in Cartesian coordinates: 
                1             2             3             4             5 
      1 -0.528088D-04
      2  0.000000D+00 -0.528088D-04
      3  0.000000D+00  0.000000D+00  0.375966D+00
      4  0.528088D-04  0.000000D+00  0.000000D+00 -0.528088D-04
      5  0.000000D+00  0.528088D-04  0.000000D+00  0.000000D+00 -0.528088D-04
      6  0.000000D+00  0.000000D+00 -0.375966D+00  0.000000D+00  0.000000D+00
                6 
      6  0.375966D+00
 Force constants in internal coordinates: 
                1 
      1  0.375966D+00
 Leave Link  716 at Sat Aug 17 19:55:43 2024, MaxMem=   13107200 cpu:       0.1
 (Enter /programs/64bit/g09/g09-gfortran/bin/l103.exe)

 GradGradGradGradGradGradGradGradGradGradGradGradGradGradGradGradGradGrad
 Berny optimization.
 Internal  Forces:  Max     0.000070633 RMS     0.000070633
 Search for a local minimum.
 Step number   1 out of a maximum of    2
 All quantities printed in internal units (Hartrees-Bohrs-Radians)
 Second derivative matrix not updated -- analytic derivatives used.
 The second derivative matrix:
                          R1
           R1           0.37597
     Eigenvalues ---    0.37597
 Angle between quadratic step and forces=   0.00 degrees.
 Linear search not attempted -- first point.
 Iteration  1 RMS(Cart)=  0.00013284 RMS(Int)=  0.00000000
 Iteration  2 RMS(Cart)=  0.00000000 RMS(Int)=  0.00000000
 ClnCor:  largest displacement from symmetrization is 2.22D-16 for atom     2.
 Variable       Old X    -DE/DX   Delta X   Delta X   Delta X     New X
                                 (Linear)    (Quad)   (Total)
    R1        1.40459   0.00007   0.00000   0.00019   0.00019   1.40478
         Item               Value     Threshold  Converged?
 Maximum Force            0.000071     0.000450     YES
 RMS     Force            0.000071     0.000300     YES
 Maximum Displacement     0.000094     0.001800     YES
 RMS     Displacement     0.000133     0.001200     YES
 Predicted change in Energy=-6.634863D-09
 Optimization completed.
    -- Stationary point found.
                           ----------------------------
                           !   Optimized Parameters   !
                           ! (Angstroms and Degrees)  !
 --------------------------                            --------------------------
 ! Name  Definition              Value          Derivative Info.                !
 --------------------------------------------------------------------------------
 ! R1    R(1,2)                  0.7433         -DE/DX =    0.0001              !
 --------------------------------------------------------------------------------
 GradGradGradGradGradGradGradGradGradGradGradGradGradGradGradGradGradGrad

 Leave Link  103 at Sat Aug 17 19:55:43 2024, MaxMem=   13107200 cpu:       0.0
 (Enter /programs/64bit/g09/g09-gfortran/bin/l9999.exe)
 1\1\GINC-MOLMOD\Freq\RB3LYP\6-31++G\H2\OSPITE\17-Aug-2024\0\\#P Geom=A
 llCheck Guess=TCheck SCRF=Check GenChk RB3LYP/6-31++G Freq\\hydrogen(m
 olecule) with hf/6-31++G basis function\\0,1\H,0.,0.,-0.0016381906\H,0
 .,0.,0.7416381906\\Version=EM64L-G09RevA.02\State=1-SGG\HF=-1.1759492\
 RMSD=5.908e-16\RMSF=4.078e-05\ZeroPoint=0.0101155\Thermal=0.0124759\Di
 pole=0.,0.,0.\DipoleDeriv=0.,0.,0.,0.,0.,0.,0.,0.,0.,0.,0.,0.,0.,0.,0.
 ,0.,0.,0.\Polar=0.,0.,0.,0.,0.,6.9173714\PG=D*H [C*(H1.H1)]\NImag=0\\-
 0.00005281,0.,-0.00005281,0.,0.,0.37596552,0.00005281,0.,0.,-0.0000528
 1,0.,0.00005281,0.,0.,-0.00005281,0.,0.,-0.37596552,0.,0.,0.37596552\\
 0.,0.,0.00007063,0.,0.,-0.00007063\\\@


 HEAVEN'S NET CASTS WIDE.
 THOUGH ITS MESHES ARE COARSE, NOTHING SLIPS THROUGH.

                                          -- LAO-TSU
 Job cpu time:  0 days  0 hours  0 minutes  2.1 seconds.
 File lengths (MBytes):  RWF=      5 Int=      0 D2E=      0 Chk=      1 Scr=      1
 Normal termination of Gaussian 09 at Sat Aug 17 19:55:44 2024.
