 Entering Gaussian System, Link 0=/programs/64bit/g09/g09-gfortran/bin/g09
 Input=h2_aug-cc-pVDZ.com
 Output=h2_aug-cc-pVDZ.log
 Initial command:
 /programs/64bit/g09/g09-gfortran/bin/l1.exe /home/ospite/Desktop/MMfP/Project6/H2/g09/HF/Gau-12679.inp -scrdir=/home/ospite/Desktop/MMfP/Project6/H2/g09/HF/
 Entering Link 1 = /programs/64bit/g09/g09-gfortran/bin/l1.exe PID=     12680.
  
 Copyright (c) 1988,1990,1992,1993,1995,1998,2003,2009, Gaussian, Inc.
                  All Rights Reserved.
  
 This is part of the Gaussian(R) 09 program.  It is based on
 the Gaussian(R) 03 system (copyright 2003, Gaussian, Inc.),
 the Gaussian(R) 98 system (copyright 1998, Gaussian, Inc.),
 the Gaussian(R) 94 system (copyright 1995, Gaussian, Inc.),
 the Gaussian 92(TM) system (copyright 1992, Gaussian, Inc.),
 the Gaussian 90(TM) system (copyright 1990, Gaussian, Inc.),
 the Gaussian 88(TM) system (copyright 1988, Gaussian, Inc.),
 the Gaussian 86(TM) system (copyright 1986, Carnegie Mellon
 University), and the Gaussian 82(TM) system (copyright 1983,
 Carnegie Mellon University). Gaussian is a federally registered
 trademark of Gaussian, Inc.
  
 This software contains proprietary and confidential information,
 including trade secrets, belonging to Gaussian, Inc.
  
 This software is provided under written license and may be
 used, copied, transmitted, or stored only in accord with that
 written license.
  
 The following legend is applicable only to US Government
 contracts under FAR:
  
                    RESTRICTED RIGHTS LEGEND
  
 Use, reproduction and disclosure by the US Government is
 subject to restrictions as set forth in subparagraphs (a)
 and (c) of the Commercial Computer Software - Restricted
 Rights clause in FAR 52.227-19.
  
 Gaussian, Inc.
 340 Quinnipiac St., Bldg. 40, Wallingford CT 06492
  
  
 ---------------------------------------------------------------
 Warning -- This program may not be used in any manner that
 competes with the business of Gaussian, Inc. or will provide
 assistance to any competitor of Gaussian, Inc.  The licensee
 of this program is prohibited from giving any competitor of
 Gaussian, Inc. access to this program.  By using this program,
 the user acknowledges that Gaussian, Inc. is engaged in the
 business of creating and licensing software in the field of
 computational chemistry and represents and warrants to the
 licensee that it is not a competitor of Gaussian, Inc. and that
 it will not use this program in any manner prohibited above.
 ---------------------------------------------------------------
  

 Cite this work as:
 Gaussian 09, Revision A.02,
 M. J. Frisch, G. W. Trucks, H. B. Schlegel, G. E. Scuseria, 
 M. A. Robb, J. R. Cheeseman, G. Scalmani, V. Barone, B. Mennucci, 
 G. A. Petersson, H. Nakatsuji, M. Caricato, X. Li, H. P. Hratchian, 
 A. F. Izmaylov, J. Bloino, G. Zheng, J. L. Sonnenberg, M. Hada, 
 M. Ehara, K. Toyota, R. Fukuda, J. Hasegawa, M. Ishida, T. Nakajima, 
 Y. Honda, O. Kitao, H. Nakai, T. Vreven, J. A. Montgomery, Jr., 
 J. E. Peralta, F. Ogliaro, M. Bearpark, J. J. Heyd, E. Brothers, 
 K. N. Kudin, V. N. Staroverov, R. Kobayashi, J. Normand, 
 K. Raghavachari, A. Rendell, J. C. Burant, S. S. Iyengar, J. Tomasi, 
 M. Cossi, N. Rega, J. M. Millam, M. Klene, J. E. Knox, J. B. Cross, 
 V. Bakken, C. Adamo, J. Jaramillo, R. Gomperts, R. E. Stratmann, 
 O. Yazyev, A. J. Austin, R. Cammi, C. Pomelli, J. W. Ochterski, 
 R. L. Martin, K. Morokuma, V. G. Zakrzewski, G. A. Voth, 
 P. Salvador, J. J. Dannenberg, S. Dapprich, A. D. Daniels, 
 O. Farkas, J. B. Foresman, J. V. Ortiz, J. Cioslowski, 
 and D. J. Fox, Gaussian, Inc., Wallingford CT, 2009.
 
 ******************************************
 Gaussian 09:  EM64L-G09RevA.02 11-Jun-2009
                17-Aug-2024 
 ******************************************
 %mem=100MB
 -------------------------------------------
 #p hf/aug-cc-pVDZ opt freq pop=full gfinput
 -------------------------------------------
 1/18=20,19=15,38=1/1,3;
 2/9=110,12=2,17=6,18=5,40=1/2;
 3/5=16,7=10,11=9,16=1,24=10,25=1,30=1,71=1/1,2,3;
 4//1;
 5/5=2,38=5/2;
 6/7=3,28=1/1;
 7//1,2,3,16;
 1/18=20,19=15/3(2);
 2/9=110/2;
 99//99;
 2/9=110/2;
 3/5=16,7=10,11=9,16=1,25=1,30=1,71=1/1,2,3;
 4/5=5,16=3/1;
 5/5=2,38=5/2;
 7//1,2,3,16;
 1/18=20,19=15/3(-5);
 2/9=110/2;
 6/7=3,19=2,28=1/1;
 99/9=1/99;
 Leave Link    1 at Sat Aug 17 19:51:57 2024, MaxMem=   13107200 cpu:       0.1
 (Enter /programs/64bit/g09/g09-gfortran/bin/l101.exe)
 --------------------------------------------------------
 hydrogen (moldecule) with and aug-cc-pVDZ basis function
 --------------------------------------------------------
 Symbolic Z-matrix:
 Charge =  0 Multiplicity = 1
 H1
 H2                   1    d
       Variables:
  d                     0.74                     
 
 NAtoms=      2 NQM=      2 NQMF=      0 NMic=      0 NMicF=      0 NTot=      2.
                    Isotopes and Nuclear Properties:
 (Nuclear quadrupole moments (NQMom) in fm**2, nuclear magnetic moments (NMagM)
  in nuclear magnetons)

  Atom         1           2
 IAtWgt=           1           1
 AtmWgt=   1.0078250   1.0078250
 NucSpn=           1           1
 AtZEff=   0.0000000   0.0000000
 NQMom=    0.0000000   0.0000000
 NMagM=    2.7928460   2.7928460
 Leave Link  101 at Sat Aug 17 19:51:57 2024, MaxMem=   13107200 cpu:       0.1
 (Enter /programs/64bit/g09/g09-gfortran/bin/l103.exe)

 GradGradGradGradGradGradGradGradGradGradGradGradGradGradGradGradGradGrad
 Berny optimization.
 Initialization pass.
                           ----------------------------
                           !    Initial Parameters    !
                           ! (Angstroms and Degrees)  !
 --------------------------                            --------------------------
 ! Name  Definition              Value          Derivative Info.                !
 --------------------------------------------------------------------------------
 ! R1    R(1,2)                  0.74           estimate D2E/DX2                !
 --------------------------------------------------------------------------------
 Trust Radius=3.00D-01 FncErr=1.00D-07 GrdErr=1.00D-07
 Number of steps in this run=  20 maximum allowed number of steps= 100.
 GradGradGradGradGradGradGradGradGradGradGradGradGradGradGradGradGradGrad

 Leave Link  103 at Sat Aug 17 19:51:57 2024, MaxMem=   13107200 cpu:       0.0
 (Enter /programs/64bit/g09/g09-gfortran/bin/l202.exe)
                          Input orientation:                          
 ---------------------------------------------------------------------
 Center     Atomic      Atomic             Coordinates (Angstroms)
 Number     Number       Type             X           Y           Z
 ---------------------------------------------------------------------
      1          1           0        0.000000    0.000000    0.000000
      2          1           0        0.000000    0.000000    0.740000
 ---------------------------------------------------------------------
 Stoichiometry    H2
 Framework group  D*H[C*(H.H)]
 Deg. of freedom     1
 Full point group                 D*H     NOp   8
 Largest Abelian subgroup         D2H     NOp   8
 Largest concise Abelian subgroup C2      NOp   2
                         Standard orientation:                         
 ---------------------------------------------------------------------
 Center     Atomic      Atomic             Coordinates (Angstroms)
 Number     Number       Type             X           Y           Z
 ---------------------------------------------------------------------
      1          1           0        0.000000    0.000000    0.370000
      2          1           0        0.000000    0.000000   -0.370000
 ---------------------------------------------------------------------
 Rotational constants (GHZ):      0.0000000   1831.4649389   1831.4649389
 Leave Link  202 at Sat Aug 17 19:51:57 2024, MaxMem=   13107200 cpu:       0.0
 (Enter /programs/64bit/g09/g09-gfortran/bin/l301.exe)
 Standard basis: Aug-CC-pVDZ (5D, 7F)
 Ernie: Thresh=  0.10000D-02 Tol=  0.10000D-05 Strict=F.
 AO basis set in the form of general basis input (Overlap normalization):
      1 0
 S   3 1.00       0.000000000000
      0.1301000000D+02  0.3349872639D-01
      0.1962000000D+01  0.2348008012D+00
      0.4446000000D+00  0.8136829579D+00
 S   1 1.00       0.000000000000
      0.1220000000D+00  0.1000000000D+01
 S   1 1.00       0.000000000000
      0.2974000000D-01  0.1000000000D+01
 P   1 1.00       0.000000000000
      0.7270000000D+00  0.1000000000D+01
 P   1 1.00       0.000000000000
      0.1410000000D+00  0.1000000000D+01
 ****
      2 0
 S   3 1.00       0.000000000000
      0.1301000000D+02  0.3349872639D-01
      0.1962000000D+01  0.2348008012D+00
      0.4446000000D+00  0.8136829579D+00
 S   1 1.00       0.000000000000
      0.1220000000D+00  0.1000000000D+01
 S   1 1.00       0.000000000000
      0.2974000000D-01  0.1000000000D+01
 P   1 1.00       0.000000000000
      0.7270000000D+00  0.1000000000D+01
 P   1 1.00       0.000000000000
      0.1410000000D+00  0.1000000000D+01
 ****

 There are     5 symmetry adapted basis functions of AG  symmetry.
 There are     0 symmetry adapted basis functions of B1G symmetry.
 There are     2 symmetry adapted basis functions of B2G symmetry.
 There are     2 symmetry adapted basis functions of B3G symmetry.
 There are     0 symmetry adapted basis functions of AU  symmetry.
 There are     5 symmetry adapted basis functions of B1U symmetry.
 There are     2 symmetry adapted basis functions of B2U symmetry.
 There are     2 symmetry adapted basis functions of B3U symmetry.
 Integral buffers will be    131072 words long.
 Raffenetti 1 integral format.
 Two-electron integral symmetry is turned on.
    18 basis functions,    22 primitive gaussians,    18 cartesian basis functions
     1 alpha electrons        1 beta electrons
       nuclear repulsion energy         0.7151043359 Hartrees.
 IExCor=    0 DFT=F Ex=HF Corr=None ExCW=0 ScaHFX=  1.000000
 ScaDFX=  1.000000  1.000000  1.000000  1.000000 ScalE2=  1.000000  1.000000
 IRadAn=      0 IRanWt=     -1 IRanGd=            0 ICorTp=0
 NAtoms=    2 NActive=    2 NUniq=    1 SFac= 3.00D+00 NAtFMM=   80 NAOKFM=F Big=F
 Leave Link  301 at Sat Aug 17 19:51:57 2024, MaxMem=   13107200 cpu:       0.1
 (Enter /programs/64bit/g09/g09-gfortran/bin/l302.exe)
 NPDir=0 NMtPBC=     1 NCelOv=     1 NCel=       1 NClECP=     1 NCelD=      1
         NCelK=      1 NCelE2=     1 NClLst=     1 CellRange=     0.0.
 One-electron integrals computed using PRISM.
 One-electron integral symmetry used in STVInt
 NBasis=    18 RedAO= T  NBF=     5     0     2     2     0     5     2     2
 NBsUse=    18 1.00D-06 NBFU=     5     0     2     2     0     5     2     2
 Leave Link  302 at Sat Aug 17 19:51:58 2024, MaxMem=   13107200 cpu:       0.2
 (Enter /programs/64bit/g09/g09-gfortran/bin/l303.exe)
 DipDrv:  MaxL=1.
 Leave Link  303 at Sat Aug 17 19:51:58 2024, MaxMem=   13107200 cpu:       0.1
 (Enter /programs/64bit/g09/g09-gfortran/bin/l401.exe)
 Harris functional with IExCor=  205 diagonalized for initial guess.
 ExpMin= 2.97D-02 ExpMax= 1.30D+01 ExpMxC= 1.30D+01 IAcc=3 IRadAn=         0 AccDes= 0.00D+00
 HarFok:  IExCor=  205 AccDes= 0.00D+00 IRadAn=         0 IDoV= 1
 ScaDFX=  1.000000  1.000000  1.000000  1.000000
 FoFCou: FMM=F IPFlag=           0 FMFlag=      100000 FMFlg1=           0
         NFxFlg=           0 DoJE=T BraDBF=F KetDBF=T FulRan=T
         Omega=  0.000000  0.000000  1.000000  0.000000  0.000000 ICntrl=     500 IOpCl=  0
         NMat0=    1 NMatS0=    1 NMatT0=    0 NMatD0=    1 NMtDS0=    0 NMtDT0=    0
         I1Cent=           4 NGrid=           0.
 Petite list used in FoFCou.
 Harris En= -1.18102233718117    
 Initial guess orbital symmetries:
       Occupied  (SGG)
       Virtual   (SGU) (SGG) (SGU) (PIU) (PIU) (SGG) (PIG) (PIG)
                 (SGU) (SGG) (SGU) (PIU) (PIU) (SGG) (PIG) (PIG)
                 (SGU)
 The electronic state of the initial guess is 1-SGG.
 Leave Link  401 at Sat Aug 17 19:51:58 2024, MaxMem=   13107200 cpu:       0.2
 (Enter /programs/64bit/g09/g09-gfortran/bin/l502.exe)
 Closed shell SCF:
 Requested convergence on RMS density matrix=1.00D-08 within 128 cycles.
 Requested convergence on MAX density matrix=1.00D-06.
 Requested convergence on             energy=1.00D-06.
 No special actions if energy rises.
 Using DIIS extrapolation, IDIIS=  1040.
 Integral symmetry usage will be decided dynamically.
 Keep R1 ints in memory in canonical form, NReq=834561.
 IEnd=       19841 IEndB=       19841 NGot=    13107200 MDV=    13089728
 LenX=    13089728 LenY=    13088846
 Symmetry not used in FoFDir.
 MinBra= 0 MaxBra= 1 Meth= 1.
 IRaf=       0 NMat=   1 IRICut=       1 DoRegI=T DoRafI=F ISym2E= 0 JSym2E=0.

 Cycle   1  Pass 1  IDiag  1:
 E= -1.12644486324024    
 DIIS: error= 1.18D-02 at cycle   1 NSaved=   1.
 NSaved= 1 IEnMin= 1 EnMin= -1.12644486324024     IErMin= 1 ErrMin= 1.18D-02
 ErrMax= 1.18D-02 EMaxC= 1.00D-01 BMatC= 1.17D-03 BMatP= 1.17D-03
 IDIUse=3 WtCom= 8.82D-01 WtEn= 1.18D-01
 Coeff-Com:  0.100D+01
 Coeff-En:   0.100D+01
 Coeff:      0.100D+01
 Gap=     0.657 Goal=   None    Shift=    0.000
 GapD=    0.657 DampG=2.000 DampE=0.500 DampFc=1.0000 IDamp=-1.
 RMSDP=2.31D-03 MaxDP=1.74D-02              OVMax= 2.87D-02

 Cycle   2  Pass 1  IDiag  1:
 E= -1.12870160632634     Delta-E=       -0.002256743086 Rises=F Damp=F
 DIIS: error= 2.22D-03 at cycle   2 NSaved=   2.
 NSaved= 2 IEnMin= 2 EnMin= -1.12870160632634     IErMin= 2 ErrMin= 2.22D-03
 ErrMax= 2.22D-03 EMaxC= 1.00D-01 BMatC= 3.61D-05 BMatP= 1.17D-03
 IDIUse=3 WtCom= 9.78D-01 WtEn= 2.22D-02
 Coeff-Com: -0.201D+00 0.120D+01
 Coeff-En:   0.000D+00 0.100D+01
 Coeff:     -0.197D+00 0.120D+01
 Gap=     0.654 Goal=   None    Shift=    0.000
 RMSDP=4.84D-04 MaxDP=3.81D-03 DE=-2.26D-03 OVMax= 6.39D-03

 Cycle   3  Pass 1  IDiag  1:
 E= -1.12877803183394     Delta-E=       -0.000076425508 Rises=F Damp=F
 DIIS: error= 1.52D-04 at cycle   3 NSaved=   3.
 NSaved= 3 IEnMin= 3 EnMin= -1.12877803183394     IErMin= 3 ErrMin= 1.52D-04
 ErrMax= 1.52D-04 EMaxC= 1.00D-01 BMatC= 1.20D-07 BMatP= 3.61D-05
 IDIUse=3 WtCom= 9.98D-01 WtEn= 1.52D-03
 Coeff-Com:  0.451D-01-0.277D+00 0.123D+01
 Coeff-En:   0.000D+00 0.000D+00 0.100D+01
 Coeff:      0.450D-01-0.277D+00 0.123D+01
 Gap=     0.654 Goal=   None    Shift=    0.000
 RMSDP=2.33D-05 MaxDP=1.15D-04 DE=-7.64D-05 OVMax= 3.80D-04

 Cycle   4  Pass 1  IDiag  1:
 E= -1.12877827413784     Delta-E=       -0.000000242304 Rises=F Damp=F
 DIIS: error= 5.80D-06 at cycle   4 NSaved=   4.
 NSaved= 4 IEnMin= 4 EnMin= -1.12877827413784     IErMin= 4 ErrMin= 5.80D-06
 ErrMax= 5.80D-06 EMaxC= 1.00D-01 BMatC= 3.27D-10 BMatP= 1.20D-07
 IDIUse=1 WtCom= 1.00D+00 WtEn= 0.00D+00
 Coeff-Com: -0.118D-01 0.715D-01-0.337D+00 0.128D+01
 Coeff:     -0.118D-01 0.715D-01-0.337D+00 0.128D+01
 Gap=     0.654 Goal=   None    Shift=    0.000
 RMSDP=2.37D-06 MaxDP=1.03D-05 DE=-2.42D-07 OVMax= 3.55D-05

 Cycle   5  Pass 1  IDiag  1:
 E= -1.12877827538541     Delta-E=       -0.000000001248 Rises=F Damp=F
 DIIS: error= 4.58D-07 at cycle   5 NSaved=   5.
 NSaved= 5 IEnMin= 5 EnMin= -1.12877827538541     IErMin= 5 ErrMin= 4.58D-07
 ErrMax= 4.58D-07 EMaxC= 1.00D-01 BMatC= 1.37D-12 BMatP= 3.27D-10
 IDIUse=1 WtCom= 1.00D+00 WtEn= 0.00D+00
 Coeff-Com:  0.106D-03-0.441D-03 0.265D-02-0.131D-01 0.101D+01
 Coeff:      0.106D-03-0.441D-03 0.265D-02-0.131D-01 0.101D+01
 Gap=     0.654 Goal=   None    Shift=    0.000
 RMSDP=9.98D-08 MaxDP=7.60D-07 DE=-1.25D-09 OVMax= 1.20D-06

 Cycle   6  Pass 1  IDiag  1:
 E= -1.12877827538811     Delta-E=       -0.000000000003 Rises=F Damp=F
 DIIS: error= 1.18D-08 at cycle   6 NSaved=   6.
 NSaved= 6 IEnMin= 6 EnMin= -1.12877827538811     IErMin= 6 ErrMin= 1.18D-08
 ErrMax= 1.18D-08 EMaxC= 1.00D-01 BMatC= 1.25D-15 BMatP= 1.37D-12
 IDIUse=1 WtCom= 1.00D+00 WtEn= 0.00D+00
 Coeff-Com:  0.244D-05-0.876D-04 0.209D-03 0.286D-03-0.347D+00 0.135D+01
 Coeff:      0.244D-05-0.876D-04 0.209D-03 0.286D-03-0.347D+00 0.135D+01
 Gap=     0.654 Goal=   None    Shift=    0.000
 RMSDP=4.19D-09 MaxDP=2.32D-08 DE=-2.70D-12 OVMax= 5.29D-08

 SCF Done:  E(RHF) =  -1.12877827539     A.U. after    6 cycles
             Convg  =    0.4191D-08             -V/T =  2.0292
 KE= 1.096744383355D+00 PE=-3.598929220043D+00 EE= 6.583022253666D-01
 Leave Link  502 at Sat Aug 17 19:51:59 2024, MaxMem=   13107200 cpu:       0.1
 (Enter /programs/64bit/g09/g09-gfortran/bin/l601.exe)
 Copying SCF densities to generalized density rwf, IOpCl= 0 IROHF=0.

 **********************************************************************

            Population analysis using the SCF density.

 **********************************************************************

 Orbital symmetries:
       Occupied  (SGG)
       Virtual   (SGU) (SGG) (SGU) (PIU) (PIU) (SGG) (PIG) (PIG)
                 (SGU) (SGG) (SGU) (PIU) (PIU) (SGG) (PIG) (PIG)
                 (SGU)
 The electronic state is 1-SGG.
 Alpha  occ. eigenvalues --   -0.59279
 Alpha virt. eigenvalues --    0.06149   0.06696   0.23155   0.28514   0.28514
 Alpha virt. eigenvalues --    0.41660   0.45870   0.45870   0.55857   0.71754
 Alpha virt. eigenvalues --    1.24266   1.60456   1.60456   2.08336   2.24389
 Alpha virt. eigenvalues --    2.24389   3.70855
     Molecular Orbital Coefficients:
                           1         2         3         4         5
                       (SGG)--O  (SGU)--V  (SGG)--V  (SGU)--V  (PIU)--V
     Eigenvalues --    -0.59279   0.06149   0.06696   0.23155   0.28514
   1 1   H  1S          0.40475   0.04602  -0.06250   0.15840   0.00000
   2        2S          0.16798  -2.47354  -0.35443  11.20575   0.00000
   3        3S          0.00679   4.53636   0.69035  -3.30146   0.00000
   4        4PX         0.00000   0.00000   0.00000   0.00000   0.00000
   5        4PY         0.00000   0.00000   0.00000   0.00000  -0.01192
   6        4PZ        -0.02219  -0.00038   0.01303   0.04779   0.00000
   7        5PX         0.00000   0.00000   0.00000   0.00000   0.00000
   8        5PY         0.00000   0.00000   0.00000   0.00000   0.52218
   9        5PZ        -0.00257   0.59319  -0.06904  -2.30475   0.00000
  10 2   H  1S          0.40475  -0.04602  -0.06250  -0.15840   0.00000
  11        2S          0.16798   2.47354  -0.35443 -11.20575   0.00000
  12        3S          0.00679  -4.53636   0.69035   3.30146   0.00000
  13        4PX         0.00000   0.00000   0.00000   0.00000   0.00000
  14        4PY         0.00000   0.00000   0.00000   0.00000  -0.01192
  15        4PZ         0.02219  -0.00038  -0.01303   0.04779   0.00000
  16        5PX         0.00000   0.00000   0.00000   0.00000   0.00000
  17        5PY         0.00000   0.00000   0.00000   0.00000   0.52218
  18        5PZ         0.00257   0.59319   0.06904  -2.30475   0.00000
                           6         7         8         9        10
                       (PIU)--V  (SGG)--V  (PIG)--V  (PIG)--V  (SGU)--V
     Eigenvalues --     0.28514   0.41660   0.45870   0.45870   0.55857
   1 1   H  1S          0.00000  -0.18968   0.00000   0.00000  -0.23675
   2        2S          0.00000   0.83102   0.00000   0.00000  31.37514
   3        3S          0.00000  -0.37673   0.00000   0.00000  -2.44184
   4        4PX        -0.01192   0.00000  -0.04698   0.00000   0.00000
   5        4PY         0.00000   0.00000   0.00000  -0.04698   0.00000
   6        4PZ         0.00000  -0.01754   0.00000   0.00000   0.07525
   7        5PX         0.52218   0.00000   2.00367   0.00000   0.00000
   8        5PY         0.00000   0.00000   0.00000   2.00367   0.00000
   9        5PZ         0.00000   1.29033   0.00000   0.00000  -8.09245
  10 2   H  1S          0.00000  -0.18968   0.00000   0.00000   0.23675
  11        2S          0.00000   0.83102   0.00000   0.00000 -31.37514
  12        3S          0.00000  -0.37673   0.00000   0.00000   2.44184
  13        4PX        -0.01192   0.00000   0.04698   0.00000   0.00000
  14        4PY         0.00000   0.00000   0.00000   0.04698   0.00000
  15        4PZ         0.00000   0.01754   0.00000   0.00000   0.07525
  16        5PX         0.52218   0.00000  -2.00367   0.00000   0.00000
  17        5PY         0.00000   0.00000   0.00000  -2.00367   0.00000
  18        5PZ         0.00000  -1.29033   0.00000   0.00000  -8.09245
                          11        12        13        14        15
                       (SGG)--V  (SGU)--V  (PIU)--V  (PIU)--V  (SGG)--V
     Eigenvalues --     0.71754   1.24266   1.60456   1.60456   2.08336
   1 1   H  1S          0.82128   0.88507   0.00000   0.00000   0.40188
   2        2S         -0.67455  21.45364   0.00000   0.00000  -0.38326
   3        3S          0.20753  -0.53444   0.00000   0.00000   0.13159
   4        4PX         0.00000   0.00000   0.66939   0.00000   0.00000
   5        4PY         0.00000   0.00000   0.00000   0.66939   0.00000
   6        4PZ        -0.01383   0.53149   0.00000   0.00000   0.76377
   7        5PX         0.00000   0.00000  -0.29074   0.00000   0.00000
   8        5PY         0.00000   0.00000   0.00000  -0.29074   0.00000
   9        5PZ         0.90602  -6.13940   0.00000   0.00000  -0.43208
  10 2   H  1S          0.82128  -0.88507   0.00000   0.00000   0.40188
  11        2S         -0.67455 -21.45364   0.00000   0.00000  -0.38326
  12        3S          0.20753   0.53444   0.00000   0.00000   0.13159
  13        4PX         0.00000   0.00000   0.66939   0.00000   0.00000
  14        4PY         0.00000   0.00000   0.00000   0.66939   0.00000
  15        4PZ         0.01383   0.53149   0.00000   0.00000  -0.76377
  16        5PX         0.00000   0.00000  -0.29074   0.00000   0.00000
  17        5PY         0.00000   0.00000   0.00000  -0.29074   0.00000
  18        5PZ        -0.90602  -6.13940   0.00000   0.00000   0.43208
                          16        17        18
                       (PIG)--V  (PIG)--V  (SGU)--V
     Eigenvalues --     2.24389   2.24389   3.70855
   1 1   H  1S          0.00000   0.00000  -2.64100
   2        2S          0.00000   0.00000   7.22689
   3        3S          0.00000   0.00000  -0.42586
   4        4PX         1.06909   0.00000   0.00000
   5        4PY         0.00000   1.06909   0.00000
   6        4PZ         0.00000   0.00000   2.14687
   7        5PX        -0.71367   0.00000   0.00000
   8        5PY         0.00000  -0.71367   0.00000
   9        5PZ         0.00000   0.00000  -1.94711
  10 2   H  1S          0.00000   0.00000   2.64100
  11        2S          0.00000   0.00000  -7.22689
  12        3S          0.00000   0.00000   0.42586
  13        4PX        -1.06909   0.00000   0.00000
  14        4PY         0.00000  -1.06909   0.00000
  15        4PZ         0.00000   0.00000   2.14687
  16        5PX         0.71367   0.00000   0.00000
  17        5PY         0.00000   0.71367   0.00000
  18        5PZ         0.00000   0.00000  -1.94711
     Density Matrix:
                           1         2         3         4         5
   1 1   H  1S          0.32764
   2        2S          0.13598   0.05644
   3        3S          0.00550   0.00228   0.00009
   4        4PX        -0.00000  -0.00000  -0.00000   0.00000
   5        4PY        -0.00000  -0.00000  -0.00000   0.00000   0.00000
   6        4PZ        -0.01796  -0.00745  -0.00030   0.00000   0.00000
   7        5PX        -0.00000  -0.00000  -0.00000   0.00000   0.00000
   8        5PY        -0.00000  -0.00000  -0.00000   0.00000   0.00000
   9        5PZ        -0.00208  -0.00087  -0.00003   0.00000   0.00000
  10 2   H  1S          0.32764   0.13598   0.00550  -0.00000  -0.00000
  11        2S          0.13598   0.05644   0.00228  -0.00000  -0.00000
  12        3S          0.00550   0.00228   0.00009  -0.00000  -0.00000
  13        4PX         0.00000   0.00000   0.00000  -0.00000   0.00000
  14        4PY         0.00000   0.00000   0.00000   0.00000  -0.00000
  15        4PZ         0.01796   0.00745   0.00030  -0.00000  -0.00000
  16        5PX         0.00000   0.00000   0.00000  -0.00000   0.00000
  17        5PY         0.00000   0.00000   0.00000   0.00000  -0.00000
  18        5PZ         0.00208   0.00087   0.00003  -0.00000  -0.00000
                           6         7         8         9        10
   6        4PZ         0.00098
   7        5PX         0.00000   0.00000
   8        5PY         0.00000   0.00000   0.00000
   9        5PZ         0.00011   0.00000   0.00000   0.00001
  10 2   H  1S         -0.01796  -0.00000  -0.00000  -0.00208   0.32764
  11        2S         -0.00745  -0.00000  -0.00000  -0.00087   0.13598
  12        3S         -0.00030  -0.00000  -0.00000  -0.00003   0.00550
  13        4PX        -0.00000  -0.00000   0.00000  -0.00000   0.00000
  14        4PY        -0.00000   0.00000  -0.00000  -0.00000   0.00000
  15        4PZ        -0.00098  -0.00000  -0.00000  -0.00011   0.01796
  16        5PX        -0.00000  -0.00000   0.00000  -0.00000   0.00000
  17        5PY        -0.00000   0.00000  -0.00000  -0.00000   0.00000
  18        5PZ        -0.00011  -0.00000  -0.00000  -0.00001   0.00208
                          11        12        13        14        15
  11        2S          0.05644
  12        3S          0.00228   0.00009
  13        4PX         0.00000   0.00000   0.00000
  14        4PY         0.00000   0.00000   0.00000   0.00000
  15        4PZ         0.00745   0.00030   0.00000   0.00000   0.00098
  16        5PX         0.00000   0.00000   0.00000   0.00000   0.00000
  17        5PY         0.00000   0.00000   0.00000   0.00000   0.00000
  18        5PZ         0.00087   0.00003   0.00000   0.00000   0.00011
                          16        17        18
  16        5PX         0.00000
  17        5PY         0.00000   0.00000
  18        5PZ         0.00000   0.00000   0.00001
    Full Mulliken population analysis:
                           1         2         3         4         5
   1 1   H  1S          0.32764
   2        2S          0.09313   0.05644
   3        3S          0.00167   0.00161   0.00009
   4        4PX         0.00000   0.00000   0.00000   0.00000
   5        4PY         0.00000   0.00000   0.00000   0.00000   0.00000
   6        4PZ         0.00000   0.00000   0.00000  -0.00000   0.00000
   7        5PX         0.00000   0.00000   0.00000   0.00000   0.00000
   8        5PY         0.00000   0.00000   0.00000   0.00000   0.00000
   9        5PZ         0.00000   0.00000   0.00000  -0.00000   0.00000
  10 2   H  1S          0.18699   0.07690   0.00158   0.00000   0.00000
  11        2S          0.07690   0.05009   0.00154   0.00000   0.00000
  12        3S          0.00158   0.00154   0.00009   0.00000   0.00000
  13        4PX         0.00000   0.00000   0.00000  -0.00000   0.00000
  14        4PY         0.00000   0.00000   0.00000   0.00000  -0.00000
  15        4PZ         0.00966   0.00122   0.00001   0.00000   0.00000
  16        5PX         0.00000   0.00000   0.00000  -0.00000   0.00000
  17        5PY         0.00000   0.00000   0.00000   0.00000  -0.00000
  18        5PZ         0.00100   0.00037   0.00000   0.00000   0.00000
                           6         7         8         9        10
   6        4PZ         0.00098
   7        5PX        -0.00000   0.00000
   8        5PY         0.00000   0.00000   0.00000
   9        5PZ         0.00005  -0.00000   0.00000   0.00001
  10 2   H  1S          0.00966   0.00000   0.00000   0.00100   0.32764
  11        2S          0.00122   0.00000   0.00000   0.00037   0.09313
  12        3S          0.00001   0.00000   0.00000   0.00000   0.00167
  13        4PX         0.00000  -0.00000   0.00000   0.00000   0.00000
  14        4PY         0.00000   0.00000  -0.00000   0.00000   0.00000
  15        4PZ         0.00020   0.00000   0.00000  -0.00002   0.00000
  16        5PX         0.00000  -0.00000   0.00000   0.00000   0.00000
  17        5PY         0.00000   0.00000  -0.00000   0.00000   0.00000
  18        5PZ        -0.00002   0.00000   0.00000  -0.00001   0.00000
                          11        12        13        14        15
  11        2S          0.05644
  12        3S          0.00161   0.00009
  13        4PX         0.00000   0.00000   0.00000
  14        4PY         0.00000   0.00000   0.00000   0.00000
  15        4PZ         0.00000   0.00000   0.00000   0.00000   0.00098
  16        5PX         0.00000   0.00000   0.00000   0.00000   0.00000
  17        5PY         0.00000   0.00000   0.00000   0.00000   0.00000
  18        5PZ         0.00000   0.00000   0.00000   0.00000   0.00005
                          16        17        18
  16        5PX         0.00000
  17        5PY         0.00000   0.00000
  18        5PZ         0.00000   0.00000   0.00001
     Gross orbital populations:
                           1
   1 1   H  1S          0.69858
   2        2S          0.28131
   3        3S          0.00660
   4        4PX         0.00000
   5        4PY         0.00000
   6        4PZ         0.01211
   7        5PX         0.00000
   8        5PY         0.00000
   9        5PZ         0.00141
  10 2   H  1S          0.69858
  11        2S          0.28131
  12        3S          0.00660
  13        4PX         0.00000
  14        4PY         0.00000
  15        4PZ         0.01211
  16        5PX         0.00000
  17        5PY         0.00000
  18        5PZ         0.00141
          Condensed to atoms (all electrons):
              1          2
     1  H    0.578105   0.421895
     2  H    0.421895   0.578105
 Mulliken atomic charges:
              1
     1  H    0.000000
     2  H    0.000000
 Sum of Mulliken atomic charges =   0.00000
 Mulliken charges with hydrogens summed into heavy atoms:
              1
 Sum of Mulliken charges with hydrogens summed into heavy atoms =   0.00000
 Electronic spatial extent (au):  <R**2>=              5.1144
 Charge=              0.0000 electrons
 Dipole moment (field-independent basis, Debye):
    X=             -0.0000    Y=              0.0000    Z=              0.0000  Tot=              0.0000
 Quadrupole moment (field-independent basis, Debye-Ang):
   XX=             -2.0568   YY=             -2.0568   ZZ=             -1.4503
   XY=             -0.0000   XZ=             -0.0000   YZ=              0.0000
 Traceless Quadrupole moment (field-independent basis, Debye-Ang):
   XX=             -0.2022   YY=             -0.2022   ZZ=              0.4043
   XY=             -0.0000   XZ=             -0.0000   YZ=              0.0000
 Octapole moment (field-independent basis, Debye-Ang**2):
  XXX=             -0.0000  YYY=              0.0000  ZZZ=             -0.0000  XYY=             -0.0000
  XXY=             -0.0000  XXZ=              0.0000  XZZ=             -0.0000  YZZ=             -0.0000
  YYZ=              0.0000  XYZ=              0.0000
 Hexadecapole moment (field-independent basis, Debye-Ang**3):
 XXXX=             -2.0319 YYYY=             -2.0319 ZZZZ=             -2.8218 XXXY=             -0.0000
 XXXZ=              0.0000 YYYX=             -0.0000 YYYZ=              0.0000 ZZZX=              0.0000
 ZZZY=              0.0000 XXYY=             -0.6773 XXZZ=             -0.8268 YYZZ=             -0.8268
 XXYZ=              0.0000 YYXZ=              0.0000 ZZXY=             -0.0000
 N-N= 7.151043359324D-01 E-N=-3.598929201224D+00  KE= 1.096744383355D+00
 Symmetry AG   KE= 1.096744383355D+00
 Symmetry B1G  KE= 0.000000000000D+00
 Symmetry B2G  KE= 3.123271411614D-34
 Symmetry B3G  KE= 3.123271411614D-34
 Symmetry AU   KE= 0.000000000000D+00
 Symmetry B1U  KE= 3.743320951573D-30
 Symmetry B2U  KE= 4.302098831611D-35
 Symmetry B3U  KE= 4.302098831611D-35
 Orbital energies and kinetic energies (alpha):
                                 1                 2
   1         (SGG)--O         -0.592790          0.548372
   2         (SGU)--V          0.061494          0.074618
   3         (SGG)--V          0.066958          0.093631
   4         (SGU)--V          0.231549          0.360364
   5         (PIU)--V          0.285138          0.339348
   6         (PIU)--V          0.285138          0.339348
   7         (SGG)--V          0.416597          0.508401
   8         (PIG)--V          0.458703          0.476634
   9         (PIG)--V          0.458703          0.476634
  10         (SGU)--V          0.558573          0.724887
  11         (SGG)--V          0.717539          1.092390
  12         (SGU)--V          1.242664          1.909739
  13         (PIU)--V          1.604557          1.940356
  14         (PIU)--V          1.604557          1.940356
  15         (SGG)--V          2.083357          2.482644
  16         (PIG)--V          2.243895          2.522051
  17         (PIG)--V          2.243895          2.522051
  18         (SGU)--V          3.708548          4.675189
 Total kinetic energy from orbitals= 1.096744383355D+00
 No NMR shielding tensors so no spin-rotation constants.
 Leave Link  601 at Sat Aug 17 19:51:59 2024, MaxMem=   13107200 cpu:       0.1
 (Enter /programs/64bit/g09/g09-gfortran/bin/l701.exe)
 Compute integral first derivatives.
 ... and contract with generalized density number  0.
 Leave Link  701 at Sat Aug 17 19:52:00 2024, MaxMem=   13107200 cpu:       0.1
 (Enter /programs/64bit/g09/g09-gfortran/bin/l702.exe)
 L702 exits ... SP integral derivatives will be done elsewhere.
 Leave Link  702 at Sat Aug 17 19:52:00 2024, MaxMem=   13107200 cpu:       0.1
 (Enter /programs/64bit/g09/g09-gfortran/bin/l703.exe)
 Compute integral first derivatives, UseDBF=F ICtDFT=           0.
 Integral derivatives from FoFDir, PRISM(SPDF).
 Calling FoFJK, ICntrl=      2127 FMM=F ISym2X=1 I1Cent= 0 IOpClX= 0 NMat=1 NMatS=1 NMatT=0.
 FoFCou: FMM=F IPFlag=           0 FMFlag=      100000 FMFlg1=         800
         NFxFlg=           0 DoJE=F BraDBF=F KetDBF=F FulRan=T
         Omega=  0.000000  0.000000  1.000000  0.000000  0.000000 ICntrl=    2127 IOpCl=  0
         NMat0=    1 NMatS0=    1 NMatT0=    0 NMatD0=    1 NMtDS0=    0 NMtDT0=    0
         I1Cent=           0 NGrid=           0.
 Petite list used in FoFCou.
 Leave Link  703 at Sat Aug 17 19:52:00 2024, MaxMem=   13107200 cpu:       0.1
 (Enter /programs/64bit/g09/g09-gfortran/bin/l716.exe)
 Dipole        =-1.23259516D-32 3.61111865D-35 0.00000000D+00
 ***** Axes restored to original set *****
 -------------------------------------------------------------------
 Center     Atomic                   Forces (Hartrees/Bohr)
 Number     Number              X              Y              Z
 -------------------------------------------------------------------
      1        1           0.000000000    0.000000000   -0.006247155
      2        1          -0.000000000   -0.000000000    0.006247155
 -------------------------------------------------------------------
 Cartesian Forces:  Max     0.006247155 RMS     0.003606797
 Leave Link  716 at Sat Aug 17 19:52:00 2024, MaxMem=   13107200 cpu:       0.1
 (Enter /programs/64bit/g09/g09-gfortran/bin/l103.exe)

 GradGradGradGradGradGradGradGradGradGradGradGradGradGradGradGradGradGrad
 Berny optimization.
 Internal  Forces:  Max     0.006247155 RMS     0.006247155
 Search for a local minimum.
 Step number   1 out of a maximum of   20
 All quantities printed in internal units (Hartrees-Bohrs-Radians)
 RMS Force = .62472D-02 SwitMx=.10000D-02 MixMth= 1
 Mixed Optimization -- RFO/linear search
 Second derivative matrix not updated -- first step.
 The second derivative matrix:
                          R1
           R1           0.39139
     Eigenvalues ---    0.39139
 RFO step:  Lambda=-9.96872359D-05 EMin= 3.91394209D-01
 Linear search not attempted -- first point.
 Iteration  1 RMS(Cart)=  0.01128346 RMS(Int)=  0.00000000
 Iteration  2 RMS(Cart)=  0.00000000 RMS(Int)=  0.00000000
 ClnCor:  largest displacement from symmetrization is 1.80D-18 for atom     1.
 Variable       Old X    -DE/DX   Delta X   Delta X   Delta X     New X
                                 (Linear)    (Quad)   (Total)
    R1        1.39840   0.00625   0.00000   0.01596   0.01596   1.41435
         Item               Value     Threshold  Converged?
 Maximum Force            0.006247     0.000450     NO 
 RMS     Force            0.006247     0.000300     NO 
 Maximum Displacement     0.007979     0.001800     NO 
 RMS     Displacement     0.011283     0.001200     NO 
 Predicted change in Energy=-4.985631D-05
 GradGradGradGradGradGradGradGradGradGradGradGradGradGradGradGradGradGrad

 Leave Link  103 at Sat Aug 17 19:52:00 2024, MaxMem=   13107200 cpu:       0.0
 (Enter /programs/64bit/g09/g09-gfortran/bin/l202.exe)
                          Input orientation:                          
 ---------------------------------------------------------------------
 Center     Atomic      Atomic             Coordinates (Angstroms)
 Number     Number       Type             X           Y           Z
 ---------------------------------------------------------------------
      1          1           0        0.000000    0.000000   -0.004222
      2          1           0        0.000000    0.000000    0.744222
 ---------------------------------------------------------------------
 Stoichiometry    H2
 Framework group  D*H[C*(H.H)]
 Deg. of freedom     1
 Full point group                 D*H     NOp   8
 Largest Abelian subgroup         D2H     NOp   8
 Largest concise Abelian subgroup C2      NOp   2
                         Standard orientation:                         
 ---------------------------------------------------------------------
 Center     Atomic      Atomic             Coordinates (Angstroms)
 Number     Number       Type             X           Y           Z
 ---------------------------------------------------------------------
      1          1           0        0.000000    0.000000    0.374222
      2          1           0        0.000000    0.000000   -0.374222
 ---------------------------------------------------------------------
 Rotational constants (GHZ):      0.0000000   1790.3716667   1790.3716667
 Leave Link  202 at Sat Aug 17 19:52:01 2024, MaxMem=   13107200 cpu:       0.0
 (Enter /programs/64bit/g09/g09-gfortran/bin/l301.exe)
 Standard basis: Aug-CC-pVDZ (5D, 7F)
 Ernie: Thresh=  0.10000D-02 Tol=  0.10000D-05 Strict=F.
 There are     5 symmetry adapted basis functions of AG  symmetry.
 There are     0 symmetry adapted basis functions of B1G symmetry.
 There are     2 symmetry adapted basis functions of B2G symmetry.
 There are     2 symmetry adapted basis functions of B3G symmetry.
 There are     0 symmetry adapted basis functions of AU  symmetry.
 There are     5 symmetry adapted basis functions of B1U symmetry.
 There are     2 symmetry adapted basis functions of B2U symmetry.
 There are     2 symmetry adapted basis functions of B3U symmetry.
 Integral buffers will be    131072 words long.
 Raffenetti 1 integral format.
 Two-electron integral symmetry is turned on.
    18 basis functions,    22 primitive gaussians,    18 cartesian basis functions
     1 alpha electrons        1 beta electrons
       nuclear repulsion energy         0.7070362894 Hartrees.
 IExCor=    0 DFT=F Ex=HF Corr=None ExCW=0 ScaHFX=  1.000000
 ScaDFX=  1.000000  1.000000  1.000000  1.000000 ScalE2=  1.000000  1.000000
 IRadAn=      0 IRanWt=     -1 IRanGd=            0 ICorTp=0
 NAtoms=    2 NActive=    2 NUniq=    1 SFac= 3.00D+00 NAtFMM=   80 NAOKFM=F Big=F
 Leave Link  301 at Sat Aug 17 19:52:01 2024, MaxMem=   13107200 cpu:       0.1
 (Enter /programs/64bit/g09/g09-gfortran/bin/l302.exe)
 NPDir=0 NMtPBC=     1 NCelOv=     1 NCel=       1 NClECP=     1 NCelD=      1
         NCelK=      1 NCelE2=     1 NClLst=     1 CellRange=     0.0.
 One-electron integrals computed using PRISM.
 One-electron integral symmetry used in STVInt
 NBasis=    18 RedAO= T  NBF=     5     0     2     2     0     5     2     2
 NBsUse=    18 1.00D-06 NBFU=     5     0     2     2     0     5     2     2
 Leave Link  302 at Sat Aug 17 19:52:01 2024, MaxMem=   13107200 cpu:       0.2
 (Enter /programs/64bit/g09/g09-gfortran/bin/l303.exe)
 DipDrv:  MaxL=1.
 Leave Link  303 at Sat Aug 17 19:52:01 2024, MaxMem=   13107200 cpu:       0.1
 (Enter /programs/64bit/g09/g09-gfortran/bin/l401.exe)
 Initial guess read from the read-write file.
 B after Tr=     0.000000    0.000000    0.000000
         Rot=    1.000000    0.000000    0.000000    0.000000 Ang=   0.00 deg.
 Guess basis will be translated and rotated to current coordinates.
 Initial guess orbital symmetries:
       Occupied  (SGG)
       Virtual   (SGU) (SGG) (SGU) (PIU) (PIU) (SGG) (PIG) (PIG)
                 (SGU) (SGG) (SGU) (PIU) (PIU) (SGG) (PIG) (PIG)
                 (SGU)
 The electronic state of the initial guess is 1-SGG.
 Leave Link  401 at Sat Aug 17 19:52:02 2024, MaxMem=   13107200 cpu:       0.2
 (Enter /programs/64bit/g09/g09-gfortran/bin/l502.exe)
 Closed shell SCF:
 Requested convergence on RMS density matrix=1.00D-08 within 128 cycles.
 Requested convergence on MAX density matrix=1.00D-06.
 Requested convergence on             energy=1.00D-06.
 No special actions if energy rises.
 Using DIIS extrapolation, IDIIS=  1040.
 Integral symmetry usage will be decided dynamically.
 Keep R1 ints in memory in canonical form, NReq=834561.
 IEnd=       19841 IEndB=       19841 NGot=    13107200 MDV=    13089728
 LenX=    13089728 LenY=    13088846
 Symmetry not used in FoFDir.
 MinBra= 0 MaxBra= 1 Meth= 1.
 IRaf=       0 NMat=   1 IRICut=       1 DoRegI=T DoRafI=F ISym2E= 0 JSym2E=0.

 Cycle   1  Pass 1  IDiag  1:
 E= -1.12881518287027    
 DIIS: error= 8.04D-04 at cycle   1 NSaved=   1.
 NSaved= 1 IEnMin= 1 EnMin= -1.12881518287027     IErMin= 1 ErrMin= 8.04D-04
 ErrMax= 8.04D-04 EMaxC= 1.00D-01 BMatC= 5.46D-06 BMatP= 5.46D-06
 IDIUse=3 WtCom= 9.92D-01 WtEn= 8.04D-03
 Coeff-Com:  0.100D+01
 Coeff-En:   0.100D+01
 Coeff:      0.100D+01
 Gap=     0.653 Goal=   None    Shift=    0.000
 RMSDP=1.49D-04 MaxDP=1.13D-03              OVMax= 1.93D-03

 Cycle   2  Pass 1  IDiag  1:
 E= -1.12882547389416     Delta-E=       -0.000010291024 Rises=F Damp=F
 DIIS: error= 1.50D-04 at cycle   2 NSaved=   2.
 NSaved= 2 IEnMin= 2 EnMin= -1.12882547389416     IErMin= 2 ErrMin= 1.50D-04
 ErrMax= 1.50D-04 EMaxC= 1.00D-01 BMatC= 1.60D-07 BMatP= 5.46D-06
 IDIUse=3 WtCom= 9.99D-01 WtEn= 1.50D-03
 Coeff-Com: -0.195D+00 0.119D+01
 Coeff-En:   0.000D+00 0.100D+01
 Coeff:     -0.194D+00 0.119D+01
 Gap=     0.652 Goal=   None    Shift=    0.000
 RMSDP=3.22D-05 MaxDP=2.50D-04 DE=-1.03D-05 OVMax= 4.28D-04

 Cycle   3  Pass 1  IDiag  1:
 E= -1.12882581493183     Delta-E=       -0.000000341038 Rises=F Damp=F
 DIIS: error= 1.08D-05 at cycle   3 NSaved=   3.
 NSaved= 3 IEnMin= 3 EnMin= -1.12882581493183     IErMin= 3 ErrMin= 1.08D-05
 ErrMax= 1.08D-05 EMaxC= 1.00D-01 BMatC= 6.32D-10 BMatP= 1.60D-07
 IDIUse=1 WtCom= 1.00D+00 WtEn= 0.00D+00
 Coeff-Com:  0.447D-01-0.284D+00 0.124D+01
 Coeff:      0.447D-01-0.284D+00 0.124D+01
 Gap=     0.652 Goal=   None    Shift=    0.000
 RMSDP=1.96D-06 MaxDP=8.86D-06 DE=-3.41D-07 OVMax= 2.82D-05

 Cycle   4  Pass 1  IDiag  1:
 E= -1.12882581623246     Delta-E=       -0.000000001301 Rises=F Damp=F
 DIIS: error= 4.07D-07 at cycle   4 NSaved=   4.
 NSaved= 4 IEnMin= 4 EnMin= -1.12882581623246     IErMin= 4 ErrMin= 4.07D-07
 ErrMax= 4.07D-07 EMaxC= 1.00D-01 BMatC= 1.42D-12 BMatP= 6.32D-10
 IDIUse=1 WtCom= 1.00D+00 WtEn= 0.00D+00
 Coeff-Com: -0.115D-01 0.732D-01-0.335D+00 0.127D+01
 Coeff:     -0.115D-01 0.732D-01-0.335D+00 0.127D+01
 Gap=     0.652 Goal=   None    Shift=    0.000
 RMSDP=1.80D-07 MaxDP=6.79D-07 DE=-1.30D-09 OVMax= 2.15D-06

 Cycle   5  Pass 1  IDiag  1:
 E= -1.12882581623746     Delta-E=       -0.000000000005 Rises=F Damp=F
 DIIS: error= 2.60D-09 at cycle   5 NSaved=   5.
 NSaved= 5 IEnMin= 5 EnMin= -1.12882581623746     IErMin= 5 ErrMin= 2.60D-09
 ErrMax= 2.60D-09 EMaxC= 1.00D-01 BMatC= 3.76D-17 BMatP= 1.42D-12
 IDIUse=1 WtCom= 1.00D+00 WtEn= 0.00D+00
 Coeff-Com:  0.119D-02-0.758D-02 0.347D-01-0.132D+00 0.110D+01
 Coeff:      0.119D-02-0.758D-02 0.347D-01-0.132D+00 0.110D+01
 Gap=     0.652 Goal=   None    Shift=    0.000
 RMSDP=6.43D-10 MaxDP=3.76D-09 DE=-5.00D-12 OVMax= 6.10D-09

 SCF Done:  E(RHF) =  -1.12882581624     A.U. after    5 cycles
             Convg  =    0.6428D-09             -V/T =  2.0365
 KE= 1.089077199250D+00 PE=-3.580318331520D+00 EE= 6.553790266603D-01
 Leave Link  502 at Sat Aug 17 19:52:02 2024, MaxMem=   13107200 cpu:       0.1
 (Enter /programs/64bit/g09/g09-gfortran/bin/l701.exe)
 Compute integral first derivatives.
 ... and contract with generalized density number  0.
 Leave Link  701 at Sat Aug 17 19:52:02 2024, MaxMem=   13107200 cpu:       0.1
 (Enter /programs/64bit/g09/g09-gfortran/bin/l702.exe)
 L702 exits ... SP integral derivatives will be done elsewhere.
 Leave Link  702 at Sat Aug 17 19:52:03 2024, MaxMem=   13107200 cpu:       0.1
 (Enter /programs/64bit/g09/g09-gfortran/bin/l703.exe)
 Compute integral first derivatives, UseDBF=F ICtDFT=           0.
 Integral derivatives from FoFDir, PRISM(SPDF).
 Calling FoFJK, ICntrl=      2127 FMM=F ISym2X=1 I1Cent= 0 IOpClX= 0 NMat=1 NMatS=1 NMatT=0.
 FoFCou: FMM=F IPFlag=           0 FMFlag=      100000 FMFlg1=         800
         NFxFlg=           0 DoJE=F BraDBF=F KetDBF=F FulRan=T
         Omega=  0.000000  0.000000  1.000000  0.000000  0.000000 ICntrl=    2127 IOpCl=  0
         NMat0=    1 NMatS0=    1 NMatT0=    0 NMatD0=    1 NMtDS0=    0 NMtDT0=    0
         I1Cent=           0 NGrid=           0.
 Petite list used in FoFCou.
 Leave Link  703 at Sat Aug 17 19:52:03 2024, MaxMem=   13107200 cpu:       0.1
 (Enter /programs/64bit/g09/g09-gfortran/bin/l716.exe)
 Dipole        =-4.93038066D-32 1.20370622D-35 0.00000000D+00
 ***** Axes restored to original set *****
 -------------------------------------------------------------------
 Center     Atomic                   Forces (Hartrees/Bohr)
 Number     Number              X              Y              Z
 -------------------------------------------------------------------
      1        1           0.000000000    0.000000000    0.000232116
      2        1          -0.000000000   -0.000000000   -0.000232116
 -------------------------------------------------------------------
 Cartesian Forces:  Max     0.000232116 RMS     0.000134012
 Leave Link  716 at Sat Aug 17 19:52:03 2024, MaxMem=   13107200 cpu:       0.1
 (Enter /programs/64bit/g09/g09-gfortran/bin/l103.exe)

 GradGradGradGradGradGradGradGradGradGradGradGradGradGradGradGradGradGrad
 Berny optimization.
 Using GEDIIS/GDIIS optimizer.
 Internal  Forces:  Max     0.000232116 RMS     0.000232116
 Search for a local minimum.
 Step number   2 out of a maximum of   20
 All quantities printed in internal units (Hartrees-Bohrs-Radians)
 RMS Force = .23212D-03 SwitMx=.10000D-02 MixMth= 2
 Mixed Optimization -- En-DIIS/RFO-DIIS
 Update second derivatives using D2CorX and points    1    2
 DE= -4.75D-05 DEPred=-4.99D-05 R= 9.54D-01
 SS=  1.41D+00  RLast= 1.60D-02 DXNew= 5.0454D-01 4.7872D-02
 Trust test= 9.54D-01 RLast= 1.60D-02 DXMaxT set to 3.00D-01
 The second derivative matrix:
                          R1
           R1           0.40604
 Use linear search instead of GDIIS.
     Eigenvalues ---    0.40604
 RFO step:  Lambda= 0.00000000D+00 EMin= 4.06040025D-01
 Quartic linear search produced a step of -0.03675.
 Iteration  1 RMS(Cart)=  0.00041463 RMS(Int)=  0.00000000
 Iteration  2 RMS(Cart)=  0.00000000 RMS(Int)=  0.00000000
 ClnCor:  largest displacement from symmetrization is 1.80D-20 for atom     2.
 Variable       Old X    -DE/DX   Delta X   Delta X   Delta X     New X
                                 (Linear)    (Quad)   (Total)
    R1        1.41435  -0.00023  -0.00059  -0.00000  -0.00059   1.41377
         Item               Value     Threshold  Converged?
 Maximum Force            0.000232     0.000450     YES
 RMS     Force            0.000232     0.000300     YES
 Maximum Displacement     0.000293     0.001800     YES
 RMS     Displacement     0.000415     0.001200     YES
 Predicted change in Energy=-6.630140D-08
 Optimization completed.
    -- Stationary point found.
                           ----------------------------
                           !   Optimized Parameters   !
                           ! (Angstroms and Degrees)  !
 --------------------------                            --------------------------
 ! Name  Definition              Value          Derivative Info.                !
 --------------------------------------------------------------------------------
 ! R1    R(1,2)                  0.7484         -DE/DX =   -0.0002              !
 --------------------------------------------------------------------------------
 GradGradGradGradGradGradGradGradGradGradGradGradGradGradGradGradGradGrad

 Largest change from initial coordinates is atom    1       0.004 Angstoms.
 Leave Link  103 at Sat Aug 17 19:52:03 2024, MaxMem=   13107200 cpu:       0.0
 (Enter /programs/64bit/g09/g09-gfortran/bin/l202.exe)
                          Input orientation:                          
 ---------------------------------------------------------------------
 Center     Atomic      Atomic             Coordinates (Angstroms)
 Number     Number       Type             X           Y           Z
 ---------------------------------------------------------------------
      1          1           0        0.000000    0.000000   -0.004222
      2          1           0        0.000000    0.000000    0.744222
 ---------------------------------------------------------------------
 Stoichiometry    H2
 Framework group  D*H[C*(H.H)]
 Deg. of freedom     1
 Full point group                 D*H     NOp   8
 Largest Abelian subgroup         D2H     NOp   8
 Largest concise Abelian subgroup C2      NOp   2
                         Standard orientation:                         
 ---------------------------------------------------------------------
 Center     Atomic      Atomic             Coordinates (Angstroms)
 Number     Number       Type             X           Y           Z
 ---------------------------------------------------------------------
      1          1           0        0.000000    0.000000    0.374222
      2          1           0        0.000000    0.000000   -0.374222
 ---------------------------------------------------------------------
 Rotational constants (GHZ):      0.0000000   1790.3716667   1790.3716667
 Leave Link  202 at Sat Aug 17 19:52:03 2024, MaxMem=   13107200 cpu:       0.0
 (Enter /programs/64bit/g09/g09-gfortran/bin/l601.exe)
 Copying SCF densities to generalized density rwf, IOpCl= 0 IROHF=0.

 **********************************************************************

            Population analysis using the SCF density.

 **********************************************************************

 Orbital symmetries:
       Occupied  (SGG)
       Virtual   (SGU) (SGG) (SGU) (PIU) (PIU) (SGG) (PIG) (PIG)
                 (SGU) (SGG) (SGU) (PIU) (PIU) (SGG) (PIG) (PIG)
                 (SGU)
 The electronic state is 1-SGG.
 Alpha  occ. eigenvalues --   -0.59024
 Alpha virt. eigenvalues --    0.06139   0.06709   0.23104   0.28474   0.28474
 Alpha virt. eigenvalues --    0.41653   0.45823   0.45823   0.55809   0.71919
 Alpha virt. eigenvalues --    1.22794   1.60427   1.60427   2.07598   2.23849
 Alpha virt. eigenvalues --    2.23849   3.66120
     Molecular Orbital Coefficients:
                           1         2         3         4         5
                       (SGG)--O  (SGU)--V  (SGG)--V  (SGU)--V  (PIU)--V
     Eigenvalues --    -0.59024   0.06139   0.06709   0.23104   0.28474
   1 1   H  1S          0.40365   0.04727  -0.06253   0.16139   0.00000
   2        2S          0.16975  -2.38154  -0.35579  10.82985   0.00000
   3        3S          0.00689   4.46952   0.69087  -3.24944   0.00000
   4        4PX         0.00000   0.00000   0.00000   0.00000   0.00000
   5        4PY         0.00000   0.00000   0.00000   0.00000  -0.01202
   6        4PZ        -0.02203   0.00030   0.01292   0.04547   0.00000
   7        5PX         0.00000   0.00000   0.00000   0.00000   0.00000
   8        5PY         0.00000   0.00000   0.00000   0.00000   0.52260
   9        5PZ        -0.00340   0.57924  -0.06788  -2.24381   0.00000
  10 2   H  1S          0.40365  -0.04727  -0.06253  -0.16139   0.00000
  11        2S          0.16975   2.38154  -0.35579 -10.82985   0.00000
  12        3S          0.00689  -4.46952   0.69087   3.24944   0.00000
  13        4PX         0.00000   0.00000   0.00000   0.00000   0.00000
  14        4PY         0.00000   0.00000   0.00000   0.00000  -0.01202
  15        4PZ         0.02203   0.00030  -0.01292   0.04547   0.00000
  16        5PX         0.00000   0.00000   0.00000   0.00000   0.00000
  17        5PY         0.00000   0.00000   0.00000   0.00000   0.52260
  18        5PZ         0.00340   0.57924   0.06788  -2.24381   0.00000
                           6         7         8         9        10
                       (PIU)--V  (SGG)--V  (PIG)--V  (PIG)--V  (SGU)--V
     Eigenvalues --     0.28474   0.41653   0.45823   0.45823   0.55809
   1 1   H  1S          0.00000  -0.18790   0.00000   0.00000  -0.23517
   2        2S          0.00000   0.82843   0.00000   0.00000  31.14697
   3        3S          0.00000  -0.37564   0.00000   0.00000  -2.40247
   4        4PX        -0.01202   0.00000  -0.04660   0.00000   0.00000
   5        4PY         0.00000   0.00000   0.00000  -0.04660   0.00000
   6        4PZ         0.00000  -0.01740   0.00000   0.00000   0.07354
   7        5PX         0.52260   0.00000   1.98265   0.00000   0.00000
   8        5PY         0.00000   0.00000   0.00000   1.98265   0.00000
   9        5PZ         0.00000   1.28037   0.00000   0.00000  -8.13515
  10 2   H  1S          0.00000  -0.18790   0.00000   0.00000   0.23517
  11        2S          0.00000   0.82843   0.00000   0.00000 -31.14697
  12        3S          0.00000  -0.37564   0.00000   0.00000   2.40247
  13        4PX        -0.01202   0.00000   0.04660   0.00000   0.00000
  14        4PY         0.00000   0.00000   0.00000   0.04660   0.00000
  15        4PZ         0.00000   0.01740   0.00000   0.00000   0.07354
  16        5PX         0.52260   0.00000  -1.98265   0.00000   0.00000
  17        5PY         0.00000   0.00000   0.00000  -1.98265   0.00000
  18        5PZ         0.00000  -1.28037   0.00000   0.00000  -8.13515
                          11        12        13        14        15
                       (SGG)--V  (SGU)--V  (PIU)--V  (PIU)--V  (SGG)--V
     Eigenvalues --     0.71919   1.22794   1.60427   1.60427   2.07598
   1 1   H  1S          0.82438   0.89596   0.00000   0.00000   0.39949
   2        2S         -0.67877  20.93348   0.00000   0.00000  -0.38242
   3        3S          0.20908  -0.46954   0.00000   0.00000   0.13139
   4        4PX         0.00000   0.00000   0.00000   0.67142   0.00000
   5        4PY         0.00000   0.00000   0.67142   0.00000   0.00000
   6        4PZ        -0.01554   0.51738   0.00000   0.00000   0.75885
   7        5PX         0.00000   0.00000   0.00000  -0.29133   0.00000
   8        5PY         0.00000   0.00000  -0.29133   0.00000   0.00000
   9        5PZ         0.89090  -6.07997   0.00000   0.00000  -0.43088
  10 2   H  1S          0.82438  -0.89596   0.00000   0.00000   0.39949
  11        2S         -0.67877 -20.93348   0.00000   0.00000  -0.38242
  12        3S          0.20908   0.46954   0.00000   0.00000   0.13139
  13        4PX         0.00000   0.00000   0.00000   0.67142   0.00000
  14        4PY         0.00000   0.00000   0.67142   0.00000   0.00000
  15        4PZ         0.01554   0.51738   0.00000   0.00000  -0.75885
  16        5PX         0.00000   0.00000   0.00000  -0.29133   0.00000
  17        5PY         0.00000   0.00000  -0.29133   0.00000   0.00000
  18        5PZ        -0.89090  -6.07997   0.00000   0.00000   0.43088
                          16        17        18
                       (PIG)--V  (PIG)--V  (SGU)--V
     Eigenvalues --     2.23849   2.23849   3.66120
   1 1   H  1S          0.00000   0.00000  -2.55383
   2        2S          0.00000   0.00000   7.27649
   3        3S          0.00000   0.00000  -0.41319
   4        4PX         1.06116   0.00000   0.00000
   5        4PY         0.00000   1.06116   0.00000
   6        4PZ         0.00000   0.00000   2.12442
   7        5PX        -0.70791   0.00000   0.00000
   8        5PY         0.00000  -0.70791   0.00000
   9        5PZ         0.00000   0.00000  -1.99116
  10 2   H  1S          0.00000   0.00000   2.55383
  11        2S          0.00000   0.00000  -7.27649
  12        3S          0.00000   0.00000   0.41319
  13        4PX        -1.06116   0.00000   0.00000
  14        4PY         0.00000  -1.06116   0.00000
  15        4PZ         0.00000   0.00000   2.12442
  16        5PX         0.70791   0.00000   0.00000
  17        5PY         0.00000   0.70791   0.00000
  18        5PZ         0.00000   0.00000  -1.99116
     Density Matrix:
                           1         2         3         4         5
   1 1   H  1S          0.32587
   2        2S          0.13704   0.05763
   3        3S          0.00557   0.00234   0.00010
   4        4PX        -0.00000  -0.00000  -0.00000   0.00000
   5        4PY        -0.00000  -0.00000  -0.00000   0.00000   0.00000
   6        4PZ        -0.01778  -0.00748  -0.00030   0.00000   0.00000
   7        5PX        -0.00000  -0.00000  -0.00000   0.00000   0.00000
   8        5PY        -0.00000  -0.00000  -0.00000   0.00000   0.00000
   9        5PZ        -0.00275  -0.00115  -0.00005   0.00000   0.00000
  10 2   H  1S          0.32587   0.13704   0.00557  -0.00000  -0.00000
  11        2S          0.13704   0.05763   0.00234  -0.00000  -0.00000
  12        3S          0.00557   0.00234   0.00010  -0.00000  -0.00000
  13        4PX         0.00000   0.00000   0.00000  -0.00000   0.00000
  14        4PY         0.00000   0.00000   0.00000   0.00000  -0.00000
  15        4PZ         0.01778   0.00748   0.00030  -0.00000  -0.00000
  16        5PX         0.00000   0.00000   0.00000  -0.00000   0.00000
  17        5PY         0.00000   0.00000   0.00000   0.00000  -0.00000
  18        5PZ         0.00275   0.00115   0.00005  -0.00000  -0.00000
                           6         7         8         9        10
   6        4PZ         0.00097
   7        5PX         0.00000   0.00000
   8        5PY         0.00000   0.00000   0.00000
   9        5PZ         0.00015   0.00000   0.00000   0.00002
  10 2   H  1S         -0.01778  -0.00000  -0.00000  -0.00275   0.32587
  11        2S         -0.00748  -0.00000  -0.00000  -0.00115   0.13704
  12        3S         -0.00030  -0.00000  -0.00000  -0.00005   0.00557
  13        4PX        -0.00000  -0.00000   0.00000  -0.00000   0.00000
  14        4PY        -0.00000   0.00000  -0.00000  -0.00000   0.00000
  15        4PZ        -0.00097  -0.00000  -0.00000  -0.00015   0.01778
  16        5PX        -0.00000  -0.00000   0.00000  -0.00000   0.00000
  17        5PY        -0.00000   0.00000  -0.00000  -0.00000   0.00000
  18        5PZ        -0.00015  -0.00000  -0.00000  -0.00002   0.00275
                          11        12        13        14        15
  11        2S          0.05763
  12        3S          0.00234   0.00010
  13        4PX         0.00000   0.00000   0.00000
  14        4PY         0.00000   0.00000   0.00000   0.00000
  15        4PZ         0.00748   0.00030   0.00000   0.00000   0.00097
  16        5PX         0.00000   0.00000   0.00000   0.00000   0.00000
  17        5PY         0.00000   0.00000   0.00000   0.00000   0.00000
  18        5PZ         0.00115   0.00005   0.00000   0.00000   0.00015
                          16        17        18
  16        5PX         0.00000
  17        5PY         0.00000   0.00000
  18        5PZ         0.00000   0.00000   0.00002
    Full Mulliken population analysis:
                           1         2         3         4         5
   1 1   H  1S          0.32587
   2        2S          0.09385   0.05763
   3        3S          0.00169   0.00166   0.00010
   4        4PX         0.00000   0.00000   0.00000   0.00000
   5        4PY         0.00000   0.00000   0.00000   0.00000   0.00000
   6        4PZ         0.00000   0.00000   0.00000  -0.00000   0.00000
   7        5PX         0.00000   0.00000   0.00000   0.00000   0.00000
   8        5PY         0.00000   0.00000   0.00000   0.00000   0.00000
   9        5PZ         0.00000   0.00000   0.00000  -0.00000   0.00000
  10 2   H  1S          0.18376   0.07716   0.00160   0.00000   0.00000
  11        2S          0.07716   0.05101   0.00158   0.00000   0.00000
  12        3S          0.00160   0.00158   0.00009   0.00000   0.00000
  13        4PX         0.00000   0.00000   0.00000  -0.00000   0.00000
  14        4PY         0.00000   0.00000   0.00000   0.00000  -0.00000
  15        4PZ         0.00952   0.00124   0.00001   0.00000   0.00000
  16        5PX         0.00000   0.00000   0.00000  -0.00000   0.00000
  17        5PY         0.00000   0.00000   0.00000   0.00000  -0.00000
  18        5PZ         0.00133   0.00050   0.00001   0.00000   0.00000
                           6         7         8         9        10
   6        4PZ         0.00097
   7        5PX        -0.00000   0.00000
   8        5PY         0.00000   0.00000   0.00000
   9        5PZ         0.00007  -0.00000   0.00000   0.00002
  10 2   H  1S          0.00952   0.00000   0.00000   0.00133   0.32587
  11        2S          0.00124   0.00000   0.00000   0.00050   0.09385
  12        3S          0.00001   0.00000   0.00000   0.00001   0.00169
  13        4PX         0.00000  -0.00000   0.00000   0.00000   0.00000
  14        4PY         0.00000   0.00000  -0.00000   0.00000   0.00000
  15        4PZ         0.00021   0.00000   0.00000  -0.00003   0.00000
  16        5PX         0.00000  -0.00000   0.00000   0.00000   0.00000
  17        5PY         0.00000   0.00000  -0.00000   0.00000   0.00000
  18        5PZ        -0.00003   0.00000   0.00000  -0.00001   0.00000
                          11        12        13        14        15
  11        2S          0.05763
  12        3S          0.00166   0.00010
  13        4PX         0.00000   0.00000   0.00000
  14        4PY         0.00000   0.00000   0.00000   0.00000
  15        4PZ         0.00000   0.00000   0.00000   0.00000   0.00097
  16        5PX         0.00000   0.00000   0.00000   0.00000   0.00000
  17        5PY         0.00000   0.00000   0.00000   0.00000   0.00000
  18        5PZ         0.00000   0.00000   0.00000   0.00000   0.00007
                          16        17        18
  16        5PX         0.00000
  17        5PY         0.00000   0.00000
  18        5PZ         0.00000   0.00000   0.00002
     Gross orbital populations:
                           1
   1 1   H  1S          0.69479
   2        2S          0.28462
   3        3S          0.00672
   4        4PX         0.00000
   5        4PY         0.00000
   6        4PZ         0.01199
   7        5PX         0.00000
   8        5PY         0.00000
   9        5PZ         0.00188
  10 2   H  1S          0.69479
  11        2S          0.28462
  12        3S          0.00672
  13        4PX         0.00000
  14        4PY         0.00000
  15        4PZ         0.01199
  16        5PX         0.00000
  17        5PY         0.00000
  18        5PZ         0.00188
          Condensed to atoms (all electrons):
              1          2
     1  H    0.579126   0.420874
     2  H    0.420874   0.579126
 Mulliken atomic charges:
              1
     1  H   -0.000000
     2  H   -0.000000
 Sum of Mulliken atomic charges =  -0.00000
 Mulliken charges with hydrogens summed into heavy atoms:
              1
 Sum of Mulliken charges with hydrogens summed into heavy atoms =  -0.00000
 Electronic spatial extent (au):  <R**2>=              5.1579
 Charge=             -0.0000 electrons
 Dipole moment (field-independent basis, Debye):
    X=             -0.0000    Y=              0.0000    Z=             -0.0000  Tot=              0.0000
 Quadrupole moment (field-independent basis, Debye-Ang):
   XX=             -2.0711   YY=             -2.0711   ZZ=             -1.4501
   XY=             -0.0000   XZ=             -0.0000   YZ=              0.0000
 Traceless Quadrupole moment (field-independent basis, Debye-Ang):
   XX=             -0.2070   YY=             -0.2070   ZZ=              0.4140
   XY=             -0.0000   XZ=             -0.0000   YZ=              0.0000
 Octapole moment (field-independent basis, Debye-Ang**2):
  XXX=             -0.0000  YYY=             -0.0000  ZZZ=             -0.0000  XYY=             -0.0000
  XXY=              0.0000  XXZ=             -0.0000  XZZ=             -0.0000  YZZ=              0.0000
  YYZ=              0.0000  XYZ=              0.0000
 Hexadecapole moment (field-independent basis, Debye-Ang**3):
 XXXX=             -2.0605 YYYY=             -2.0605 ZZZZ=             -2.8625 XXXY=             -0.0000
 XXXZ=              0.0000 YYYX=             -0.0000 YYYZ=              0.0000 ZZZX=              0.0000
 ZZZY=              0.0000 XXYY=             -0.6868 XXZZ=             -0.8393 YYZZ=             -0.8393
 XXYZ=              0.0000 YYXZ=              0.0000 ZZXY=             -0.0000
 N-N= 7.070362893726D-01 E-N=-3.580318334159D+00  KE= 1.089077199250D+00
 Symmetry AG   KE= 1.089077199250D+00
 Symmetry B1G  KE= 0.000000000000D+00
 Symmetry B2G  KE= 3.086415515258D-34
 Symmetry B3G  KE= 3.086415515258D-34
 Symmetry AU   KE= 0.000000000000D+00
 Symmetry B1U  KE= 1.878802397366D-30
 Symmetry B2U  KE= 4.256455292418D-35
 Symmetry B3U  KE= 4.256455292418D-35
 Orbital energies and kinetic energies (alpha):
                                 1                 2
   1         (SGG)--O         -0.590242          0.544539
   2         (SGU)--V          0.061385          0.075033
   3         (SGG)--V          0.067088          0.093849
   4         (SGU)--V          0.231043          0.363898
   5         (PIU)--V          0.284741          0.339136
   6         (PIU)--V          0.284741          0.339136
   7         (SGG)--V          0.416533          0.507805
   8         (PIG)--V          0.458226          0.476405
   9         (PIG)--V          0.458226          0.476405
  10         (SGU)--V          0.558087          0.721870
  11         (SGG)--V          0.719193          1.096169
  12         (SGU)--V          1.227942          1.896893
  13         (PIU)--V          1.604269          1.938776
  14         (PIU)--V          1.604269          1.938776
  15         (SGG)--V          2.075981          2.476001
  16         (PIG)--V          2.238488          2.517781
  17         (PIG)--V          2.238488          2.517781
  18         (SGU)--V          3.661197          4.602306
 Total kinetic energy from orbitals= 1.089077199250D+00
 No NMR shielding tensors so no spin-rotation constants.
 Leave Link  601 at Sat Aug 17 19:52:04 2024, MaxMem=   13107200 cpu:       0.1
 (Enter /programs/64bit/g09/g09-gfortran/bin/l9999.exe)
 B after Tr=     0.000000    0.000000    0.699199
         Rot=    0.000000   -0.000000    1.000000   -0.000000 Ang= 180.00 deg.
 Final structure in terms of initial Z-matrix:
 H
 H,1,d
      Variables:
 d=0.7484442
 1\1\GINC-MOLMOD\FOpt\RHF\Aug-CC-pVDZ\H2\OSPITE\17-Aug-2024\0\\#p hf/au
 g-cc-pVDZ opt freq pop=full gfinput\\hydrogen (moldecule) with and aug
 -cc-pVDZ basis function\\0,1\H,0.,0.,-0.004222099\H,0.,0.,0.744222099\
 \Version=EM64L-G09RevA.02\State=1-SGG\HF=-1.1288258\RMSD=6.428e-10\RMS
 F=1.340e-04\Dipole=0.,0.,0.\Quadrupole=-0.1538886,-0.1538886,0.3077773
 ,0.,0.,0.\PG=D*H [C*(H1.H1)]\\@


 LOVE IS BLIND, THAT'S WHY ALL THE WORLD LOVES A LOUVER.
 Leave Link 9999 at Sat Aug 17 19:52:04 2024, MaxMem=   13107200 cpu:       0.1
 Job cpu time:  0 days  0 hours  0 minutes  3.2 seconds.
 File lengths (MBytes):  RWF=      5 Int=      0 D2E=      0 Chk=      1 Scr=      1
 Normal termination of Gaussian 09 at Sat Aug 17 19:52:04 2024.
 (Enter /programs/64bit/g09/g09-gfortran/bin/l1.exe)
 Link1:  Proceeding to internal job step number  2.
 --------------------------------------------------------------------
 #P Geom=AllCheck Guess=TCheck SCRF=Check GenChk RHF/Aug-CC-pVDZ Freq
 --------------------------------------------------------------------
 1/10=4,29=7,30=1,38=1,40=1/1,3;
 2/12=2,40=1/2;
 3/5=16,7=10,11=1,14=-4,16=1,24=10,25=1,30=1,70=2,71=2,116=1/1,2,3;
 4/5=101/1;
 5/5=2,98=1/2;
 8/6=4,10=90,11=11/1;
 10/13=10,15=4/2;
 11/6=3,8=1,9=11,15=111,16=1/1,2,10;
 10/6=1/2;
 6/7=3,18=1,28=1/1;
 7/8=1,10=1,25=1/1,2,3,16;
 1/10=4,30=1/3;
 99//99;
 Leave Link    1 at Sat Aug 17 19:52:04 2024, MaxMem=   13107200 cpu:       0.1
 (Enter /programs/64bit/g09/g09-gfortran/bin/l101.exe)
 --------------------------------------------------------
 hydrogen (moldecule) with and aug-cc-pVDZ basis function
 --------------------------------------------------------
 Redundant internal coordinates taken from checkpoint file:
 /home/ospite/Desktop/MMfP/Project6/H2/g09/HF/Gau-12680.chk
 Charge =  0 Multiplicity = 1
 H,0,0.,0.,-0.004222099
 H,0,0.,0.,0.744222099
 Recover connectivity data from disk.
                    Isotopes and Nuclear Properties:
 (Nuclear quadrupole moments (NQMom) in fm**2, nuclear magnetic moments (NMagM)
  in nuclear magnetons)

  Atom         1           2
 IAtWgt=           1           1
 AtmWgt=   1.0078250   1.0078250
 NucSpn=           1           1
 AtZEff=  -1.0000000  -1.0000000
 NQMom=    0.0000000   0.0000000
 NMagM=    2.7928460   2.7928460
 Leave Link  101 at Sat Aug 17 19:52:04 2024, MaxMem=   13107200 cpu:       0.2
 (Enter /programs/64bit/g09/g09-gfortran/bin/l103.exe)

 GradGradGradGradGradGradGradGradGradGradGradGradGradGradGradGradGradGrad
 Berny optimization.
 Initialization pass.
                           ----------------------------
                           !    Initial Parameters    !
                           ! (Angstroms and Degrees)  !
 --------------------------                            --------------------------
 ! Name  Definition              Value          Derivative Info.                !
 --------------------------------------------------------------------------------
 ! R1    R(1,2)                  0.7484         calculate D2E/DX2 analytically  !
 --------------------------------------------------------------------------------
 Trust Radius=3.00D-01 FncErr=1.00D-07 GrdErr=1.00D-07
 Number of steps in this run=   2 maximum allowed number of steps=   2.
 GradGradGradGradGradGradGradGradGradGradGradGradGradGradGradGradGradGrad

 Leave Link  103 at Sat Aug 17 19:52:04 2024, MaxMem=   13107200 cpu:       0.0
 (Enter /programs/64bit/g09/g09-gfortran/bin/l202.exe)
                          Input orientation:                          
 ---------------------------------------------------------------------
 Center     Atomic      Atomic             Coordinates (Angstroms)
 Number     Number       Type             X           Y           Z
 ---------------------------------------------------------------------
      1          1           0        0.000000    0.000000   -0.004222
      2          1           0        0.000000    0.000000    0.744222
 ---------------------------------------------------------------------
 Stoichiometry    H2
 Framework group  D*H[C*(H.H)]
 Deg. of freedom     1
 Full point group                 D*H     NOp   8
 Largest Abelian subgroup         D2H     NOp   8
 Largest concise Abelian subgroup C2      NOp   2
                         Standard orientation:                         
 ---------------------------------------------------------------------
 Center     Atomic      Atomic             Coordinates (Angstroms)
 Number     Number       Type             X           Y           Z
 ---------------------------------------------------------------------
      1          1           0        0.000000    0.000000    0.374222
      2          1           0        0.000000    0.000000   -0.374222
 ---------------------------------------------------------------------
 Rotational constants (GHZ):      0.0000000   1790.3716667   1790.3716667
 Leave Link  202 at Sat Aug 17 19:52:04 2024, MaxMem=   13107200 cpu:       0.0
 (Enter /programs/64bit/g09/g09-gfortran/bin/l301.exe)
 Standard basis: Aug-CC-pVDZ (5D, 7F)
 Ernie: Thresh=  0.10000D-02 Tol=  0.10000D-05 Strict=F.
 AO basis set in the form of general basis input (Overlap normalization):
      1 0
 S   3 1.00       0.000000000000
      0.1301000000D+02  0.3349872639D-01
      0.1962000000D+01  0.2348008012D+00
      0.4446000000D+00  0.8136829579D+00
 S   1 1.00       0.000000000000
      0.1220000000D+00  0.1000000000D+01
 S   1 1.00       0.000000000000
      0.2974000000D-01  0.1000000000D+01
 P   1 1.00       0.000000000000
      0.7270000000D+00  0.1000000000D+01
 P   1 1.00       0.000000000000
      0.1410000000D+00  0.1000000000D+01
 ****
      2 0
 S   3 1.00       0.000000000000
      0.1301000000D+02  0.3349872639D-01
      0.1962000000D+01  0.2348008012D+00
      0.4446000000D+00  0.8136829579D+00
 S   1 1.00       0.000000000000
      0.1220000000D+00  0.1000000000D+01
 S   1 1.00       0.000000000000
      0.2974000000D-01  0.1000000000D+01
 P   1 1.00       0.000000000000
      0.7270000000D+00  0.1000000000D+01
 P   1 1.00       0.000000000000
      0.1410000000D+00  0.1000000000D+01
 ****

 There are     5 symmetry adapted basis functions of AG  symmetry.
 There are     0 symmetry adapted basis functions of B1G symmetry.
 There are     2 symmetry adapted basis functions of B2G symmetry.
 There are     2 symmetry adapted basis functions of B3G symmetry.
 There are     0 symmetry adapted basis functions of AU  symmetry.
 There are     5 symmetry adapted basis functions of B1U symmetry.
 There are     2 symmetry adapted basis functions of B2U symmetry.
 There are     2 symmetry adapted basis functions of B3U symmetry.
 Integral buffers will be    131072 words long.
 Raffenetti 1 integral format.
 Two-electron integral symmetry is turned on.
    18 basis functions,    22 primitive gaussians,    18 cartesian basis functions
     1 alpha electrons        1 beta electrons
       nuclear repulsion energy         0.7070362894 Hartrees.
 IExCor=    0 DFT=F Ex=HF Corr=None ExCW=0 ScaHFX=  1.000000
 ScaDFX=  1.000000  1.000000  1.000000  1.000000 ScalE2=  1.000000  1.000000
 IRadAn=      0 IRanWt=     -1 IRanGd=            0 ICorTp=0
 NAtoms=    2 NActive=    2 NUniq=    1 SFac= 3.00D+00 NAtFMM=   80 NAOKFM=F Big=F
 Leave Link  301 at Sat Aug 17 19:52:05 2024, MaxMem=   13107200 cpu:       0.1
 (Enter /programs/64bit/g09/g09-gfortran/bin/l302.exe)
 NPDir=0 NMtPBC=     1 NCelOv=     1 NCel=       1 NClECP=     1 NCelD=      1
         NCelK=      1 NCelE2=     1 NClLst=     1 CellRange=     0.0.
 One-electron integrals computed using PRISM.
 One-electron integral symmetry used in STVInt
 NBasis=    18 RedAO= T  NBF=     5     0     2     2     0     5     2     2
 NBsUse=    18 1.00D-06 NBFU=     5     0     2     2     0     5     2     2
 Leave Link  302 at Sat Aug 17 19:52:05 2024, MaxMem=   13107200 cpu:       0.1
 (Enter /programs/64bit/g09/g09-gfortran/bin/l303.exe)
 DipDrv:  MaxL=1.
 Leave Link  303 at Sat Aug 17 19:52:05 2024, MaxMem=   13107200 cpu:       0.1
 (Enter /programs/64bit/g09/g09-gfortran/bin/l401.exe)
 Initial guess read from the checkpoint file:  /home/ospite/Desktop/MMfP/Project6
 /H2/g09/HF/Gau-12680.chk
 B after Tr=     0.000000    0.000000    0.000000
         Rot=    1.000000    0.000000    0.000000    0.000000 Ang=   0.00 deg.
 Guess basis will be translated and rotated to current coordinates.
 Initial guess orbital symmetries:
       Occupied  (SGG)
       Virtual   (SGU) (SGG) (SGU) (PIU) (PIU) (SGG) (PIG) (PIG)
                 (SGU) (SGG) (SGU) (PIU) (PIU) (SGG) (PIG) (PIG)
                 (SGU)
 The electronic state of the initial guess is 1-SGG.
 Leave Link  401 at Sat Aug 17 19:52:06 2024, MaxMem=   13107200 cpu:       0.2
 (Enter /programs/64bit/g09/g09-gfortran/bin/l502.exe)
 Closed shell SCF:
 Requested convergence on RMS density matrix=1.00D-08 within 128 cycles.
 Requested convergence on MAX density matrix=1.00D-06.
 Requested convergence on             energy=1.00D-06.
 No special actions if energy rises.
 Using DIIS extrapolation, IDIIS=  1040.
 Integral symmetry usage will be decided dynamically.
 Keep R1 ints in memory in canonical form, NReq=834561.
 IEnd=       19841 IEndB=       19841 NGot=    13107200 MDV=    13089728
 LenX=    13089728 LenY=    13088846
 Symmetry not used in FoFDir.
 MinBra= 0 MaxBra= 1 Meth= 1.
 IRaf=       0 NMat=   1 IRICut=       1 DoRegI=T DoRafI=F ISym2E= 0 JSym2E=0.

 Cycle   1  Pass 1  IDiag  1:
 E= -1.12882581623746    
 DIIS: error= 3.38D-10 at cycle   1 NSaved=   1.
 NSaved= 1 IEnMin= 1 EnMin= -1.12882581623746     IErMin= 1 ErrMin= 3.38D-10
 ErrMax= 3.38D-10 EMaxC= 1.00D-01 BMatC= 6.45D-19 BMatP= 6.45D-19
 IDIUse=1 WtCom= 1.00D+00 WtEn= 0.00D+00
 Coeff-Com:  0.100D+01
 Coeff:      0.100D+01
 Gap=     0.652 Goal=   None    Shift=    0.000
 RMSDP=5.26D-11 MaxDP=2.26D-10              OVMax= 9.86D-10

 SCF Done:  E(RHF) =  -1.12882581624     A.U. after    1 cycles
             Convg  =    0.5262D-10             -V/T =  2.0365
 KE= 1.089077197966D+00 PE=-3.580318332875D+00 EE= 6.553790292990D-01
 Leave Link  502 at Sat Aug 17 19:52:06 2024, MaxMem=   13107200 cpu:       0.1
 (Enter /programs/64bit/g09/g09-gfortran/bin/l801.exe)
 Range of M.O.s used for correlation:     1    18
 NBasis=    18 NAE=     1 NBE=     1 NFC=     0 NFV=     0
 NROrb=     18 NOA=     1 NOB=     1 NVA=    17 NVB=    17

 **** Warning!!: The largest alpha MO coefficient is  0.31146971D+02

 Leave Link  801 at Sat Aug 17 19:52:06 2024, MaxMem=   13107200 cpu:       0.0
 (Enter /programs/64bit/g09/g09-gfortran/bin/l1002.exe)
 Minotr:  Closed shell wavefunction.
          Direct CPHF calculation.
          Differentiating once with respect to electric field.
                with respect to dipole field.
          Electric field/nuclear overlap derivatives assumed to be zero.
          Using symmetry in CPHF.
          Requested convergence is 1.0D-08 RMS, and 1.0D-07 maximum.
          Secondary convergence is 1.0D-12 RMS, and 1.0D-12 maximum.
          NewPWx=F KeepS1=T KeepF1=T KeepIn=T MapXYZ=F SortEE=F KeepMc=T.
          MDV=      13107180 using IRadAn=       2.
          Keep R1 ints in memory in canonical form, NReq=815287.
 Symmetry not used in FoFDir.
 MinBra= 0 MaxBra= 1 Meth= 1.
 IRaf=       0 NMat=   1 IRICut=       1 DoRegI=T DoRafI=F ISym2E= 0 JSym2E=0.
          Solving linear equations simultaneously, MaxMat=       0.
          There are     3 degrees of freedom in the 1st order CPHF.  IDoFFX=0.
      3 vectors produced by pass  0 Test12= 5.67D-16 3.33D-08 XBig12= 1.56D+00 9.81D-01.
 AX will form     3 AO Fock derivatives at one time.
      3 vectors produced by pass  1 Test12= 5.67D-16 3.33D-08 XBig12= 6.78D-03 5.94D-02.
      1 vectors produced by pass  2 Test12= 5.67D-16 3.33D-08 XBig12= 7.91D-06 1.69D-03.
      1 vectors produced by pass  3 Test12= 5.67D-16 3.33D-08 XBig12= 5.09D-09 6.27D-05.
      1 vectors produced by pass  4 Test12= 5.67D-16 3.33D-08 XBig12= 6.66D-12 1.49D-06.
 Inverted reduced A of dimension     9 with in-core refinement.
 End of Minotr Frequency-dependent properties file   721 does not exist.
 End of Minotr Frequency-dependent properties file   722 does not exist.
 Leave Link 1002 at Sat Aug 17 19:52:06 2024, MaxMem=   13107200 cpu:       0.1
 (Enter /programs/64bit/g09/g09-gfortran/bin/l1101.exe)
 Using compressed storage, NAtomX=     2.
 Will process   3 centers per pass.
 Leave Link 1101 at Sat Aug 17 19:52:06 2024, MaxMem=   13107200 cpu:       0.1
 (Enter /programs/64bit/g09/g09-gfortran/bin/l1102.exe)
 Symmetrizing basis deriv contribution to polar:
[...]
   6        4PZ        -0.01778  -0.00748  -0.00030   0.00000   0.00000
   7        5PX        -0.00000  -0.00000  -0.00000   0.00000   0.00000
   8        5PY        -0.00000  -0.00000  -0.00000   0.00000   0.00000
   9        5PZ        -0.00275  -0.00115  -0.00005   0.00000   0.00000
  10 2   H  1S          0.32587   0.13704   0.00557  -0.00000  -0.00000
  11        2S          0.13704   0.05763   0.00234  -0.00000  -0.00000
  12        3S          0.00557   0.00234   0.00010  -0.00000  -0.00000
  13        4PX         0.00000   0.00000   0.00000  -0.00000   0.00000
  14        4PY         0.00000   0.00000   0.00000   0.00000  -0.00000
  15        4PZ         0.01778   0.00748   0.00030  -0.00000  -0.00000
  16        5PX         0.00000   0.00000   0.00000  -0.00000   0.00000
  17        5PY         0.00000   0.00000   0.00000   0.00000  -0.00000
  18        5PZ         0.00275   0.00115   0.00005  -0.00000  -0.00000
                           6         7         8         9        10
   6        4PZ         0.00097
   7        5PX         0.00000   0.00000
   8        5PY         0.00000   0.00000   0.00000
   9        5PZ         0.00015   0.00000   0.00000   0.00002
  10 2   H  1S         -0.01778  -0.00000  -0.00000  -0.00275   0.32587
  11        2S         -0.00748  -0.00000  -0.00000  -0.00115   0.13704
  12        3S         -0.00030  -0.00000  -0.00000  -0.00005   0.00557
  13        4PX        -0.00000  -0.00000   0.00000  -0.00000   0.00000
  14        4PY        -0.00000   0.00000  -0.00000  -0.00000   0.00000
  15        4PZ        -0.00097  -0.00000  -0.00000  -0.00015   0.01778
  16        5PX        -0.00000  -0.00000   0.00000  -0.00000   0.00000
  17        5PY        -0.00000   0.00000  -0.00000  -0.00000   0.00000
  18        5PZ        -0.00015  -0.00000  -0.00000  -0.00002   0.00275
                          11        12        13        14        15
  11        2S          0.05763
  12        3S          0.00234   0.00010
  13        4PX         0.00000   0.00000   0.00000
  14        4PY         0.00000   0.00000   0.00000   0.00000
  15        4PZ         0.00748   0.00030   0.00000   0.00000   0.00097
  16        5PX         0.00000   0.00000   0.00000   0.00000   0.00000
  17        5PY         0.00000   0.00000   0.00000   0.00000   0.00000
  18        5PZ         0.00115   0.00005   0.00000   0.00000   0.00015
                          16        17        18
  16        5PX         0.00000
  17        5PY         0.00000   0.00000
  18        5PZ         0.00000   0.00000   0.00002
    Full Mulliken population analysis:
                           1         2         3         4         5
   1 1   H  1S          0.32587
   2        2S          0.09385   0.05763
   3        3S          0.00169   0.00166   0.00010
   4        4PX         0.00000   0.00000   0.00000   0.00000
   5        4PY         0.00000   0.00000   0.00000   0.00000   0.00000
   6        4PZ         0.00000   0.00000   0.00000  -0.00000   0.00000
   7        5PX         0.00000   0.00000   0.00000   0.00000   0.00000
   8        5PY         0.00000   0.00000   0.00000   0.00000   0.00000
   9        5PZ         0.00000   0.00000   0.00000  -0.00000   0.00000
  10 2   H  1S          0.18376   0.07716   0.00160   0.00000   0.00000
  11        2S          0.07716   0.05101   0.00158   0.00000   0.00000
  12        3S          0.00160   0.00158   0.00009   0.00000   0.00000
  13        4PX         0.00000   0.00000   0.00000  -0.00000   0.00000
  14        4PY         0.00000   0.00000   0.00000   0.00000  -0.00000
  15        4PZ         0.00952   0.00124   0.00001   0.00000   0.00000
  16        5PX         0.00000   0.00000   0.00000  -0.00000   0.00000
  17        5PY         0.00000   0.00000   0.00000   0.00000  -0.00000
  18        5PZ         0.00133   0.00050   0.00001   0.00000   0.00000
                           6         7         8         9        10
   6        4PZ         0.00097
   7        5PX        -0.00000   0.00000
   8        5PY         0.00000   0.00000   0.00000
   9        5PZ         0.00007  -0.00000   0.00000   0.00002
  10 2   H  1S          0.00952   0.00000   0.00000   0.00133   0.32587
  11        2S          0.00124   0.00000   0.00000   0.00050   0.09385
  12        3S          0.00001   0.00000   0.00000   0.00001   0.00169
  13        4PX         0.00000  -0.00000   0.00000   0.00000   0.00000
  14        4PY         0.00000   0.00000  -0.00000   0.00000   0.00000
  15        4PZ         0.00021   0.00000   0.00000  -0.00003   0.00000
  16        5PX         0.00000  -0.00000   0.00000   0.00000   0.00000
  17        5PY         0.00000   0.00000  -0.00000   0.00000   0.00000
  18        5PZ        -0.00003   0.00000   0.00000  -0.00001   0.00000
                          11        12        13        14        15
  11        2S          0.05763
  12        3S          0.00166   0.00010
  13        4PX         0.00000   0.00000   0.00000
  14        4PY         0.00000   0.00000   0.00000   0.00000
  15        4PZ         0.00000   0.00000   0.00000   0.00000   0.00097
  16        5PX         0.00000   0.00000   0.00000   0.00000   0.00000
  17        5PY         0.00000   0.00000   0.00000   0.00000   0.00000
  18        5PZ         0.00000   0.00000   0.00000   0.00000   0.00007
                          16        17        18
  16        5PX         0.00000
  17        5PY         0.00000   0.00000
  18        5PZ         0.00000   0.00000   0.00002
     Gross orbital populations:
                           1
   1 1   H  1S          0.69479
   2        2S          0.28462
   3        3S          0.00672
   4        4PX         0.00000
   5        4PY         0.00000
   6        4PZ         0.01199
   7        5PX         0.00000
   8        5PY         0.00000
   9        5PZ         0.00188
  10 2   H  1S          0.69479
  11        2S          0.28462
  12        3S          0.00672
  13        4PX         0.00000
  14        4PY         0.00000
  15        4PZ         0.01199
  16        5PX         0.00000
  17        5PY         0.00000
  18        5PZ         0.00188
          Condensed to atoms (all electrons):
              1          2
     1  H    0.579126   0.420874
     2  H    0.420874   0.579126
 Mulliken atomic charges:
              1
     1  H   -0.000000
     2  H   -0.000000
 Sum of Mulliken atomic charges =  -0.00000
 Mulliken charges with hydrogens summed into heavy atoms:
              1
 Sum of Mulliken charges with hydrogens summed into heavy atoms =  -0.00000
 APT atomic charges:
              1
     1  H   -0.000000
     2  H   -0.000000
 Sum of APT charges=  -0.00000
 APT Atomic charges with hydrogens summed into heavy atoms:
              1
     1  H   -0.000000
     2  H   -0.000000
 Sum of APT charges=  -0.00000
 Electronic spatial extent (au):  <R**2>=              5.1579
 Charge=             -0.0000 electrons
 Dipole moment (field-independent basis, Debye):
    X=             -0.0000    Y=              0.0000    Z=             -0.0000  Tot=              0.0000
 Quadrupole moment (field-independent basis, Debye-Ang):
   XX=             -2.0711   YY=             -2.0711   ZZ=             -1.4501
   XY=             -0.0000   XZ=             -0.0000   YZ=              0.0000
 Traceless Quadrupole moment (field-independent basis, Debye-Ang):
   XX=             -0.2070   YY=             -0.2070   ZZ=              0.4140
   XY=             -0.0000   XZ=             -0.0000   YZ=              0.0000
 Octapole moment (field-independent basis, Debye-Ang**2):
  XXX=             -0.0000  YYY=              0.0000  ZZZ=             -0.0000  XYY=             -0.0000
  XXY=             -0.0000  XXZ=             -0.0000  XZZ=             -0.0000  YZZ=             -0.0000
  YYZ=             -0.0000  XYZ=              0.0000
 Hexadecapole moment (field-independent basis, Debye-Ang**3):
 XXXX=             -2.0605 YYYY=             -2.0605 ZZZZ=             -2.8625 XXXY=             -0.0000
 XXXZ=              0.0000 YYYX=             -0.0000 YYYZ=              0.0000 ZZZX=              0.0000
 ZZZY=              0.0000 XXYY=             -0.6868 XXZZ=             -0.8393 YYZZ=             -0.8393
 XXYZ=              0.0000 YYXZ=              0.0000 ZZXY=             -0.0000
 N-N= 7.070362893726D-01 E-N=-3.580318332408D+00  KE= 1.089077197966D+00
 Symmetry AG   KE= 1.089077197966D+00
 Symmetry B1G  KE= 0.000000000000D+00
 Symmetry B2G  KE= 3.086415510360D-34
 Symmetry B3G  KE= 3.086415510360D-34
 Symmetry AU   KE= 0.000000000000D+00
 Symmetry B1U  KE= 1.847855732399D-30
 Symmetry B2U  KE= 4.256455292418D-35
 Symmetry B3U  KE= 4.256455292418D-35
 Orbital energies and kinetic energies (alpha):
                                 1                 2
   1         (SGG)--O         -0.590242          0.544539
   2         (SGU)--V          0.061385          0.075033
   3         (SGG)--V          0.067088          0.093849
   4         (SGU)--V          0.231043          0.363898
   5         (PIU)--V          0.284741          0.339136
   6         (PIU)--V          0.284741          0.339136
   7         (SGG)--V          0.416533          0.507805
   8         (PIG)--V          0.458226          0.476405
   9         (PIG)--V          0.458226          0.476405
  10         (SGU)--V          0.558087          0.721870
  11         (SGG)--V          0.719193          1.096169
  12         (SGU)--V          1.227942          1.896893
  13         (PIU)--V          1.604269          1.938776
  14         (PIU)--V          1.604269          1.938776
  15         (SGG)--V          2.075981          2.476001
  16         (PIG)--V          2.238488          2.517781
  17         (PIG)--V          2.238488          2.517781
  18         (SGU)--V          3.661197          4.602306
 Total kinetic energy from orbitals= 1.089077197966D+00
  Exact polarizability:   4.451   0.000   4.451  -0.000   0.000   6.630
 Approx polarizability:   3.198  -0.000   3.198  -0.000  -0.000   5.001
 No NMR shielding tensors so no spin-rotation constants.
 Leave Link  601 at Sat Aug 17 19:52:07 2024, MaxMem=   13107200 cpu:       0.1
 (Enter /programs/64bit/g09/g09-gfortran/bin/l701.exe)
 Compute integral second derivatives.
 ... and contract with generalized density number  0.
 Leave Link  701 at Sat Aug 17 19:52:07 2024, MaxMem=   13107200 cpu:       0.1
 (Enter /programs/64bit/g09/g09-gfortran/bin/l702.exe)
 L702 exits ... SP integral derivatives will be done elsewhere.
 Leave Link  702 at Sat Aug 17 19:52:07 2024, MaxMem=   13107200 cpu:       0.0
 (Enter /programs/64bit/g09/g09-gfortran/bin/l703.exe)
 Compute integral second derivatives, UseDBF=F ICtDFT=           0.
 Integral derivatives from FoFDir, PRISM(SPDF).
 Calling FoFJK, ICntrl=    100127 FMM=F ISym2X=1 I1Cent= 0 IOpClX= 0 NMat=1 NMatS=1 NMatT=0.
 FoFCou: FMM=F IPFlag=           0 FMFlag=      100000 FMFlg1=         800
         NFxFlg=           0 DoJE=F BraDBF=F KetDBF=F FulRan=T
         Omega=  0.000000  0.000000  1.000000  0.000000  0.000000 ICntrl=  100127 IOpCl=  0
         NMat0=    1 NMatS0=    1 NMatT0=    0 NMatD0=    1 NMtDS0=    0 NMtDT0=    0
         I1Cent=           0 NGrid=           0.
 Petite list used in FoFCou.
 Leave Link  703 at Sat Aug 17 19:52:08 2024, MaxMem=   13107200 cpu:       0.1
 (Enter /programs/64bit/g09/g09-gfortran/bin/l716.exe)
 Dipole        =-8.62816615D-32-7.22223729D-35 3.42574005D-17
 Polarizability= 4.45099325D+00 0.00000000D+00 4.45099325D+00
                -3.33878879D-16 0.00000000D+00 6.62982270D+00
 HyperPolar    =-7.64190915D-16-2.54730305D-16-2.54730305D-16
                -7.64190915D-16 1.77605199D-14-1.95005676D-29
                 2.87131571D-14 1.02541373D-15 1.02541373D-15
                 1.06800192D-13
 Full mass-weighted force constant matrix:
 Low frequencies ---   -0.0002   -0.0002    0.0001   92.7682   92.7682 4554.1348
 Diagonal vibrational polarizability:
        0.0000000       0.0000000       0.0000000
 Diagonal vibrational hyperpolarizability:
        0.0000000       0.0000000       0.0000000
 Harmonic frequencies (cm**-1), IR intensities (KM/Mole), Raman scattering
 activities (A**4/AMU), depolarization ratios for plane and unpolarized
 incident light, reduced masses (AMU), force constants (mDyne/A),
 and normal coordinates:
                     1
                    SGG
 Frequencies --  4554.1348
 Red. masses --     1.0078
 Frc consts  --    12.3154
 IR Inten    --     0.0000
 Raman Activ --   168.3844
 Depolar (P) --     0.0392
 Depolar (U) --     0.0755
  Atom  AN      X      Y      Z
     1   1    -0.00   0.00   0.71
     2   1     0.00   0.00  -0.71

 -------------------
 - Thermochemistry -
 -------------------
 Temperature   298.150 Kelvin.  Pressure   1.00000 Atm.
 Atom     1 has atomic number  1 and mass   1.00783
 Atom     2 has atomic number  1 and mass   1.00783
 Molecular mass:     2.01565 amu.
 Principal axes and moments of inertia in atomic units:
                           1         2         3
     Eigenvalues --    -0.00000   1.00803   1.00803
           X           -0.00000   1.00000  -0.00000
           Y            0.00000   0.00000   1.00000
           Z            1.00000   0.00000  -0.00000
 This molecule is a prolate symmetric top.
 Rotational symmetry number  2.
 Rotational temperature (Kelvin)     85.92419
 Rotational constant (GHZ):        1790.371667
 Zero-point vibrational energy      27239.8 (Joules/Mol)
                                    6.51046 (Kcal/Mol)
 Vibrational temperatures:   6552.38
          (Kelvin)
 
 Zero-point correction=                           0.010375 (Hartree/Particle)
 Thermal correction to Energy=                    0.012736
 Thermal correction to Enthalpy=                  0.013680
 Thermal correction to Gibbs Free Energy=        -0.001127
 Sum of electronic and zero-point Energies=             -1.118451
 Sum of electronic and thermal Energies=                -1.116090
 Sum of electronic and thermal Enthalpies=              -1.115146
 Sum of electronic and thermal Free Energies=           -1.129952
 
                     E (Thermal)             CV                S
                      KCal/Mol        Cal/Mol-Kelvin    Cal/Mol-Kelvin
 Total                    7.992              4.968             31.162
 Electronic               0.000              0.000              0.000
 Translational            0.889              2.981             28.080
 Rotational               0.592              1.987              3.082
 Vibrational              6.510              0.000              0.000
                       Q            Log10(Q)             Ln(Q)
 Total Bot       0.329739D+01          0.518171          1.193132
 Total V=0       0.195149D+06          5.290367         12.181521
 Vib (Bot)       0.168968D-04         -4.772196        -10.988388
 Vib (V=0)       0.100000D+01          0.000000          0.000000
 Electronic      0.100000D+01          0.000000          0.000000
 Translational   0.112481D+06          5.051078         11.630537
 Rotational      0.173496D+01          0.239289          0.550984
 ***** Axes restored to original set *****
 -------------------------------------------------------------------
 Center     Atomic                   Forces (Hartrees/Bohr)
 Number     Number              X              Y              Z
 -------------------------------------------------------------------
      1        1           0.000000000   -0.000000000    0.000232115
      2        1          -0.000000000    0.000000000   -0.000232115
 -------------------------------------------------------------------
 Cartesian Forces:  Max     0.000232115 RMS     0.000134012
 Force constants in Cartesian coordinates: 
                1             2             3             4             5 
      1  0.164114D-03
      2  0.000000D+00  0.164114D-03
      3  0.000000D+00  0.000000D+00  0.395511D+00
      4 -0.164114D-03  0.000000D+00  0.000000D+00  0.164114D-03
      5  0.000000D+00 -0.164114D-03  0.000000D+00  0.000000D+00  0.164114D-03
      6  0.000000D+00  0.000000D+00 -0.395511D+00  0.000000D+00  0.000000D+00
                6 
      6  0.395511D+00
 Force constants in internal coordinates: 
                1 
      1  0.395511D+00
 Leave Link  716 at Sat Aug 17 19:52:08 2024, MaxMem=   13107200 cpu:       0.0
 (Enter /programs/64bit/g09/g09-gfortran/bin/l103.exe)

 GradGradGradGradGradGradGradGradGradGradGradGradGradGradGradGradGradGrad
 Berny optimization.
 Internal  Forces:  Max     0.000232115 RMS     0.000232115
 Search for a local minimum.
 Step number   1 out of a maximum of    2
 All quantities printed in internal units (Hartrees-Bohrs-Radians)
 Second derivative matrix not updated -- analytic derivatives used.
 The second derivative matrix:
                          R1
           R1           0.39551
     Eigenvalues ---    0.39551
 Angle between quadratic step and forces=   0.00 degrees.
 Linear search not attempted -- first point.
 Iteration  1 RMS(Cart)=  0.00041498 RMS(Int)=  0.00000000
 Iteration  2 RMS(Cart)=  0.00000000 RMS(Int)=  0.00000000
 ClnCor:  largest displacement from symmetrization is 1.80D-20 for atom     1.
 Variable       Old X    -DE/DX   Delta X   Delta X   Delta X     New X
                                 (Linear)    (Quad)   (Total)
    R1        1.41435  -0.00023   0.00000  -0.00059  -0.00059   1.41377
         Item               Value     Threshold  Converged?
 Maximum Force            0.000232     0.000450     YES
 RMS     Force            0.000232     0.000300     YES
 Maximum Displacement     0.000293     0.001800     YES
 RMS     Displacement     0.000415     0.001200     YES
 Predicted change in Energy=-6.811108D-08
 Optimization completed.
    -- Stationary point found.
                           ----------------------------
                           !   Optimized Parameters   !
                           ! (Angstroms and Degrees)  !
 --------------------------                            --------------------------
 ! Name  Definition              Value          Derivative Info.                !
 --------------------------------------------------------------------------------
 ! R1    R(1,2)                  0.7484         -DE/DX =   -0.0002              !
 --------------------------------------------------------------------------------
 GradGradGradGradGradGradGradGradGradGradGradGradGradGradGradGradGradGrad

 Leave Link  103 at Sat Aug 17 19:52:08 2024, MaxMem=   13107200 cpu:       0.0
 (Enter /programs/64bit/g09/g09-gfortran/bin/l9999.exe)
 1\1\GINC-MOLMOD\Freq\RHF\Aug-CC-pVDZ\H2\OSPITE\17-Aug-2024\0\\#P Geom=
 AllCheck Guess=TCheck SCRF=Check GenChk RHF/Aug-CC-pVDZ Freq\\hydrogen
  (moldecule) with and aug-cc-pVDZ basis function\\0,1\H,0.,0.,-0.00422
 2099\H,0.,0.,0.744222099\\Version=EM64L-G09RevA.02\State=1-SGG\HF=-1.1
 288258\RMSD=5.262e-11\RMSF=1.340e-04\ZeroPoint=0.0103751\Thermal=0.012
 7355\Dipole=0.,0.,0.\DipoleDeriv=0.,0.,0.,0.,0.,0.,0.,0.,0.,0.,0.,0.,0
 .,0.,0.,0.,0.,0.\Polar=4.4509933,0.,4.4509933,0.,0.,6.6298227\PolarDer
 iv=0.,0.,0.,-1.5405115,0.,0.,0.,0.,0.,0.,-1.5405115,0.,-3.4524797,0.,-
 3.4524797,0.,0.,-7.142985,0.,0.,0.,1.5405115,0.,0.,0.,0.,0.,0.,1.54051
 15,0.,3.4524797,0.,3.4524797,0.,0.,7.142985\HyperPolar=0.,0.,0.,0.,0.,
 0.,0.,0.,0.,0.\PG=D*H [C*(H1.H1)]\NImag=0\\0.00016411,0.,0.00016411,0.
 ,0.,0.39551081,-0.00016411,0.,0.,0.00016411,0.,-0.00016411,0.,0.,0.000
 16411,0.,0.,-0.39551081,0.,0.,0.39551081\\0.,0.,-0.00023211,0.,0.,0.00
 023211\\\@


 SCIENCE IS A VERY HUMAN FORM OF KNOWLEDGE.
 WE ARE ALWAYS AT THE BRINK OF THE KNOWN,
 WE ALWAYS FEEL FORWARD FOR WHAT IS HOPED.
 EVERY JUDGEMENT IN SCIENCE STANDS ON THE EDGE OF ERROR, AND IS PERSONAL.
 SCIENCE IS A TRIBUTE TO WHAT WE CAN KNOW ALTHOUGH WE ARE FALLIBLE.

                     -- J. BRONOWSKI
 Job cpu time:  0 days  0 hours  0 minutes  2.3 seconds.
 File lengths (MBytes):  RWF=      5 Int=      0 D2E=      0 Chk=      1 Scr=      1
 Normal termination of Gaussian 09 at Sat Aug 17 19:52:08 2024.
