 Entering Gaussian System, Link 0=/programs/64bit/g09/g09-gfortran/bin/g09
 Input=h2_cc-pVTZ.com
 Output=h2_cc-pVTZ.log
 Initial command:
 /programs/64bit/g09/g09-gfortran/bin/l1.exe /home/ospite/Desktop/MMfP/Project6/H2/g09/HF/Gau-15466.inp -scrdir=/home/ospite/Desktop/MMfP/Project6/H2/g09/HF/
 Entering Link 1 = /programs/64bit/g09/g09-gfortran/bin/l1.exe PID=     15467.
  
 Copyright (c) 1988,1990,1992,1993,1995,1998,2003,2009, Gaussian, Inc.
                  All Rights Reserved.
  
 This is part of the Gaussian(R) 09 program.  It is based on
 the Gaussian(R) 03 system (copyright 2003, Gaussian, Inc.),
 the Gaussian(R) 98 system (copyright 1998, Gaussian, Inc.),
 the Gaussian(R) 94 system (copyright 1995, Gaussian, Inc.),
 the Gaussian 92(TM) system (copyright 1992, Gaussian, Inc.),
 the Gaussian 90(TM) system (copyright 1990, Gaussian, Inc.),
 the Gaussian 88(TM) system (copyright 1988, Gaussian, Inc.),
 the Gaussian 86(TM) system (copyright 1986, Carnegie Mellon
 University), and the Gaussian 82(TM) system (copyright 1983,
 Carnegie Mellon University). Gaussian is a federally registered
 trademark of Gaussian, Inc.
  
 This software contains proprietary and confidential information,
 including trade secrets, belonging to Gaussian, Inc.
  
 This software is provided under written license and may be
 used, copied, transmitted, or stored only in accord with that
 written license.
  
 The following legend is applicable only to US Government
 contracts under FAR:
  
                    RESTRICTED RIGHTS LEGEND
  
 Use, reproduction and disclosure by the US Government is
 subject to restrictions as set forth in subparagraphs (a)
 and (c) of the Commercial Computer Software - Restricted
 Rights clause in FAR 52.227-19.
  
 Gaussian, Inc.
 340 Quinnipiac St., Bldg. 40, Wallingford CT 06492
  
  
 ---------------------------------------------------------------
 Warning -- This program may not be used in any manner that
 competes with the business of Gaussian, Inc. or will provide
 assistance to any competitor of Gaussian, Inc.  The licensee
 of this program is prohibited from giving any competitor of
 Gaussian, Inc. access to this program.  By using this program,
 the user acknowledges that Gaussian, Inc. is engaged in the
 business of creating and licensing software in the field of
 computational chemistry and represents and warrants to the
 licensee that it is not a competitor of Gaussian, Inc. and that
 it will not use this program in any manner prohibited above.
 ---------------------------------------------------------------
  

 Cite this work as:
 Gaussian 09, Revision A.02,
 M. J. Frisch, G. W. Trucks, H. B. Schlegel, G. E. Scuseria, 
 M. A. Robb, J. R. Cheeseman, G. Scalmani, V. Barone, B. Mennucci, 
 G. A. Petersson, H. Nakatsuji, M. Caricato, X. Li, H. P. Hratchian, 
 A. F. Izmaylov, J. Bloino, G. Zheng, J. L. Sonnenberg, M. Hada, 
 M. Ehara, K. Toyota, R. Fukuda, J. Hasegawa, M. Ishida, T. Nakajima, 
 Y. Honda, O. Kitao, H. Nakai, T. Vreven, J. A. Montgomery, Jr., 
 J. E. Peralta, F. Ogliaro, M. Bearpark, J. J. Heyd, E. Brothers, 
 K. N. Kudin, V. N. Staroverov, R. Kobayashi, J. Normand, 
 K. Raghavachari, A. Rendell, J. C. Burant, S. S. Iyengar, J. Tomasi, 
 M. Cossi, N. Rega, J. M. Millam, M. Klene, J. E. Knox, J. B. Cross, 
 V. Bakken, C. Adamo, J. Jaramillo, R. Gomperts, R. E. Stratmann, 
 O. Yazyev, A. J. Austin, R. Cammi, C. Pomelli, J. W. Ochterski, 
 R. L. Martin, K. Morokuma, V. G. Zakrzewski, G. A. Voth, 
 P. Salvador, J. J. Dannenberg, S. Dapprich, A. D. Daniels, 
 O. Farkas, J. B. Foresman, J. V. Ortiz, J. Cioslowski, 
 and D. J. Fox, Gaussian, Inc., Wallingford CT, 2009.
 
 ******************************************
 Gaussian 09:  EM64L-G09RevA.02 11-Jun-2009
                17-Aug-2024 
 ******************************************
 %mem=100MB
 ---------------------------------------
 #p hf/cc-pVTZ opt freq pop=full gfinput
 ---------------------------------------
 1/18=20,19=15,38=1/1,3;
 2/9=110,12=2,17=6,18=5,40=1/2;
 3/5=16,6=1,11=9,16=1,24=10,25=1,30=1,71=1/1,2,3;
 4//1;
 5/5=2,38=5/2;
 6/7=3,28=1/1;
 7//1,2,3,16;
 1/18=20,19=15/3(2);
 2/9=110/2;
 99//99;
 2/9=110/2;
 3/5=16,6=1,11=9,16=1,25=1,30=1,71=1/1,2,3;
 4/5=5,16=3/1;
 5/5=2,38=5/2;
 7//1,2,3,16;
 1/18=20,19=15/3(-5);
 2/9=110/2;
 6/7=3,19=2,28=1/1;
 99/9=1/99;
 Leave Link    1 at Sat Aug 17 22:44:34 2024, MaxMem=   13107200 cpu:       0.1
 (Enter /programs/64bit/g09/g09-gfortran/bin/l101.exe)
 -----------------------------------------
 hydogen (molecule) with cc-pVTZ basis set
 -----------------------------------------
 Symbolic Z-matrix:
 Charge =  0 Multiplicity = 1
 H1
 H2                   1    d
       Variables:
  d                     0.74                     
 
 NAtoms=      2 NQM=      2 NQMF=      0 NMic=      0 NMicF=      0 NTot=      2.
                    Isotopes and Nuclear Properties:
 (Nuclear quadrupole moments (NQMom) in fm**2, nuclear magnetic moments (NMagM)
  in nuclear magnetons)

  Atom         1           2
 IAtWgt=           1           1
 AtmWgt=   1.0078250   1.0078250
 NucSpn=           1           1
 AtZEff=   0.0000000   0.0000000
 NQMom=    0.0000000   0.0000000
 NMagM=    2.7928460   2.7928460
 Leave Link  101 at Sat Aug 17 22:44:34 2024, MaxMem=   13107200 cpu:       0.1
 (Enter /programs/64bit/g09/g09-gfortran/bin/l103.exe)

 GradGradGradGradGradGradGradGradGradGradGradGradGradGradGradGradGradGrad
 Berny optimization.
 Initialization pass.
                           ----------------------------
                           !    Initial Parameters    !
                           ! (Angstroms and Degrees)  !
 --------------------------                            --------------------------
 ! Name  Definition              Value          Derivative Info.                !
 --------------------------------------------------------------------------------
 ! R1    R(1,2)                  0.74           estimate D2E/DX2                !
 --------------------------------------------------------------------------------
 Trust Radius=3.00D-01 FncErr=1.00D-07 GrdErr=1.00D-07
 Number of steps in this run=  20 maximum allowed number of steps= 100.
 GradGradGradGradGradGradGradGradGradGradGradGradGradGradGradGradGradGrad

 Leave Link  103 at Sat Aug 17 22:44:34 2024, MaxMem=   13107200 cpu:       0.0
 (Enter /programs/64bit/g09/g09-gfortran/bin/l202.exe)
                          Input orientation:                          
 ---------------------------------------------------------------------
 Center     Atomic      Atomic             Coordinates (Angstroms)
 Number     Number       Type             X           Y           Z
 ---------------------------------------------------------------------
      1          1           0        0.000000    0.000000    0.000000
      2          1           0        0.000000    0.000000    0.740000
 ---------------------------------------------------------------------
 Stoichiometry    H2
 Framework group  D*H[C*(H.H)]
 Deg. of freedom     1
 Full point group                 D*H     NOp   8
 Largest Abelian subgroup         D2H     NOp   8
 Largest concise Abelian subgroup C2      NOp   2
                         Standard orientation:                         
 ---------------------------------------------------------------------
 Center     Atomic      Atomic             Coordinates (Angstroms)
 Number     Number       Type             X           Y           Z
 ---------------------------------------------------------------------
      1          1           0        0.000000    0.000000    0.370000
      2          1           0        0.000000    0.000000   -0.370000
 ---------------------------------------------------------------------
 Rotational constants (GHZ):      0.0000000   1831.4649389   1831.4649389
 Leave Link  202 at Sat Aug 17 22:44:34 2024, MaxMem=   13107200 cpu:       0.0
 (Enter /programs/64bit/g09/g09-gfortran/bin/l301.exe)
 Standard basis: CC-pVTZ (5D, 7F)
 Ernie: Thresh=  0.10000D-02 Tol=  0.10000D-05 Strict=F.
 AO basis set in the form of general basis input (Overlap normalization):
      1 0
 S   3 1.00       0.000000000000
      0.3387000000D+02  0.2549486323D-01
      0.5095000000D+01  0.1903627659D+00
      0.1159000000D+01  0.8521620222D+00
 S   1 1.00       0.000000000000
      0.3258000000D+00  0.1000000000D+01
 S   1 1.00       0.000000000000
      0.1027000000D+00  0.1000000000D+01
 P   1 1.00       0.000000000000
      0.1407000000D+01  0.1000000000D+01
 P   1 1.00       0.000000000000
      0.3880000000D+00  0.1000000000D+01
 D   1 1.00       0.000000000000
      0.1057000000D+01  0.1000000000D+01
 ****
      2 0
 S   3 1.00       0.000000000000
      0.3387000000D+02  0.2549486323D-01
      0.5095000000D+01  0.1903627659D+00
      0.1159000000D+01  0.8521620222D+00
 S   1 1.00       0.000000000000
      0.3258000000D+00  0.1000000000D+01
 S   1 1.00       0.000000000000
      0.1027000000D+00  0.1000000000D+01
 P   1 1.00       0.000000000000
      0.1407000000D+01  0.1000000000D+01
 P   1 1.00       0.000000000000
      0.3880000000D+00  0.1000000000D+01
 D   1 1.00       0.000000000000
      0.1057000000D+01  0.1000000000D+01
 ****

 There are     7 symmetry adapted basis functions of AG  symmetry.
 There are     1 symmetry adapted basis functions of B1G symmetry.
 There are     3 symmetry adapted basis functions of B2G symmetry.
 There are     3 symmetry adapted basis functions of B3G symmetry.
 There are     1 symmetry adapted basis functions of AU  symmetry.
 There are     7 symmetry adapted basis functions of B1U symmetry.
 There are     3 symmetry adapted basis functions of B2U symmetry.
 There are     3 symmetry adapted basis functions of B3U symmetry.
 Integral buffers will be    131072 words long.
 Raffenetti 1 integral format.
 Two-electron integral symmetry is turned on.
    28 basis functions,    34 primitive gaussians,    30 cartesian basis functions
     1 alpha electrons        1 beta electrons
       nuclear repulsion energy         0.7151043359 Hartrees.
 IExCor=    0 DFT=F Ex=HF Corr=None ExCW=0 ScaHFX=  1.000000
 ScaDFX=  1.000000  1.000000  1.000000  1.000000 ScalE2=  1.000000  1.000000
 IRadAn=      0 IRanWt=     -1 IRanGd=            0 ICorTp=0
 NAtoms=    2 NActive=    2 NUniq=    1 SFac= 3.00D+00 NAtFMM=   80 NAOKFM=F Big=F
 Leave Link  301 at Sat Aug 17 22:44:34 2024, MaxMem=   13107200 cpu:       0.1
 (Enter /programs/64bit/g09/g09-gfortran/bin/l302.exe)
 NPDir=0 NMtPBC=     1 NCelOv=     1 NCel=       1 NClECP=     1 NCelD=      1
         NCelK=      1 NCelE2=     1 NClLst=     1 CellRange=     0.0.
 One-electron integrals computed using PRISM.
 One-electron integral symmetry used in STVInt
 NBasis=    28 RedAO= T  NBF=     7     1     3     3     1     7     3     3
 NBsUse=    28 1.00D-06 NBFU=     7     1     3     3     1     7     3     3
 Leave Link  302 at Sat Aug 17 22:44:35 2024, MaxMem=   13107200 cpu:       0.1
 (Enter /programs/64bit/g09/g09-gfortran/bin/l303.exe)
 DipDrv:  MaxL=1.
 Leave Link  303 at Sat Aug 17 22:44:35 2024, MaxMem=   13107200 cpu:       0.0
 (Enter /programs/64bit/g09/g09-gfortran/bin/l401.exe)
 Harris functional with IExCor=  205 diagonalized for initial guess.
 ExpMin= 1.03D-01 ExpMax= 3.39D+01 ExpMxC= 3.39D+01 IAcc=1 IRadAn=         1 AccDes= 0.00D+00
 HarFok:  IExCor=  205 AccDes= 0.00D+00 IRadAn=         1 IDoV= 1
 ScaDFX=  1.000000  1.000000  1.000000  1.000000
 FoFCou: FMM=F IPFlag=           0 FMFlag=      100000 FMFlg1=           0
         NFxFlg=           0 DoJE=T BraDBF=F KetDBF=T FulRan=T
         Omega=  0.000000  0.000000  1.000000  0.000000  0.000000 ICntrl=     500 IOpCl=  0
         NMat0=    1 NMatS0=    1 NMatT0=    0 NMatD0=    1 NMtDS0=    0 NMtDT0=    0
         I1Cent=           4 NGrid=           0.
 Petite list used in FoFCou.
 Harris En= -1.18701425605235    
 Initial guess orbital symmetries:
       Occupied  (SGG)
       Virtual   (SGU) (SGG) (SGU) (PIU) (PIU) (SGG) (PIG) (PIG)
                 (SGU) (SGU) (SGG) (DLTG) (DLTG) (PIU) (PIU) (SGG)
                 (PIG) (PIG) (DLTU) (DLTU) (PIU) (PIU) (SGU) (PIG)
                 (PIG) (SGG) (SGU)
 The electronic state of the initial guess is 1-SGG.
 Leave Link  401 at Sat Aug 17 22:44:35 2024, MaxMem=   13107200 cpu:       0.2
 (Enter /programs/64bit/g09/g09-gfortran/bin/l502.exe)
 Closed shell SCF:
 Requested convergence on RMS density matrix=1.00D-08 within 128 cycles.
 Requested convergence on MAX density matrix=1.00D-06.
 Requested convergence on             energy=1.00D-06.
 No special actions if energy rises.
 Using DIIS extrapolation, IDIIS=  1040.
 Integral symmetry usage will be decided dynamically.
 Keep R1 ints in memory in canonical form, NReq=949721.
 IEnd=       21362 IEndB=       21362 NGot=    13107200 MDV=    12995036
 LenX=    12995036 LenY=    12993695
 Symmetry not used in FoFDir.
 MinBra= 0 MaxBra= 2 Meth= 1.
 IRaf=       0 NMat=   1 IRICut=       1 DoRegI=T DoRafI=F ISym2E= 0 JSym2E=0.

 Cycle   1  Pass 1  IDiag  1:
 E= -1.13007093138955    
 DIIS: error= 1.52D-02 at cycle   1 NSaved=   1.
 NSaved= 1 IEnMin= 1 EnMin= -1.13007093138955     IErMin= 1 ErrMin= 1.52D-02
 ErrMax= 1.52D-02 EMaxC= 1.00D-01 BMatC= 2.42D-03 BMatP= 2.42D-03
 IDIUse=3 WtCom= 8.48D-01 WtEn= 1.52D-01
 Coeff-Com:  0.100D+01
 Coeff-En:   0.100D+01
 Coeff:      0.100D+01
 Gap=     0.778 Goal=   None    Shift=    0.000
 GapD=    0.778 DampG=2.000 DampE=0.500 DampFc=1.0000 IDamp=-1.
 RMSDP=8.31D-04 MaxDP=6.16D-03              OVMax= 3.00D-02

 Cycle   2  Pass 1  IDiag  1:
 E= -1.13290135465916     Delta-E=       -0.002830423270 Rises=F Damp=F
 DIIS: error= 1.99D-03 at cycle   2 NSaved=   2.
 NSaved= 2 IEnMin= 2 EnMin= -1.13290135465916     IErMin= 2 ErrMin= 1.99D-03
 ErrMax= 1.99D-03 EMaxC= 1.00D-01 BMatC= 3.63D-05 BMatP= 2.42D-03
 IDIUse=3 WtCom= 9.80D-01 WtEn= 1.99D-02
 Coeff-Com: -0.125D+00 0.113D+01
 Coeff-En:   0.000D+00 0.100D+01
 Coeff:     -0.123D+00 0.112D+01
 Gap=     0.762 Goal=   None    Shift=    0.000
 RMSDP=1.88D-04 MaxDP=1.26D-03 DE=-2.83D-03 OVMax= 5.70D-03

 Cycle   3  Pass 1  IDiag  1:
 E= -1.13296691744700     Delta-E=       -0.000065562788 Rises=F Damp=F
 DIIS: error= 2.17D-04 at cycle   3 NSaved=   3.
 NSaved= 3 IEnMin= 3 EnMin= -1.13296691744700     IErMin= 3 ErrMin= 2.17D-04
 ErrMax= 2.17D-04 EMaxC= 1.00D-01 BMatC= 3.26D-07 BMatP= 3.63D-05
 IDIUse=3 WtCom= 9.98D-01 WtEn= 2.17D-03
 Coeff-Com:  0.352D-01-0.318D+00 0.128D+01
 Coeff-En:   0.000D+00 0.000D+00 0.100D+01
 Coeff:      0.351D-01-0.317D+00 0.128D+01
 Gap=     0.762 Goal=   None    Shift=    0.000
 RMSDP=3.54D-05 MaxDP=3.66D-04 DE=-6.56D-05 OVMax= 7.03D-04

 Cycle   4  Pass 1  IDiag  1:
 E= -1.13296768239175     Delta-E=       -0.000000764945 Rises=F Damp=F
 DIIS: error= 8.05D-06 at cycle   4 NSaved=   4.
 NSaved= 4 IEnMin= 4 EnMin= -1.13296768239175     IErMin= 4 ErrMin= 8.05D-06
 ErrMax= 8.05D-06 EMaxC= 1.00D-01 BMatC= 2.93D-10 BMatP= 3.26D-07
 IDIUse=1 WtCom= 1.00D+00 WtEn= 0.00D+00
 Coeff-Com: -0.483D-02 0.435D-01-0.189D+00 0.115D+01
 Coeff:     -0.483D-02 0.435D-01-0.189D+00 0.115D+01
 Gap=     0.762 Goal=   None    Shift=    0.000
 RMSDP=1.00D-06 MaxDP=9.73D-06 DE=-7.65D-07 OVMax= 1.67D-05

 Cycle   5  Pass 1  IDiag  1:
 E= -1.13296768289528     Delta-E=       -0.000000000504 Rises=F Damp=F
 DIIS: error= 2.76D-07 at cycle   5 NSaved=   5.
 NSaved= 5 IEnMin= 5 EnMin= -1.13296768289528     IErMin= 5 ErrMin= 2.76D-07
 ErrMax= 2.76D-07 EMaxC= 1.00D-01 BMatC= 8.18D-13 BMatP= 2.93D-10
 IDIUse=1 WtCom= 1.00D+00 WtEn= 0.00D+00
 Coeff-Com:  0.402D-03-0.359D-02 0.163D-01-0.119D+00 0.111D+01
 Coeff:      0.402D-03-0.359D-02 0.163D-01-0.119D+00 0.111D+01
 Gap=     0.762 Goal=   None    Shift=    0.000
 RMSDP=2.25D-08 MaxDP=1.59D-07 DE=-5.04D-10 OVMax= 7.04D-07

 Cycle   6  Pass 1  IDiag  1:
 E= -1.13296768289656     Delta-E=       -0.000000000001 Rises=F Damp=F
 DIIS: error= 3.51D-08 at cycle   6 NSaved=   6.
 NSaved= 6 IEnMin= 6 EnMin= -1.13296768289656     IErMin= 6 ErrMin= 3.51D-08
 ErrMax= 3.51D-08 EMaxC= 1.00D-01 BMatC= 7.69D-15 BMatP= 8.18D-13
 IDIUse=1 WtCom= 1.00D+00 WtEn= 0.00D+00
 Coeff-Com: -0.818D-06-0.123D-05-0.783D-04 0.275D-02-0.127D+00 0.112D+01
 Coeff:     -0.818D-06-0.123D-05-0.783D-04 0.275D-02-0.127D+00 0.112D+01
 Gap=     0.762 Goal=   None    Shift=    0.000
 RMSDP=2.00D-09 MaxDP=1.41D-08 DE=-1.28D-12 OVMax= 5.46D-08

 SCF Done:  E(RHF) =  -1.13296768290     A.U. after    6 cycles
             Convg  =    0.2005D-08             -V/T =  2.0080
 KE= 1.123995842775D+00 PE=-3.630761552986D+00 EE= 6.586936913813D-01
 Leave Link  502 at Sat Aug 17 22:44:35 2024, MaxMem=   13107200 cpu:       0.1
 (Enter /programs/64bit/g09/g09-gfortran/bin/l601.exe)
 Copying SCF densities to generalized density rwf, IOpCl= 0 IROHF=0.

 **********************************************************************

            Population analysis using the SCF density.

 **********************************************************************

 Orbital symmetries:
       Occupied  (SGG)
       Virtual   (SGU) (SGG) (SGU) (PIU) (PIU) (SGG) (PIG) (PIG)
                 (SGU) (SGU) (SGG) (DLTG) (DLTG) (PIU) (PIU) (SGG)
                 (PIG) (PIG) (DLTU) (DLTU) (PIU) (PIU) (SGU) (PIG)
                 (PIG) (SGG) (SGU)
 The electronic state is 1-SGG.
 Alpha  occ. eigenvalues --   -0.59469
 Alpha virt. eigenvalues --    0.16726   0.30500   0.64388   0.69271   0.69271
 Alpha virt. eigenvalues --    1.09663   1.12012   1.12012   1.52944   2.33708
 Alpha virt. eigenvalues --    2.40689   3.17544   3.17544   3.41276   3.41276
 Alpha virt. eigenvalues --    3.67512   3.89280   3.89280   4.08534   4.08534
 Alpha virt. eigenvalues --    4.11499   4.11499   4.65987   5.73301   5.73301
 Alpha virt. eigenvalues --    5.80955   6.97106
     Molecular Orbital Coefficients:
                           1         2         3         4         5
                       (SGG)--O  (SGU)--V  (SGG)--V  (SGU)--V  (PIU)--V
     Eigenvalues --    -0.59469   0.16726   0.30500   0.64388   0.69271
   1 1   H  1S          0.18659   0.06661  -0.05608   0.12491   0.00000
   2        2S          0.28365  -0.31320  -0.73457   2.26721   0.00000
   3        3S          0.13533   2.32723   0.86066  -2.25466   0.00000
   4        4PX         0.00000   0.00000   0.00000   0.00000   0.00000
   5        4PY         0.00000   0.00000   0.00000   0.00000  -0.05868
   6        4PZ        -0.01206   0.03503   0.01671  -0.08501   0.00000
   7        5PX         0.00000   0.00000   0.00000   0.00000   0.00000
   8        5PY         0.00000   0.00000   0.00000   0.00000   0.57828
   9        5PZ        -0.01739   0.10338  -0.05073  -0.20258   0.00000
  10        6D 0        0.00083  -0.01930   0.00796   0.07079   0.00000
  11        6D+1        0.00000   0.00000   0.00000   0.00000   0.00000
  12        6D-1        0.00000   0.00000   0.00000   0.00000   0.00902
  13        6D+2        0.00000  -0.00000  -0.00000   0.00000   0.00000
  14        6D-2        0.00000   0.00000   0.00000   0.00000   0.00000
  15 2   H  1S          0.18659  -0.06661  -0.05608  -0.12491   0.00000
  16        2S          0.28365   0.31320  -0.73457  -2.26721   0.00000
  17        3S          0.13533  -2.32723   0.86066   2.25466   0.00000
  18        4PX         0.00000   0.00000   0.00000   0.00000   0.00000
  19        4PY         0.00000   0.00000   0.00000   0.00000  -0.05868
  20        4PZ         0.01206   0.03503  -0.01671  -0.08501   0.00000
  21        5PX         0.00000   0.00000   0.00000   0.00000   0.00000
  22        5PY         0.00000   0.00000   0.00000   0.00000   0.57828
  23        5PZ         0.01739   0.10338   0.05073  -0.20258   0.00000
  24        6D 0        0.00083   0.01930   0.00796  -0.07079   0.00000
  25        6D+1        0.00000   0.00000   0.00000   0.00000   0.00000
  26        6D-1        0.00000   0.00000   0.00000   0.00000  -0.00902
  27        6D+2        0.00000   0.00000  -0.00000  -0.00000   0.00000
  28        6D-2        0.00000   0.00000   0.00000   0.00000   0.00000
                           6         7         8         9        10
                       (PIU)--V  (SGG)--V  (PIG)--V  (PIG)--V  (SGU)--V
     Eigenvalues --     0.69271   1.09663   1.12012   1.12012   1.52944
   1 1   H  1S          0.00000   0.00659   0.00000   0.00000   0.03430
   2        2S          0.00000   0.66765   0.00000   0.00000  13.10905
   3        3S          0.00000  -0.35630   0.00000   0.00000  -0.32745
   4        4PX        -0.05868   0.00000  -0.06690   0.00000   0.00000
   5        4PY         0.00000   0.00000   0.00000  -0.06690   0.00000
   6        4PZ         0.00000  -0.10273   0.00000   0.00000  -0.12809
   7        5PX         0.57828   0.00000   1.41858   0.00000   0.00000
   8        5PY         0.00000   0.00000   0.00000   1.41858   0.00000
   9        5PZ         0.00000   1.06223   0.00000   0.00000  -6.21611
  10        6D 0        0.00000  -0.06712   0.00000   0.00000   0.28861
  11        6D+1        0.00902   0.00000  -0.10831   0.00000   0.00000
  12        6D-1        0.00000   0.00000   0.00000  -0.10831   0.00000
  13        6D+2        0.00000   0.00000   0.00000   0.00000  -0.00000
  14        6D-2        0.00000   0.00000   0.00000   0.00000   0.00000
  15 2   H  1S          0.00000   0.00659   0.00000   0.00000  -0.03430
  16        2S          0.00000   0.66765   0.00000   0.00000 -13.10905
  17        3S          0.00000  -0.35630   0.00000   0.00000   0.32745
  18        4PX        -0.05868   0.00000   0.06690   0.00000   0.00000
  19        4PY         0.00000   0.00000   0.00000   0.06690   0.00000
  20        4PZ         0.00000   0.10273   0.00000   0.00000  -0.12809
  21        5PX         0.57828   0.00000  -1.41858   0.00000   0.00000
  22        5PY         0.00000   0.00000   0.00000  -1.41858   0.00000
  23        5PZ         0.00000  -1.06223   0.00000   0.00000  -6.21611
  24        6D 0        0.00000  -0.06712   0.00000   0.00000  -0.28861
  25        6D+1       -0.00902   0.00000  -0.10831   0.00000   0.00000
  26        6D-1        0.00000   0.00000   0.00000  -0.10831   0.00000
  27        6D+2        0.00000   0.00000   0.00000   0.00000   0.00000
  28        6D-2        0.00000   0.00000   0.00000   0.00000   0.00000
                          11        12        13        14        15
                       (SGU)--V  (SGG)--V  (DLTG)--  (DLTG)--  (PIU)--V
     Eigenvalues --     2.33708   2.40689   3.17544   3.17544   3.41276
   1 1   H  1S         -0.62813  -0.95718   0.00000   0.00000   0.00000
   2        2S          3.36234   0.99159   0.00000   0.00000   0.00000
   3        3S         -1.31913  -0.38607  -0.00000   0.00000   0.00000
   4        4PX         0.00000   0.00000   0.00000   0.00000   0.00000
   5        4PY         0.00000   0.00000   0.00000   0.00000   0.58900
   6        4PZ        -0.55908   0.10582  -0.00000   0.00000   0.00000
   7        5PX         0.00000   0.00000   0.00000   0.00000   0.00000
   8        5PY         0.00000   0.00000   0.00000   0.00000  -0.35690
   9        5PZ        -0.65820  -0.24238   0.00000   0.00000   0.00000
  10        6D 0        0.42151  -0.11091  -0.00000   0.00000   0.00000
  11        6D+1        0.00000   0.00000   0.00000   0.00000   0.00000
  12        6D-1        0.00000   0.00000   0.00000   0.00000  -0.32026
  13        6D+2        0.00000   0.00000   0.60729   0.00000   0.00000
  14        6D-2        0.00000   0.00000   0.00000   0.60729   0.00000
  15 2   H  1S          0.62813  -0.95718   0.00000   0.00000   0.00000
  16        2S         -3.36234   0.99159   0.00000   0.00000   0.00000
  17        3S          1.31913  -0.38607  -0.00000   0.00000   0.00000
  18        4PX         0.00000   0.00000   0.00000   0.00000   0.00000
  19        4PY         0.00000   0.00000   0.00000   0.00000   0.58900
  20        4PZ        -0.55908  -0.10582   0.00000   0.00000   0.00000
  21        5PX         0.00000   0.00000   0.00000   0.00000   0.00000
  22        5PY         0.00000   0.00000   0.00000   0.00000  -0.35690
  23        5PZ        -0.65820   0.24238  -0.00000   0.00000   0.00000
  24        6D 0       -0.42151  -0.11091  -0.00000   0.00000   0.00000
  25        6D+1        0.00000   0.00000   0.00000   0.00000   0.00000
  26        6D-1        0.00000   0.00000   0.00000   0.00000   0.32026
  27        6D+2       -0.00000   0.00000   0.60729   0.00000   0.00000
  28        6D-2        0.00000   0.00000   0.00000   0.60729   0.00000
                          16        17        18        19        20
                       (PIU)--V  (SGG)--V  (PIG)--V  (PIG)--V  (DLTU)--
     Eigenvalues --     3.41276   3.67512   3.89280   3.89280   4.08534
   1 1   H  1S          0.00000   0.08695   0.00000   0.00000   0.00000
   2        2S          0.00000   0.26607   0.00000   0.00000   0.00000
   3        3S          0.00000  -0.15439   0.00000   0.00000   0.00000
   4        4PX         0.58900   0.00000   0.00000  -0.49724   0.00000
   5        4PY         0.00000   0.00000  -0.49724   0.00000   0.00000
   6        4PZ         0.00000  -0.82186   0.00000   0.00000   0.00000
   7        5PX        -0.35690   0.00000   0.00000   1.13755   0.00000
   8        5PY         0.00000   0.00000   1.13755   0.00000   0.00000
   9        5PZ         0.00000   0.87416   0.00000   0.00000   0.00000
  10        6D 0        0.00000  -0.43364   0.00000   0.00000   0.00000
  11        6D+1       -0.32026   0.00000   0.00000  -0.83562   0.00000
  12        6D-1        0.00000   0.00000  -0.83562   0.00000   0.00000
  13        6D+2        0.00000  -0.00000   0.00000   0.00000   0.00000
  14        6D-2        0.00000   0.00000   0.00000   0.00000   0.88097
  15 2   H  1S          0.00000   0.08695   0.00000   0.00000   0.00000
  16        2S          0.00000   0.26607   0.00000   0.00000   0.00000
  17        3S          0.00000  -0.15439   0.00000   0.00000   0.00000
  18        4PX         0.58900   0.00000   0.00000   0.49724   0.00000
  19        4PY         0.00000   0.00000   0.49724   0.00000   0.00000
  20        4PZ         0.00000   0.82186   0.00000   0.00000   0.00000
  21        5PX        -0.35690   0.00000   0.00000  -1.13755   0.00000
  22        5PY         0.00000   0.00000  -1.13755   0.00000   0.00000
  23        5PZ         0.00000  -0.87416   0.00000   0.00000   0.00000
  24        6D 0        0.00000  -0.43364   0.00000   0.00000   0.00000
  25        6D+1        0.32026   0.00000   0.00000  -0.83562   0.00000
  26        6D-1        0.00000   0.00000  -0.83562   0.00000   0.00000
  27        6D+2        0.00000  -0.00000   0.00000   0.00000   0.00000
  28        6D-2        0.00000   0.00000   0.00000   0.00000  -0.88097
                          21        22        23        24        25
                       (DLTU)--  (PIU)--V  (PIU)--V  (SGU)--V  (PIG)--V
     Eigenvalues --     4.08534   4.11499   4.11499   4.65987   5.73301
   1 1   H  1S          0.00000   0.00000   0.00000   0.70017   0.00000
   2        2S          0.00000   0.00000   0.00000   7.07795   0.00000
   3        3S          0.00000   0.00000   0.00000   0.11510   0.00000
   4        4PX         0.00000   0.65554   0.00000   0.00000  -1.07386
   5        4PY         0.00000   0.00000   0.65554   0.00000   0.00000
   6        4PZ         0.00000   0.00000   0.00000   0.19448   0.00000
   7        5PX         0.00000  -0.24785   0.00000   0.00000  -0.46964
   8        5PY         0.00000   0.00000  -0.24785   0.00000   0.00000
   9        5PZ        -0.00000   0.00000   0.00000  -3.71744   0.00000
  10        6D 0        0.00000   0.00000   0.00000   0.95719   0.00000
  11        6D+1        0.00000   0.56527   0.00000   0.00000   1.35365
  12        6D-1        0.00000   0.00000   0.56527   0.00000   0.00000
  13        6D+2        0.88097   0.00000   0.00000  -0.00000   0.00000
  14        6D-2        0.00000   0.00000   0.00000   0.00000   0.00000
  15 2   H  1S         -0.00000   0.00000   0.00000  -0.70017   0.00000
  16        2S         -0.00000   0.00000   0.00000  -7.07795   0.00000
  17        3S         -0.00000   0.00000   0.00000  -0.11510   0.00000
  18        4PX         0.00000   0.65554   0.00000   0.00000   1.07386
  19        4PY         0.00000   0.00000   0.65554   0.00000   0.00000
  20        4PZ         0.00000   0.00000   0.00000   0.19448   0.00000
  21        5PX         0.00000  -0.24785   0.00000   0.00000   0.46964
  22        5PY         0.00000   0.00000  -0.24785   0.00000   0.00000
  23        5PZ        -0.00000   0.00000   0.00000  -3.71744   0.00000
  24        6D 0       -0.00000   0.00000   0.00000  -0.95719   0.00000
  25        6D+1        0.00000  -0.56527   0.00000   0.00000   1.35365
  26        6D-1        0.00000   0.00000  -0.56527   0.00000   0.00000
  27        6D+2       -0.88097   0.00000   0.00000   0.00000   0.00000
  28        6D-2        0.00000   0.00000   0.00000   0.00000   0.00000
                          26        27        28
                       (PIG)--V  (SGG)--V  (SGU)--V
     Eigenvalues --     5.73301   5.80955   6.97106
   1 1   H  1S          0.00000   1.21216   1.56211
   2        2S          0.00000  -0.57626   4.32078
   3        3S          0.00000   0.09372  -0.59939
   4        4PX         0.00000   0.00000   0.00000
   5        4PY        -1.07386   0.00000   0.00000
   6        4PZ         0.00000  -0.02243  -1.96814
   7        5PX         0.00000   0.00000   0.00000
   8        5PY        -0.46964   0.00000   0.00000
   9        5PZ         0.00000   0.70892  -1.66457
  10        6D 0        0.00000  -1.11591   1.01657
  11        6D+1        0.00000   0.00000   0.00000
  12        6D-1        1.35365   0.00000   0.00000
  13        6D+2        0.00000  -0.00000   0.00000
  14        6D-2        0.00000   0.00000   0.00000
  15 2   H  1S          0.00000   1.21216  -1.56211
  16        2S          0.00000  -0.57626  -4.32078
  17        3S          0.00000   0.09372   0.59939
  18        4PX         0.00000   0.00000   0.00000
  19        4PY         1.07386   0.00000   0.00000
  20        4PZ         0.00000   0.02243  -1.96814
  21        5PX         0.00000   0.00000   0.00000
  22        5PY         0.46964   0.00000   0.00000
  23        5PZ         0.00000  -0.70892  -1.66457
  24        6D 0        0.00000  -1.11591  -1.01657
  25        6D+1        0.00000   0.00000   0.00000
  26        6D-1        1.35365   0.00000   0.00000
  27        6D+2        0.00000  -0.00000  -0.00000
  28        6D-2        0.00000   0.00000   0.00000
     Density Matrix:
                           1         2         3         4         5
   1 1   H  1S          0.06963
   2        2S          0.10585   0.16091
   3        3S          0.05050   0.07677   0.03663
   4        4PX        -0.00000  -0.00000  -0.00000   0.00000
   5        4PY        -0.00000  -0.00000  -0.00000   0.00000   0.00000
   6        4PZ        -0.00450  -0.00684  -0.00326   0.00000   0.00000
   7        5PX        -0.00000  -0.00000  -0.00000   0.00000   0.00000
   8        5PY        -0.00000  -0.00000  -0.00000   0.00000   0.00000
   9        5PZ        -0.00649  -0.00987  -0.00471   0.00000   0.00000
  10        6D 0        0.00031   0.00047   0.00023  -0.00000  -0.00000
  11        6D+1        0.00000   0.00000   0.00000  -0.00000   0.00000
  12        6D-1        0.00000   0.00000   0.00000  -0.00000  -0.00000
  13        6D+2        0.00000   0.00000   0.00000  -0.00000  -0.00000
  14        6D-2        0.00000   0.00000   0.00000   0.00000   0.00000
  15 2   H  1S          0.06963   0.10585   0.05050  -0.00000  -0.00000
  16        2S          0.10585   0.16091   0.07677  -0.00000  -0.00000
  17        3S          0.05050   0.07677   0.03663  -0.00000  -0.00000
  18        4PX         0.00000   0.00000   0.00000  -0.00000   0.00000
  19        4PY         0.00000   0.00000   0.00000   0.00000  -0.00000
  20        4PZ         0.00450   0.00684   0.00326  -0.00000  -0.00000
  21        5PX         0.00000   0.00000   0.00000  -0.00000   0.00000
  22        5PY         0.00000   0.00000   0.00000   0.00000  -0.00000
  23        5PZ         0.00649   0.00987   0.00471  -0.00000  -0.00000
  24        6D 0        0.00031   0.00047   0.00023  -0.00000  -0.00000
  25        6D+1        0.00000   0.00000   0.00000  -0.00000   0.00000
  26        6D-1        0.00000   0.00000   0.00000  -0.00000  -0.00000
  27        6D+2        0.00000   0.00000   0.00000  -0.00000  -0.00000
  28        6D-2        0.00000   0.00000   0.00000   0.00000   0.00000
                           6         7         8         9        10
   6        4PZ         0.00029
   7        5PX         0.00000   0.00000
   8        5PY         0.00000   0.00000   0.00000
   9        5PZ         0.00042   0.00000   0.00000   0.00061
  10        6D 0       -0.00002  -0.00000  -0.00000  -0.00003   0.00000
  11        6D+1       -0.00000  -0.00000   0.00000  -0.00000   0.00000
  12        6D-1       -0.00000  -0.00000  -0.00000  -0.00000   0.00000
  13        6D+2       -0.00000  -0.00000  -0.00000  -0.00000   0.00000
  14        6D-2        0.00000   0.00000   0.00000   0.00000   0.00000
  15 2   H  1S         -0.00450  -0.00000  -0.00000  -0.00649   0.00031
  16        2S         -0.00684  -0.00000  -0.00000  -0.00987   0.00047
  17        3S         -0.00326  -0.00000  -0.00000  -0.00471   0.00023
  18        4PX        -0.00000  -0.00000   0.00000  -0.00000   0.00000
  19        4PY        -0.00000   0.00000  -0.00000  -0.00000   0.00000
  20        4PZ        -0.00029  -0.00000  -0.00000  -0.00042   0.00002
  21        5PX        -0.00000  -0.00000   0.00000  -0.00000   0.00000
  22        5PY        -0.00000   0.00000  -0.00000  -0.00000   0.00000
  23        5PZ        -0.00042  -0.00000  -0.00000  -0.00061   0.00003
  24        6D 0       -0.00002  -0.00000  -0.00000  -0.00003   0.00000
  25        6D+1       -0.00000  -0.00000   0.00000  -0.00000   0.00000
  26        6D-1       -0.00000  -0.00000  -0.00000  -0.00000   0.00000
  27        6D+2       -0.00000  -0.00000  -0.00000  -0.00000   0.00000
  28        6D-2        0.00000   0.00000   0.00000   0.00000   0.00000
                          11        12        13        14        15
  11        6D+1        0.00000
  12        6D-1        0.00000   0.00000
  13        6D+2        0.00000   0.00000   0.00000
  14        6D-2        0.00000  -0.00000   0.00000  -0.00000
  15 2   H  1S          0.00000   0.00000   0.00000   0.00000   0.06963
  16        2S          0.00000   0.00000   0.00000   0.00000   0.10585
  17        3S          0.00000   0.00000   0.00000   0.00000   0.05050
  18        4PX         0.00000   0.00000   0.00000  -0.00000   0.00000
  19        4PY         0.00000   0.00000   0.00000  -0.00000   0.00000
  20        4PZ         0.00000   0.00000   0.00000   0.00000   0.00450
  21        5PX         0.00000   0.00000   0.00000  -0.00000   0.00000
  22        5PY         0.00000   0.00000   0.00000  -0.00000   0.00000
  23        5PZ         0.00000   0.00000   0.00000   0.00000   0.00649
  24        6D 0        0.00000   0.00000   0.00000   0.00000   0.00031
  25        6D+1        0.00000   0.00000   0.00000  -0.00000   0.00000
  26        6D-1        0.00000   0.00000   0.00000  -0.00000   0.00000
  27        6D+2        0.00000   0.00000   0.00000   0.00000   0.00000
  28        6D-2        0.00000  -0.00000   0.00000  -0.00000   0.00000
                          16        17        18        19        20
  16        2S          0.16091
  17        3S          0.07677   0.03663
  18        4PX         0.00000   0.00000   0.00000
  19        4PY         0.00000   0.00000   0.00000   0.00000
  20        4PZ         0.00684   0.00326   0.00000   0.00000   0.00029
  21        5PX         0.00000   0.00000   0.00000   0.00000   0.00000
  22        5PY         0.00000   0.00000   0.00000   0.00000   0.00000
  23        5PZ         0.00987   0.00471   0.00000   0.00000   0.00042
  24        6D 0        0.00047   0.00023   0.00000   0.00000   0.00002
  25        6D+1        0.00000   0.00000   0.00000   0.00000   0.00000
  26        6D-1        0.00000   0.00000   0.00000   0.00000   0.00000
  27        6D+2        0.00000   0.00000   0.00000   0.00000   0.00000
  28        6D-2        0.00000   0.00000  -0.00000  -0.00000   0.00000
                          21        22        23        24        25
  21        5PX         0.00000
  22        5PY         0.00000   0.00000
  23        5PZ         0.00000   0.00000   0.00061
  24        6D 0        0.00000   0.00000   0.00003   0.00000
  25        6D+1        0.00000   0.00000   0.00000   0.00000   0.00000
  26        6D-1        0.00000   0.00000   0.00000   0.00000   0.00000
  27        6D+2        0.00000   0.00000   0.00000   0.00000   0.00000
  28        6D-2       -0.00000  -0.00000   0.00000   0.00000   0.00000
                          26        27        28
  26        6D-1        0.00000
  27        6D+2        0.00000   0.00000
  28        6D-2       -0.00000   0.00000  -0.00000
    Full Mulliken population analysis:
                           1         2         3         4         5
   1 1   H  1S          0.06963
   2        2S          0.07476   0.16091
   3        3S          0.01886   0.06056   0.03663
   4        4PX         0.00000   0.00000   0.00000   0.00000
   5        4PY         0.00000   0.00000   0.00000   0.00000   0.00000
   6        4PZ         0.00000   0.00000   0.00000  -0.00000   0.00000
   7        5PX         0.00000   0.00000   0.00000   0.00000   0.00000
   8        5PY         0.00000   0.00000   0.00000   0.00000   0.00000
   9        5PZ         0.00000   0.00000   0.00000  -0.00000   0.00000
  10        6D 0        0.00000   0.00000   0.00000   0.00000   0.00000
  11        6D+1        0.00000   0.00000   0.00000   0.00000   0.00000
  12        6D-1        0.00000   0.00000   0.00000   0.00000   0.00000
  13        6D+2        0.00000   0.00000   0.00000   0.00000   0.00000
  14        6D-2        0.00000   0.00000   0.00000   0.00000   0.00000
  15 2   H  1S          0.01881   0.04506   0.01567   0.00000   0.00000
  16        2S          0.04506   0.11701   0.05199   0.00000   0.00000
  17        3S          0.01567   0.05199   0.03313   0.00000   0.00000
  18        4PX         0.00000   0.00000   0.00000  -0.00000   0.00000
  19        4PY         0.00000   0.00000   0.00000   0.00000  -0.00000
  20        4PZ         0.00185   0.00176   0.00022   0.00000   0.00000
  21        5PX         0.00000   0.00000   0.00000  -0.00000   0.00000
  22        5PY         0.00000   0.00000   0.00000   0.00000  -0.00000
  23        5PZ         0.00368   0.00552   0.00107   0.00000   0.00000
  24        6D 0        0.00014   0.00006   0.00000   0.00000   0.00000
  25        6D+1        0.00000   0.00000   0.00000  -0.00000   0.00000
  26        6D-1        0.00000   0.00000   0.00000   0.00000  -0.00000
  27        6D+2        0.00000   0.00000   0.00000   0.00000   0.00000
  28        6D-2        0.00000   0.00000   0.00000   0.00000   0.00000
                           6         7         8         9        10
   6        4PZ         0.00029
   7        5PX        -0.00000   0.00000
   8        5PY         0.00000   0.00000   0.00000
   9        5PZ         0.00026  -0.00000   0.00000   0.00061
  10        6D 0        0.00000   0.00000   0.00000   0.00000   0.00000
  11        6D+1        0.00000   0.00000   0.00000   0.00000   0.00000
  12        6D-1        0.00000   0.00000   0.00000   0.00000   0.00000
  13        6D+2        0.00000   0.00000   0.00000   0.00000   0.00000
  14        6D-2        0.00000   0.00000   0.00000   0.00000   0.00000
  15 2   H  1S          0.00185   0.00000   0.00000   0.00368   0.00014
  16        2S          0.00176   0.00000   0.00000   0.00552   0.00006
  17        3S          0.00022   0.00000   0.00000   0.00107   0.00000
  18        4PX         0.00000  -0.00000   0.00000   0.00000   0.00000
  19        4PY         0.00000   0.00000  -0.00000   0.00000   0.00000
  20        4PZ         0.00013   0.00000   0.00000   0.00003   0.00000
  21        5PX         0.00000  -0.00000   0.00000   0.00000   0.00000
  22        5PY         0.00000   0.00000  -0.00000   0.00000   0.00000
  23        5PZ         0.00003   0.00000   0.00000  -0.00010  -0.00000
  24        6D 0        0.00000   0.00000   0.00000  -0.00000  -0.00000
  25        6D+1        0.00000  -0.00000   0.00000   0.00000   0.00000
  26        6D-1        0.00000   0.00000  -0.00000   0.00000   0.00000
  27        6D+2        0.00000   0.00000   0.00000   0.00000   0.00000
  28        6D-2        0.00000   0.00000   0.00000   0.00000   0.00000
                          11        12        13        14        15
  11        6D+1        0.00000
  12        6D-1        0.00000   0.00000
  13        6D+2       -0.00000   0.00000   0.00000
  14        6D-2        0.00000   0.00000   0.00000  -0.00000
  15 2   H  1S          0.00000   0.00000   0.00000   0.00000   0.06963
  16        2S          0.00000   0.00000   0.00000   0.00000   0.07476
  17        3S          0.00000   0.00000   0.00000   0.00000   0.01886
  18        4PX        -0.00000   0.00000  -0.00000   0.00000   0.00000
  19        4PY         0.00000  -0.00000   0.00000   0.00000   0.00000
  20        4PZ         0.00000   0.00000   0.00000   0.00000   0.00000
  21        5PX        -0.00000   0.00000  -0.00000   0.00000   0.00000
  22        5PY         0.00000  -0.00000   0.00000   0.00000   0.00000
  23        5PZ         0.00000   0.00000   0.00000   0.00000   0.00000
  24        6D 0        0.00000   0.00000   0.00000   0.00000   0.00000
  25        6D+1       -0.00000   0.00000  -0.00000   0.00000   0.00000
  26        6D-1        0.00000  -0.00000   0.00000   0.00000   0.00000
  27        6D+2       -0.00000   0.00000   0.00000   0.00000   0.00000
  28        6D-2        0.00000   0.00000   0.00000  -0.00000   0.00000
                          16        17        18        19        20
  16        2S          0.16091
  17        3S          0.06056   0.03663
  18        4PX         0.00000   0.00000   0.00000
  19        4PY         0.00000   0.00000   0.00000   0.00000
  20        4PZ         0.00000   0.00000   0.00000   0.00000   0.00029
  21        5PX         0.00000   0.00000   0.00000   0.00000   0.00000
  22        5PY         0.00000   0.00000   0.00000   0.00000   0.00000
  23        5PZ         0.00000   0.00000   0.00000   0.00000   0.00026
  24        6D 0        0.00000   0.00000   0.00000   0.00000   0.00000
  25        6D+1        0.00000   0.00000   0.00000   0.00000   0.00000
  26        6D-1        0.00000   0.00000   0.00000   0.00000   0.00000
  27        6D+2        0.00000   0.00000   0.00000   0.00000   0.00000
  28        6D-2        0.00000   0.00000   0.00000   0.00000   0.00000
                          21        22        23        24        25
  21        5PX         0.00000
  22        5PY         0.00000   0.00000
  23        5PZ         0.00000   0.00000   0.00061
  24        6D 0        0.00000   0.00000   0.00000   0.00000
  25        6D+1        0.00000   0.00000   0.00000   0.00000   0.00000
  26        6D-1        0.00000   0.00000   0.00000   0.00000   0.00000
  27        6D+2        0.00000   0.00000   0.00000   0.00000   0.00000
  28        6D-2        0.00000   0.00000   0.00000   0.00000   0.00000
                          26        27        28
  26        6D-1        0.00000
  27        6D+2        0.00000   0.00000
  28        6D-2        0.00000   0.00000  -0.00000
     Gross orbital populations:
                           1
   1 1   H  1S          0.24846
   2        2S          0.51763
   3        3S          0.21813
   4        4PX         0.00000
   5        4PY         0.00000
   6        4PZ         0.00453
   7        5PX         0.00000
   8        5PY         0.00000
   9        5PZ         0.01105
  10        6D 0        0.00020
  11        6D+1        0.00000
  12        6D-1        0.00000
  13        6D+2        0.00000
  14        6D-2       -0.00000
  15 2   H  1S          0.24846
  16        2S          0.51763
  17        3S          0.21813
  18        4PX         0.00000
  19        4PY         0.00000
  20        4PZ         0.00453
  21        5PX         0.00000
  22        5PY         0.00000
  23        5PZ         0.01105
  24        6D 0        0.00020
  25        6D+1       -0.00000
  26        6D-1       -0.00000
  27        6D+2        0.00000
  28        6D-2       -0.00000
          Condensed to atoms (all electrons):
              1          2
     1  H    0.576947   0.423053
     2  H    0.423053   0.576947
 Mulliken atomic charges:
              1
     1  H   -0.000000
     2  H   -0.000000
 Sum of Mulliken atomic charges =  -0.00000
 Mulliken charges with hydrogens summed into heavy atoms:
              1
 Sum of Mulliken charges with hydrogens summed into heavy atoms =  -0.00000
 Electronic spatial extent (au):  <R**2>=              5.1765
 Charge=             -0.0000 electrons
 Dipole moment (field-independent basis, Debye):
    X=             -0.0000    Y=             -0.0000    Z=              0.0000  Tot=              0.0000
 Quadrupole moment (field-independent basis, Debye-Ang):
   XX=             -2.0899   YY=             -2.0899   ZZ=             -1.4677
   XY=             -0.0000   XZ=             -0.0000   YZ=              0.0000
 Traceless Quadrupole moment (field-independent basis, Debye-Ang):
   XX=             -0.2074   YY=             -0.2074   ZZ=              0.4148
   XY=             -0.0000   XZ=             -0.0000   YZ=              0.0000
 Octapole moment (field-independent basis, Debye-Ang**2):
  XXX=             -0.0000  YYY=             -0.0000  ZZZ=              0.0000  XYY=             -0.0000
  XXY=             -0.0000  XXZ=              0.0000  XZZ=             -0.0000  YZZ=              0.0000
  YYZ=              0.0000  XYZ=              0.0000
 Hexadecapole moment (field-independent basis, Debye-Ang**3):
 XXXX=             -2.1025 YYYY=             -2.1025 ZZZZ=             -2.8585 XXXY=             -0.0000
 XXXZ=              0.0000 YYYX=             -0.0000 YYYZ=              0.0000 ZZZX=              0.0000
 ZZZY=              0.0000 XXYY=             -0.7008 XXZZ=             -0.8451 YYZZ=             -0.8451
 XXYZ=              0.0000 YYXZ=              0.0000 ZZXY=             -0.0000
 N-N= 7.151043359324D-01 E-N=-3.630761563041D+00  KE= 1.123995842775D+00
 Symmetry AG   KE= 1.123995842775D+00
 Symmetry B1G  KE=-4.440589849012D-54
 Symmetry B2G  KE= 6.496591339896D-33
 Symmetry B3G  KE= 6.496591339896D-33
 Symmetry AU   KE= 3.265951189021D-69
 Symmetry B1U  KE= 1.604743920886D-31
 Symmetry B2U  KE= 1.455817377422D-34
 Symmetry B3U  KE= 1.455817377422D-34
 Orbital energies and kinetic energies (alpha):
                                 1                 2
   1 (SGG)--O                 -0.594689          0.561998
   2 (SGU)--V                  0.167257          0.275233
   3 (SGG)--V                  0.305001          0.483773
   4 (SGU)--V                  0.643881          1.039787
   5 (PIU)--V                  0.692712          0.864361
   6 (PIU)--V                  0.692712          0.864361
   7 (SGG)--V                  1.096633          1.249982
   8 (PIG)--V                  1.120124          1.208523
   9 (PIG)--V                  1.120124          1.208523
  10 (SGU)--V                  1.529442          1.575490
  11 (SGU)--V                  2.337081          3.298088
  12 (SGG)--V                  2.406891          3.433637
  13 (DLTG)--V                 3.175441          3.412846
  14 (DLTG)--V                 3.175441          3.412846
  15 (PIU)--V                  3.412757          3.901192
  16 (PIU)--V                  3.412757          3.901192
  17 (SGG)--V                  3.675123          4.217521
  18 (PIG)--V                  3.892804          4.272317
  19 (PIG)--V                  3.892804          4.272317
  20 (DLTU)--V                 4.085343          4.302749
  21 (DLTU)--V                 4.085343          4.302749
  22 (PIU)--V                  4.114994          4.451515
  23 (PIU)--V                  4.114994          4.451515
  24 (SGU)--V                  4.659865          5.093525
  25 (PIG)--V                  5.733014          6.146633
  26 (PIG)--V                  5.733014          6.146633
  27 (SGG)--V                  5.809546          6.479850
  28 (SGU)--V                  6.971057          8.434330
 Total kinetic energy from orbitals= 1.123995842775D+00
 No NMR shielding tensors so no spin-rotation constants.
 Leave Link  601 at Sat Aug 17 22:44:35 2024, MaxMem=   13107200 cpu:       0.2
 (Enter /programs/64bit/g09/g09-gfortran/bin/l701.exe)
 Compute integral first derivatives.
 ... and contract with generalized density number  0.
 Leave Link  701 at Sat Aug 17 22:44:36 2024, MaxMem=   13107200 cpu:       0.2
 (Enter /programs/64bit/g09/g09-gfortran/bin/l702.exe)
 L702 exits ... SP integral derivatives will be done elsewhere.
 Leave Link  702 at Sat Aug 17 22:44:36 2024, MaxMem=   13107200 cpu:       0.0
 (Enter /programs/64bit/g09/g09-gfortran/bin/l703.exe)
 Compute integral first derivatives, UseDBF=F ICtDFT=           0.
 Integral derivatives from FoFDir, PRISM(SPDF).
 Calling FoFJK, ICntrl=      2127 FMM=F ISym2X=1 I1Cent= 0 IOpClX= 0 NMat=1 NMatS=1 NMatT=0.
 FoFCou: FMM=F IPFlag=           0 FMFlag=      100000 FMFlg1=         800
         NFxFlg=           0 DoJE=F BraDBF=F KetDBF=F FulRan=T
         Omega=  0.000000  0.000000  1.000000  0.000000  0.000000 ICntrl=    2127 IOpCl=  0
         NMat0=    1 NMatS0=    1 NMatT0=    0 NMatD0=    1 NMtDS0=    0 NMtDT0=    0
         I1Cent=           0 NGrid=           0.
 Petite list used in FoFCou.
 Leave Link  703 at Sat Aug 17 22:44:36 2024, MaxMem=   13107200 cpu:       0.2
 (Enter /programs/64bit/g09/g09-gfortran/bin/l716.exe)
 Dipole        =-2.34193081D-31-2.40741243D-35 0.00000000D+00
 ***** Axes restored to original set *****
 -------------------------------------------------------------------
 Center     Atomic                   Forces (Hartrees/Bohr)
 Number     Number              X              Y              Z
 -------------------------------------------------------------------
      1        1           0.000000000    0.000000000    0.004156039
      2        1          -0.000000000   -0.000000000   -0.004156039
 -------------------------------------------------------------------
 Cartesian Forces:  Max     0.004156039 RMS     0.002399490
 Leave Link  716 at Sat Aug 17 22:44:36 2024, MaxMem=   13107200 cpu:       0.1
 (Enter /programs/64bit/g09/g09-gfortran/bin/l103.exe)

 GradGradGradGradGradGradGradGradGradGradGradGradGradGradGradGradGradGrad
 Berny optimization.
 Internal  Forces:  Max     0.004156039 RMS     0.004156039
 Search for a local minimum.
 Step number   1 out of a maximum of   20
 All quantities printed in internal units (Hartrees-Bohrs-Radians)
 RMS Force = .41560D-02 SwitMx=.10000D-02 MixMth= 1
 Mixed Optimization -- RFO/linear search
 Second derivative matrix not updated -- first step.
 The second derivative matrix:
                          R1
           R1           0.39139
     Eigenvalues ---    0.39139
 RFO step:  Lambda=-4.41261368D-05 EMin= 3.91394209D-01
 Linear search not attempted -- first point.
 Iteration  1 RMS(Cart)=  0.00750760 RMS(Int)=  0.00000000
 Iteration  2 RMS(Cart)=  0.00000000 RMS(Int)=  0.00000000
 ClnCor:  largest displacement from symmetrization is 2.22D-16 for atom     2.
 Variable       Old X    -DE/DX   Delta X   Delta X   Delta X     New X
                                 (Linear)    (Quad)   (Total)
    R1        1.39840  -0.00416   0.00000  -0.01062  -0.01062   1.38778
         Item               Value     Threshold  Converged?
 Maximum Force            0.004156     0.000450     NO 
 RMS     Force            0.004156     0.000300     NO 
 Maximum Displacement     0.005309     0.001800     NO 
 RMS     Displacement     0.007508     0.001200     NO 
 Predicted change in Energy=-2.206556D-05
 GradGradGradGradGradGradGradGradGradGradGradGradGradGradGradGradGradGrad

 Leave Link  103 at Sat Aug 17 22:44:36 2024, MaxMem=   13107200 cpu:       0.0
 (Enter /programs/64bit/g09/g09-gfortran/bin/l202.exe)
                          Input orientation:                          
 ---------------------------------------------------------------------
 Center     Atomic      Atomic             Coordinates (Angstroms)
 Number     Number       Type             X           Y           Z
 ---------------------------------------------------------------------
      1          1           0        0.000000    0.000000    0.002809
      2          1           0        0.000000    0.000000    0.737191
 ---------------------------------------------------------------------
 Stoichiometry    H2
 Framework group  D*H[C*(H.H)]
 Deg. of freedom     1
 Full point group                 D*H     NOp   8
 Largest Abelian subgroup         D2H     NOp   8
 Largest concise Abelian subgroup C2      NOp   2
                         Standard orientation:                         
 ---------------------------------------------------------------------
 Center     Atomic      Atomic             Coordinates (Angstroms)
 Number     Number       Type             X           Y           Z
 ---------------------------------------------------------------------
      1          1           0        0.000000    0.000000    0.367191
      2          1           0        0.000000    0.000000   -0.367191
 ---------------------------------------------------------------------
 Rotational constants (GHZ):      0.0000000   1859.5957594   1859.5957594
 Leave Link  202 at Sat Aug 17 22:44:36 2024, MaxMem=   13107200 cpu:       0.0
 (Enter /programs/64bit/g09/g09-gfortran/bin/l301.exe)
 Standard basis: CC-pVTZ (5D, 7F)
 Ernie: Thresh=  0.10000D-02 Tol=  0.10000D-05 Strict=F.
 There are     7 symmetry adapted basis functions of AG  symmetry.
 There are     1 symmetry adapted basis functions of B1G symmetry.
 There are     3 symmetry adapted basis functions of B2G symmetry.
 There are     3 symmetry adapted basis functions of B3G symmetry.
 There are     1 symmetry adapted basis functions of AU  symmetry.
 There are     7 symmetry adapted basis functions of B1U symmetry.
 There are     3 symmetry adapted basis functions of B2U symmetry.
 There are     3 symmetry adapted basis functions of B3U symmetry.
 Integral buffers will be    131072 words long.
 Raffenetti 1 integral format.
 Two-electron integral symmetry is turned on.
    28 basis functions,    34 primitive gaussians,    30 cartesian basis functions
     1 alpha electrons        1 beta electrons
       nuclear repulsion energy         0.7205753152 Hartrees.
 IExCor=    0 DFT=F Ex=HF Corr=None ExCW=0 ScaHFX=  1.000000
 ScaDFX=  1.000000  1.000000  1.000000  1.000000 ScalE2=  1.000000  1.000000
 IRadAn=      0 IRanWt=     -1 IRanGd=            0 ICorTp=0
 NAtoms=    2 NActive=    2 NUniq=    1 SFac= 3.00D+00 NAtFMM=   80 NAOKFM=F Big=F
 Leave Link  301 at Sat Aug 17 22:44:36 2024, MaxMem=   13107200 cpu:       0.1
 (Enter /programs/64bit/g09/g09-gfortran/bin/l302.exe)
 NPDir=0 NMtPBC=     1 NCelOv=     1 NCel=       1 NClECP=     1 NCelD=      1
         NCelK=      1 NCelE2=     1 NClLst=     1 CellRange=     0.0.
 One-electron integrals computed using PRISM.
 One-electron integral symmetry used in STVInt
 NBasis=    28 RedAO= T  NBF=     7     1     3     3     1     7     3     3
 NBsUse=    28 1.00D-06 NBFU=     7     1     3     3     1     7     3     3
 Leave Link  302 at Sat Aug 17 22:44:37 2024, MaxMem=   13107200 cpu:       0.2
 (Enter /programs/64bit/g09/g09-gfortran/bin/l303.exe)
 DipDrv:  MaxL=1.
 Leave Link  303 at Sat Aug 17 22:44:37 2024, MaxMem=   13107200 cpu:       0.0
 (Enter /programs/64bit/g09/g09-gfortran/bin/l401.exe)
 Initial guess read from the read-write file.
 B after Tr=     0.000000    0.000000    0.000000
         Rot=    1.000000    0.000000    0.000000    0.000000 Ang=   0.00 deg.
 Guess basis will be translated and rotated to current coordinates.
 Initial guess orbital symmetries:
       Occupied  (SGG)
       Virtual   (SGU) (SGG) (SGU) (PIU) (PIU) (SGG) (PIG) (PIG)
                 (SGU) (SGU) (SGG) (DLTG) (DLTG) (PIU) (PIU) (SGG)
                 (PIG) (PIG) (DLTU) (DLTU) (PIU) (PIU) (SGU) (PIG)
                 (PIG) (SGG) (SGU)
 The electronic state of the initial guess is 1-SGG.
 Leave Link  401 at Sat Aug 17 22:44:37 2024, MaxMem=   13107200 cpu:       0.2
 (Enter /programs/64bit/g09/g09-gfortran/bin/l502.exe)
 Closed shell SCF:
 Requested convergence on RMS density matrix=1.00D-08 within 128 cycles.
 Requested convergence on MAX density matrix=1.00D-06.
 Requested convergence on             energy=1.00D-06.
 No special actions if energy rises.
 Using DIIS extrapolation, IDIIS=  1040.
 Integral symmetry usage will be decided dynamically.
 Keep R1 ints in memory in canonical form, NReq=949721.
 IEnd=       21362 IEndB=       21362 NGot=    13107200 MDV=    12995036
 LenX=    12995036 LenY=    12993695
 Symmetry not used in FoFDir.
 MinBra= 0 MaxBra= 2 Meth= 1.
 IRaf=       0 NMat=   1 IRICut=       1 DoRegI=T DoRafI=F ISym2E= 0 JSym2E=0.

 Cycle   1  Pass 1  IDiag  1:
 E= -1.13298413147205    
 DIIS: error= 6.80D-04 at cycle   1 NSaved=   1.
 NSaved= 1 IEnMin= 1 EnMin= -1.13298413147205     IErMin= 1 ErrMin= 6.80D-04
 ErrMax= 6.80D-04 EMaxC= 1.00D-01 BMatC= 5.09D-06 BMatP= 5.09D-06
 IDIUse=3 WtCom= 9.93D-01 WtEn= 6.80D-03
 Coeff-Com:  0.100D+01
 Coeff-En:   0.100D+01
 Coeff:      0.100D+01
 Gap=     0.769 Goal=   None    Shift=    0.000
 RMSDP=3.78D-05 MaxDP=2.94D-04              OVMax= 1.28D-03

 Cycle   2  Pass 1  IDiag  1:
 E= -1.13298958985714     Delta-E=       -0.000005458385 Rises=F Damp=F
 DIIS: error= 9.33D-05 at cycle   2 NSaved=   2.
 NSaved= 2 IEnMin= 2 EnMin= -1.13298958985714     IErMin= 2 ErrMin= 9.33D-05
 ErrMax= 9.33D-05 EMaxC= 1.00D-01 BMatC= 7.44D-08 BMatP= 5.09D-06
 IDIUse=1 WtCom= 1.00D+00 WtEn= 0.00D+00
 Coeff-Com: -0.125D+00 0.113D+01
 Coeff:     -0.125D+00 0.113D+01
 Gap=     0.764 Goal=   None    Shift=    0.000
 RMSDP=8.07D-06 MaxDP=5.00D-05 DE=-5.46D-06 OVMax= 2.39D-04

 Cycle   3  Pass 1  IDiag  1:
 E= -1.13298970992385     Delta-E=       -0.000000120067 Rises=F Damp=F
 DIIS: error= 8.35D-06 at cycle   3 NSaved=   3.
 NSaved= 3 IEnMin= 3 EnMin= -1.13298970992385     IErMin= 3 ErrMin= 8.35D-06
 ErrMax= 8.35D-06 EMaxC= 1.00D-01 BMatC= 5.73D-10 BMatP= 7.44D-08
 IDIUse=1 WtCom= 1.00D+00 WtEn= 0.00D+00
 Coeff-Com:  0.347D-01-0.315D+00 0.128D+01
 Coeff:      0.347D-01-0.315D+00 0.128D+01
 Gap=     0.764 Goal=   None    Shift=    0.000
 RMSDP=1.49D-06 MaxDP=1.54D-05 DE=-1.20D-07 OVMax= 2.89D-05

 Cycle   4  Pass 1  IDiag  1:
 E= -1.13298971123646     Delta-E=       -0.000000001313 Rises=F Damp=F
 DIIS: error= 3.44D-07 at cycle   4 NSaved=   4.
 NSaved= 4 IEnMin= 4 EnMin= -1.13298971123646     IErMin= 4 ErrMin= 3.44D-07
 ErrMax= 3.44D-07 EMaxC= 1.00D-01 BMatC= 5.02D-13 BMatP= 5.73D-10
 IDIUse=1 WtCom= 1.00D+00 WtEn= 0.00D+00
 Coeff-Com: -0.458D-02 0.417D-01-0.182D+00 0.114D+01
 Coeff:     -0.458D-02 0.417D-01-0.182D+00 0.114D+01
 Gap=     0.764 Goal=   None    Shift=    0.000
 RMSDP=3.82D-08 MaxDP=3.70D-07 DE=-1.31D-09 OVMax= 6.00D-07

 Cycle   5  Pass 1  IDiag  1:
 E= -1.13298971123718     Delta-E=       -0.000000000001 Rises=F Damp=F
 DIIS: error= 8.46D-09 at cycle   5 NSaved=   5.
 NSaved= 5 IEnMin= 5 EnMin= -1.13298971123718     IErMin= 5 ErrMin= 8.46D-09
 ErrMax= 8.46D-09 EMaxC= 1.00D-01 BMatC= 6.19D-16 BMatP= 5.02D-13
 IDIUse=1 WtCom= 1.00D+00 WtEn= 0.00D+00
 Coeff-Com:  0.891D-03-0.813D-02 0.355D-01-0.229D+00 0.120D+01
 Coeff:      0.891D-03-0.813D-02 0.355D-01-0.229D+00 0.120D+01
 Gap=     0.764 Goal=   None    Shift=    0.000
 RMSDP=6.35D-10 MaxDP=4.56D-09 DE=-7.20D-13 OVMax= 1.63D-08

 SCF Done:  E(RHF) =  -1.13298971124     A.U. after    5 cycles
             Convg  =    0.6351D-09             -V/T =  2.0028
 KE= 1.129811761400D+00 PE=-3.644088343179D+00 EE= 6.607115553615D-01
 Leave Link  502 at Sat Aug 17 22:44:37 2024, MaxMem=   13107200 cpu:       0.1
 (Enter /programs/64bit/g09/g09-gfortran/bin/l701.exe)
 Compute integral first derivatives.
 ... and contract with generalized density number  0.
 Leave Link  701 at Sat Aug 17 22:44:37 2024, MaxMem=   13107200 cpu:       0.1
 (Enter /programs/64bit/g09/g09-gfortran/bin/l702.exe)
 L702 exits ... SP integral derivatives will be done elsewhere.
 Leave Link  702 at Sat Aug 17 22:44:38 2024, MaxMem=   13107200 cpu:       0.0
 (Enter /programs/64bit/g09/g09-gfortran/bin/l703.exe)
 Compute integral first derivatives, UseDBF=F ICtDFT=           0.
 Integral derivatives from FoFDir, PRISM(SPDF).
 Calling FoFJK, ICntrl=      2127 FMM=F ISym2X=1 I1Cent= 0 IOpClX= 0 NMat=1 NMatS=1 NMatT=0.
 FoFCou: FMM=F IPFlag=           0 FMFlag=      100000 FMFlg1=         800
         NFxFlg=           0 DoJE=F BraDBF=F KetDBF=F FulRan=T
         Omega=  0.000000  0.000000  1.000000  0.000000  0.000000 ICntrl=    2127 IOpCl=  0
         NMat0=    1 NMatS0=    1 NMatT0=    0 NMatD0=    1 NMtDS0=    0 NMtDT0=    0
         I1Cent=           0 NGrid=           0.
 Petite list used in FoFCou.
 Leave Link  703 at Sat Aug 17 22:44:38 2024, MaxMem=   13107200 cpu:       0.2
 (Enter /programs/64bit/g09/g09-gfortran/bin/l716.exe)
 Dipole        = 2.95822839D-31 4.81482486D-35 0.00000000D+00
 ***** Axes restored to original set *****
 -------------------------------------------------------------------
 Center     Atomic                   Forces (Hartrees/Bohr)
 Number     Number              X              Y              Z
 -------------------------------------------------------------------
      1        1           0.000000000    0.000000000   -0.000031263
      2        1          -0.000000000   -0.000000000    0.000031263
 -------------------------------------------------------------------
 Cartesian Forces:  Max     0.000031263 RMS     0.000018049
 Leave Link  716 at Sat Aug 17 22:44:39 2024, MaxMem=   13107200 cpu:       0.0
 (Enter /programs/64bit/g09/g09-gfortran/bin/l103.exe)

 GradGradGradGradGradGradGradGradGradGradGradGradGradGradGradGradGradGrad
 Berny optimization.
 Using GEDIIS/GDIIS optimizer.
 Internal  Forces:  Max     0.000031263 RMS     0.000031263
 Search for a local minimum.
 Step number   2 out of a maximum of   20
 All quantities printed in internal units (Hartrees-Bohrs-Radians)
 RMS Force = .31263D-04 SwitMx=.10000D-02 MixMth= 2
 Mixed Optimization -- En-DIIS/RFO-DIIS
 Update second derivatives using D2CorX and points    1    2
 DE= -2.20D-05 DEPred=-2.21D-05 R= 9.98D-01
 SS=  1.41D+00  RLast= 1.06D-02 DXNew= 5.0454D-01 3.1852D-02
 Trust test= 9.98D-01 RLast= 1.06D-02 DXMaxT set to 3.00D-01
 The second derivative matrix:
                          R1
           R1           0.39438
 Use linear search instead of GDIIS.
     Eigenvalues ---    0.39438
 RFO step:  Lambda= 0.00000000D+00 EMin= 3.94382810D-01
 Quartic linear search produced a step of -0.00734.
 Iteration  1 RMS(Cart)=  0.00005508 RMS(Int)=  0.00000000
 Iteration  2 RMS(Cart)=  0.00000000 RMS(Int)=  0.00000000
 ClnCor:  largest displacement from symmetrization is 2.38D-21 for atom     2.
 Variable       Old X    -DE/DX   Delta X   Delta X   Delta X     New X
                                 (Linear)    (Quad)   (Total)
    R1        1.38778   0.00003   0.00008   0.00000   0.00008   1.38786
         Item               Value     Threshold  Converged?
 Maximum Force            0.000031     0.000450     YES
 RMS     Force            0.000031     0.000300     YES
 Maximum Displacement     0.000039     0.001800     YES
 RMS     Displacement     0.000055     0.001200     YES
 Predicted change in Energy=-1.238711D-09
 Optimization completed.
    -- Stationary point found.
                           ----------------------------
                           !   Optimized Parameters   !
                           ! (Angstroms and Degrees)  !
 --------------------------                            --------------------------
 ! Name  Definition              Value          Derivative Info.                !
 --------------------------------------------------------------------------------
 ! R1    R(1,2)                  0.7344         -DE/DX =    0.0                 !
 --------------------------------------------------------------------------------
 GradGradGradGradGradGradGradGradGradGradGradGradGradGradGradGradGradGrad

 Largest change from initial coordinates is atom    1       0.003 Angstoms.
 Leave Link  103 at Sat Aug 17 22:44:39 2024, MaxMem=   13107200 cpu:       0.0
 (Enter /programs/64bit/g09/g09-gfortran/bin/l202.exe)
                          Input orientation:                          
 ---------------------------------------------------------------------
 Center     Atomic      Atomic             Coordinates (Angstroms)
 Number     Number       Type             X           Y           Z
 ---------------------------------------------------------------------
      1          1           0        0.000000    0.000000    0.002809
      2          1           0        0.000000    0.000000    0.737191
 ---------------------------------------------------------------------
 Stoichiometry    H2
 Framework group  D*H[C*(H.H)]
 Deg. of freedom     1
 Full point group                 D*H     NOp   8
 Largest Abelian subgroup         D2H     NOp   8
 Largest concise Abelian subgroup C2      NOp   2
                         Standard orientation:                         
 ---------------------------------------------------------------------
 Center     Atomic      Atomic             Coordinates (Angstroms)
 Number     Number       Type             X           Y           Z
 ---------------------------------------------------------------------
      1          1           0        0.000000    0.000000    0.367191
      2          1           0        0.000000    0.000000   -0.367191
 ---------------------------------------------------------------------
 Rotational constants (GHZ):      0.0000000   1859.5957594   1859.5957594
 Leave Link  202 at Sat Aug 17 22:44:39 2024, MaxMem=   13107200 cpu:       0.0
 (Enter /programs/64bit/g09/g09-gfortran/bin/l601.exe)
 Copying SCF densities to generalized density rwf, IOpCl= 0 IROHF=0.

 **********************************************************************

            Population analysis using the SCF density.

 **********************************************************************

 Orbital symmetries:
       Occupied  (SGG)
       Virtual   (SGU) (SGG) (SGU) (PIU) (PIU) (SGG) (PIG) (PIG)
                 (SGU) (SGU) (SGG) (DLTG) (DLTG) (PIU) (PIU) (SGG)
                 (PIG) (PIG) (DLTU) (DLTU) (PIU) (PIU) (SGU) (PIG)
                 (PIG) (SGG) (SGU)
 The electronic state is 1-SGG.
 Alpha  occ. eigenvalues --   -0.59643
 Alpha virt. eigenvalues --    0.16804   0.30448   0.64607   0.69333   0.69333
 Alpha virt. eigenvalues --    1.09813   1.12104   1.12104   1.53124   2.33736
 Alpha virt. eigenvalues --    2.40393   3.17618   3.17618   3.41604   3.41604
 Alpha virt. eigenvalues --    3.67713   3.88795   3.88795   4.09133   4.09133
 Alpha virt. eigenvalues --    4.12032   4.12032   4.67855   5.75516   5.75516
 Alpha virt. eigenvalues --    5.83329   7.00157
     Molecular Orbital Coefficients:
                           1         2         3         4         5
                       (SGG)--O  (SGU)--V  (SGG)--V  (SGU)--V  (PIU)--V
     Eigenvalues --    -0.59643   0.16804   0.30448   0.64607   0.69333
   1 1   H  1S          0.18728   0.06529  -0.05631   0.12679   0.00000
   2        2S          0.28348  -0.33099  -0.73262   2.33722   0.00000
   3        3S          0.13438   2.34957   0.86007  -2.26810   0.00000
   4        4PX         0.00000   0.00000   0.00000   0.00000   0.00000
   5        4PY         0.00000   0.00000   0.00000   0.00000  -0.05859
   6        4PZ        -0.01212   0.03558   0.01684  -0.08704   0.00000
   7        5PX         0.00000   0.00000   0.00000   0.00000   0.00000
   8        5PY         0.00000   0.00000   0.00000   0.00000   0.57757
   9        5PZ        -0.01725   0.10887  -0.05191  -0.22702   0.00000
  10        6D 0        0.00080  -0.01959   0.00793   0.07204   0.00000
  11        6D+1        0.00000   0.00000   0.00000   0.00000   0.00000
  12        6D-1        0.00000   0.00000   0.00000   0.00000   0.00879
  13        6D+2        0.00000  -0.00000  -0.00000   0.00000   0.00000
  14        6D-2        0.00000   0.00000   0.00000   0.00000   0.00000
  15 2   H  1S          0.18728  -0.06529  -0.05631  -0.12679   0.00000
  16        2S          0.28348   0.33099  -0.73262  -2.33722   0.00000
  17        3S          0.13438  -2.34957   0.86007   2.26810   0.00000
  18        4PX         0.00000   0.00000   0.00000   0.00000   0.00000
  19        4PY         0.00000   0.00000   0.00000   0.00000  -0.05859
  20        4PZ         0.01212   0.03558  -0.01684  -0.08704   0.00000
  21        5PX         0.00000   0.00000   0.00000   0.00000   0.00000
  22        5PY         0.00000   0.00000   0.00000   0.00000   0.57757
  23        5PZ         0.01725   0.10887   0.05191  -0.22702   0.00000
  24        6D 0        0.00080   0.01959   0.00793  -0.07204   0.00000
  25        6D+1        0.00000   0.00000   0.00000   0.00000   0.00000
  26        6D-1        0.00000   0.00000   0.00000   0.00000  -0.00879
  27        6D+2        0.00000   0.00000  -0.00000  -0.00000   0.00000
  28        6D-2        0.00000   0.00000   0.00000   0.00000   0.00000
                           6         7         8         9        10
                       (PIU)--V  (SGG)--V  (PIG)--V  (PIG)--V  (SGU)--V
     Eigenvalues --     0.69333   1.09813   1.12104   1.12104   1.53124
   1 1   H  1S          0.00000   0.00807   0.00000   0.00000   0.03655
   2        2S          0.00000   0.66859   0.00000   0.00000  13.40485
   3        3S          0.00000  -0.35713   0.00000   0.00000  -0.36518
   4        4PX        -0.05859   0.00000   0.00000  -0.06525   0.00000
   5        4PY         0.00000   0.00000  -0.06525   0.00000   0.00000
   6        4PZ         0.00000  -0.10252   0.00000   0.00000  -0.12804
   7        5PX         0.57757   0.00000   0.00000   1.42957   0.00000
   8        5PY         0.00000   0.00000   1.42957   0.00000   0.00000
   9        5PZ         0.00000   1.07014   0.00000   0.00000  -6.28777
  10        6D 0        0.00000  -0.06929   0.00000   0.00000   0.28503
  11        6D+1        0.00879   0.00000   0.00000  -0.11132   0.00000
  12        6D-1        0.00000   0.00000  -0.11132   0.00000   0.00000
  13        6D+2        0.00000   0.00000   0.00000   0.00000   0.00000
  14        6D-2        0.00000   0.00000   0.00000   0.00000   0.00000
  15 2   H  1S          0.00000   0.00807   0.00000   0.00000  -0.03655
  16        2S          0.00000   0.66859   0.00000   0.00000 -13.40485
  17        3S          0.00000  -0.35713   0.00000   0.00000   0.36518
  18        4PX        -0.05859   0.00000   0.00000   0.06525   0.00000
  19        4PY         0.00000   0.00000   0.06525   0.00000   0.00000
  20        4PZ         0.00000   0.10252   0.00000   0.00000  -0.12804
  21        5PX         0.57757   0.00000   0.00000  -1.42957   0.00000
  22        5PY         0.00000   0.00000  -1.42957   0.00000   0.00000
  23        5PZ         0.00000  -1.07014   0.00000   0.00000  -6.28777
  24        6D 0        0.00000  -0.06929   0.00000   0.00000  -0.28503
  25        6D+1       -0.00879   0.00000   0.00000  -0.11132   0.00000
  26        6D-1        0.00000   0.00000  -0.11132   0.00000   0.00000
  27        6D+2        0.00000   0.00000   0.00000   0.00000  -0.00000
  28        6D-2        0.00000   0.00000   0.00000   0.00000   0.00000
                          11        12        13        14        15
                       (SGU)--V  (SGG)--V  (DLTG)--  (DLTG)--  (PIU)--V
     Eigenvalues --     2.33736   2.40393   3.17618   3.17618   3.41604
   1 1   H  1S         -0.61494  -0.95718  -0.00000   0.00000   0.00000
   2        2S          3.23319   0.98965   0.00000   0.00000   0.00000
   3        3S         -1.32166  -0.38505  -0.00000   0.00000   0.00000
   4        4PX         0.00000   0.00000   0.00000   0.00000   0.00000
   5        4PY         0.00000   0.00000   0.00000   0.00000   0.59330
   6        4PZ        -0.56686   0.10580  -0.00000   0.00000   0.00000
   7        5PX         0.00000   0.00000   0.00000   0.00000   0.00000
   8        5PY         0.00000   0.00000   0.00000   0.00000  -0.35843
   9        5PZ        -0.58868  -0.24774   0.00000   0.00000   0.00000
  10        6D 0        0.41844  -0.10833  -0.00000   0.00000   0.00000
  11        6D+1        0.00000   0.00000   0.00000   0.00000   0.00000
  12        6D-1        0.00000   0.00000   0.00000   0.00000  -0.31457
  13        6D+2       -0.00000  -0.00000   0.60603   0.00000   0.00000
  14        6D-2        0.00000   0.00000   0.00000   0.60603   0.00000
  15 2   H  1S          0.61494  -0.95718  -0.00000   0.00000   0.00000
  16        2S         -3.23319   0.98965   0.00000   0.00000   0.00000
  17        3S          1.32166  -0.38505  -0.00000   0.00000   0.00000
  18        4PX         0.00000   0.00000   0.00000   0.00000   0.00000
  19        4PY         0.00000   0.00000   0.00000   0.00000   0.59330
  20        4PZ        -0.56686  -0.10580   0.00000   0.00000   0.00000
  21        5PX         0.00000   0.00000   0.00000   0.00000   0.00000
  22        5PY         0.00000   0.00000   0.00000   0.00000  -0.35843
  23        5PZ        -0.58868   0.24774  -0.00000   0.00000   0.00000
  24        6D 0       -0.41844  -0.10833  -0.00000   0.00000   0.00000
  25        6D+1        0.00000   0.00000   0.00000   0.00000   0.00000
  26        6D-1        0.00000   0.00000   0.00000   0.00000   0.31457
  27        6D+2        0.00000  -0.00000   0.60603   0.00000   0.00000
  28        6D-2        0.00000   0.00000   0.00000   0.60603   0.00000
                          16        17        18        19        20
                       (PIU)--V  (SGG)--V  (PIG)--V  (PIG)--V  (DLTU)--
     Eigenvalues --     3.41604   3.67713   3.88795   3.88795   4.09133
   1 1   H  1S          0.00000   0.09851   0.00000   0.00000   0.00000
   2        2S          0.00000   0.26093   0.00000   0.00000   0.00000
   3        3S          0.00000  -0.15391   0.00000   0.00000   0.00000
   4        4PX         0.59330   0.00000   0.00000  -0.48346   0.00000
   5        4PY         0.00000   0.00000  -0.48346   0.00000   0.00000
   6        4PZ         0.00000  -0.81787   0.00000   0.00000   0.00000
   7        5PX        -0.35843   0.00000   0.00000   1.14814   0.00000
   8        5PY         0.00000   0.00000   1.14814   0.00000   0.00000
   9        5PZ         0.00000   0.88379   0.00000   0.00000  -0.00000
  10        6D 0        0.00000  -0.44580   0.00000   0.00000   0.00000
  11        6D+1       -0.31457   0.00000   0.00000  -0.84778   0.00000
  12        6D-1        0.00000   0.00000  -0.84778   0.00000   0.00000
  13        6D+2        0.00000  -0.00000   0.00000   0.00000   0.88483
  14        6D-2        0.00000   0.00000   0.00000   0.00000   0.00000
  15 2   H  1S          0.00000   0.09851   0.00000   0.00000  -0.00000
  16        2S          0.00000   0.26093   0.00000   0.00000  -0.00000
  17        3S          0.00000  -0.15391   0.00000   0.00000  -0.00000
  18        4PX         0.59330   0.00000   0.00000   0.48346   0.00000
  19        4PY         0.00000   0.00000   0.48346   0.00000   0.00000
  20        4PZ         0.00000   0.81787   0.00000   0.00000   0.00000
  21        5PX        -0.35843   0.00000   0.00000  -1.14814   0.00000
  22        5PY         0.00000   0.00000  -1.14814   0.00000   0.00000
  23        5PZ         0.00000  -0.88379   0.00000   0.00000  -0.00000
  24        6D 0        0.00000  -0.44580   0.00000   0.00000  -0.00000
  25        6D+1        0.31457   0.00000   0.00000  -0.84778   0.00000
  26        6D-1        0.00000   0.00000  -0.84778   0.00000   0.00000
  27        6D+2        0.00000  -0.00000   0.00000   0.00000  -0.88483
  28        6D-2        0.00000   0.00000   0.00000   0.00000   0.00000
                          21        22        23        24        25
                       (DLTU)--  (PIU)--V  (PIU)--V  (SGU)--V  (PIG)--V
     Eigenvalues --     4.09133   4.12032   4.12032   4.67855   5.75516
   1 1   H  1S          0.00000   0.00000   0.00000   0.70808   0.00000
   2        2S          0.00000   0.00000   0.00000   7.23194   0.00000
   3        3S          0.00000   0.00000   0.00000   0.10230   0.00000
   4        4PX         0.00000   0.65111   0.00000   0.00000   0.00000
   5        4PY         0.00000   0.00000   0.65111   0.00000  -1.09751
   6        4PZ         0.00000   0.00000   0.00000   0.20200   0.00000
   7        5PX         0.00000  -0.24499   0.00000   0.00000   0.00000
   8        5PY         0.00000   0.00000  -0.24499   0.00000  -0.47664
   9        5PZ         0.00000   0.00000   0.00000  -3.75886   0.00000
  10        6D 0        0.00000   0.00000   0.00000   0.95317   0.00000
  11        6D+1        0.00000   0.57124   0.00000   0.00000   0.00000
  12        6D-1        0.00000   0.00000   0.57124   0.00000   1.36366
  13        6D+2        0.00000   0.00000   0.00000  -0.00000   0.00000
  14        6D-2        0.88483   0.00000   0.00000   0.00000   0.00000
  15 2   H  1S          0.00000   0.00000   0.00000  -0.70808   0.00000
  16        2S          0.00000   0.00000   0.00000  -7.23194   0.00000
  17        3S          0.00000   0.00000   0.00000  -0.10230   0.00000
  18        4PX         0.00000   0.65111   0.00000   0.00000   0.00000
  19        4PY         0.00000   0.00000   0.65111   0.00000   1.09751
  20        4PZ         0.00000   0.00000   0.00000   0.20200   0.00000
  21        5PX         0.00000  -0.24499   0.00000   0.00000   0.00000
  22        5PY         0.00000   0.00000  -0.24499   0.00000   0.47664
  23        5PZ         0.00000   0.00000   0.00000  -3.75886   0.00000
  24        6D 0        0.00000   0.00000   0.00000  -0.95317   0.00000
  25        6D+1        0.00000  -0.57124   0.00000   0.00000   0.00000
  26        6D-1        0.00000   0.00000  -0.57124   0.00000   1.36366
  27        6D+2        0.00000   0.00000   0.00000   0.00000   0.00000
  28        6D-2       -0.88483   0.00000   0.00000   0.00000   0.00000
                          26        27        28
                       (PIG)--V  (SGG)--V  (SGU)--V
     Eigenvalues --     5.75516   5.83329   7.00157
   1 1   H  1S          0.00000   1.22705   1.60454
   2        2S          0.00000  -0.58501   4.34218
   3        3S          0.00000   0.09585  -0.60568
   4        4PX        -1.09751   0.00000   0.00000
   5        4PY         0.00000   0.00000   0.00000
   6        4PZ         0.00000  -0.00569  -1.98255
   7        5PX        -0.47664   0.00000   0.00000
   8        5PY         0.00000   0.00000   0.00000
   9        5PZ         0.00000   0.71504  -1.66016
  10        6D 0        0.00000  -1.12343   1.01158
  11        6D+1        1.36366   0.00000   0.00000
  12        6D-1        0.00000   0.00000   0.00000
  13        6D+2        0.00000  -0.00000  -0.00000
  14        6D-2        0.00000   0.00000   0.00000
  15 2   H  1S          0.00000   1.22705  -1.60454
  16        2S          0.00000  -0.58501  -4.34218
  17        3S          0.00000   0.09585   0.60568
  18        4PX         1.09751   0.00000   0.00000
  19        4PY         0.00000   0.00000   0.00000
  20        4PZ         0.00000   0.00569  -1.98255
  21        5PX         0.47664   0.00000   0.00000
  22        5PY         0.00000   0.00000   0.00000
  23        5PZ         0.00000  -0.71504  -1.66016
  24        6D 0        0.00000  -1.12343  -1.01158
  25        6D+1        1.36366   0.00000   0.00000
[...]
  25        6D+1        0.00000   0.00000   0.00000  -0.00000   0.00000
  26        6D-1        0.00000   0.00000   0.00000   0.00000  -0.00000
  27        6D+2        0.00000   0.00000   0.00000   0.00000  -0.00000
  28        6D-2        0.00000   0.00000   0.00000  -0.00000   0.00000
                           6         7         8         9        10
   6        4PZ         0.00029
   7        5PX        -0.00000   0.00000
   8        5PY         0.00000   0.00000   0.00000
   9        5PZ         0.00026  -0.00000   0.00000   0.00059
  10        6D 0        0.00000   0.00000   0.00000   0.00000   0.00000
  11        6D+1        0.00000   0.00000   0.00000   0.00000   0.00000
  12        6D-1        0.00000   0.00000   0.00000   0.00000   0.00000
  13        6D+2        0.00000   0.00000   0.00000   0.00000   0.00000
  14        6D-2        0.00000   0.00000   0.00000   0.00000   0.00000
  15 2   H  1S          0.00189   0.00000   0.00000   0.00366   0.00014
  16        2S          0.00176   0.00000   0.00000   0.00545   0.00006
  17        3S          0.00022   0.00000   0.00000   0.00105   0.00000
  18        4PX         0.00000  -0.00000   0.00000   0.00000   0.00000
  19        4PY         0.00000   0.00000  -0.00000   0.00000   0.00000
  20        4PZ         0.00013   0.00000   0.00000   0.00002   0.00000
  21        5PX         0.00000  -0.00000   0.00000   0.00000   0.00000
  22        5PY         0.00000   0.00000  -0.00000   0.00000   0.00000
  23        5PZ         0.00002   0.00000   0.00000  -0.00010  -0.00000
  24        6D 0        0.00000   0.00000   0.00000  -0.00000  -0.00000
  25        6D+1        0.00000  -0.00000   0.00000   0.00000   0.00000
  26        6D-1        0.00000   0.00000  -0.00000   0.00000   0.00000
  27        6D+2        0.00000   0.00000  -0.00000   0.00000   0.00000
  28        6D-2        0.00000  -0.00000   0.00000   0.00000   0.00000
                          11        12        13        14        15
  11        6D+1        0.00000
  12        6D-1        0.00000   0.00000
  13        6D+2        0.00000  -0.00000  -0.00000
  14        6D-2        0.00000  -0.00000   0.00000   0.00000
  15 2   H  1S          0.00000   0.00000   0.00000   0.00000   0.07015
  16        2S          0.00000   0.00000   0.00000   0.00000   0.07499
  17        3S          0.00000   0.00000   0.00000   0.00000   0.01880
  18        4PX        -0.00000   0.00000   0.00000  -0.00000   0.00000
  19        4PY         0.00000  -0.00000  -0.00000  -0.00000   0.00000
  20        4PZ         0.00000   0.00000   0.00000   0.00000   0.00000
  21        5PX        -0.00000   0.00000   0.00000  -0.00000   0.00000
  22        5PY         0.00000  -0.00000  -0.00000  -0.00000   0.00000
  23        5PZ         0.00000   0.00000   0.00000   0.00000   0.00000
  24        6D 0        0.00000   0.00000   0.00000   0.00000   0.00000
  25        6D+1       -0.00000   0.00000   0.00000  -0.00000   0.00000
  26        6D-1        0.00000  -0.00000  -0.00000  -0.00000   0.00000
  27        6D+2        0.00000  -0.00000  -0.00000   0.00000   0.00000
  28        6D-2        0.00000  -0.00000   0.00000   0.00000   0.00000
                          16        17        18        19        20
  16        2S          0.16072
  17        3S          0.06010   0.03611
  18        4PX         0.00000   0.00000   0.00000
  19        4PY         0.00000   0.00000   0.00000   0.00000
  20        4PZ         0.00000   0.00000   0.00000   0.00000   0.00029
  21        5PX         0.00000   0.00000   0.00000   0.00000   0.00000
  22        5PY         0.00000   0.00000   0.00000   0.00000   0.00000
  23        5PZ         0.00000   0.00000   0.00000   0.00000   0.00026
  24        6D 0        0.00000   0.00000   0.00000   0.00000   0.00000
  25        6D+1        0.00000   0.00000   0.00000   0.00000   0.00000
  26        6D-1        0.00000   0.00000   0.00000   0.00000   0.00000
  27        6D+2        0.00000   0.00000   0.00000   0.00000   0.00000
  28        6D-2        0.00000   0.00000   0.00000   0.00000   0.00000
                          21        22        23        24        25
  21        5PX         0.00000
  22        5PY         0.00000   0.00000
  23        5PZ         0.00000   0.00000   0.00059
  24        6D 0        0.00000   0.00000   0.00000   0.00000
  25        6D+1        0.00000   0.00000   0.00000   0.00000   0.00000
  26        6D-1        0.00000   0.00000   0.00000   0.00000   0.00000
  27        6D+2        0.00000   0.00000   0.00000   0.00000   0.00000
  28        6D-2        0.00000   0.00000   0.00000   0.00000   0.00000
                          26        27        28
  26        6D-1        0.00000
  27        6D+2        0.00000  -0.00000
  28        6D-2        0.00000   0.00000   0.00000
     Gross orbital populations:
                           1
   1 1   H  1S          0.25014
   2        2S          0.51778
   3        3S          0.21637
   4        4PX         0.00000
   5        4PY         0.00000
   6        4PZ         0.00457
   7        5PX         0.00000
   8        5PY         0.00000
   9        5PZ         0.01094
  10        6D 0        0.00019
  11        6D+1        0.00000
  12        6D-1        0.00000
  13        6D+2       -0.00000
  14        6D-2        0.00000
  15 2   H  1S          0.25014
  16        2S          0.51778
  17        3S          0.21637
  18        4PX         0.00000
  19        4PY         0.00000
  20        4PZ         0.00457
  21        5PX         0.00000
  22        5PY         0.00000
  23        5PZ         0.01094
  24        6D 0        0.00019
  25        6D+1       -0.00000
  26        6D-1       -0.00000
  27        6D+2       -0.00000
  28        6D-2        0.00000
          Condensed to atoms (all electrons):
              1          2
     1  H    0.576166   0.423834
     2  H    0.423834   0.576166
 Mulliken atomic charges:
              1
     1  H   -0.000000
     2  H   -0.000000
 Sum of Mulliken atomic charges =  -0.00000
 Mulliken charges with hydrogens summed into heavy atoms:
              1
 Sum of Mulliken charges with hydrogens summed into heavy atoms =  -0.00000
 APT atomic charges:
              1
     1  H    0.000000
     2  H    0.000000
 Sum of APT charges=   0.00000
 APT Atomic charges with hydrogens summed into heavy atoms:
              1
     1  H    0.000000
     2  H    0.000000
 Sum of APT charges=   0.00000
 Electronic spatial extent (au):  <R**2>=              5.1479
 Charge=              0.0000 electrons
 Dipole moment (field-independent basis, Debye):
    X=             -0.0000    Y=              0.0000    Z=              0.0000  Tot=              0.0000
 Quadrupole moment (field-independent basis, Debye-Ang):
   XX=             -2.0810   YY=             -2.0810   ZZ=             -1.4670
   XY=             -0.0000   XZ=             -0.0000   YZ=              0.0000
 Traceless Quadrupole moment (field-independent basis, Debye-Ang):
   XX=             -0.2047   YY=             -0.2047   ZZ=              0.4093
   XY=             -0.0000   XZ=             -0.0000   YZ=              0.0000
 Octapole moment (field-independent basis, Debye-Ang**2):
  XXX=             -0.0000  YYY=             -0.0000  ZZZ=             -0.0000  XYY=             -0.0000
  XXY=              0.0000  XXZ=              0.0000  XZZ=             -0.0000  YZZ=              0.0000
  YYZ=              0.0000  XYZ=              0.0000
 Hexadecapole moment (field-independent basis, Debye-Ang**3):
 XXXX=             -2.0860 YYYY=             -2.0860 ZZZZ=             -2.8271 XXXY=             -0.0000
 XXXZ=              0.0000 YYYX=             -0.0000 YYYZ=              0.0000 ZZZX=              0.0000
 ZZZY=              0.0000 XXYY=             -0.6953 XXZZ=             -0.8367 YYZZ=             -0.8367
 XXYZ=              0.0000 YYXZ=              0.0000 ZZXY=             -0.0000
 N-N= 7.205753151799D-01 E-N=-3.644088337343D+00  KE= 1.129811760482D+00
 Symmetry AG   KE= 1.129811760482D+00
 Symmetry B1G  KE= 4.460346750226D-54
 Symmetry B2G  KE= 6.708576037002D-33
 Symmetry B3G  KE= 6.708576037002D-33
 Symmetry AU   KE= 3.133339868013D-69
 Symmetry B1U  KE= 6.114918313036D-30
 Symmetry B2U  KE= 1.460453311654D-34
 Symmetry B3U  KE= 1.460453311654D-34
 Orbital energies and kinetic energies (alpha):
                                 1                 2
   1 (SGG)--O                 -0.596427          0.564906
   2 (SGU)--V                  0.168042          0.274299
   3 (SGG)--V                  0.304478          0.483117
   4 (SGU)--V                  0.646069          1.039969
   5 (PIU)--V                  0.693331          0.865044
   6 (PIU)--V                  0.693331          0.865044
   7 (SGG)--V                  1.098133          1.251189
   8 (PIG)--V                  1.121036          1.208791
   9 (PIG)--V                  1.121036          1.208791
  10 (SGU)--V                  1.531241          1.577597
  11 (SGU)--V                  2.337358          3.292650
  12 (SGG)--V                  2.403928          3.431164
  13 (DLTG)--V                 3.176175          3.413914
  14 (DLTG)--V                 3.176175          3.413914
  15 (PIU)--V                  3.416035          3.908402
  16 (PIU)--V                  3.416035          3.908402
  17 (SGG)--V                  3.677126          4.215823
  18 (PIG)--V                  3.887949          4.264285
  19 (PIG)--V                  3.887949          4.264285
  20 (DLTU)--V                 4.091330          4.308282
  21 (DLTU)--V                 4.091330          4.308282
  22 (PIU)--V                  4.120318          4.453674
  23 (PIU)--V                  4.120318          4.453674
  24 (SGU)--V                  4.678545          5.111920
  25 (PIG)--V                  5.755161          6.171529
  26 (PIG)--V                  5.755161          6.171529
  27 (SGG)--V                  5.833292          6.507889
  28 (SGU)--V                  7.001573          8.491544
 Total kinetic energy from orbitals= 1.129811760482D+00
  Exact polarizability:   2.601   0.000   2.601  -0.000   0.000   6.488
 Approx polarizability:   2.052  -0.000   2.052  -0.000  -0.000   4.891
 No NMR shielding tensors so no spin-rotation constants.
 Leave Link  601 at Sat Aug 17 22:44:45 2024, MaxMem=   13107200 cpu:       0.1
 (Enter /programs/64bit/g09/g09-gfortran/bin/l701.exe)
 Compute integral second derivatives.
 ... and contract with generalized density number  0.
 Leave Link  701 at Sat Aug 17 22:44:45 2024, MaxMem=   13107200 cpu:       0.2
 (Enter /programs/64bit/g09/g09-gfortran/bin/l702.exe)
 L702 exits ... SP integral derivatives will be done elsewhere.
 Leave Link  702 at Sat Aug 17 22:44:45 2024, MaxMem=   13107200 cpu:       0.1
 (Enter /programs/64bit/g09/g09-gfortran/bin/l703.exe)
 Compute integral second derivatives, UseDBF=F ICtDFT=           0.
 Integral derivatives from FoFDir, PRISM(SPDF).
 Calling FoFJK, ICntrl=    100127 FMM=F ISym2X=1 I1Cent= 0 IOpClX= 0 NMat=1 NMatS=1 NMatT=0.
 FoFCou: FMM=F IPFlag=           0 FMFlag=      100000 FMFlg1=         800
         NFxFlg=           0 DoJE=F BraDBF=F KetDBF=F FulRan=T
         Omega=  0.000000  0.000000  1.000000  0.000000  0.000000 ICntrl=  100127 IOpCl=  0
         NMat0=    1 NMatS0=    1 NMatT0=    0 NMatD0=    1 NMtDS0=    0 NMtDT0=    0
         I1Cent=           0 NGrid=           0.
 Petite list used in FoFCou.
 Leave Link  703 at Sat Aug 17 22:44:46 2024, MaxMem=   13107200 cpu:       0.4
 (Enter /programs/64bit/g09/g09-gfortran/bin/l716.exe)
 Dipole        =-1.23259516D-32 1.44444746D-34-2.03017597D-17
 Polarizability= 2.60069108D+00 0.00000000D+00 2.60069108D+00
                -3.77042134D-16 0.00000000D+00 6.48792178D+00
 HyperPolar    =-2.85522207D-16-9.51740691D-17-9.51740691D-17
                -2.85522207D-16 5.44767294D-15-1.53677196D-30
                -2.95586271D-16 3.00748105D-16 3.00748105D-16
                 1.38428156D-13
 Full mass-weighted force constant matrix:
 Low frequencies ---  -34.3703  -34.3703   -0.0000    0.0001    0.0003 4587.9722
 Diagonal vibrational polarizability:
        0.0000000       0.0000000       0.0000000
 Diagonal vibrational hyperpolarizability:
        0.0000000       0.0000000       0.0000000
 Harmonic frequencies (cm**-1), IR intensities (KM/Mole), Raman scattering
 activities (A**4/AMU), depolarization ratios for plane and unpolarized
 incident light, reduced masses (AMU), force constants (mDyne/A),
 and normal coordinates:
                     1
                    SGG
 Frequencies --  4587.9722
 Red. masses --     1.0078
 Frc consts  --    12.4990
 IR Inten    --     0.0000
 Raman Activ --   111.5269
 Depolar (P) --     0.1801
 Depolar (U) --     0.3052
  Atom  AN      X      Y      Z
     1   1    -0.00   0.00   0.71
     2   1     0.00   0.00  -0.71

 -------------------
 - Thermochemistry -
 -------------------
 Temperature   298.150 Kelvin.  Pressure   1.00000 Atm.
 Atom     1 has atomic number  1 and mass   1.00783
 Atom     2 has atomic number  1 and mass   1.00783
 Molecular mass:     2.01565 amu.
 Principal axes and moments of inertia in atomic units:
                           1         2         3
     Eigenvalues --     0.00000   0.97050   0.97050
           X           -0.00000   1.00000  -0.00000
           Y            0.00000   0.00000   1.00000
           Z            1.00000   0.00000  -0.00000
 This molecule is a prolate symmetric top.
 Rotational symmetry number  2.
 Rotational temperature (Kelvin)     89.24641
 Rotational constant (GHZ):        1859.595759
 Zero-point vibrational energy      27442.2 (Joules/Mol)
                                    6.55884 (Kcal/Mol)
 Vibrational temperatures:   6601.06
          (Kelvin)
 
 Zero-point correction=                           0.010452 (Hartree/Particle)
 Thermal correction to Energy=                    0.012813
 Thermal correction to Enthalpy=                  0.013757
 Thermal correction to Gibbs Free Energy=        -0.001014
 Sum of electronic and zero-point Energies=             -1.122538
 Sum of electronic and thermal Energies=                -1.120177
 Sum of electronic and thermal Enthalpies=              -1.119233
 Sum of electronic and thermal Free Energies=           -1.134003
 
                     E (Thermal)             CV                S
                      KCal/Mol        Cal/Mol-Kelvin    Cal/Mol-Kelvin
 Total                    8.040              4.968             31.087
 Electronic               0.000              0.000              0.000
 Translational            0.889              2.981             28.080
 Rotational               0.592              1.987              3.007
 Vibrational              6.559              0.000              0.000
                       Q            Log10(Q)             Ln(Q)
 Total Bot       0.292575D+01          0.466238          1.073552
 Total V=0       0.187885D+06          5.273892         12.143585
 Vib (Bot)       0.155721D-04         -4.807654        -11.070033
 Vib (V=0)       0.100000D+01          0.000000          0.000000
 Electronic      0.100000D+01          0.000000          0.000000
 Translational   0.112481D+06          5.051078         11.630537
 Rotational      0.167038D+01          0.222814          0.513048
 ***** Axes restored to original set *****
 -------------------------------------------------------------------
 Center     Atomic                   Forces (Hartrees/Bohr)
 Number     Number              X              Y              Z
 -------------------------------------------------------------------
      1        1           0.000000000   -0.000000000   -0.000031263
      2        1          -0.000000000    0.000000000    0.000031263
 -------------------------------------------------------------------
 Cartesian Forces:  Max     0.000031263 RMS     0.000018050
 Force constants in Cartesian coordinates: 
                1             2             3             4             5 
      1 -0.225275D-04
      2  0.000000D+00 -0.225275D-04
      3  0.000000D+00  0.000000D+00  0.401410D+00
      4  0.225275D-04  0.000000D+00  0.000000D+00 -0.225275D-04
      5  0.000000D+00  0.225275D-04  0.000000D+00  0.000000D+00 -0.225275D-04
      6  0.000000D+00  0.000000D+00 -0.401410D+00  0.000000D+00  0.000000D+00
                6 
      6  0.401410D+00
 Force constants in internal coordinates: 
                1 
      1  0.401410D+00
 Leave Link  716 at Sat Aug 17 22:44:46 2024, MaxMem=   13107200 cpu:       0.0
 (Enter /programs/64bit/g09/g09-gfortran/bin/l103.exe)

 GradGradGradGradGradGradGradGradGradGradGradGradGradGradGradGradGradGrad
 Berny optimization.
 Internal  Forces:  Max     0.000031263 RMS     0.000031263
 Search for a local minimum.
 Step number   1 out of a maximum of    2
 All quantities printed in internal units (Hartrees-Bohrs-Radians)
 Second derivative matrix not updated -- analytic derivatives used.
 The second derivative matrix:
                          R1
           R1           0.40141
     Eigenvalues ---    0.40141
 Angle between quadratic step and forces=   0.00 degrees.
 Linear search not attempted -- first point.
 Iteration  1 RMS(Cart)=  0.00005507 RMS(Int)=  0.00000000
 Iteration  2 RMS(Cart)=  0.00000000 RMS(Int)=  0.00000000
 ClnCor:  largest displacement from symmetrization is 2.38D-21 for atom     1.
 Variable       Old X    -DE/DX   Delta X   Delta X   Delta X     New X
                                 (Linear)    (Quad)   (Total)
    R1        1.38778   0.00003   0.00000   0.00008   0.00008   1.38786
         Item               Value     Threshold  Converged?
 Maximum Force            0.000031     0.000450     YES
 RMS     Force            0.000031     0.000300     YES
 Maximum Displacement     0.000039     0.001800     YES
 RMS     Displacement     0.000055     0.001200     YES
 Predicted change in Energy=-1.217450D-09
 Optimization completed.
    -- Stationary point found.
                           ----------------------------
                           !   Optimized Parameters   !
                           ! (Angstroms and Degrees)  !
 --------------------------                            --------------------------
 ! Name  Definition              Value          Derivative Info.                !
 --------------------------------------------------------------------------------
 ! R1    R(1,2)                  0.7344         -DE/DX =    0.0                 !
 --------------------------------------------------------------------------------
 GradGradGradGradGradGradGradGradGradGradGradGradGradGradGradGradGradGrad

 Leave Link  103 at Sat Aug 17 22:44:46 2024, MaxMem=   13107200 cpu:       0.0
 (Enter /programs/64bit/g09/g09-gfortran/bin/l9999.exe)
 1\1\GINC-MOLMOD\Freq\RHF\CC-pVTZ\H2\OSPITE\17-Aug-2024\0\\#P Geom=AllC
 heck Guess=TCheck SCRF=Check GenChk RHF/CC-pVTZ Freq\\hydogen (molecul
 e) with cc-pVTZ basis set\\0,1\H,0.,0.,0.0028092307\H,0.,0.,0.73719076
 93\\Version=EM64L-G09RevA.02\State=1-SGG\HF=-1.1329897\RMSD=2.647e-11\
 RMSF=1.805e-05\ZeroPoint=0.0104522\Thermal=0.0128126\Dipole=0.,0.,0.\D
 ipoleDeriv=0.,0.,0.,0.,0.,0.,0.,0.,0.,0.,0.,0.,0.,0.,0.,0.,0.,0.\Polar
 =2.6006911,0.,2.6006911,0.,0.,6.4879218\PolarDeriv=0.,0.,0.,-2.8010425
 ,0.,0.,0.,0.,0.,0.,-2.8010425,0.,-1.1900772,0.,-1.1900772,0.,0.,-7.227
 4987,0.,0.,0.,2.8010425,0.,0.,0.,0.,0.,0.,2.8010425,0.,1.1900772,0.,1.
 1900772,0.,0.,7.2274987\HyperPolar=0.,0.,0.,0.,0.,0.,0.,0.,0.,0.\PG=D*
 H [C*(H1.H1)]\NImag=0\\-0.00002253,0.,-0.00002253,0.,0.,0.40140996,0.0
 0002253,0.,0.,-0.00002253,0.,0.00002253,0.,0.,-0.00002253,0.,0.,-0.401
 40996,0.,0.,0.40140996\\0.,0.,0.00003126,0.,0.,-0.00003126\\\@


 Just remember, when you're over the hill, you begin to pick up speed.
 -- Charles Schulz
 Job cpu time:  0 days  0 hours  0 minutes  2.8 seconds.
 File lengths (MBytes):  RWF=      5 Int=      0 D2E=      0 Chk=      1 Scr=      1
 Normal termination of Gaussian 09 at Sat Aug 17 22:44:46 2024.
