 Entering Gaussian System, Link 0=/programs/64bit/g09/g09-gfortran/bin/g09
 Input=h2_cc-pVQZ.com
 Output=h2_cc-pVQZ.log
 Initial command:
 /programs/64bit/g09/g09-gfortran/bin/l1.exe /home/ospite/Desktop/MMfP/Project6/H2/g09/HF/Gau-8058.inp -scrdir=/home/ospite/Desktop/MMfP/Project6/H2/g09/HF/
 Entering Link 1 = /programs/64bit/g09/g09-gfortran/bin/l1.exe PID=      8059.
  
 Copyright (c) 1988,1990,1992,1993,1995,1998,2003,2009, Gaussian, Inc.
                  All Rights Reserved.
  
 This is part of the Gaussian(R) 09 program.  It is based on
 the Gaussian(R) 03 system (copyright 2003, Gaussian, Inc.),
 the Gaussian(R) 98 system (copyright 1998, Gaussian, Inc.),
 the Gaussian(R) 94 system (copyright 1995, Gaussian, Inc.),
 the Gaussian 92(TM) system (copyright 1992, Gaussian, Inc.),
 the Gaussian 90(TM) system (copyright 1990, Gaussian, Inc.),
 the Gaussian 88(TM) system (copyright 1988, Gaussian, Inc.),
 the Gaussian 86(TM) system (copyright 1986, Carnegie Mellon
 University), and the Gaussian 82(TM) system (copyright 1983,
 Carnegie Mellon University). Gaussian is a federally registered
 trademark of Gaussian, Inc.
  
 This software contains proprietary and confidential information,
 including trade secrets, belonging to Gaussian, Inc.
  
 This software is provided under written license and may be
 used, copied, transmitted, or stored only in accord with that
 written license.
  
 The following legend is applicable only to US Government
 contracts under FAR:
  
                    RESTRICTED RIGHTS LEGEND
  
 Use, reproduction and disclosure by the US Government is
 subject to restrictions as set forth in subparagraphs (a)
 and (c) of the Commercial Computer Software - Restricted
 Rights clause in FAR 52.227-19.
  
 Gaussian, Inc.
 340 Quinnipiac St., Bldg. 40, Wallingford CT 06492
  
  
 ---------------------------------------------------------------
 Warning -- This program may not be used in any manner that
 competes with the business of Gaussian, Inc. or will provide
 assistance to any competitor of Gaussian, Inc.  The licensee
 of this program is prohibited from giving any competitor of
 Gaussian, Inc. access to this program.  By using this program,
 the user acknowledges that Gaussian, Inc. is engaged in the
 business of creating and licensing software in the field of
 computational chemistry and represents and warrants to the
 licensee that it is not a competitor of Gaussian, Inc. and that
 it will not use this program in any manner prohibited above.
 ---------------------------------------------------------------
  

 Cite this work as:
 Gaussian 09, Revision A.02,
 M. J. Frisch, G. W. Trucks, H. B. Schlegel, G. E. Scuseria, 
 M. A. Robb, J. R. Cheeseman, G. Scalmani, V. Barone, B. Mennucci, 
 G. A. Petersson, H. Nakatsuji, M. Caricato, X. Li, H. P. Hratchian, 
 A. F. Izmaylov, J. Bloino, G. Zheng, J. L. Sonnenberg, M. Hada, 
 M. Ehara, K. Toyota, R. Fukuda, J. Hasegawa, M. Ishida, T. Nakajima, 
 Y. Honda, O. Kitao, H. Nakai, T. Vreven, J. A. Montgomery, Jr., 
 J. E. Peralta, F. Ogliaro, M. Bearpark, J. J. Heyd, E. Brothers, 
 K. N. Kudin, V. N. Staroverov, R. Kobayashi, J. Normand, 
 K. Raghavachari, A. Rendell, J. C. Burant, S. S. Iyengar, J. Tomasi, 
 M. Cossi, N. Rega, J. M. Millam, M. Klene, J. E. Knox, J. B. Cross, 
 V. Bakken, C. Adamo, J. Jaramillo, R. Gomperts, R. E. Stratmann, 
 O. Yazyev, A. J. Austin, R. Cammi, C. Pomelli, J. W. Ochterski, 
 R. L. Martin, K. Morokuma, V. G. Zakrzewski, G. A. Voth, 
 P. Salvador, J. J. Dannenberg, S. Dapprich, A. D. Daniels, 
 O. Farkas, J. B. Foresman, J. V. Ortiz, J. Cioslowski, 
 and D. J. Fox, Gaussian, Inc., Wallingford CT, 2009.
 
 ******************************************
 Gaussian 09:  EM64L-G09RevA.02 11-Jun-2009
                18-Aug-2024 
 ******************************************
 %mem=100MB
 ---------------------------------------
 #p hf/cc-pVQZ opt freq pop=full gfinput
 ---------------------------------------
 1/18=20,19=15,38=1/1,3;
 2/9=110,12=2,17=6,18=5,40=1/2;
 3/5=16,6=2,11=9,16=1,24=10,25=1,30=1,71=1/1,2,3;
 4//1;
 5/5=2,38=5/2;
 6/7=3,28=1/1;
 7//1,2,3,16;
 1/18=20,19=15/3(2);
 2/9=110/2;
 99//99;
 2/9=110/2;
 3/5=16,6=2,11=9,16=1,25=1,30=1,71=1/1,2,3;
 4/5=5,16=3/1;
 5/5=2,38=5/2;
 7//1,2,3,16;
 1/18=20,19=15/3(-5);
 2/9=110/2;
 6/7=3,19=2,28=1/1;
 99/9=1/99;
 Leave Link    1 at Sun Aug 18 15:11:05 2024, MaxMem=   13107200 cpu:       0.1
 (Enter /programs/64bit/g09/g09-gfortran/bin/l101.exe)
 -----------------------------------------
 hydogen (molecule) with cc-pVQZ basis set
 -----------------------------------------
 Symbolic Z-matrix:
 Charge =  0 Multiplicity = 1
 H1
 H2                   1    d
       Variables:
  d                     0.74                     
 
 NAtoms=      2 NQM=      2 NQMF=      0 NMic=      0 NMicF=      0 NTot=      2.
                    Isotopes and Nuclear Properties:
 (Nuclear quadrupole moments (NQMom) in fm**2, nuclear magnetic moments (NMagM)
  in nuclear magnetons)

  Atom         1           2
 IAtWgt=           1           1
 AtmWgt=   1.0078250   1.0078250
 NucSpn=           1           1
 AtZEff=   0.0000000   0.0000000
 NQMom=    0.0000000   0.0000000
 NMagM=    2.7928460   2.7928460
 Leave Link  101 at Sun Aug 18 15:11:05 2024, MaxMem=   13107200 cpu:       0.1
 (Enter /programs/64bit/g09/g09-gfortran/bin/l103.exe)

 GradGradGradGradGradGradGradGradGradGradGradGradGradGradGradGradGradGrad
 Berny optimization.
 Initialization pass.
                           ----------------------------
                           !    Initial Parameters    !
                           ! (Angstroms and Degrees)  !
 --------------------------                            --------------------------
 ! Name  Definition              Value          Derivative Info.                !
 --------------------------------------------------------------------------------
 ! R1    R(1,2)                  0.74           estimate D2E/DX2                !
 --------------------------------------------------------------------------------
 Trust Radius=3.00D-01 FncErr=1.00D-07 GrdErr=1.00D-07
 Number of steps in this run=  20 maximum allowed number of steps= 100.
 GradGradGradGradGradGradGradGradGradGradGradGradGradGradGradGradGradGrad

 Leave Link  103 at Sun Aug 18 15:11:05 2024, MaxMem=   13107200 cpu:       0.0
 (Enter /programs/64bit/g09/g09-gfortran/bin/l202.exe)
                          Input orientation:                          
 ---------------------------------------------------------------------
 Center     Atomic      Atomic             Coordinates (Angstroms)
 Number     Number       Type             X           Y           Z
 ---------------------------------------------------------------------
      1          1           0        0.000000    0.000000    0.000000
      2          1           0        0.000000    0.000000    0.740000
 ---------------------------------------------------------------------
 Stoichiometry    H2
 Framework group  D*H[C*(H.H)]
 Deg. of freedom     1
 Full point group                 D*H     NOp   8
 Largest Abelian subgroup         D2H     NOp   8
 Largest concise Abelian subgroup C2      NOp   2
                         Standard orientation:                         
 ---------------------------------------------------------------------
 Center     Atomic      Atomic             Coordinates (Angstroms)
 Number     Number       Type             X           Y           Z
 ---------------------------------------------------------------------
      1          1           0        0.000000    0.000000    0.370000
      2          1           0        0.000000    0.000000   -0.370000
 ---------------------------------------------------------------------
 Rotational constants (GHZ):      0.0000000   1831.4649389   1831.4649389
 Leave Link  202 at Sun Aug 18 15:11:05 2024, MaxMem=   13107200 cpu:       0.0
 (Enter /programs/64bit/g09/g09-gfortran/bin/l301.exe)
 Standard basis: CC-pVQZ (5D, 7F)
 Ernie: Thresh=  0.10000D-02 Tol=  0.10000D-05 Strict=F.
 AO basis set in the form of general basis input (Overlap normalization):
      1 0
 S   3 1.00       0.000000000000
      0.8264000000D+02  0.2295075779D-01
      0.1241000000D+02  0.1755401181D+00
      0.2824000000D+01  0.8647035510D+00
 S   1 1.00       0.000000000000
      0.7977000000D+00  0.1000000000D+01
 S   1 1.00       0.000000000000
      0.2581000000D+00  0.1000000000D+01
 S   1 1.00       0.000000000000
      0.8989000000D-01  0.1000000000D+01
 P   1 1.00       0.000000000000
      0.2292000000D+01  0.1000000000D+01
 P   1 1.00       0.000000000000
      0.8380000000D+00  0.1000000000D+01
 P   1 1.00       0.000000000000
      0.2920000000D+00  0.1000000000D+01
 D   1 1.00       0.000000000000
      0.2062000000D+01  0.1000000000D+01
 D   1 1.00       0.000000000000
      0.6620000000D+00  0.1000000000D+01
 F   1 1.00       0.000000000000
      0.1397000000D+01  0.1000000000D+01
 ****
      2 0
 S   3 1.00       0.000000000000
      0.8264000000D+02  0.2295075779D-01
      0.1241000000D+02  0.1755401181D+00
      0.2824000000D+01  0.8647035510D+00
 S   1 1.00       0.000000000000
      0.7977000000D+00  0.1000000000D+01
 S   1 1.00       0.000000000000
      0.2581000000D+00  0.1000000000D+01
 S   1 1.00       0.000000000000
      0.8989000000D-01  0.1000000000D+01
 P   1 1.00       0.000000000000
      0.2292000000D+01  0.1000000000D+01
 P   1 1.00       0.000000000000
      0.8380000000D+00  0.1000000000D+01
 P   1 1.00       0.000000000000
      0.2920000000D+00  0.1000000000D+01
 D   1 1.00       0.000000000000
      0.2062000000D+01  0.1000000000D+01
 D   1 1.00       0.000000000000
      0.6620000000D+00  0.1000000000D+01
 F   1 1.00       0.000000000000
      0.1397000000D+01  0.1000000000D+01
 ****

 There are    13 symmetry adapted basis functions of AG  symmetry.
 There are     3 symmetry adapted basis functions of B1G symmetry.
 There are     7 symmetry adapted basis functions of B2G symmetry.
 There are     7 symmetry adapted basis functions of B3G symmetry.
 There are     3 symmetry adapted basis functions of AU  symmetry.
 There are    13 symmetry adapted basis functions of B1U symmetry.
 There are     7 symmetry adapted basis functions of B2U symmetry.
 There are     7 symmetry adapted basis functions of B3U symmetry.
 Integral buffers will be    131072 words long.
 Raffenetti 1 integral format.
 Two-electron integral symmetry is turned on.
    60 basis functions,    74 primitive gaussians,    70 cartesian basis functions
     1 alpha electrons        1 beta electrons
       nuclear repulsion energy         0.7151043359 Hartrees.
 IExCor=    0 DFT=F Ex=HF Corr=None ExCW=0 ScaHFX=  1.000000
 ScaDFX=  1.000000  1.000000  1.000000  1.000000 ScalE2=  1.000000  1.000000
 IRadAn=      0 IRanWt=     -1 IRanGd=            0 ICorTp=0
 NAtoms=    2 NActive=    2 NUniq=    1 SFac= 3.00D+00 NAtFMM=   80 NAOKFM=F Big=F
 Leave Link  301 at Sun Aug 18 15:11:05 2024, MaxMem=   13107200 cpu:       0.1
 (Enter /programs/64bit/g09/g09-gfortran/bin/l302.exe)
 NPDir=0 NMtPBC=     1 NCelOv=     1 NCel=       1 NClECP=     1 NCelD=      1
         NCelK=      1 NCelE2=     1 NClLst=     1 CellRange=     0.0.
 One-electron integrals computed using PRISM.
 One-electron integral symmetry used in STVInt
 NBasis=    60 RedAO= T  NBF=    13     3     7     7     3    13     7     7
 NBsUse=    60 1.00D-06 NBFU=    13     3     7     7     3    13     7     7
 Leave Link  302 at Sun Aug 18 15:11:05 2024, MaxMem=   13107200 cpu:       0.1
 (Enter /programs/64bit/g09/g09-gfortran/bin/l303.exe)
 DipDrv:  MaxL=1.
 Leave Link  303 at Sun Aug 18 15:11:06 2024, MaxMem=   13107200 cpu:       0.0
 (Enter /programs/64bit/g09/g09-gfortran/bin/l401.exe)
 Harris functional with IExCor=  205 diagonalized for initial guess.
 ExpMin= 8.99D-02 ExpMax= 8.26D+01 ExpMxC= 8.26D+01 IAcc=2 IRadAn=         0 AccDes= 0.00D+00
 HarFok:  IExCor=  205 AccDes= 0.00D+00 IRadAn=         0 IDoV= 1
 ScaDFX=  1.000000  1.000000  1.000000  1.000000
 FoFCou: FMM=F IPFlag=           0 FMFlag=      100000 FMFlg1=           0
         NFxFlg=           0 DoJE=T BraDBF=F KetDBF=T FulRan=T
         Omega=  0.000000  0.000000  1.000000  0.000000  0.000000 ICntrl=     500 IOpCl=  0
         NMat0=    1 NMatS0=    1 NMatT0=    0 NMatD0=    1 NMtDS0=    0 NMtDT0=    0
         I1Cent=           4 NGrid=           0.
 Petite list used in FoFCou.
 Harris En= -1.18747828271422    
 Initial guess orbital symmetries:
       Occupied  (SGG)
       Virtual   (SGU) (SGG) (PIU) (PIU) (SGU) (SGG) (PIG) (PIG)
                 (SGU) (SGG) (SGU) (DLTG) (DLTG) (PIU) (PIU) (SGG)
                 (PIG) (PIG) (PIU) (PIU) (DLTU) (DLTU) (SGU) (SGG)
                 (PIG) (PIG) (SGU) (SGG) (PHIU) (PHIU) (DLTG) (DLTG)
                 (PHIG) (PHIG) (PIU) (PIU) (PIG) (PIG) (SGG) (DLTU)
                 (DLTU) (SGU) (DLTG) (DLTG) (PIU) (PIU) (SGU) (PIG)
                 (PIG) (SGG) (PIU) (PIU) (DLTU) (DLTU) (SGU) (PIG)
                 (PIG) (SGG) (SGU)
 The electronic state of the initial guess is 1-SGG.
 Leave Link  401 at Sun Aug 18 15:11:06 2024, MaxMem=   13107200 cpu:       0.2
 (Enter /programs/64bit/g09/g09-gfortran/bin/l502.exe)
 Closed shell SCF:
 Requested convergence on RMS density matrix=1.00D-08 within 128 cycles.
 Requested convergence on MAX density matrix=1.00D-06.
 Requested convergence on             energy=1.00D-06.
 No special actions if energy rises.
 Using DIIS extrapolation, IDIIS=  1040.
 Integral symmetry usage will be decided dynamically.
 Keep R1 ints in memory in canonical form, NReq=5062839.
 IEnd=       33970 IEndB=       33970 NGot=    13107200 MDV=    10005958
 LenX=    10005958 LenY=    10000617
 Symmetry not used in FoFDir.
 MinBra= 0 MaxBra= 3 Meth= 1.
 IRaf=       0 NMat=   1 IRICut=       1 DoRegI=T DoRafI=F ISym2E= 0 JSym2E=0.

 Cycle   1  Pass 1  IDiag  1:
 E= -1.13054665136077    
 DIIS: error= 1.66D-02 at cycle   1 NSaved=   1.
 NSaved= 1 IEnMin= 1 EnMin= -1.13054665136077     IErMin= 1 ErrMin= 1.66D-02
 ErrMax= 1.66D-02 EMaxC= 1.00D-01 BMatC= 2.61D-03 BMatP= 2.61D-03
 IDIUse=3 WtCom= 8.34D-01 WtEn= 1.66D-01
 Coeff-Com:  0.100D+01
 Coeff-En:   0.100D+01
 Coeff:      0.100D+01
 Gap=     0.764 Goal=   None    Shift=    0.000
 GapD=    0.764 DampG=2.000 DampE=0.500 DampFc=1.0000 IDamp=-1.
 RMSDP=3.45D-04 MaxDP=6.04D-03              OVMax= 3.00D-02

 Cycle   2  Pass 1  IDiag  1:
 E= -1.13339948820799     Delta-E=       -0.002852836847 Rises=F Damp=F
 DIIS: error= 2.04D-03 at cycle   2 NSaved=   2.
 NSaved= 2 IEnMin= 2 EnMin= -1.13339948820799     IErMin= 2 ErrMin= 2.04D-03
 ErrMax= 2.04D-03 EMaxC= 1.00D-01 BMatC= 3.76D-05 BMatP= 2.61D-03
 IDIUse=3 WtCom= 9.80D-01 WtEn= 2.04D-02
 Coeff-Com: -0.114D+00 0.111D+01
 Coeff-En:   0.000D+00 0.100D+01
 Coeff:     -0.112D+00 0.111D+01
 Gap=     0.742 Goal=   None    Shift=    0.000
 RMSDP=7.43D-05 MaxDP=1.14D-03 DE=-2.85D-03 OVMax= 5.59D-03

 Cycle   3  Pass 1  IDiag  1:
 E= -1.13346612787654     Delta-E=       -0.000066639669 Rises=F Damp=F
 DIIS: error= 2.06D-04 at cycle   3 NSaved=   3.
 NSaved= 3 IEnMin= 3 EnMin= -1.13346612787654     IErMin= 3 ErrMin= 2.06D-04
 ErrMax= 2.06D-04 EMaxC= 1.00D-01 BMatC= 3.68D-07 BMatP= 3.76D-05
 IDIUse=3 WtCom= 9.98D-01 WtEn= 2.06D-03
 Coeff-Com:  0.224D-01-0.229D+00 0.121D+01
 Coeff-En:   0.000D+00 0.000D+00 0.100D+01
 Coeff:      0.223D-01-0.228D+00 0.121D+01
 Gap=     0.743 Goal=   None    Shift=    0.000
 RMSDP=1.44D-05 MaxDP=2.44D-04 DE=-6.66D-05 OVMax= 7.15D-04

 Cycle   4  Pass 1  IDiag  1:
 E= -1.13346695926074     Delta-E=       -0.000000831384 Rises=F Damp=F
 DIIS: error= 1.67D-05 at cycle   4 NSaved=   4.
 NSaved= 4 IEnMin= 4 EnMin= -1.13346695926074     IErMin= 4 ErrMin= 1.67D-05
 ErrMax= 1.67D-05 EMaxC= 1.00D-01 BMatC= 2.82D-09 BMatP= 3.68D-07
 IDIUse=1 WtCom= 1.00D+00 WtEn= 0.00D+00
 Coeff-Com: -0.374D-02 0.400D-01-0.257D+00 0.122D+01
 Coeff:     -0.374D-02 0.400D-01-0.257D+00 0.122D+01
 Gap=     0.743 Goal=   None    Shift=    0.000
 RMSDP=2.02D-06 MaxDP=4.60D-05 DE=-8.31D-07 OVMax= 6.92D-05

 Cycle   5  Pass 1  IDiag  1:
 E= -1.13346696630907     Delta-E=       -0.000000007048 Rises=F Damp=F
 DIIS: error= 4.52D-07 at cycle   5 NSaved=   5.
 NSaved= 5 IEnMin= 5 EnMin= -1.13346696630907     IErMin= 5 ErrMin= 4.52D-07
 ErrMax= 4.52D-07 EMaxC= 1.00D-01 BMatC= 2.60D-12 BMatP= 2.82D-09
 IDIUse=1 WtCom= 1.00D+00 WtEn= 0.00D+00
 Coeff-Com:  0.299D-03-0.318D-02 0.210D-01-0.120D+00 0.110D+01
 Coeff:      0.299D-03-0.318D-02 0.210D-01-0.120D+00 0.110D+01
 Gap=     0.743 Goal=   None    Shift=    0.000
 RMSDP=6.32D-08 MaxDP=1.49D-06 DE=-7.05D-09 OVMax= 1.67D-06

 Cycle   6  Pass 1  IDiag  1:
 E= -1.13346696631380     Delta-E=       -0.000000000005 Rises=F Damp=F
 DIIS: error= 1.74D-08 at cycle   6 NSaved=   6.
 NSaved= 6 IEnMin= 6 EnMin= -1.13346696631380     IErMin= 6 ErrMin= 1.74D-08
 ErrMax= 1.74D-08 EMaxC= 1.00D-01 BMatC= 2.77D-15 BMatP= 2.60D-12
 IDIUse=1 WtCom= 1.00D+00 WtEn= 0.00D+00
 Coeff-Com: -0.188D-04 0.197D-03-0.134D-02 0.789D-02-0.867D-01 0.108D+01
 Coeff:     -0.188D-04 0.197D-03-0.134D-02 0.789D-02-0.867D-01 0.108D+01
 Gap=     0.743 Goal=   None    Shift=    0.000
 RMSDP=1.10D-09 MaxDP=1.37D-08 DE=-4.73D-12 OVMax= 3.97D-08

 SCF Done:  E(RHF) =  -1.13346696631     A.U. after    6 cycles
             Convg  =    0.1101D-08             -V/T =  2.0062
 KE= 1.126476226183D+00 PE=-3.633842488200D+00 EE= 6.587949597711D-01
 Leave Link  502 at Sun Aug 18 15:11:06 2024, MaxMem=   13107200 cpu:       0.5
 (Enter /programs/64bit/g09/g09-gfortran/bin/l601.exe)
 Copying SCF densities to generalized density rwf, IOpCl= 0 IROHF=0.

 **********************************************************************

            Population analysis using the SCF density.

 **********************************************************************

 Orbital symmetries:
       Occupied  (SGG)
       Virtual   (SGU) (SGG) (PIU) (PIU) (SGU) (SGG) (PIG) (PIG)
                 (SGU) (SGG) (SGU) (DLTG) (DLTG) (PIU) (PIU) (SGG)
                 (PIG) (PIG) (DLTU) (DLTU) (PIU) (PIU) (SGU) (SGG)
                 (PIG) (PIG) (SGU) (SGG) (PHIU) (PHIU) (DLTG) (DLTG)
                 (PHIG) (PHIG) (PIU) (PIU) (PIG) (PIG) (SGG) (DLTU)
                 (DLTU) (SGU) (PIU) (PIU) (DLTG) (DLTG) (SGU) (PIG)
                 (PIG) (SGG) (PIU) (PIU) (DLTU) (DLTU) (SGU) (PIG)
                 (PIG) (SGG) (SGU)
 The electronic state is 1-SGG.
 Alpha  occ. eigenvalues --   -0.59489
 Alpha virt. eigenvalues --    0.14774   0.23150   0.51010   0.51010   0.52210
 Alpha virt. eigenvalues --    0.80256   0.81484   0.81484   1.10695   1.31034
 Alpha virt. eigenvalues --    1.58473   1.94210   1.94210   2.15394   2.15394
 Alpha virt. eigenvalues --    2.35462   2.36137   2.36137   2.55457   2.55457
 Alpha virt. eigenvalues --    2.55883   2.55883   3.01161   3.34447   3.61649
 Alpha virt. eigenvalues --    3.61649   3.99821   5.58746   5.70364   5.70364
 Alpha virt. eigenvalues --    6.23964   6.23964   6.75025   6.75025   6.99707
 Alpha virt. eigenvalues --    6.99707   7.07922   7.07922   7.37541   7.61040
 Alpha virt. eigenvalues --    7.61040   7.74456   7.98189   7.98189   7.99500
 Alpha virt. eigenvalues --    7.99500   8.27707   8.39863   8.39863   8.54067
 Alpha virt. eigenvalues --    8.83171   8.83171   9.21826   9.21826  10.49633
 Alpha virt. eigenvalues --   12.76395  12.76395  13.04046  16.10910
     Molecular Orbital Coefficients:
                           1         2         3         4         5
                       (SGG)--O  (SGU)--V  (SGG)--V  (PIU)--V  (PIU)--V
     Eigenvalues --    -0.59489   0.14774   0.23150   0.51010   0.51010
   1 1   H  1S          0.07135   0.02618  -0.03784   0.00000   0.00000
   2        2S          0.18200  -0.12264   0.19042   0.00000   0.00000
   3        3S          0.26267  -0.94799  -0.92233   0.00000   0.00000
   4        4S          0.09562   2.68762   0.96379   0.00000   0.00000
   5        5PX         0.00000   0.00000   0.00000   0.00000   0.04862
   6        5PY         0.00000   0.00000   0.00000   0.04862   0.00000
   7        5PZ        -0.00518  -0.00338  -0.02893   0.00000   0.00000
   8        6PX         0.00000   0.00000   0.00000   0.00000  -0.16342
   9        6PY         0.00000   0.00000   0.00000  -0.16342   0.00000
  10        6PZ        -0.01212   0.21310   0.06686   0.00000   0.00000
  11        7PX         0.00000   0.00000   0.00000   0.00000   0.62615
  12        7PY         0.00000   0.00000   0.00000   0.62615   0.00000
  13        7PZ        -0.01738   0.24047   0.02370   0.00000   0.00000
  14        8D 0        0.00139  -0.01324  -0.00063   0.00000   0.00000
  15        8D+1        0.00000   0.00000   0.00000   0.00000  -0.00424
  16        8D-1        0.00000   0.00000   0.00000  -0.00424   0.00000
  17        8D+2       -0.00000  -0.00000   0.00000   0.00000   0.00000
  18        8D-2        0.00000   0.00000   0.00000   0.00000   0.00000
  19        9D 0        0.00155  -0.07546  -0.08291   0.00000   0.00000
  20        9D+1        0.00000   0.00000   0.00000   0.00000   0.00434
  21        9D-1        0.00000   0.00000   0.00000   0.00434   0.00000
  22        9D+2       -0.00000   0.00000  -0.00000   0.00000   0.00000
  23        9D-2        0.00000   0.00000   0.00000   0.00000   0.00000
  24       10F 0       -0.00028   0.00975   0.02515   0.00000   0.00000
  25       10F+1        0.00000   0.00000   0.00000   0.00000   0.00910
  26       10F-1        0.00000   0.00000   0.00000   0.00910   0.00000
  27       10F+2       -0.00000  -0.00000  -0.00000   0.00000   0.00000
  28       10F-2        0.00000   0.00000   0.00000   0.00000   0.00000
  29       10F+3        0.00000   0.00000   0.00000   0.00000  -0.00000
  30       10F-3        0.00000   0.00000   0.00000  -0.00000   0.00000
  31 2   H  1S          0.07135  -0.02618  -0.03784   0.00000   0.00000
  32        2S          0.18200   0.12264   0.19042   0.00000   0.00000
  33        3S          0.26267   0.94799  -0.92233   0.00000   0.00000
  34        4S          0.09562  -2.68762   0.96379   0.00000   0.00000
  35        5PX         0.00000   0.00000   0.00000   0.00000   0.04862
  36        5PY         0.00000   0.00000   0.00000   0.04862   0.00000
  37        5PZ         0.00518  -0.00338   0.02893   0.00000   0.00000
  38        6PX         0.00000   0.00000   0.00000   0.00000  -0.16342
  39        6PY         0.00000   0.00000   0.00000  -0.16342   0.00000
  40        6PZ         0.01212   0.21310  -0.06686   0.00000   0.00000
  41        7PX         0.00000   0.00000   0.00000   0.00000   0.62615
  42        7PY         0.00000   0.00000   0.00000   0.62615   0.00000
  43        7PZ         0.01738   0.24047  -0.02370   0.00000   0.00000
  44        8D 0        0.00139   0.01324  -0.00063   0.00000   0.00000
  45        8D+1        0.00000   0.00000   0.00000   0.00000   0.00424
  46        8D-1        0.00000   0.00000   0.00000   0.00424   0.00000
  47        8D+2       -0.00000   0.00000   0.00000   0.00000   0.00000
  48        8D-2        0.00000   0.00000   0.00000   0.00000   0.00000
  49        9D 0        0.00155   0.07546  -0.08291   0.00000   0.00000
  50        9D+1        0.00000   0.00000   0.00000   0.00000  -0.00434
  51        9D-1        0.00000   0.00000   0.00000  -0.00434   0.00000
  52        9D+2       -0.00000  -0.00000  -0.00000   0.00000   0.00000
  53        9D-2        0.00000   0.00000   0.00000   0.00000   0.00000
  54       10F 0        0.00028   0.00975  -0.02515   0.00000   0.00000
  55       10F+1        0.00000   0.00000   0.00000   0.00000   0.00910
  56       10F-1        0.00000   0.00000   0.00000   0.00910   0.00000
  57       10F+2        0.00000  -0.00000   0.00000   0.00000   0.00000
  58       10F-2        0.00000   0.00000   0.00000   0.00000   0.00000
  59       10F+3        0.00000   0.00000   0.00000   0.00000  -0.00000
  60       10F-3        0.00000   0.00000   0.00000  -0.00000   0.00000
                           6         7         8         9        10
                       (SGU)--V  (SGG)--V  (PIG)--V  (PIG)--V  (SGU)--V
     Eigenvalues --     0.52210   0.80256   0.81484   0.81484   1.10695
   1 1   H  1S          0.02902   0.00102   0.00000   0.00000  -0.05727
   2        2S          0.65493   0.40082   0.00000   0.00000   1.21051
   3        3S          4.00523   0.53838   0.00000   0.00000  23.73600
   4        4S         -2.77961  -0.38993   0.00000   0.00000  -0.36350
   5        5PX         0.00000   0.00000   0.02896   0.00000   0.00000
   6        5PY         0.00000   0.00000   0.00000   0.02896   0.00000
   7        5PZ         0.02776   0.01440   0.00000   0.00000  -0.00982
   8        6PX         0.00000   0.00000   0.08411   0.00000   0.00000
   9        6PY         0.00000   0.00000   0.00000   0.08411   0.00000
  10        6PZ        -0.61694  -0.16299   0.00000   0.00000  -0.86864
  11        7PX         0.00000   0.00000   1.94823   0.00000   0.00000
  12        7PY         0.00000   0.00000   0.00000   1.94823   0.00000
  13        7PZ        -0.60135   1.55958   0.00000   0.00000  -9.56457
  14        8D 0        0.03607   0.02219   0.00000   0.00000   0.01573
  15        8D+1        0.00000   0.00000  -0.00148   0.00000   0.00000
  16        8D-1        0.00000   0.00000   0.00000  -0.00148   0.00000
  17        8D+2        0.00000  -0.00000   0.00000   0.00000   0.00000
  18        8D-2        0.00000   0.00000   0.00000   0.00000   0.00000
  19        9D 0        0.23681  -0.31103   0.00000   0.00000   0.72033
  20        9D+1        0.00000   0.00000  -0.42219   0.00000   0.00000
  21        9D-1        0.00000   0.00000   0.00000  -0.42219   0.00000
  22        9D+2       -0.00000  -0.00000   0.00000   0.00000  -0.00000
  23        9D-2        0.00000   0.00000   0.00000   0.00000   0.00000
  24       10F 0       -0.02812   0.04296   0.00000   0.00000  -0.06039
  25       10F+1        0.00000   0.00000   0.06534   0.00000   0.00000
  26       10F-1        0.00000   0.00000   0.00000   0.06534   0.00000
  27       10F+2        0.00000  -0.00000   0.00000   0.00000   0.00000
  28       10F-2        0.00000   0.00000   0.00000   0.00000   0.00000
  29       10F+3        0.00000   0.00000   0.00000   0.00000   0.00000
  30       10F-3        0.00000   0.00000   0.00000  -0.00000   0.00000
  31 2   H  1S         -0.02902   0.00102   0.00000   0.00000   0.05727
  32        2S         -0.65493   0.40082   0.00000   0.00000  -1.21051
  33        3S         -4.00523   0.53838   0.00000   0.00000 -23.73600
  34        4S          2.77961  -0.38993   0.00000   0.00000   0.36350
  35        5PX         0.00000   0.00000  -0.02896   0.00000   0.00000
  36        5PY         0.00000   0.00000   0.00000  -0.02896   0.00000
  37        5PZ         0.02776  -0.01440   0.00000   0.00000  -0.00982
  38        6PX         0.00000   0.00000  -0.08411   0.00000   0.00000
  39        6PY         0.00000   0.00000   0.00000  -0.08411   0.00000
  40        6PZ        -0.61694   0.16299   0.00000   0.00000  -0.86864
  41        7PX         0.00000   0.00000  -1.94823   0.00000   0.00000
  42        7PY         0.00000   0.00000   0.00000  -1.94823   0.00000
  43        7PZ        -0.60135  -1.55958   0.00000   0.00000  -9.56457
  44        8D 0       -0.03607   0.02219   0.00000   0.00000  -0.01573
  45        8D+1        0.00000   0.00000  -0.00148   0.00000   0.00000
  46        8D-1        0.00000   0.00000   0.00000  -0.00148   0.00000
  47        8D+2       -0.00000  -0.00000   0.00000   0.00000  -0.00000
  48        8D-2        0.00000   0.00000   0.00000   0.00000   0.00000
  49        9D 0       -0.23681  -0.31103   0.00000   0.00000  -0.72033
  50        9D+1        0.00000   0.00000  -0.42219   0.00000   0.00000
  51        9D-1        0.00000   0.00000   0.00000  -0.42219   0.00000
  52        9D+2        0.00000  -0.00000   0.00000   0.00000   0.00000
  53        9D-2        0.00000   0.00000   0.00000   0.00000   0.00000
  54       10F 0       -0.02812  -0.04296   0.00000   0.00000  -0.06039
  55       10F+1        0.00000   0.00000  -0.06534   0.00000   0.00000
  56       10F-1        0.00000   0.00000   0.00000  -0.06534   0.00000
  57       10F+2        0.00000   0.00000   0.00000   0.00000   0.00000
  58       10F-2        0.00000   0.00000   0.00000   0.00000   0.00000
  59       10F+3        0.00000   0.00000  -0.00000   0.00000   0.00000
  60       10F-3        0.00000   0.00000   0.00000   0.00000   0.00000
                          11        12        13        14        15
                       (SGG)--V  (SGU)--V  (DLTG)--  (DLTG)--  (PIU)--V
     Eigenvalues --     1.31034   1.58473   1.94210   1.94210   2.15394
   1 1   H  1S          0.05308  -0.14916   0.00000  -0.00000   0.00000
   2        2S          1.99964   1.18286   0.00000  -0.00000   0.00000
   3        3S         -1.86258   5.41907   0.00000  -0.00000   0.00000
   4        4S          0.59443  -1.87120   0.00000   0.00000   0.00000
   5        5PX         0.00000   0.00000   0.00000   0.00000   0.00000
   6        5PY         0.00000   0.00000   0.00000   0.00000  -0.12719
   7        5PZ        -0.14922   0.06329   0.00000   0.00000   0.00000
   8        6PX         0.00000   0.00000   0.00000   0.00000   0.00000
   9        6PY         0.00000   0.00000   0.00000   0.00000   0.89945
  10        6PZ         0.13124  -2.12503   0.00000   0.00000   0.00000
  11        7PX         0.00000   0.00000   0.00000   0.00000   0.00000
  12        7PY         0.00000   0.00000   0.00000   0.00000  -0.53691
  13        7PZ         0.75350  -0.91788   0.00000  -0.00000   0.00000
  14        8D 0        0.01873   0.12090   0.00000  -0.00000   0.00000
  15        8D+1        0.00000   0.00000   0.00000   0.00000   0.00000
  16        8D-1        0.00000   0.00000   0.00000   0.00000   0.02943
  17        8D+2       -0.00000   0.00000   0.00000  -0.09628   0.00000
  18        8D-2        0.00000   0.00000  -0.09628   0.00000   0.00000
  19        9D 0       -0.59266   0.77321   0.00000   0.00000   0.00000
  20        9D+1        0.00000   0.00000   0.00000   0.00000   0.00000
  21        9D-1        0.00000   0.00000   0.00000   0.00000  -0.17394
  22        9D+2       -0.00000  -0.00000   0.00000   0.62418   0.00000
  23        9D-2        0.00000   0.00000   0.62418   0.00000   0.00000
  24       10F 0        0.13930  -0.08990   0.00000  -0.00000   0.00000
  25       10F+1        0.00000   0.00000   0.00000   0.00000   0.00000
  26       10F-1        0.00000   0.00000   0.00000   0.00000  -0.03194
  27       10F+2       -0.00000  -0.00000   0.00000   0.02230   0.00000
  28       10F-2        0.00000   0.00000   0.02230   0.00000   0.00000
  29       10F+3        0.00000   0.00000   0.00000   0.00000   0.00000
  30       10F-3        0.00000   0.00000   0.00000   0.00000  -0.00000
  31 2   H  1S          0.05308   0.14916   0.00000  -0.00000   0.00000
  32        2S          1.99964  -1.18286   0.00000  -0.00000   0.00000
  33        3S         -1.86258  -5.41907   0.00000  -0.00000   0.00000
  34        4S          0.59443   1.87120   0.00000   0.00000   0.00000
  35        5PX         0.00000   0.00000   0.00000   0.00000   0.00000
  36        5PY         0.00000   0.00000   0.00000   0.00000  -0.12719
  37        5PZ         0.14922   0.06329   0.00000  -0.00000   0.00000
  38        6PX         0.00000   0.00000   0.00000   0.00000   0.00000
  39        6PY         0.00000   0.00000   0.00000   0.00000   0.89945
  40        6PZ        -0.13124  -2.12503   0.00000  -0.00000   0.00000
  41        7PX         0.00000   0.00000   0.00000   0.00000   0.00000
  42        7PY         0.00000   0.00000   0.00000   0.00000  -0.53691
  43        7PZ        -0.75350  -0.91788   0.00000   0.00000   0.00000
  44        8D 0        0.01873  -0.12090   0.00000  -0.00000   0.00000
  45        8D+1        0.00000   0.00000   0.00000   0.00000   0.00000
  46        8D-1        0.00000   0.00000   0.00000   0.00000  -0.02943
  47        8D+2       -0.00000  -0.00000   0.00000  -0.09628   0.00000
  48        8D-2        0.00000   0.00000  -0.09628   0.00000   0.00000
  49        9D 0       -0.59266  -0.77321   0.00000   0.00000   0.00000
  50        9D+1        0.00000   0.00000   0.00000   0.00000   0.00000
  51        9D-1        0.00000   0.00000   0.00000   0.00000   0.17394
  52        9D+2       -0.00000   0.00000   0.00000   0.62418   0.00000
  53        9D-2        0.00000   0.00000   0.62418   0.00000   0.00000
  54       10F 0       -0.13930  -0.08990   0.00000   0.00000   0.00000
  55       10F+1        0.00000   0.00000   0.00000   0.00000   0.00000
  56       10F-1        0.00000   0.00000   0.00000   0.00000  -0.03194
  57       10F+2        0.00000  -0.00000   0.00000  -0.02230   0.00000
  58       10F-2        0.00000   0.00000  -0.02230   0.00000   0.00000
  59       10F+3        0.00000   0.00000   0.00000   0.00000   0.00000
  60       10F-3        0.00000   0.00000   0.00000   0.00000  -0.00000
                          16        17        18        19        20
                       (PIU)--V  (SGG)--V  (PIG)--V  (PIG)--V  (DLTU)--
     Eigenvalues --     2.15394   2.35462   2.36137   2.36137   2.55457
   1 1   H  1S          0.00000   0.02162   0.00000   0.00000   0.00000
   2        2S          0.00000   0.84405   0.00000   0.00000  -0.00000
   3        3S          0.00000   0.00547   0.00000   0.00000  -0.00000
   4        4S          0.00000  -0.19816   0.00000   0.00000  -0.00000
   5        5PX        -0.12719   0.00000  -0.01627   0.00000   0.00000
   6        5PY         0.00000   0.00000   0.00000  -0.01627   0.00000
   7        5PZ         0.00000  -0.01333   0.00000   0.00000   0.00000
   8        6PX         0.89945   0.00000   0.79978   0.00000   0.00000
   9        6PY         0.00000   0.00000   0.00000   0.79978   0.00000
  10        6PZ         0.00000  -0.62327   0.00000   0.00000   0.00000
  11        7PX        -0.53691   0.00000   2.10162   0.00000   0.00000
  12        7PY         0.00000   0.00000   0.00000   2.10162   0.00000
  13        7PZ         0.00000   1.60354   0.00000   0.00000   0.00000
  14        8D 0        0.00000   0.07540   0.00000   0.00000  -0.00000
  15        8D+1        0.02943   0.00000  -0.02969   0.00000   0.00000
  16        8D-1        0.00000   0.00000   0.00000  -0.02969   0.00000
  17        8D+2        0.00000  -0.00000   0.00000   0.00000  -0.11293
  18        8D-2        0.00000   0.00000   0.00000   0.00000   0.00000
  19        9D 0        0.00000  -1.17301   0.00000   0.00000  -0.00000
  20        9D+1       -0.17394   0.00000  -2.03698   0.00000   0.00000
  21        9D-1        0.00000   0.00000   0.00000  -2.03698   0.00000
  22        9D+2        0.00000   0.00000   0.00000   0.00000   1.15372
  23        9D-2        0.00000   0.00000   0.00000   0.00000   0.00000
  24       10F 0        0.00000   0.10259   0.00000   0.00000   0.00000
  25       10F+1       -0.03194   0.00000   0.27387   0.00000   0.00000
  26       10F-1        0.00000   0.00000   0.00000   0.27387   0.00000
  27       10F+2        0.00000  -0.00000   0.00000   0.00000  -0.07383
  28       10F-2        0.00000   0.00000   0.00000   0.00000   0.00000
  29       10F+3       -0.00000   0.00000   0.00000   0.00000   0.00000
  30       10F-3        0.00000   0.00000   0.00000  -0.00000   0.00000
  31 2   H  1S          0.00000   0.02162   0.00000   0.00000  -0.00000
  32        2S          0.00000   0.84405   0.00000   0.00000   0.00000
  33        3S          0.00000   0.00547   0.00000   0.00000   0.00000
  34        4S          0.00000  -0.19816   0.00000   0.00000   0.00000
  35        5PX        -0.12719   0.00000   0.01627   0.00000   0.00000
  36        5PY         0.00000   0.00000   0.00000   0.01627   0.00000
  37        5PZ         0.00000   0.01333   0.00000   0.00000   0.00000
  38        6PX         0.89945   0.00000  -0.79978   0.00000   0.00000
  39        6PY         0.00000   0.00000   0.00000  -0.79978   0.00000
  40        6PZ         0.00000   0.62327   0.00000   0.00000   0.00000
  41        7PX        -0.53691   0.00000  -2.10162   0.00000   0.00000
  42        7PY         0.00000   0.00000   0.00000  -2.10162   0.00000
  43        7PZ         0.00000  -1.60354   0.00000   0.00000   0.00000
  44        8D 0        0.00000   0.07540   0.00000   0.00000   0.00000
  45        8D+1       -0.02943   0.00000  -0.02969   0.00000   0.00000
  46        8D-1        0.00000   0.00000   0.00000  -0.02969   0.00000
  47        8D+2        0.00000  -0.00000   0.00000   0.00000   0.11293
  48        8D-2        0.00000   0.00000   0.00000   0.00000   0.00000
  49        9D 0        0.00000  -1.17301   0.00000   0.00000   0.00000
  50        9D+1        0.17394   0.00000  -2.03698   0.00000   0.00000
  51        9D-1        0.00000   0.00000   0.00000  -2.03698   0.00000
  52        9D+2        0.00000   0.00000   0.00000   0.00000  -1.15372
  53        9D-2        0.00000   0.00000   0.00000   0.00000   0.00000
  54       10F 0        0.00000  -0.10259   0.00000   0.00000   0.00000
  55       10F+1       -0.03194   0.00000  -0.27387   0.00000   0.00000
  56       10F-1        0.00000   0.00000   0.00000  -0.27387   0.00000
  57       10F+2        0.00000   0.00000   0.00000   0.00000  -0.07383
  58       10F-2        0.00000   0.00000   0.00000   0.00000   0.00000
  59       10F+3       -0.00000   0.00000  -0.00000   0.00000   0.00000
  60       10F-3        0.00000   0.00000   0.00000   0.00000   0.00000
                          21        22        23        24        25
                       (DLTU)--  (PIU)--V  (PIU)--V  (SGU)--V  (SGG)--V
     Eigenvalues --     2.55457   2.55883   2.55883   3.01161   3.34447
   1 1   H  1S          0.00000   0.00000   0.00000  -0.09251  -0.03094
   2        2S          0.00000   0.00000   0.00000   3.62513   2.65726
   3        3S          0.00000   0.00000   0.00000  17.37430  -1.55891
   4        4S          0.00000   0.00000   0.00000  -0.08067   0.25885
   5        5PX         0.00000  -0.07164   0.00000   0.00000   0.00000
   6        5PY         0.00000   0.00000  -0.07164   0.00000   0.00000
   7        5PZ         0.00000   0.00000   0.00000  -0.01886  -0.33543
   8        6PX         0.00000   0.68234   0.00000   0.00000   0.00000
   9        6PY         0.00000   0.00000   0.68234   0.00000   0.00000
  10        6PZ         0.00000   0.00000   0.00000  -1.70572   1.08237
  11        7PX         0.00000  -0.25617   0.00000   0.00000   0.00000
  12        7PY         0.00000   0.00000  -0.25617   0.00000   0.00000
  13        7PZ         0.00000   0.00000   0.00000  -7.31540   1.04708
  14        8D 0        0.00000   0.00000   0.00000   0.00758   0.09495
  15        8D+1        0.00000  -0.11611   0.00000   0.00000   0.00000
  16        8D-1        0.00000   0.00000  -0.11611   0.00000   0.00000
  17        8D+2        0.00000   0.00000   0.00000  -0.00000  -0.00000
  18        8D-2       -0.11293   0.00000   0.00000   0.00000   0.00000
  19        9D 0        0.00000   0.00000   0.00000   1.96232  -1.85730
  20        9D+1        0.00000   0.82184   0.00000   0.00000   0.00000
  21        9D-1        0.00000   0.00000   0.82184   0.00000   0.00000
  22        9D+2        0.00000   0.00000   0.00000   0.00000   0.00000
  23        9D-2        1.15372   0.00000   0.00000   0.00000   0.00000
  24       10F 0        0.00000   0.00000   0.00000  -0.12064   0.20475
  25       10F+1        0.00000  -0.02499   0.00000   0.00000   0.00000
  26       10F-1        0.00000   0.00000  -0.02499   0.00000   0.00000
  27       10F+2        0.00000   0.00000   0.00000  -0.00000  -0.00000
  28       10F-2       -0.07383   0.00000   0.00000   0.00000   0.00000
  29       10F+3        0.00000   0.00000   0.00000   0.00000   0.00000
  30       10F-3        0.00000   0.00000   0.00000   0.00000   0.00000
  31 2   H  1S          0.00000   0.00000   0.00000   0.09251  -0.03094
  32        2S          0.00000   0.00000   0.00000  -3.62513   2.65726
  33        3S          0.00000   0.00000   0.00000 -17.37430  -1.55891
  34        4S          0.00000   0.00000   0.00000   0.08067   0.25885
  35        5PX         0.00000  -0.07164   0.00000   0.00000   0.00000
  36        5PY         0.00000   0.00000  -0.07164   0.00000   0.00000
  37        5PZ         0.00000   0.00000   0.00000  -0.01886   0.33543
  38        6PX         0.00000   0.68234   0.00000   0.00000   0.00000
  39        6PY         0.00000   0.00000   0.68234   0.00000   0.00000
  40        6PZ         0.00000   0.00000   0.00000  -1.70572  -1.08237
  41        7PX         0.00000  -0.25617   0.00000   0.00000   0.00000
  42        7PY         0.00000   0.00000  -0.25617   0.00000   0.00000
  43        7PZ         0.00000   0.00000   0.00000  -7.31540  -1.04708
  44        8D 0        0.00000   0.00000   0.00000  -0.00758   0.09495
  45        8D+1        0.00000   0.11611   0.00000   0.00000   0.00000
  46        8D-1        0.00000   0.00000   0.11611   0.00000   0.00000
  47        8D+2        0.00000   0.00000   0.00000   0.00000  -0.00000
  48        8D-2        0.11293   0.00000   0.00000   0.00000   0.00000
  49        9D 0        0.00000   0.00000   0.00000  -1.96232  -1.85730
  50        9D+1        0.00000  -0.82184   0.00000   0.00000   0.00000
  51        9D-1        0.00000   0.00000  -0.82184   0.00000   0.00000
  52        9D+2        0.00000   0.00000   0.00000  -0.00000   0.00000
  53        9D-2       -1.15372   0.00000   0.00000   0.00000   0.00000
  54       10F 0        0.00000   0.00000   0.00000  -0.12064  -0.20475
  55       10F+1        0.00000  -0.02499   0.00000   0.00000   0.00000
  56       10F-1        0.00000   0.00000  -0.02499   0.00000   0.00000
  57       10F+2        0.00000   0.00000   0.00000  -0.00000   0.00000
  58       10F-2       -0.07383   0.00000   0.00000   0.00000   0.00000
  59       10F+3        0.00000   0.00000   0.00000   0.00000   0.00000
  60       10F-3        0.00000   0.00000   0.00000   0.00000   0.00000
                          26        27        28        29        30
                       (PIG)--V  (PIG)--V  (SGU)--V  (SGG)--V  (PHIU)--
     Eigenvalues --     3.61649   3.61649   3.99821   5.58746   5.70364
   1 1   H  1S          0.00000   0.00000  -0.00165  -0.32628   0.00000
   2        2S          0.00000   0.00000   6.64349   1.50587   0.00000
   3        3S          0.00000   0.00000   7.50152  -1.00226   0.00000
   4        4S          0.00000   0.00000  -1.15563   0.25415   0.00000
   5        5PX         0.00000  -0.26253   0.00000   0.00000   0.00000
   6        5PY        -0.26253   0.00000   0.00000   0.00000  -0.00000
   7        5PZ         0.00000   0.00000   0.18632  -0.46045   0.00000
   8        6PX         0.00000   3.26955   0.00000   0.00000   0.00000
   9        6PY         3.26955   0.00000   0.00000   0.00000   0.00000
  10        6PZ         0.00000   0.00000  -5.82648   0.69909   0.00000
  11        7PX         0.00000   0.94454   0.00000   0.00000   0.00000
  12        7PY         0.94454   0.00000   0.00000   0.00000   0.00000
  13        7PZ         0.00000   0.00000  -2.14373   0.23919   0.00000
  14        8D 0        0.00000   0.00000   0.28829  -0.02392   0.00000
  15        8D+1        0.00000  -0.07185   0.00000   0.00000   0.00000
  16        8D-1       -0.07185   0.00000   0.00000   0.00000  -0.00000
  17        8D+2        0.00000   0.00000   0.00000  -0.00000   0.00000
  18        8D-2        0.00000   0.00000   0.00000   0.00000   0.00000
  19        9D 0        0.00000   0.00000   1.74739  -0.50757   0.00000
  20        9D+1        0.00000  -2.54756   0.00000   0.00000   0.00000
  21        9D-1       -2.54756   0.00000   0.00000   0.00000  -0.00000
  22        9D+2        0.00000   0.00000   0.00000   0.00000   0.00000
  23        9D-2        0.00000   0.00000   0.00000   0.00000   0.00000
  24       10F 0        0.00000   0.00000  -0.22921   0.69515   0.00000
  25       10F+1        0.00000   0.31626   0.00000   0.00000   0.00000
  26       10F-1        0.31626   0.00000   0.00000   0.00000  -0.00000
  27       10F+2        0.00000   0.00000  -0.00000  -0.00000   0.00000
  28       10F-2        0.00000   0.00000   0.00000   0.00000   0.00000
  29       10F+3        0.00000   0.00000   0.00000   0.00000   0.00000
  30       10F-3       -0.00000   0.00000   0.00000   0.00000   0.63116
  31 2   H  1S          0.00000   0.00000   0.00165  -0.32628   0.00000
  32        2S          0.00000   0.00000  -6.64349   1.50587   0.00000
  33        3S          0.00000   0.00000  -7.50152  -1.00226   0.00000
  34        4S          0.00000   0.00000   1.15563   0.25415   0.00000
  35        5PX         0.00000   0.26253   0.00000   0.00000   0.00000
  36        5PY         0.26253   0.00000   0.00000   0.00000  -0.00000
  37        5PZ         0.00000   0.00000   0.18632   0.46045   0.00000
  38        6PX         0.00000  -3.26955   0.00000   0.00000   0.00000
  39        6PY        -3.26955   0.00000   0.00000   0.00000   0.00000
  40        6PZ         0.00000   0.00000  -5.82648  -0.69909   0.00000
  41        7PX         0.00000  -0.94454   0.00000   0.00000   0.00000
  42        7PY        -0.94454   0.00000   0.00000   0.00000   0.00000
  43        7PZ         0.00000   0.00000  -2.14373  -0.23919   0.00000
  44        8D 0        0.00000   0.00000  -0.28829  -0.02392   0.00000
  45        8D+1        0.00000  -0.07185   0.00000   0.00000   0.00000
  46        8D-1       -0.07185   0.00000   0.00000   0.00000   0.00000
  47        8D+2        0.00000   0.00000  -0.00000  -0.00000   0.00000
  48        8D-2        0.00000   0.00000   0.00000   0.00000   0.00000
  49        9D 0        0.00000   0.00000  -1.74739  -0.50757   0.00000
  50        9D+1        0.00000  -2.54756   0.00000   0.00000   0.00000
  51        9D-1       -2.54756   0.00000   0.00000   0.00000   0.00000
  52        9D+2        0.00000   0.00000  -0.00000   0.00000   0.00000
  53        9D-2        0.00000   0.00000   0.00000   0.00000   0.00000
  54       10F 0        0.00000   0.00000  -0.22921  -0.69515   0.00000
  55       10F+1        0.00000  -0.31626   0.00000   0.00000   0.00000
  56       10F-1       -0.31626   0.00000   0.00000   0.00000  -0.00000
  57       10F+2        0.00000   0.00000  -0.00000   0.00000   0.00000
  58       10F-2        0.00000   0.00000   0.00000   0.00000   0.00000
  59       10F+3        0.00000  -0.00000   0.00000   0.00000   0.00000
  60       10F-3        0.00000   0.00000   0.00000   0.00000   0.63116
                          31        32        33        34        35
                       (PHIU)--  (DLTG)--  (DLTG)--  (PHIG)--  (PHIG)--
     Eigenvalues --     5.70364   6.23964   6.23964   6.75025   6.75025
   1 1   H  1S          0.00000  -0.00000   0.00000   0.00000   0.00000
   2        2S          0.00000   0.00000   0.00000   0.00000   0.00000
   3        3S          0.00000  -0.00000   0.00000   0.00000   0.00000
   4        4S          0.00000   0.00000   0.00000   0.00000   0.00000
   5        5PX        -0.00000   0.00000   0.00000   0.00000  -0.00000
   6        5PY         0.00000   0.00000   0.00000   0.00000   0.00000
   7        5PZ         0.00000   0.00000   0.00000   0.00000   0.00000
   8        6PX         0.00000   0.00000   0.00000   0.00000  -0.00000
   9        6PY         0.00000   0.00000   0.00000  -0.00000   0.00000
  10        6PZ         0.00000  -0.00000   0.00000   0.00000   0.00000
  11        7PX        -0.00000   0.00000   0.00000   0.00000  -0.00000
  12        7PY         0.00000   0.00000   0.00000  -0.00000   0.00000
  13        7PZ         0.00000   0.00000   0.00000   0.00000   0.00000
  14        8D 0        0.00000  -0.00000   0.00000   0.00000   0.00000
  15        8D+1        0.00000   0.00000   0.00000   0.00000  -0.00000
  16        8D-1        0.00000   0.00000   0.00000   0.00000   0.00000
  17        8D+2        0.00000  -0.10849   0.00000   0.00000   0.00000
  18        8D-2        0.00000   0.00000  -0.10849   0.00000   0.00000
  19        9D 0        0.00000  -0.00000   0.00000   0.00000   0.00000
  20        9D+1       -0.00000   0.00000   0.00000   0.00000   0.00000
  21        9D-1        0.00000   0.00000   0.00000   0.00000   0.00000
  22        9D+2        0.00000   0.14967   0.00000   0.00000   0.00000
  23        9D-2        0.00000   0.00000   0.14967   0.00000   0.00000
  24       10F 0        0.00000  -0.00000   0.00000   0.00000   0.00000
  25       10F+1        0.00000   0.00000   0.00000   0.00000  -0.00000
  26       10F-1        0.00000   0.00000   0.00000  -0.00000   0.00000
  27       10F+2        0.00000   0.58510   0.00000   0.00000   0.00000
  28       10F-2        0.00000   0.00000   0.58510   0.00000   0.00000
  29       10F+3        0.63116   0.00000   0.00000   0.00000   0.81931
  30       10F-3        0.00000   0.00000   0.00000   0.81931   0.00000
  31 2   H  1S          0.00000  -0.00000   0.00000   0.00000   0.00000
  32        2S          0.00000   0.00000   0.00000   0.00000   0.00000
  33        3S          0.00000  -0.00000   0.00000   0.00000   0.00000
  34        4S          0.00000   0.00000   0.00000   0.00000   0.00000
  35        5PX        -0.00000   0.00000   0.00000   0.00000   0.00000
  36        5PY         0.00000   0.00000   0.00000  -0.00000   0.00000
  37        5PZ         0.00000  -0.00000   0.00000   0.00000   0.00000
  38        6PX         0.00000   0.00000   0.00000   0.00000   0.00000
  39        6PY         0.00000   0.00000   0.00000   0.00000   0.00000
  40        6PZ         0.00000   0.00000   0.00000   0.00000   0.00000
  41        7PX        -0.00000   0.00000   0.00000   0.00000   0.00000
  42        7PY         0.00000   0.00000   0.00000   0.00000   0.00000
  43        7PZ         0.00000  -0.00000   0.00000   0.00000   0.00000
  44        8D 0        0.00000  -0.00000   0.00000   0.00000   0.00000
  45        8D+1       -0.00000   0.00000   0.00000   0.00000  -0.00000
  46        8D-1        0.00000   0.00000   0.00000   0.00000   0.00000
  47        8D+2        0.00000  -0.10849   0.00000   0.00000   0.00000
  48        8D-2        0.00000   0.00000  -0.10849   0.00000   0.00000
  49        9D 0        0.00000  -0.00000   0.00000   0.00000   0.00000
  50        9D+1        0.00000   0.00000   0.00000   0.00000   0.00000
  51        9D-1        0.00000   0.00000   0.00000   0.00000   0.00000
  52        9D+2        0.00000   0.14967   0.00000   0.00000   0.00000
  53        9D-2        0.00000   0.00000   0.14967   0.00000   0.00000
  54       10F 0        0.00000   0.00000   0.00000   0.00000   0.00000
  55       10F+1        0.00000   0.00000   0.00000   0.00000   0.00000
  56       10F-1        0.00000   0.00000   0.00000   0.00000   0.00000
  57       10F+2        0.00000  -0.58510   0.00000   0.00000   0.00000
  58       10F-2        0.00000   0.00000  -0.58510   0.00000   0.00000
  59       10F+3        0.63116   0.00000   0.00000   0.00000  -0.81931
  60       10F-3        0.00000   0.00000   0.00000  -0.81931   0.00000
                          36        37        38        39        40
                       (PIU)--V  (PIU)--V  (PIG)--V  (PIG)--V  (SGG)--V
     Eigenvalues --     6.99707   6.99707   7.07922   7.07922   7.37541
   1 1   H  1S          0.00000   0.00000   0.00000   0.00000  -0.23081
   2        2S          0.00000   0.00000   0.00000   0.00000   1.05484
   3        3S          0.00000   0.00000   0.00000   0.00000  -0.71341
   4        4S          0.00000   0.00000   0.00000   0.00000   0.17206
   5        5PX        -0.67979   0.00000   0.09518   0.00000   0.00000
   6        5PY         0.00000  -0.67979   0.00000   0.09518   0.00000
   7        5PZ         0.00000   0.00000   0.00000   0.00000  -1.14097
   8        6PX         0.78037   0.00000   2.93181   0.00000   0.00000
   9        6PY         0.00000   0.78037   0.00000   2.93181   0.00000
  10        6PZ         0.00000   0.00000   0.00000   0.00000   1.24988
  11        7PX        -0.29103   0.00000   1.23586   0.00000   0.00000
  12        7PY         0.00000  -0.29103   0.00000   1.23586   0.00000
  13        7PZ         0.00000   0.00000   0.00000   0.00000  -0.12607
  14        8D 0        0.00000   0.00000   0.00000   0.00000   0.05540
  15        8D+1        0.23336   0.00000  -0.16025   0.00000   0.00000
  16        8D-1        0.00000   0.23336   0.00000  -0.16025   0.00000
  17        8D+2        0.00000   0.00000   0.00000   0.00000   0.00000
  18        8D-2        0.00000   0.00000   0.00000   0.00000   0.00000
  19        9D 0        0.00000   0.00000   0.00000   0.00000  -0.50799
  20        9D+1       -0.01419   0.00000  -2.47737   0.00000   0.00000
  21        9D-1        0.00000  -0.01419   0.00000  -2.47737   0.00000
  22        9D+2        0.00000   0.00000   0.00000   0.00000  -0.00000
  23        9D-2        0.00000   0.00000   0.00000   0.00000   0.00000
  24       10F 0        0.00000   0.00000   0.00000   0.00000  -0.02362
  25       10F+1       -0.39455   0.00000   1.33833   0.00000   0.00000
  26       10F-1        0.00000  -0.39455   0.00000   1.33833   0.00000
  27       10F+2        0.00000   0.00000   0.00000   0.00000   0.00000
  28       10F-2        0.00000   0.00000   0.00000   0.00000   0.00000
  29       10F+3       -0.00000   0.00000   0.00000   0.00000   0.00000
  30       10F-3        0.00000  -0.00000   0.00000   0.00000   0.00000
  31 2   H  1S          0.00000   0.00000   0.00000   0.00000  -0.23081
  32        2S          0.00000   0.00000   0.00000   0.00000   1.05484
  33        3S          0.00000   0.00000   0.00000   0.00000  -0.71341
  34        4S          0.00000   0.00000   0.00000   0.00000   0.17206
  35        5PX        -0.67979   0.00000  -0.09518   0.00000   0.00000
  36        5PY         0.00000  -0.67979   0.00000  -0.09518   0.00000
  37        5PZ         0.00000   0.00000   0.00000   0.00000   1.14097
  38        6PX         0.78037   0.00000  -2.93181   0.00000   0.00000
  39        6PY         0.00000   0.78037   0.00000  -2.93181   0.00000
  40        6PZ         0.00000   0.00000   0.00000   0.00000  -1.24988
  41        7PX        -0.29103   0.00000  -1.23586   0.00000   0.00000
  42        7PY         0.00000  -0.29103   0.00000  -1.23586   0.00000
  43        7PZ         0.00000   0.00000   0.00000   0.00000   0.12607
  44        8D 0        0.00000   0.00000   0.00000   0.00000   0.05540
  45        8D+1       -0.23336   0.00000  -0.16025   0.00000   0.00000
  46        8D-1        0.00000  -0.23336   0.00000  -0.16025   0.00000
  47        8D+2        0.00000   0.00000   0.00000   0.00000   0.00000
  48        8D-2        0.00000   0.00000   0.00000   0.00000   0.00000
  49        9D 0        0.00000   0.00000   0.00000   0.00000  -0.50799
  50        9D+1        0.01419   0.00000  -2.47737   0.00000   0.00000
  51        9D-1        0.00000   0.01419   0.00000  -2.47737   0.00000
  52        9D+2        0.00000   0.00000   0.00000   0.00000  -0.00000
  53        9D-2        0.00000   0.00000   0.00000   0.00000   0.00000
  54       10F 0        0.00000   0.00000   0.00000   0.00000   0.02362
  55       10F+1       -0.39455   0.00000  -1.33833   0.00000   0.00000
  56       10F-1        0.00000  -0.39455   0.00000  -1.33833   0.00000
  57       10F+2        0.00000   0.00000   0.00000   0.00000  -0.00000
  58       10F-2        0.00000   0.00000   0.00000   0.00000   0.00000
  59       10F+3       -0.00000   0.00000  -0.00000   0.00000   0.00000
  60       10F-3        0.00000  -0.00000   0.00000  -0.00000   0.00000
                          41        42        43        44        45
                       (DLTU)--  (DLTU)--  (SGU)--V  (PIU)--V  (PIU)--V
     Eigenvalues --     7.61040   7.61040   7.74456   7.98189   7.98189
   1 1   H  1S         -0.00000   0.00000  -0.23955   0.00000   0.00000
   2        2S          0.00000   0.00000   6.71104   0.00000   0.00000
   3        3S         -0.00000   0.00000   7.98004   0.00000   0.00000
   4        4S          0.00000   0.00000  -0.25501   0.00000   0.00000
   5        5PX         0.00000   0.00000   0.00000   0.00000   0.26609
   6        5PY         0.00000   0.00000   0.00000   0.26609   0.00000
   7        5PZ        -0.00000   0.00000  -0.30162   0.00000   0.00000
   8        6PX         0.00000   0.00000   0.00000   0.00000  -0.48960
   9        6PY         0.00000   0.00000   0.00000  -0.48960   0.00000
  10        6PZ        -0.00000   0.00000  -4.20700   0.00000   0.00000
  11        7PX         0.00000   0.00000   0.00000   0.00000   0.14712
  12        7PY         0.00000   0.00000   0.00000   0.14712   0.00000
  13        7PZ         0.00000   0.00000  -3.19347   0.00000   0.00000
  14        8D 0        0.00000   0.00000   0.37549   0.00000   0.00000
  15        8D+1        0.00000   0.00000   0.00000   0.00000   0.81780
  16        8D-1        0.00000   0.00000   0.00000   0.81780   0.00000
  17        8D+2        0.35048   0.00000  -0.00000   0.00000   0.00000
  18        8D-2        0.00000   0.35048   0.00000   0.00000   0.00000
  19        9D 0        0.00000   0.00000   1.92956   0.00000   0.00000
  20        9D+1        0.00000   0.00000   0.00000   0.00000  -0.62870
  21        9D-1        0.00000   0.00000   0.00000  -0.62870   0.00000
  22        9D+2       -0.92319   0.00000   0.00000   0.00000   0.00000
  23        9D-2        0.00000  -0.92319   0.00000   0.00000   0.00000
  24       10F 0       -0.00000   0.00000  -1.29911   0.00000   0.00000
  25       10F+1        0.00000   0.00000   0.00000   0.00000   0.45148
  26       10F-1        0.00000   0.00000   0.00000   0.45148   0.00000
  27       10F+2        1.07056   0.00000  -0.00000   0.00000   0.00000
  28       10F-2        0.00000   1.07056   0.00000   0.00000   0.00000
  29       10F+3        0.00000   0.00000   0.00000   0.00000  -0.00000
  30       10F-3        0.00000   0.00000   0.00000   0.00000   0.00000
  31 2   H  1S          0.00000   0.00000   0.23955   0.00000   0.00000
  32        2S         -0.00000   0.00000  -6.71104   0.00000   0.00000
  33        3S          0.00000   0.00000  -7.98004   0.00000   0.00000
  34        4S         -0.00000   0.00000   0.25501   0.00000   0.00000
  35        5PX         0.00000   0.00000   0.00000   0.00000   0.26609
  36        5PY         0.00000   0.00000   0.00000   0.26609   0.00000
  37        5PZ        -0.00000   0.00000  -0.30162   0.00000   0.00000
  38        6PX         0.00000   0.00000   0.00000   0.00000  -0.48960
  39        6PY         0.00000   0.00000   0.00000  -0.48960   0.00000
  40        6PZ        -0.00000   0.00000  -4.20700   0.00000   0.00000
  41        7PX         0.00000   0.00000   0.00000   0.00000   0.14712
  42        7PY         0.00000   0.00000   0.00000   0.14712   0.00000
  43        7PZ         0.00000   0.00000  -3.19347   0.00000   0.00000
  44        8D 0       -0.00000   0.00000  -0.37549   0.00000   0.00000
  45        8D+1        0.00000   0.00000   0.00000   0.00000  -0.81780
  46        8D-1        0.00000   0.00000   0.00000  -0.81780   0.00000
  47        8D+2       -0.35048   0.00000   0.00000   0.00000   0.00000
  48        8D-2        0.00000  -0.35048   0.00000   0.00000   0.00000
  49        9D 0       -0.00000   0.00000  -1.92956   0.00000   0.00000
  50        9D+1        0.00000   0.00000   0.00000   0.00000   0.62870
  51        9D-1        0.00000   0.00000   0.00000   0.62870   0.00000
  52        9D+2        0.92319   0.00000  -0.00000   0.00000   0.00000
  53        9D-2        0.00000   0.92319   0.00000   0.00000   0.00000
  54       10F 0       -0.00000   0.00000  -1.29911   0.00000   0.00000
  55       10F+1        0.00000   0.00000   0.00000   0.00000   0.45148
  56       10F-1        0.00000   0.00000   0.00000   0.45148   0.00000
  57       10F+2        1.07056   0.00000  -0.00000   0.00000   0.00000
  58       10F-2        0.00000   1.07056   0.00000   0.00000   0.00000
  59       10F+3        0.00000   0.00000   0.00000   0.00000  -0.00000
  60       10F-3        0.00000   0.00000   0.00000   0.00000   0.00000
                          46        47        48        49        50
                       (DLTG)--  (DLTG)--  (SGU)--V  (PIG)--V  (PIG)--V
     Eigenvalues --     7.99500   7.99500   8.27707   8.39863   8.39863
   1 1   H  1S          0.00000  -0.00000  -0.23445   0.00000   0.00000
   2        2S          0.00000  -0.00000  -0.97252   0.00000   0.00000
   3        3S          0.00000   0.00000   4.31245   0.00000   0.00000
   4        4S          0.00000  -0.00000   0.45678   0.00000   0.00000
   5        5PX         0.00000   0.00000   0.00000   0.00000  -1.28672
   6        5PY         0.00000   0.00000   0.00000  -1.28672   0.00000
   7        5PZ         0.00000   0.00000  -0.70962   0.00000   0.00000
   8        6PX         0.00000   0.00000   0.00000   0.00000   3.04896
   9        6PY         0.00000   0.00000   0.00000   3.04896   0.00000
  10        6PZ         0.00000  -0.00000   1.90023   0.00000   0.00000
  11        7PX         0.00000   0.00000   0.00000   0.00000   0.12455
  12        7PY         0.00000   0.00000   0.00000   0.12455   0.00000
  13        7PZ         0.00000  -0.00000  -2.27846   0.00000   0.00000
  14        8D 0        0.00000  -0.00000  -0.78955   0.00000   0.00000
  15        8D+1        0.00000   0.00000   0.00000   0.00000  -0.24855
  16        8D-1        0.00000   0.00000   0.00000  -0.24855   0.00000
  17        8D+2        0.00000   0.84168  -0.00000   0.00000   0.00000
  18        8D-2        0.84168   0.00000   0.00000   0.00000   0.00000
  19        9D 0        0.00000   0.00000   0.28143   0.00000   0.00000
  20        9D+1        0.00000   0.00000   0.00000   0.00000  -1.46040
  21        9D-1        0.00000   0.00000   0.00000  -1.46040   0.00000
  22        9D+2        0.00000  -0.34082   0.00000   0.00000   0.00000
  23        9D-2       -0.34082   0.00000   0.00000   0.00000   0.00000
  24       10F 0        0.00000  -0.00000   0.10826   0.00000   0.00000
  25       10F+1        0.00000   0.00000   0.00000   0.00000   0.49116
  26       10F-1        0.00000   0.00000   0.00000   0.49116   0.00000
  27       10F+2        0.00000   0.19146  -0.00000   0.00000   0.00000
  28       10F-2        0.19146   0.00000   0.00000   0.00000   0.00000
  29       10F+3        0.00000   0.00000   0.00000   0.00000  -0.00000
  30       10F-3        0.00000   0.00000   0.00000   0.00000   0.00000
  31 2   H  1S          0.00000  -0.00000   0.23445   0.00000   0.00000
  32        2S          0.00000  -0.00000   0.97252   0.00000   0.00000
  33        3S          0.00000   0.00000  -4.31245   0.00000   0.00000
  34        4S          0.00000  -0.00000  -0.45678   0.00000   0.00000
  35        5PX         0.00000   0.00000   0.00000   0.00000   1.28672
  36        5PY         0.00000   0.00000   0.00000   1.28672   0.00000
  37        5PZ         0.00000  -0.00000  -0.70962   0.00000   0.00000
  38        6PX         0.00000   0.00000   0.00000   0.00000  -3.04896
  39        6PY         0.00000   0.00000   0.00000  -3.04896   0.00000
  40        6PZ         0.00000   0.00000   1.90023   0.00000   0.00000
  41        7PX         0.00000   0.00000   0.00000   0.00000  -0.12455
  42        7PY         0.00000   0.00000   0.00000  -0.12455   0.00000
  43        7PZ         0.00000   0.00000  -2.27846   0.00000   0.00000
  44        8D 0        0.00000  -0.00000   0.78955   0.00000   0.00000
  45        8D+1        0.00000   0.00000   0.00000   0.00000  -0.24855
  46        8D-1        0.00000   0.00000   0.00000  -0.24855   0.00000
  47        8D+2        0.00000   0.84168   0.00000   0.00000   0.00000
  48        8D-2        0.84168   0.00000   0.00000   0.00000   0.00000
  49        9D 0        0.00000   0.00000  -0.28143   0.00000   0.00000
  50        9D+1        0.00000   0.00000   0.00000   0.00000  -1.46040
  51        9D-1        0.00000   0.00000   0.00000  -1.46040   0.00000
  52        9D+2        0.00000  -0.34082  -0.00000   0.00000   0.00000
  53        9D-2       -0.34082   0.00000   0.00000   0.00000   0.00000
  54       10F 0        0.00000   0.00000   0.10826   0.00000   0.00000
  55       10F+1        0.00000   0.00000   0.00000   0.00000  -0.49116
  56       10F-1        0.00000   0.00000   0.00000  -0.49116   0.00000
  57       10F+2        0.00000  -0.19146  -0.00000   0.00000   0.00000
  58       10F-2       -0.19146   0.00000   0.00000   0.00000   0.00000
  59       10F+3        0.00000   0.00000   0.00000   0.00000   0.00000
  60       10F-3        0.00000   0.00000   0.00000  -0.00000   0.00000
                          51        52        53        54        55
                       (SGG)--V  (PIU)--V  (PIU)--V  (DLTU)--  (DLTU)--
     Eigenvalues --     8.54067   8.83171   8.83171   9.21826   9.21826
   1 1   H  1S         -0.61588   0.00000   0.00000  -0.00000   0.00000
   2        2S         -0.82932   0.00000   0.00000  -0.00000   0.00000
   3        3S          0.39215   0.00000   0.00000  -0.00000   0.00000
   4        4S          0.03288   0.00000   0.00000   0.00000   0.00000
   5        5PX         0.00000   0.98366   0.00000   0.00000   0.00000
   6        5PY         0.00000   0.00000   0.98366   0.00000   0.00000
   7        5PZ         0.21771   0.00000   0.00000   0.00000   0.00000
   8        6PX         0.00000  -0.46234   0.00000   0.00000   0.00000
   9        6PY         0.00000   0.00000  -0.46234   0.00000   0.00000
  10        6PZ        -0.48094   0.00000   0.00000  -0.00000   0.00000
  11        7PX         0.00000   0.10229   0.00000   0.00000   0.00000
  12        7PY         0.00000   0.00000   0.10229   0.00000   0.00000
  13        7PZ        -0.87685   0.00000   0.00000   0.00000   0.00000
  14        8D 0       -0.73255   0.00000   0.00000   0.00000   0.00000
  15        8D+1        0.00000  -0.14123   0.00000   0.00000   0.00000
  16        8D-1        0.00000   0.00000  -0.14123   0.00000   0.00000
  17        8D+2       -0.00000   0.00000   0.00000   0.87295   0.00000
  18        8D-2        0.00000   0.00000   0.00000   0.00000   0.87295
  19        9D 0        1.34051   0.00000   0.00000  -0.00000   0.00000
  20        9D+1        0.00000   0.28513   0.00000   0.00000   0.00000
  21        9D-1        0.00000   0.00000   0.28513   0.00000   0.00000
  22        9D+2        0.00000   0.00000   0.00000  -0.03271   0.00000
  23        9D-2        0.00000   0.00000   0.00000   0.00000  -0.03271
  24       10F 0       -0.41521   0.00000   0.00000   0.00000   0.00000
  25       10F+1        0.00000  -0.77541   0.00000   0.00000   0.00000
  26       10F-1        0.00000   0.00000  -0.77541   0.00000   0.00000
  27       10F+2       -0.00000   0.00000   0.00000  -0.76188   0.00000
  28       10F-2        0.00000   0.00000   0.00000   0.00000  -0.76188
  29       10F+3        0.00000   0.00000   0.00000   0.00000   0.00000
  30       10F-3        0.00000   0.00000   0.00000   0.00000   0.00000
  31 2   H  1S         -0.61588   0.00000   0.00000   0.00000   0.00000
  32        2S         -0.82932   0.00000   0.00000   0.00000   0.00000
  33        3S          0.39215   0.00000   0.00000   0.00000   0.00000
  34        4S          0.03288   0.00000   0.00000  -0.00000   0.00000
  35        5PX         0.00000   0.98366   0.00000   0.00000   0.00000
  36        5PY         0.00000   0.00000   0.98366   0.00000   0.00000
  37        5PZ        -0.21771   0.00000   0.00000   0.00000   0.00000
  38        6PX         0.00000  -0.46234   0.00000   0.00000   0.00000
  39        6PY         0.00000   0.00000  -0.46234   0.00000   0.00000
  40        6PZ         0.48094   0.00000   0.00000  -0.00000   0.00000
  41        7PX         0.00000   0.10229   0.00000   0.00000   0.00000
  42        7PY         0.00000   0.00000   0.10229   0.00000   0.00000
  43        7PZ         0.87685   0.00000   0.00000   0.00000   0.00000
  44        8D 0       -0.73255   0.00000   0.00000  -0.00000   0.00000
  45        8D+1        0.00000   0.14123   0.00000   0.00000   0.00000
  46        8D-1        0.00000   0.00000   0.14123   0.00000   0.00000
  47        8D+2       -0.00000   0.00000   0.00000  -0.87295   0.00000
  48        8D-2        0.00000   0.00000   0.00000   0.00000  -0.87295
  49        9D 0        1.34051   0.00000   0.00000   0.00000   0.00000
  50        9D+1        0.00000  -0.28513   0.00000   0.00000   0.00000
  51        9D-1        0.00000   0.00000  -0.28513   0.00000   0.00000
  52        9D+2        0.00000   0.00000   0.00000   0.03271   0.00000
  53        9D-2        0.00000   0.00000   0.00000   0.00000   0.03271
  54       10F 0        0.41521   0.00000   0.00000   0.00000   0.00000
  55       10F+1        0.00000  -0.77541   0.00000   0.00000   0.00000
  56       10F-1        0.00000   0.00000  -0.77541   0.00000   0.00000
  57       10F+2        0.00000   0.00000   0.00000  -0.76188   0.00000
  58       10F-2        0.00000   0.00000   0.00000   0.00000  -0.76188
  59       10F+3        0.00000   0.00000   0.00000   0.00000   0.00000
  60       10F-3        0.00000   0.00000   0.00000   0.00000   0.00000
                          56        57        58        59        60
                       (SGU)--V  (PIG)--V  (PIG)--V  (SGG)--V  (SGU)--V
     Eigenvalues --    10.49633  12.76395  12.76395  13.04046  16.10910
   1 1   H  1S         -1.33508   0.00000   0.00000   1.38078  -1.37602
   2        2S          5.83337   0.00000   0.00000   0.87015  14.14221
   3        3S          6.84160   0.00000   0.00000  -0.81440   8.21979
   4        4S         -0.45680   0.00000   0.00000   0.13461  -0.53502
   5        5PX         0.00000   0.08459   0.00000   0.00000   0.00000
   6        5PY         0.00000   0.00000   0.08459   0.00000   0.00000
   7        5PZ         0.88511   0.00000   0.00000  -1.37832  -1.39677
   8        6PX         0.00000   3.21248   0.00000   0.00000   0.00000
   9        6PY         0.00000   0.00000   3.21248   0.00000   0.00000
  10        6PZ        -4.22767   0.00000   0.00000   1.80271  -9.09987
  11        7PX         0.00000   0.45345   0.00000   0.00000   0.00000
  12        7PY         0.00000   0.00000   0.45345   0.00000   0.00000
  13        7PZ        -2.47572   0.00000   0.00000   0.39341  -3.00250
  14        8D 0       -0.15226   0.00000   0.00000  -0.46775   2.37196
  15        8D+1        0.00000  -1.75881   0.00000   0.00000   0.00000
  16        8D-1        0.00000   0.00000  -1.75881   0.00000   0.00000
  17        8D+2       -0.00000   0.00000   0.00000  -0.00000  -0.00000
  18        8D-2        0.00000   0.00000   0.00000   0.00000   0.00000
  19        9D 0        1.33146   0.00000   0.00000  -1.17240   2.41950
  20        9D+1        0.00000  -1.68753   0.00000   0.00000   0.00000
  21        9D-1        0.00000   0.00000  -1.68753   0.00000   0.00000
  22        9D+2        0.00000   0.00000   0.00000   0.00000   0.00000
  23        9D-2        0.00000   0.00000   0.00000   0.00000   0.00000
  24       10F 0        0.17683   0.00000   0.00000   0.82855  -0.87821
  25       10F+1        0.00000   1.34184   0.00000   0.00000   0.00000
  26       10F-1        0.00000   0.00000   1.34184   0.00000   0.00000
  27       10F+2        0.00000   0.00000   0.00000   0.00000  -0.00000
  28       10F-2        0.00000   0.00000   0.00000   0.00000   0.00000
  29       10F+3        0.00000  -0.00000   0.00000   0.00000   0.00000
  30       10F-3        0.00000   0.00000   0.00000   0.00000   0.00000
  31 2   H  1S          1.33508   0.00000   0.00000   1.38078   1.37602
  32        2S         -5.83337   0.00000   0.00000   0.87015 -14.14221
  33        3S         -6.84160   0.00000   0.00000  -0.81440  -8.21979
  34        4S          0.45680   0.00000   0.00000   0.13461   0.53502
  35        5PX         0.00000  -0.08459   0.00000   0.00000   0.00000
  36        5PY         0.00000   0.00000  -0.08459   0.00000   0.00000
  37        5PZ         0.88511   0.00000   0.00000   1.37832  -1.39677
  38        6PX         0.00000  -3.21248   0.00000   0.00000   0.00000
  39        6PY         0.00000   0.00000  -3.21248   0.00000   0.00000
  40        6PZ        -4.22767   0.00000   0.00000  -1.80271  -9.09987
  41        7PX         0.00000  -0.45345   0.00000   0.00000   0.00000
  42        7PY         0.00000   0.00000  -0.45345   0.00000   0.00000
  43        7PZ        -2.47572   0.00000   0.00000  -0.39341  -3.00250
  44        8D 0        0.15226   0.00000   0.00000  -0.46775  -2.37196
  45        8D+1        0.00000  -1.75881   0.00000   0.00000   0.00000
  46        8D-1        0.00000   0.00000  -1.75881   0.00000   0.00000
  47        8D+2        0.00000   0.00000   0.00000  -0.00000   0.00000
  48        8D-2        0.00000   0.00000   0.00000   0.00000   0.00000
  49        9D 0       -1.33146   0.00000   0.00000  -1.17240  -2.41950
  50        9D+1        0.00000  -1.68753   0.00000   0.00000   0.00000
  51        9D-1        0.00000   0.00000  -1.68753   0.00000   0.00000
  52        9D+2       -0.00000   0.00000   0.00000   0.00000  -0.00000
  53        9D-2        0.00000   0.00000   0.00000   0.00000   0.00000
  54       10F 0        0.17683   0.00000   0.00000  -0.82855  -0.87821
  55       10F+1        0.00000  -1.34184   0.00000   0.00000   0.00000
  56       10F-1        0.00000   0.00000  -1.34184   0.00000   0.00000
  57       10F+2        0.00000   0.00000   0.00000  -0.00000  -0.00000
  58       10F-2        0.00000   0.00000   0.00000   0.00000   0.00000
  59       10F+3        0.00000   0.00000   0.00000   0.00000   0.00000
  60       10F-3        0.00000   0.00000  -0.00000   0.00000   0.00000
     Density Matrix:
                           1         2         3         4         5
   1 1   H  1S          0.01018
   2        2S          0.02597   0.06625
   3        3S          0.03748   0.09561   0.13799
   4        4S          0.01364   0.03481   0.05023   0.01829
   5        5PX        -0.00000  -0.00000  -0.00000  -0.00000   0.00000
   6        5PY        -0.00000  -0.00000  -0.00000  -0.00000   0.00000
   7        5PZ        -0.00074  -0.00188  -0.00272  -0.00099   0.00000
   8        6PX        -0.00000  -0.00000  -0.00000  -0.00000   0.00000
   9        6PY        -0.00000  -0.00000  -0.00000  -0.00000   0.00000
  10        6PZ        -0.00173  -0.00441  -0.00637  -0.00232   0.00000
  11        7PX        -0.00000  -0.00000  -0.00000  -0.00000   0.00000
  12        7PY        -0.00000  -0.00000  -0.00000  -0.00000   0.00000
  13        7PZ        -0.00248  -0.00633  -0.00913  -0.00332   0.00000
  14        8D 0        0.00020   0.00051   0.00073   0.00027  -0.00000
  15        8D+1        0.00000   0.00000   0.00000   0.00000  -0.00000
  16        8D-1        0.00000   0.00000   0.00000   0.00000   0.00000
  17        8D+2       -0.00000  -0.00000  -0.00000  -0.00000   0.00000
  18        8D-2        0.00000   0.00000   0.00000   0.00000   0.00000
  19        9D 0        0.00022   0.00056   0.00082   0.00030  -0.00000
  20        9D+1        0.00000   0.00000   0.00000   0.00000  -0.00000
  21        9D-1        0.00000   0.00000   0.00000   0.00000   0.00000
  22        9D+2       -0.00000  -0.00000  -0.00000  -0.00000   0.00000
  23        9D-2        0.00000   0.00000   0.00000   0.00000   0.00000
  24       10F 0       -0.00004  -0.00010  -0.00015  -0.00005   0.00000
  25       10F+1       -0.00000  -0.00000  -0.00000  -0.00000   0.00000
  26       10F-1       -0.00000  -0.00000  -0.00000  -0.00000   0.00000
  27       10F+2       -0.00000  -0.00000  -0.00000  -0.00000   0.00000
  28       10F-2        0.00000   0.00000   0.00000   0.00000   0.00000
  29       10F+3       -0.00000  -0.00000  -0.00000  -0.00000   0.00000
  30       10F-3       -0.00000  -0.00000  -0.00000  -0.00000   0.00000
  31 2   H  1S          0.01018   0.02597   0.03748   0.01364  -0.00000
  32        2S          0.02597   0.06625   0.09561   0.03481  -0.00000
  33        3S          0.03748   0.09561   0.13799   0.05023  -0.00000
  34        4S          0.01364   0.03481   0.05023   0.01829  -0.00000
  35        5PX         0.00000   0.00000   0.00000   0.00000  -0.00000
  36        5PY         0.00000   0.00000   0.00000   0.00000   0.00000
  37        5PZ         0.00074   0.00188   0.00272   0.00099  -0.00000
  38        6PX         0.00000   0.00000   0.00000   0.00000  -0.00000
  39        6PY         0.00000   0.00000   0.00000   0.00000   0.00000
  40        6PZ         0.00173   0.00441   0.00637   0.00232  -0.00000
  41        7PX         0.00000   0.00000   0.00000   0.00000  -0.00000
  42        7PY         0.00000   0.00000   0.00000   0.00000   0.00000
  43        7PZ         0.00248   0.00633   0.00913   0.00332  -0.00000
  44        8D 0        0.00020   0.00051   0.00073   0.00027  -0.00000
  45        8D+1        0.00000   0.00000   0.00000   0.00000  -0.00000
  46        8D-1        0.00000   0.00000   0.00000   0.00000   0.00000
  47        8D+2       -0.00000  -0.00000  -0.00000  -0.00000   0.00000
  48        8D-2        0.00000   0.00000   0.00000   0.00000   0.00000
  49        9D 0        0.00022   0.00056   0.00082   0.00030  -0.00000
  50        9D+1        0.00000   0.00000   0.00000   0.00000  -0.00000
  51        9D-1        0.00000   0.00000   0.00000   0.00000   0.00000
  52        9D+2       -0.00000  -0.00000  -0.00000  -0.00000   0.00000
  53        9D-2        0.00000   0.00000   0.00000   0.00000   0.00000
  54       10F 0        0.00004   0.00010   0.00015   0.00005  -0.00000
  55       10F+1        0.00000   0.00000   0.00000   0.00000  -0.00000
  56       10F-1        0.00000   0.00000   0.00000   0.00000   0.00000
  57       10F+2        0.00000   0.00000   0.00000   0.00000  -0.00000
  58       10F-2        0.00000   0.00000   0.00000   0.00000   0.00000
  59       10F+3        0.00000   0.00000   0.00000   0.00000  -0.00000
  60       10F-3        0.00000   0.00000   0.00000   0.00000   0.00000
                           6         7         8         9        10
   6        5PY         0.00000
   7        5PZ         0.00000   0.00005
   8        6PX         0.00000   0.00000   0.00000
   9        6PY         0.00000   0.00000   0.00000   0.00000
  10        6PZ         0.00000   0.00013   0.00000   0.00000   0.00029
  11        7PX         0.00000   0.00000   0.00000   0.00000   0.00000
  12        7PY         0.00000   0.00000   0.00000   0.00000   0.00000
  13        7PZ         0.00000   0.00018   0.00000   0.00000   0.00042
  14        8D 0       -0.00000  -0.00001  -0.00000  -0.00000  -0.00003
  15        8D+1       -0.00000  -0.00000  -0.00000  -0.00000  -0.00000
  16        8D-1       -0.00000  -0.00000   0.00000  -0.00000  -0.00000
  17        8D+2        0.00000   0.00000   0.00000   0.00000   0.00000
  18        8D-2       -0.00000   0.00000   0.00000  -0.00000   0.00000
  19        9D 0       -0.00000  -0.00002  -0.00000  -0.00000  -0.00004
  20        9D+1       -0.00000  -0.00000  -0.00000  -0.00000  -0.00000
  21        9D-1       -0.00000  -0.00000   0.00000  -0.00000  -0.00000
  22        9D+2        0.00000   0.00000   0.00000   0.00000   0.00000
  23        9D-2       -0.00000   0.00000   0.00000  -0.00000   0.00000
  24       10F 0        0.00000   0.00000   0.00000   0.00000   0.00001
  25       10F+1        0.00000   0.00000   0.00000   0.00000   0.00000
  26       10F-1        0.00000   0.00000   0.00000   0.00000   0.00000
  27       10F+2        0.00000   0.00000   0.00000   0.00000   0.00000
  28       10F-2       -0.00000   0.00000   0.00000  -0.00000   0.00000
  29       10F+3        0.00000   0.00000   0.00000   0.00000   0.00000
  30       10F-3        0.00000   0.00000   0.00000   0.00000   0.00000
  31 2   H  1S         -0.00000  -0.00074  -0.00000  -0.00000  -0.00173
[...]
  49        9D 0        0.00000   0.00000   0.00000   0.00000
  50        9D+1        0.00000   0.00000   0.00000   0.00000   0.00000
  51        9D-1        0.00000   0.00000   0.00000   0.00000   0.00000
  52        9D+2        0.00000  -0.00000   0.00000   0.00000   0.00000
  53        9D-2        0.00000   0.00000  -0.00000   0.00000   0.00000
  54       10F 0        0.00000   0.00000   0.00000   0.00000   0.00000
  55       10F+1        0.00000   0.00000   0.00000   0.00000   0.00000
  56       10F-1        0.00000   0.00000   0.00000   0.00000   0.00000
  57       10F+2        0.00000   0.00000   0.00000   0.00000   0.00000
  58       10F-2        0.00000   0.00000   0.00000   0.00000   0.00000
  59       10F+3        0.00000   0.00000   0.00000   0.00000   0.00000
  60       10F-3        0.00000   0.00000   0.00000   0.00000   0.00000
                          51        52        53        54        55
  51        9D-1        0.00000
  52        9D+2        0.00000   0.00000
  53        9D-2        0.00000   0.00000   0.00000
  54       10F 0        0.00000   0.00000   0.00000   0.00000
  55       10F+1        0.00000   0.00000   0.00000   0.00000   0.00000
  56       10F-1        0.00000   0.00000   0.00000   0.00000   0.00000
  57       10F+2        0.00000   0.00000   0.00000   0.00000   0.00000
  58       10F-2        0.00000   0.00000   0.00000   0.00000   0.00000
  59       10F+3        0.00000   0.00000   0.00000   0.00000  -0.00000
  60       10F-3        0.00000   0.00000   0.00000   0.00000   0.00000
                          56        57        58        59        60
  56       10F-1        0.00000
  57       10F+2        0.00000   0.00000
  58       10F-2        0.00000   0.00000  -0.00000
  59       10F+3        0.00000   0.00000   0.00000  -0.00000
  60       10F-3        0.00000   0.00000   0.00000   0.00000  -0.00000
     Gross orbital populations:
                           1
   1 1   H  1S          0.06512
   2        2S          0.28794
   3        3S          0.48096
   4        4S          0.14676
   5        5PX         0.00000
   6        5PY         0.00000
   7        5PZ         0.00134
   8        6PX         0.00000
   9        6PY         0.00000
  10        6PZ         0.00621
  11        7PX         0.00000
  12        7PY         0.00000
  13        7PZ         0.01101
  14        8D 0        0.00020
  15        8D+1        0.00000
  16        8D-1        0.00000
  17        8D+2       -0.00000
  18        8D-2       -0.00000
  19        9D 0        0.00043
  20        9D+1        0.00000
  21        9D-1        0.00000
  22        9D+2       -0.00000
  23        9D-2       -0.00000
  24       10F 0        0.00003
  25       10F+1        0.00000
  26       10F-1        0.00000
  27       10F+2       -0.00000
  28       10F-2       -0.00000
  29       10F+3       -0.00000
  30       10F-3       -0.00000
  31 2   H  1S          0.06512
  32        2S          0.28794
  33        3S          0.48096
  34        4S          0.14676
  35        5PX         0.00000
  36        5PY         0.00000
  37        5PZ         0.00134
  38        6PX         0.00000
  39        6PY         0.00000
  40        6PZ         0.00621
  41        7PX         0.00000
  42        7PY         0.00000
  43        7PZ         0.01101
  44        8D 0        0.00020
  45        8D+1       -0.00000
  46        8D-1       -0.00000
  47        8D+2       -0.00000
  48        8D-2       -0.00000
  49        9D 0        0.00043
  50        9D+1       -0.00000
  51        9D-1       -0.00000
  52        9D+2       -0.00000
  53        9D-2       -0.00000
  54       10F 0        0.00003
  55       10F+1       -0.00000
  56       10F-1       -0.00000
  57       10F+2        0.00000
  58       10F-2       -0.00000
  59       10F+3       -0.00000
  60       10F-3       -0.00000
          Condensed to atoms (all electrons):
              1          2
     1  H    0.571953   0.428047
     2  H    0.428047   0.571953
 Mulliken atomic charges:
              1
     1  H   -0.000000
     2  H   -0.000000
 Sum of Mulliken atomic charges =  -0.00000
 Mulliken charges with hydrogens summed into heavy atoms:
              1
 Sum of Mulliken charges with hydrogens summed into heavy atoms =  -0.00000
 APT atomic charges:
              1
     1  H   -0.000000
     2  H   -0.000000
 Sum of APT charges=  -0.00000
 APT Atomic charges with hydrogens summed into heavy atoms:
              1
     1  H   -0.000000
     2  H   -0.000000
 Sum of APT charges=  -0.00000
 Electronic spatial extent (au):  <R**2>=              5.1212
 Charge=             -0.0000 electrons
 Dipole moment (field-independent basis, Debye):
    X=             -0.0000    Y=             -0.0000    Z=              0.0000  Tot=              0.0000
 Quadrupole moment (field-independent basis, Debye-Ang):
   XX=             -2.0782   YY=             -2.0782   ZZ=             -1.4389
   XY=             -0.0000   XZ=             -0.0000   YZ=              0.0000
 Traceless Quadrupole moment (field-independent basis, Debye-Ang):
   XX=             -0.2131   YY=             -0.2131   ZZ=              0.4262
   XY=             -0.0000   XZ=             -0.0000   YZ=              0.0000
 Octapole moment (field-independent basis, Debye-Ang**2):
  XXX=             -0.0000  YYY=             -0.0000  ZZZ=              0.0000  XYY=             -0.0000
  XXY=              0.0000  XXZ=             -0.0000  XZZ=             -0.0000  YZZ=              0.0000
  YYZ=             -0.0000  XYZ=              0.0000
 Hexadecapole moment (field-independent basis, Debye-Ang**3):
 XXXX=             -2.0628 YYYY=             -2.0628 ZZZZ=             -2.7354 XXXY=             -0.0000
 XXXZ=              0.0000 YYYX=             -0.0000 YYYZ=              0.0000 ZZZX=              0.0000
 ZZZY=              0.0000 XXYY=             -0.6876 XXZZ=             -0.8178 YYZZ=             -0.8178
 XXYZ=              0.0000 YYXZ=              0.0000 ZZXY=             -0.0000
 N-N= 7.212200150057D-01 E-N=-3.648768919696D+00  KE= 1.133008745331D+00
 Symmetry AG   KE= 1.133008745331D+00
 Symmetry B1G  KE=-2.230907257514D-53
 Symmetry B2G  KE= 1.956922199133D-31
 Symmetry B3G  KE= 1.956922199133D-31
 Symmetry AU   KE=-1.615017182669D-55
 Symmetry B1U  KE= 9.480729141706D-23
 Symmetry B2U  KE= 8.017924628742D-34
 Symmetry B3U  KE= 8.017924628742D-34
 Orbital energies and kinetic energies (alpha):
                                 1                 2
   1 (SGG)--O                 -0.596835          0.566504
   2 (SGU)--V                  0.148438          0.230046
   3 (SGG)--V                  0.231008          0.357307
   4 (PIU)--V                  0.510631          0.626014
   5 (PIU)--V                  0.510631          0.626014
   6 (SGU)--V                  0.524145          0.832485
   7 (SGG)--V                  0.803071          0.879834
   8 (PIG)--V                  0.814928          0.860026
   9 (PIG)--V                  0.814928          0.860026
  10 (SGU)--V                  1.108162          1.132558
  11 (SGG)--V                  1.305594          1.708420
  12 (SGU)--V                  1.588345          2.171329
  13 (DLTG)--V                 1.943197          2.052988
  14 (DLTG)--V                 1.943197          2.052988
  15 (PIU)--V                  2.155198          2.451067
  16 (PIU)--V                  2.155198          2.451067
  17 (SGG)--V                  2.356380          2.605494
  18 (PIG)--V                  2.356818          2.506393
  19 (PIG)--V                  2.356818          2.506393
  20 (DLTU)--V                 2.556700          2.640742
  21 (DLTU)--V                 2.556700          2.640742
  22 (PIU)--V                  2.562064          2.677182
  23 (PIU)--V                  2.562064          2.677182
  24 (SGU)--V                  3.016241          3.171174
  25 (SGG)--V                  3.347398          3.661414
  26 (PIG)--V                  3.627582          3.822555
  27 (PIG)--V                  3.627582          3.822555
  28 (SGU)--V                  4.002844          4.776324
  29 (SGG)--V                  5.580562          6.392456
  30 (PHIU)--V                 5.702967          5.898098
  31 (PHIU)--V                 5.702967          5.898098
  32 (DLTG)--V                 6.256364          6.515193
  33 (DLTG)--V                 6.256364          6.515193
  34 (PHIG)--V                 6.759849          6.949393
  35 (PHIG)--V                 6.759849          6.949393
  36 (PIU)--V                  7.003985          7.617601
  37 (PIU)--V                  7.003985          7.617601
  38 (PIG)--V                  7.072586          7.319407
  39 (PIG)--V                  7.072586          7.319407
  40 (SGG)--V                  7.388143          8.302727
  41 (DLTU)--V                 7.598163          7.855292
  42 (DLTU)--V                 7.598163          7.855292
  43 (SGU)--V                  7.752440          8.005995
  44 (PIU)--V                  7.974968          8.431992
  45 (PIU)--V                  7.974968          8.431992
  46 (DLTG)--V                 7.991887          8.431133
  47 (DLTG)--V                 7.991887          8.431133
  48 (SGU)--V                  8.303441          9.072623
  49 (PIG)--V                  8.408933          9.193681
  50 (PIG)--V                  8.408933          9.193681
  51 (SGG)--V                  8.554227          9.336087
  52 (PIU)--V                  8.859487          9.366385
  53 (PIU)--V                  8.859487          9.366385
  54 (DLTU)--V                 9.258271          9.678663
  55 (DLTU)--V                 9.258271          9.678663
  56 (SGU)--V                 10.532213         12.663174
  57 (PIG)--V                 12.832729         13.401637
  58 (PIG)--V                 12.832729         13.401637
  59 (SGG)--V                 13.139006         15.211206
  60 (SGU)--V                 16.119877         17.445489
 Total kinetic energy from orbitals= 1.133008745331D+00
  Exact polarizability:   3.401   0.000   3.401  -0.000   0.000   6.400
 Approx polarizability:   2.583  -0.000   2.583  -0.000  -0.000   4.823
 No NMR shielding tensors so no spin-rotation constants.
 Leave Link  601 at Sun Aug 18 15:11:16 2024, MaxMem=   13107200 cpu:       0.2
 (Enter /programs/64bit/g09/g09-gfortran/bin/l701.exe)
 Compute integral second derivatives.
 ... and contract with generalized density number  0.
 Leave Link  701 at Sun Aug 18 15:11:16 2024, MaxMem=   13107200 cpu:       0.3
 (Enter /programs/64bit/g09/g09-gfortran/bin/l702.exe)
 L702 exits ... SP integral derivatives will be done elsewhere.
 Leave Link  702 at Sun Aug 18 15:11:16 2024, MaxMem=   13107200 cpu:       0.0
 (Enter /programs/64bit/g09/g09-gfortran/bin/l703.exe)
 Compute integral second derivatives, UseDBF=F ICtDFT=           0.
 Integral derivatives from FoFDir, PRISM(SPDF).
 Calling FoFJK, ICntrl=    100127 FMM=F ISym2X=1 I1Cent= 0 IOpClX= 0 NMat=1 NMatS=1 NMatT=0.
 FoFCou: FMM=F IPFlag=           0 FMFlag=      100000 FMFlg1=         800
         NFxFlg=           0 DoJE=F BraDBF=F KetDBF=F FulRan=T
         Omega=  0.000000  0.000000  1.000000  0.000000  0.000000 ICntrl=  100127 IOpCl=  0
         NMat0=    1 NMatS0=    1 NMatT0=    0 NMatD0=    1 NMtDS0=    0 NMtDT0=    0
         I1Cent=           0 NGrid=           0.
 Petite list used in FoFCou.
 Leave Link  703 at Sun Aug 18 15:11:20 2024, MaxMem=   13107200 cpu:       3.7
 (Enter /programs/64bit/g09/g09-gfortran/bin/l716.exe)
 Dipole        =-8.62816615D-32-1.44444746D-34-1.92341727D-17
 Polarizability= 3.40142763D+00 0.00000000D+00 3.40142763D+00
                -3.53295008D-16 0.00000000D+00 6.40010228D+00
 HyperPolar    =-4.07945269D-16-1.35981756D-16-1.35981756D-16
                -4.07945269D-16 7.90635131D-15-1.88219105D-29
                 5.84553855D-15 8.21674765D-16 8.21674765D-16
                 1.37852685D-13
 Full mass-weighted force constant matrix:
 Low frequencies ---  -23.1811  -23.1811   -0.0004   -0.0000    0.0002 4582.3120
 Diagonal vibrational polarizability:
        0.0000000       0.0000000       0.0000000
 Diagonal vibrational hyperpolarizability:
        0.0000000      -0.0000000       0.0000000
 Harmonic frequencies (cm**-1), IR intensities (KM/Mole), Raman scattering
 activities (A**4/AMU), depolarization ratios for plane and unpolarized
 incident light, reduced masses (AMU), force constants (mDyne/A),
 and normal coordinates:
                     1
                    SGG
 Frequencies --  4582.3120
 Red. masses --     1.0078
 Frc consts  --    12.4682
 IR Inten    --     0.0000
 Raman Activ --   124.4182
 Depolar (P) --     0.1176
 Depolar (U) --     0.2105
  Atom  AN      X      Y      Z
     1   1    -0.00   0.00   0.71
     2   1     0.00   0.00  -0.71

 -------------------
 - Thermochemistry -
 -------------------
 Temperature   298.150 Kelvin.  Pressure   1.00000 Atm.
 Atom     1 has atomic number  1 and mass   1.00783
 Atom     2 has atomic number  1 and mass   1.00783
 Molecular mass:     2.01565 amu.
 Principal axes and moments of inertia in atomic units:
                           1         2         3
     Eigenvalues --     0.00000   0.96877   0.96877
           X           -0.00000   1.00000  -0.00000
           Y            0.00000   0.00000   1.00000
           Z            1.00000   0.00000  -0.00000
 This molecule is a prolate symmetric top.
 Rotational symmetry number  2.
 Rotational temperature (Kelvin)     89.40618
 Rotational constant (GHZ):        1862.924814
 Zero-point vibrational energy      27408.3 (Joules/Mol)
                                    6.55074 (Kcal/Mol)
 Vibrational temperatures:   6592.92
          (Kelvin)
 
 Zero-point correction=                           0.010439 (Hartree/Particle)
 Thermal correction to Energy=                    0.012800
 Thermal correction to Enthalpy=                  0.013744
 Thermal correction to Gibbs Free Energy=        -0.001025
 Sum of electronic and zero-point Energies=             -1.123055
 Sum of electronic and thermal Energies=                -1.120695
 Sum of electronic and thermal Enthalpies=              -1.119751
 Sum of electronic and thermal Free Energies=           -1.134519
 
                     E (Thermal)             CV                S
                      KCal/Mol        Cal/Mol-Kelvin    Cal/Mol-Kelvin
 Total                    8.032              4.968             31.083
 Electronic               0.000              0.000              0.000
 Translational            0.889              2.981             28.080
 Rotational               0.592              1.987              3.003
 Vibrational              6.551              0.000              0.000
                       Q            Log10(Q)             Ln(Q)
 Total Bot       0.296069D+01          0.471392          1.085421
 Total V=0       0.187549D+06          5.273115         12.141796
 Vib (Bot)       0.157862D-04         -4.801723        -11.056376
 Vib (V=0)       0.100000D+01          0.000000          0.000000
 Electronic      0.100000D+01          0.000000          0.000000
 Translational   0.112481D+06          5.051078         11.630537
 Rotational      0.166739D+01          0.222037          0.511260
 ***** Axes restored to original set *****
 -------------------------------------------------------------------
 Center     Atomic                   Forces (Hartrees/Bohr)
 Number     Number              X              Y              Z
 -------------------------------------------------------------------
      1        1           0.000000000   -0.000000000   -0.000014209
      2        1          -0.000000000    0.000000000    0.000014209
 -------------------------------------------------------------------
 Cartesian Forces:  Max     0.000014209 RMS     0.000008203
 Force constants in Cartesian coordinates: 
                1             2             3             4             5 
      1 -0.102474D-04
      2  0.000000D+00 -0.102474D-04
      3  0.000000D+00  0.000000D+00  0.400420D+00
      4  0.102474D-04  0.000000D+00  0.000000D+00 -0.102474D-04
      5  0.000000D+00  0.102474D-04  0.000000D+00  0.000000D+00 -0.102474D-04
      6  0.000000D+00  0.000000D+00 -0.400420D+00  0.000000D+00  0.000000D+00
                6 
      6  0.400420D+00
 Force constants in internal coordinates: 
                1 
      1  0.400420D+00
 Leave Link  716 at Sun Aug 18 15:11:20 2024, MaxMem=   13107200 cpu:       0.0
 (Enter /programs/64bit/g09/g09-gfortran/bin/l103.exe)

 GradGradGradGradGradGradGradGradGradGradGradGradGradGradGradGradGradGrad
 Berny optimization.
 Internal  Forces:  Max     0.000014209 RMS     0.000014209
 Search for a local minimum.
 Step number   1 out of a maximum of    2
 All quantities printed in internal units (Hartrees-Bohrs-Radians)
 Second derivative matrix not updated -- analytic derivatives used.
 The second derivative matrix:
                          R1
           R1           0.40042
     Eigenvalues ---    0.40042
 Angle between quadratic step and forces=   0.00 degrees.
 Linear search not attempted -- first point.
 Iteration  1 RMS(Cart)=  0.00002509 RMS(Int)=  0.00000000
 Iteration  2 RMS(Cart)=  0.00000000 RMS(Int)=  0.00000000
 ClnCor:  largest displacement from symmetrization is 1.09D-21 for atom     1.
 Variable       Old X    -DE/DX   Delta X   Delta X   Delta X     New X
                                 (Linear)    (Quad)   (Total)
    R1        1.38654   0.00001   0.00000   0.00004   0.00004   1.38657
         Item               Value     Threshold  Converged?
 Maximum Force            0.000014     0.000450     YES
 RMS     Force            0.000014     0.000300     YES
 Maximum Displacement     0.000018     0.001800     YES
 RMS     Displacement     0.000025     0.001200     YES
 Predicted change in Energy=-2.520970D-10
 Optimization completed.
    -- Stationary point found.
                           ----------------------------
                           !   Optimized Parameters   !
                           ! (Angstroms and Degrees)  !
 --------------------------                            --------------------------
 ! Name  Definition              Value          Derivative Info.                !
 --------------------------------------------------------------------------------
 ! R1    R(1,2)                  0.7337         -DE/DX =    0.0                 !
 --------------------------------------------------------------------------------
 GradGradGradGradGradGradGradGradGradGradGradGradGradGradGradGradGradGrad

 Leave Link  103 at Sun Aug 18 15:11:20 2024, MaxMem=   13107200 cpu:       0.0
 (Enter /programs/64bit/g09/g09-gfortran/bin/l9999.exe)
 1\1\GINC-MOLMOD\Freq\RHF\CC-pVQZ\H2\OSPITE\18-Aug-2024\0\\#P Geom=AllC
 heck Guess=TCheck SCRF=Check GenChk RHF/CC-pVQZ Freq\\hydogen (molecul
 e) with cc-pVQZ basis set\\0,1\H,0.,0.,0.0031374632\H,0.,0.,0.73686253
 68\\Version=EM64L-G09RevA.02\State=1-SGG\HF=-1.1334946\RMSD=3.481e-11\
 RMSF=8.203e-06\ZeroPoint=0.0104393\Thermal=0.0127997\Dipole=0.,0.,0.\D
 ipoleDeriv=0.,0.,0.,0.,0.,0.,0.,0.,0.,0.,0.,0.,0.,0.,0.,0.,0.,0.\Polar
 =3.4014276,0.,3.4014276,0.,0.,6.4001023\PolarDeriv=0.,0.,0.,-2.1627042
 ,0.,0.,0.,0.,0.,0.,-2.1627042,0.,-1.8956592,0.,-1.8956592,0.,0.,-7.192
 0256,0.,0.,0.,2.1627042,0.,0.,0.,0.,0.,0.,2.1627042,0.,1.8956592,0.,1.
 8956592,0.,0.,7.1920256\HyperPolar=0.,0.,0.,0.,0.,0.,0.,0.,0.,0.\PG=D*
 H [C*(H1.H1)]\NImag=0\\-0.00001025,0.,-0.00001025,0.,0.,0.40042014,0.0
 0001025,0.,0.,-0.00001025,0.,0.00001025,0.,0.,-0.00001025,0.,0.,-0.400
 42014,0.,0.,0.40042014\\0.,0.,0.00001421,0.,0.,-0.00001421\\\@


 THE BEST WAY TO CONVINCE A FOOL THAT HE IS WRONG 
 IS TO LET HIM HAVE HIS OWN WAY.

                                         JOSH BILLINGS
 Job cpu time:  0 days  0 hours  0 minutes  9.6 seconds.
 File lengths (MBytes):  RWF=      5 Int=      0 D2E=      0 Chk=      1 Scr=      1
 Normal termination of Gaussian 09 at Sun Aug 18 15:11:21 2024.
