 Entering Gaussian System, Link 0=/programs/64bit/g09/g09-gfortran/bin/g09
 Input=gas.com
 Output=gas.log
 Initial command:
 /programs/64bit/g09/g09-gfortran/bin/l1.exe /home/ospite/Desktop/MMfP/Project10/pKa_calcualtion/H3O+/Gau-4988.inp -scrdir=/home/ospite/Desktop/MMfP/Project10/pKa_calcualtion/H3O+/
 Entering Link 1 = /programs/64bit/g09/g09-gfortran/bin/l1.exe PID=      4989.
  
 Copyright (c) 1988,1990,1992,1993,1995,1998,2003,2009, Gaussian, Inc.
                  All Rights Reserved.
  
 This is part of the Gaussian(R) 09 program.  It is based on
 the Gaussian(R) 03 system (copyright 2003, Gaussian, Inc.),
 the Gaussian(R) 98 system (copyright 1998, Gaussian, Inc.),
 the Gaussian(R) 94 system (copyright 1995, Gaussian, Inc.),
 the Gaussian 92(TM) system (copyright 1992, Gaussian, Inc.),
 the Gaussian 90(TM) system (copyright 1990, Gaussian, Inc.),
 the Gaussian 88(TM) system (copyright 1988, Gaussian, Inc.),
 the Gaussian 86(TM) system (copyright 1986, Carnegie Mellon
 University), and the Gaussian 82(TM) system (copyright 1983,
 Carnegie Mellon University). Gaussian is a federally registered
 trademark of Gaussian, Inc.
  
 This software contains proprietary and confidential information,
 including trade secrets, belonging to Gaussian, Inc.
  
 This software is provided under written license and may be
 used, copied, transmitted, or stored only in accord with that
 written license.
  
 The following legend is applicable only to US Government
 contracts under FAR:
  
                    RESTRICTED RIGHTS LEGEND
  
 Use, reproduction and disclosure by the US Government is
 subject to restrictions as set forth in subparagraphs (a)
 and (c) of the Commercial Computer Software - Restricted
 Rights clause in FAR 52.227-19.
  
 Gaussian, Inc.
 340 Quinnipiac St., Bldg. 40, Wallingford CT 06492
  
  
 ---------------------------------------------------------------
 Warning -- This program may not be used in any manner that
 competes with the business of Gaussian, Inc. or will provide
 assistance to any competitor of Gaussian, Inc.  The licensee
 of this program is prohibited from giving any competitor of
 Gaussian, Inc. access to this program.  By using this program,
 the user acknowledges that Gaussian, Inc. is engaged in the
 business of creating and licensing software in the field of
 computational chemistry and represents and warrants to the
 licensee that it is not a competitor of Gaussian, Inc. and that
 it will not use this program in any manner prohibited above.
 ---------------------------------------------------------------
  

 Cite this work as:
 Gaussian 09, Revision A.02,
 M. J. Frisch, G. W. Trucks, H. B. Schlegel, G. E. Scuseria, 
 M. A. Robb, J. R. Cheeseman, G. Scalmani, V. Barone, B. Mennucci, 
 G. A. Petersson, H. Nakatsuji, M. Caricato, X. Li, H. P. Hratchian, 
 A. F. Izmaylov, J. Bloino, G. Zheng, J. L. Sonnenberg, M. Hada, 
 M. Ehara, K. Toyota, R. Fukuda, J. Hasegawa, M. Ishida, T. Nakajima, 
 Y. Honda, O. Kitao, H. Nakai, T. Vreven, J. A. Montgomery, Jr., 
 J. E. Peralta, F. Ogliaro, M. Bearpark, J. J. Heyd, E. Brothers, 
 K. N. Kudin, V. N. Staroverov, R. Kobayashi, J. Normand, 
 K. Raghavachari, A. Rendell, J. C. Burant, S. S. Iyengar, J. Tomasi, 
 M. Cossi, N. Rega, J. M. Millam, M. Klene, J. E. Knox, J. B. Cross, 
 V. Bakken, C. Adamo, J. Jaramillo, R. Gomperts, R. E. Stratmann, 
 O. Yazyev, A. J. Austin, R. Cammi, C. Pomelli, J. W. Ochterski, 
 R. L. Martin, K. Morokuma, V. G. Zakrzewski, G. A. Voth, 
 P. Salvador, J. J. Dannenberg, S. Dapprich, A. D. Daniels, 
 O. Farkas, J. B. Foresman, J. V. Ortiz, J. Cioslowski, 
 and D. J. Fox, Gaussian, Inc., Wallingford CT, 2009.
 
 ******************************************
 Gaussian 09:  EM64L-G09RevA.02 11-Jun-2009
                17-Sep-2024 
 ******************************************
 %mem=100Mb
 %nprocshared=2
 Will use up to    2 processors via shared memory.
 ------------------------
 #p B3LYP/6-31+g(d,p) opt
 ------------------------
 1/14=-1,18=20,19=15,26=3,38=1/1,3;
 2/9=110,12=2,17=6,18=5,40=1/2;
 3/5=1,6=6,7=111,11=2,16=1,25=1,30=1,71=1,74=-5/1,2,3;
 4//1;
 5/5=2,38=5/2;
 6/7=2,8=2,9=2,10=2,28=1/1;
 7//1,2,3,16;
 1/14=-1,18=20,19=15/3(2);
 2/9=110/2;
 99//99;
 2/9=110/2;
 3/5=1,6=6,7=111,11=2,16=1,25=1,30=1,71=1,74=-5/1,2,3;
 4/5=5,16=3/1;
 5/5=2,38=5/2;
 7//1,2,3,16;
 1/14=-1,18=20,19=15/3(-5);
 2/9=110/2;
 6/7=2,8=2,9=2,10=2,19=2,28=1/1;
 99/9=1/99;
 Leave Link    1 at Tue Sep 17 13:08:56 2024, MaxMem=   13107200 cpu:       0.1
 (Enter /programs/64bit/g09/g09-gfortran/bin/l101.exe)
 --------
 h3o+ gas
 --------
 Symbolic Z-matrix:
 Charge =  1 Multiplicity = 1
 o
 h                    1    ho2
 h                    1    ho3      2    hoh3
 h                    1    ho4      2    hoh4     3    dih4     0
       Variables:
  ho2                   0.95                     
  ho3                   0.95                     
  hoh3                109.471                    
  ho4                   0.95                     
  hoh4                109.471                    
  dih4                120.                       
 
     2 tetrahedral angles replaced.
 NAtoms=      4 NQM=      4 NQMF=      0 NMic=      0 NMicF=      0 NTot=      4.
                    Isotopes and Nuclear Properties:
 (Nuclear quadrupole moments (NQMom) in fm**2, nuclear magnetic moments (NMagM)
  in nuclear magnetons)

  Atom         1           2           3           4
 IAtWgt=          16           1           1           1
 AtmWgt=  15.9949146   1.0078250   1.0078250   1.0078250
 NucSpn=           0           1           1           1
 AtZEff=   0.0000000   0.0000000   0.0000000   0.0000000
 NQMom=    0.0000000   0.0000000   0.0000000   0.0000000
 NMagM=    0.0000000   2.7928460   2.7928460   2.7928460
 Leave Link  101 at Tue Sep 17 13:08:56 2024, MaxMem=   13107200 cpu:       0.2
 (Enter /programs/64bit/g09/g09-gfortran/bin/l103.exe)

 GradGradGradGradGradGradGradGradGradGradGradGradGradGradGradGradGradGrad
 Berny optimization.
 Initialization pass.
                           ----------------------------
                           !    Initial Parameters    !
                           ! (Angstroms and Degrees)  !
 --------------------------                            --------------------------
 ! Name  Definition              Value          Derivative Info.                !
 --------------------------------------------------------------------------------
 ! R1    R(1,2)                  0.95           estimate D2E/DX2                !
 ! R2    R(1,3)                  0.95           estimate D2E/DX2                !
 ! R3    R(1,4)                  0.95           estimate D2E/DX2                !
 ! A1    A(2,1,3)              109.4712         estimate D2E/DX2                !
 ! A2    A(2,1,4)              109.4712         estimate D2E/DX2                !
 ! A3    A(3,1,4)              109.4712         estimate D2E/DX2                !
 ! D1    D(2,1,4,3)           -120.0            estimate D2E/DX2                !
 --------------------------------------------------------------------------------
 Trust Radius=3.00D-01 FncErr=1.00D-07 GrdErr=1.00D-06
 Number of steps in this run=  20 maximum allowed number of steps= 100.
 GradGradGradGradGradGradGradGradGradGradGradGradGradGradGradGradGradGrad

 Leave Link  103 at Tue Sep 17 13:08:56 2024, MaxMem=   13107200 cpu:       0.0
 (Enter /programs/64bit/g09/g09-gfortran/bin/l202.exe)
                          Input orientation:                          
 ---------------------------------------------------------------------
 Center     Atomic      Atomic             Coordinates (Angstroms)
 Number     Number       Type             X           Y           Z
 ---------------------------------------------------------------------
      1          8           0        0.000000    0.000000    0.000000
      2          1           0        0.000000    0.000000    0.950000
      3          1           0        0.895669    0.000000   -0.316667
      4          1           0       -0.447834   -0.775672   -0.316667
 ---------------------------------------------------------------------
                    Distance matrix (angstroms):
                    1          2          3          4
     1  O    0.000000
     2  H    0.950000   0.000000
     3  H    0.950000   1.551344   0.000000
     4  H    0.950000   1.551344   1.551344   0.000000
 Stoichiometry    H3O(1+)
 Framework group  C3V[C3(O),3SGV(H)]
 Deg. of freedom     2
 Full point group                 C3V     NOp   6
 Largest Abelian subgroup         CS      NOp   2
 Largest concise Abelian subgroup CS      NOp   2
                         Standard orientation:                         
 ---------------------------------------------------------------------
 Center     Atomic      Atomic             Coordinates (Angstroms)
 Number     Number       Type             X           Y           Z
 ---------------------------------------------------------------------
      1          8           0       -0.000000    0.000000    0.086364
      2          1           0        0.000000    0.895669   -0.230303
      3          1           0       -0.775672   -0.447834   -0.230303
      4          1           0        0.775672   -0.447834   -0.230303
 ---------------------------------------------------------------------
 Rotational constants (GHZ):    344.3252703    344.3252703    208.3608450
 Leave Link  202 at Tue Sep 17 13:08:56 2024, MaxMem=   13107200 cpu:       0.0
 (Enter /programs/64bit/g09/g09-gfortran/bin/l301.exe)
 Standard basis: 6-31+G(d,p) (6D, 7F)
 Ernie: Thresh=  0.10000D-02 Tol=  0.10000D-05 Strict=F.
 There are    23 symmetry adapted basis functions of A'  symmetry.
 There are    11 symmetry adapted basis functions of A"  symmetry.
 Integral buffers will be    131072 words long.
 Raffenetti 2 integral format.
 Two-electron integral symmetry is turned on.
    34 basis functions,    53 primitive gaussians,    34 cartesian basis functions
     5 alpha electrons        5 beta electrons
       nuclear repulsion energy        14.3920143311 Hartrees.
 IExCor=  402 DFT=T Ex+Corr=B3LYP ExCW=0 ScaHFX=  0.200000
 ScaDFX=  0.800000  0.720000  1.000000  0.810000 ScalE2=  1.000000  1.000000
 IRadAn=      0 IRanWt=     -1 IRanGd=            0 ICorTp=0
 NAtoms=    4 NActive=    4 NUniq=    2 SFac= 3.00D+00 NAtFMM=   80 NAOKFM=F Big=F
 Leave Link  301 at Tue Sep 17 13:08:56 2024, MaxMem=   13107200 cpu:       0.1
 (Enter /programs/64bit/g09/g09-gfortran/bin/l302.exe)
 NPDir=0 NMtPBC=     1 NCelOv=     1 NCel=       1 NClECP=     1 NCelD=      1
         NCelK=      1 NCelE2=     1 NClLst=     1 CellRange=     0.0.
 One-electron integrals computed using PRISM.
 One-electron integral symmetry used in STVInt
 NBasis=    34 RedAO= T  NBF=    23    11
 NBsUse=    34 1.00D-06 NBFU=    23    11
 Precomputing XC quadrature grid using
 IXCGrd= 2 IRadAn=           0 IRanWt=          -1 IRanGd=           0 AccXCQ= 1.00D-10.
 NRdTot=     249 NPtTot=       31528 NUsed=       33336 NTot=       33368
 NSgBfM=    34    34    34    34    34 NAtAll=     4     4.
 Leave Link  302 at Tue Sep 17 13:08:57 2024, MaxMem=   13107200 cpu:       0.3
 (Enter /programs/64bit/g09/g09-gfortran/bin/l303.exe)
 DipDrv:  MaxL=1.
 Leave Link  303 at Tue Sep 17 13:08:57 2024, MaxMem=   13107200 cpu:       0.0
 (Enter /programs/64bit/g09/g09-gfortran/bin/l401.exe)
 Harris functional with IExCor=  402 diagonalized for initial guess.
 ExpMin= 8.45D-02 ExpMax= 5.48D+03 ExpMxC= 8.25D+02 IAcc=2 IRadAn=         0 AccDes= 0.00D+00
 HarFok:  IExCor=  402 AccDes= 0.00D+00 IRadAn=         0 IDoV= 1
 ScaDFX=  1.000000  1.000000  1.000000  1.000000
 FoFCou: FMM=F IPFlag=           0 FMFlag=      100000 FMFlg1=           0
         NFxFlg=           0 DoJE=T BraDBF=F KetDBF=T FulRan=T
         Omega=  0.000000  0.000000  1.000000  0.000000  0.000000 ICntrl=     500 IOpCl=  0
         NMat0=    1 NMatS0=    1 NMatT0=    0 NMatD0=    1 NMtDS0=    0 NMtDT0=    0
         I1Cent=           4 NGrid=           0.
 Petite list used in FoFCou.
 Harris En= -76.8284037805091    
 Initial guess orbital symmetries:
       Occupied  (A1) (A1) (E) (E) (A1)
       Virtual   (A1) (E) (E) (A1) (E) (E) (A1) (E) (E) (A1) (E)
                 (E) (A1) (A1) (E) (E) (A1) (A2) (E) (E) (E) (E)
                 (A1) (E) (E) (A1) (E) (E) (A1)
 The electronic state of the initial guess is 1-A1.
 Leave Link  401 at Tue Sep 17 13:08:57 2024, MaxMem=   13107200 cpu:       0.5
 (Enter /programs/64bit/g09/g09-gfortran/bin/l502.exe)
 Closed shell SCF:
 Requested convergence on RMS density matrix=1.00D-08 within 128 cycles.
 Requested convergence on MAX density matrix=1.00D-06.
 Requested convergence on             energy=1.00D-06.
 No special actions if energy rises.
 Using DIIS extrapolation, IDIIS=  1040.
 Integral symmetry usage will be decided dynamically.
        33287 words used for storage of precomputed grid.
 Keep R1 ints in memory in canonical form, NReq=1091687.
 IEnd=       55469 IEndB=       55469 NGot=    13107200 MDV=    12892224
 LenX=    12892224 LenY=    12890627
 Symmetry not used in FoFDir.
 MinBra= 0 MaxBra= 2 Meth= 1.
 IRaf=       0 NMat=   1 IRICut=       1 DoRegI=T DoRafI=F ISym2E= 0 JSym2E=0.
 Integral accuracy reduced to 1.0D-05 until final iterations.

 Cycle   1  Pass 0  IDiag  1:
 E= -76.6845847877641    
 DIIS: error= 2.91D-02 at cycle   1 NSaved=   1.
 NSaved= 1 IEnMin= 1 EnMin= -76.6845847877641     IErMin= 1 ErrMin= 2.91D-02
 ErrMax= 2.91D-02 EMaxC= 1.00D-01 BMatC= 2.93D-02 BMatP= 2.93D-02
 IDIUse=3 WtCom= 7.09D-01 WtEn= 2.91D-01
 Coeff-Com:  0.100D+01
 Coeff-En:   0.100D+01
 Coeff:      0.100D+01
 Gap=     0.433 Goal=   None    Shift=    0.000
 GapD=    0.433 DampG=2.000 DampE=0.500 DampFc=1.0000 IDamp=-1.
 RMSDP=5.40D-03 MaxDP=7.72D-02              OVMax= 7.58D-02

 Cycle   2  Pass 0  IDiag  1:
 E= -76.6746285992120     Delta-E=        0.009956188552 Rises=F Damp=F
 DIIS: error= 3.92D-02 at cycle   2 NSaved=   2.
 NSaved= 2 IEnMin= 1 EnMin= -76.6845847877641     IErMin= 1 ErrMin= 2.91D-02
 ErrMax= 3.92D-02 EMaxC= 1.00D-01 BMatC= 4.27D-02 BMatP= 2.93D-02
 IDIUse=2 WtCom= 0.00D+00 WtEn= 1.00D+00
 Coeff-En:   0.599D+00 0.401D+00
 Coeff:      0.599D+00 0.401D+00
 Gap=     0.492 Goal=   None    Shift=    0.000
 RMSDP=2.68D-03 MaxDP=4.21D-02 DE= 9.96D-03 OVMax= 4.15D-02

 Cycle   3  Pass 0  IDiag  1:
 E= -76.7032163408990     Delta-E=       -0.028587741687 Rises=F Damp=F
 DIIS: error= 2.52D-03 at cycle   3 NSaved=   3.
 NSaved= 3 IEnMin= 3 EnMin= -76.7032163408990     IErMin= 3 ErrMin= 2.52D-03
 ErrMax= 2.52D-03 EMaxC= 1.00D-01 BMatC= 2.00D-04 BMatP= 2.93D-02
 IDIUse=3 WtCom= 9.75D-01 WtEn= 2.52D-02
 Coeff-Com:  0.556D-01-0.168D-01 0.961D+00
 Coeff-En:   0.000D+00 0.000D+00 0.100D+01
 Coeff:      0.542D-01-0.164D-01 0.962D+00
 Gap=     0.498 Goal=   None    Shift=    0.000
 RMSDP=2.62D-04 MaxDP=2.84D-03 DE=-2.86D-02 OVMax= 3.66D-03

 Cycle   4  Pass 0  IDiag  1:
 E= -76.7033491892785     Delta-E=       -0.000132848379 Rises=F Damp=F
 DIIS: error= 2.86D-04 at cycle   4 NSaved=   4.
 NSaved= 4 IEnMin= 4 EnMin= -76.7033491892785     IErMin= 4 ErrMin= 2.86D-04
 ErrMax= 2.86D-04 EMaxC= 1.00D-01 BMatC= 1.89D-06 BMatP= 2.00D-04
 IDIUse=3 WtCom= 9.97D-01 WtEn= 2.86D-03
 Coeff-Com:  0.235D-03-0.108D-01 0.194D+00 0.816D+00
 Coeff-En:   0.000D+00 0.000D+00 0.000D+00 0.100D+01
 Coeff:      0.234D-03-0.107D-01 0.194D+00 0.817D+00
 Gap=     0.498 Goal=   None    Shift=    0.000
 RMSDP=2.71D-05 MaxDP=2.31D-04 DE=-1.33D-04 OVMax= 3.76D-04

 Cycle   5  Pass 0  IDiag  1:
 E= -76.7033505481601     Delta-E=       -0.000001358882 Rises=F Damp=F
 DIIS: error= 1.90D-05 at cycle   5 NSaved=   5.
 NSaved= 5 IEnMin= 5 EnMin= -76.7033505481601     IErMin= 5 ErrMin= 1.90D-05
 ErrMax= 1.90D-05 EMaxC= 1.00D-01 BMatC= 6.98D-09 BMatP= 1.89D-06
 IDIUse=1 WtCom= 1.00D+00 WtEn= 0.00D+00
 Coeff-Com: -0.163D-04-0.356D-03-0.965D-03-0.422D-02 0.101D+01
 Coeff:     -0.163D-04-0.356D-03-0.965D-03-0.422D-02 0.101D+01
 Gap=     0.498 Goal=   None    Shift=    0.000
 RMSDP=1.56D-06 MaxDP=2.68D-05 DE=-1.36D-06 OVMax= 3.20D-05

 Initial convergence to 1.0D-05 achieved.  Increase integral accuracy.
 Cycle   6  Pass 1  IDiag  1:
 E= -76.7033556316079     Delta-E=       -0.000005083448 Rises=F Damp=F
 DIIS: error= 1.83D-06 at cycle   1 NSaved=   1.
 NSaved= 1 IEnMin= 1 EnMin= -76.7033556316079     IErMin= 1 ErrMin= 1.83D-06
 ErrMax= 1.83D-06 EMaxC= 1.00D-01 BMatC= 1.34D-10 BMatP= 1.34D-10
 IDIUse=1 WtCom= 1.00D+00 WtEn= 0.00D+00
 Coeff-Com:  0.100D+01
 Coeff:      0.100D+01
 Gap=     0.498 Goal=   None    Shift=    0.000
 RMSDP=1.56D-06 MaxDP=2.68D-05 DE=-5.08D-06 OVMax= 4.06D-06

 Cycle   7  Pass 1  IDiag  1:
 E= -76.7033556317014     Delta-E=       -0.000000000094 Rises=F Damp=F
 DIIS: error= 7.24D-07 at cycle   2 NSaved=   2.
 NSaved= 2 IEnMin= 2 EnMin= -76.7033556317014     IErMin= 2 ErrMin= 7.24D-07
 ErrMax= 7.24D-07 EMaxC= 1.00D-01 BMatC= 1.52D-11 BMatP= 1.34D-10
 IDIUse=1 WtCom= 1.00D+00 WtEn= 0.00D+00
 Coeff-Com:  0.149D+00 0.851D+00
 Coeff:      0.149D+00 0.851D+00
 Gap=     0.498 Goal=   None    Shift=    0.000
 RMSDP=1.11D-07 MaxDP=1.68D-06 DE=-9.35D-11 OVMax= 1.69D-06

 Cycle   8  Pass 1  IDiag  1:
 E= -76.7033556317022     Delta-E=       -0.000000000001 Rises=F Damp=F
 DIIS: error= 6.96D-07 at cycle   3 NSaved=   3.
 NSaved= 3 IEnMin= 3 EnMin= -76.7033556317022     IErMin= 3 ErrMin= 6.96D-07
 ErrMax= 6.96D-07 EMaxC= 1.00D-01 BMatC= 1.44D-11 BMatP= 1.52D-11
 IDIUse=1 WtCom= 1.00D+00 WtEn= 0.00D+00
 Coeff-Com: -0.206D-01 0.495D+00 0.526D+00
 Coeff:     -0.206D-01 0.495D+00 0.526D+00
 Gap=     0.498 Goal=   None    Shift=    0.000
 RMSDP=5.12D-08 MaxDP=8.23D-07 DE=-7.67D-13 OVMax= 7.66D-07

 Cycle   9  Pass 1  IDiag  1:
 E= -76.7033556317120     Delta-E=       -0.000000000010 Rises=F Damp=F
 DIIS: error= 4.41D-09 at cycle   4 NSaved=   4.
 NSaved= 4 IEnMin= 4 EnMin= -76.7033556317120     IErMin= 4 ErrMin= 4.41D-09
 ErrMax= 4.41D-09 EMaxC= 1.00D-01 BMatC= 5.24D-16 BMatP= 1.44D-11
 IDIUse=1 WtCom= 1.00D+00 WtEn= 0.00D+00
 Coeff-Com: -0.957D-03 0.147D-01 0.173D-01 0.969D+00
 Coeff:     -0.957D-03 0.147D-01 0.173D-01 0.969D+00
 Gap=     0.498 Goal=   None    Shift=    0.000
 RMSDP=6.48D-10 MaxDP=7.43D-09 DE=-9.81D-12 OVMax= 9.46D-09

 SCF Done:  E(RB3LYP) =  -76.7033556317     A.U. after    9 cycles
             Convg  =    0.6479D-09             -V/T =  2.0069
 KE= 7.617662635928D+01 PE=-2.053345382708D+02 EE= 3.806254194869D+01
 Leave Link  502 at Tue Sep 17 13:08:59 2024, MaxMem=   13107200 cpu:       1.6
 (Enter /programs/64bit/g09/g09-gfortran/bin/l601.exe)
 Copying SCF densities to generalized density rwf, IOpCl= 0 IROHF=0.

 **********************************************************************

            Population analysis using the SCF density.

 **********************************************************************

 Orbital symmetries:
       Occupied  (A1) (A1) (E) (E) (A1)
       Virtual   (A1) (E) (E) (A1) (E) (E) (A1) (E) (E) (E) (E)
                 (A1) (A1) (A1) (E) (E) (A1) (A2) (E) (E) (E) (E)
                 (A1) (E) (E) (A1) (E) (E) (A1)
 The electronic state is 1-A1.
 Alpha  occ. eigenvalues --  -19.60392  -1.48647  -0.96065  -0.96065  -0.76560
 Alpha virt. eigenvalues --   -0.26788  -0.16134  -0.16134  -0.09186  -0.06721
 Alpha virt. eigenvalues --   -0.06721   0.00598   0.58189   0.58189   0.70098
 Alpha virt. eigenvalues --    0.70098   0.71409   0.78795   0.92536   1.04373
 Alpha virt. eigenvalues --    1.04373   1.61228   1.74250   1.99483   1.99483
 Alpha virt. eigenvalues --    2.16661   2.16661   2.47427   2.73868   2.73868
 Alpha virt. eigenvalues --    2.99620   3.12422   3.12422   3.70324
          Condensed to atoms (all electrons):
              1          2          3          4
     1  O    7.526328   0.303731   0.303731   0.303731
     2  H    0.303731   0.244800  -0.013852  -0.013852
     3  H    0.303731  -0.013852   0.244800  -0.013852
     4  H    0.303731  -0.013852  -0.013852   0.244800
 Mulliken atomic charges:
              1
     1  O   -0.437520
     2  H    0.479173
     3  H    0.479173
     4  H    0.479173
 Sum of Mulliken atomic charges =   1.00000
 Mulliken charges with hydrogens summed into heavy atoms:
              1
     1  O    1.000000
 Sum of Mulliken charges with hydrogens summed into heavy atoms =   1.00000
 Electronic spatial extent (au):  <R**2>=             18.0241
 Charge=              1.0000 electrons
 Dipole moment (field-independent basis, Debye):
    X=             -0.0000    Y=             -0.0000    Z=             -1.7851  Tot=              1.7851
 Quadrupole moment (field-independent basis, Debye-Ang):
   XX=             -2.7786   YY=             -2.7786   ZZ=             -6.0752
   XY=             -0.0000   XZ=              0.0000   YZ=              0.0000
 Traceless Quadrupole moment (field-independent basis, Debye-Ang):
   XX=              1.0989   YY=              1.0989   ZZ=             -2.1977
   XY=             -0.0000   XZ=              0.0000   YZ=              0.0000
 Octapole moment (field-independent basis, Debye-Ang**2):
  XXX=             -0.0000  YYY=              1.4658  ZZZ=             -0.8841  XYY=              0.0000
  XXY=             -1.4658  XXZ=             -0.9965  XZZ=              0.0000  YZZ=             -0.0000
  YYZ=             -0.9965  XYZ=              0.0000
 Hexadecapole moment (field-independent basis, Debye-Ang**3):
 XXXX=             -3.3877 YYYY=             -3.3877 ZZZZ=             -5.2036 XXXY=              0.0000
 XXXZ=              0.0000 YYYX=             -0.0000 YYYZ=             -0.4018 ZZZX=              0.0000
 ZZZY=             -0.0000 XXYY=             -1.1292 XXZZ=             -1.5969 YYZZ=             -1.5969
 XXYZ=              0.4018 YYXZ=             -0.0000 ZZXY=             -0.0000
 N-N= 1.439201433113D+01 E-N=-2.053345382979D+02  KE= 7.617662635928D+01
 Symmetry A'   KE= 7.219787991758D+01
 Symmetry A"   KE= 3.978746441699D+00
 No NMR shielding tensors so no spin-rotation constants.
 Leave Link  601 at Tue Sep 17 13:08:59 2024, MaxMem=   13107200 cpu:       0.2
 (Enter /programs/64bit/g09/g09-gfortran/bin/l701.exe)
 Compute integral first derivatives.
 ... and contract with generalized density number  0.
 Leave Link  701 at Tue Sep 17 13:08:59 2024, MaxMem=   13107200 cpu:       0.3
 (Enter /programs/64bit/g09/g09-gfortran/bin/l702.exe)
 L702 exits ... SP integral derivatives will be done elsewhere.
 Leave Link  702 at Tue Sep 17 13:08:59 2024, MaxMem=   13107200 cpu:       0.0
 (Enter /programs/64bit/g09/g09-gfortran/bin/l703.exe)
 Compute integral first derivatives, UseDBF=F ICtDFT=           0.
 Integral derivatives from FoFDir, PRISM(SPDF).
 Calling FoFJK, ICntrl=      2127 FMM=F ISym2X=1 I1Cent= 0 IOpClX= 0 NMat=1 NMatS=1 NMatT=0.
 FoFCou: FMM=F IPFlag=           0 FMFlag=      100000 FMFlg1=         800
         NFxFlg=           0 DoJE=F BraDBF=F KetDBF=F FulRan=T
         Omega=  0.000000  0.000000  1.000000  0.000000  0.000000 ICntrl=    2127 IOpCl=  0
         NMat0=    1 NMatS0=    1 NMatT0=    0 NMatD0=    1 NMtDS0=    0 NMtDT0=    0
         I1Cent=           0 NGrid=           0.
 Petite list used in FoFCou.
 Leave Link  703 at Tue Sep 17 13:09:00 2024, MaxMem=   13107200 cpu:       1.0
 (Enter /programs/64bit/g09/g09-gfortran/bin/l716.exe)
 Dipole        =-6.66133815D-16-8.88178420D-16-7.02312849D-01
 ***** Axes restored to original set *****
 -------------------------------------------------------------------
 Center     Atomic                   Forces (Hartrees/Bohr)
 Number     Number              X              Y              Z
 -------------------------------------------------------------------
      1        8          -0.009003190    0.015593983   -0.006366217
      2        1          -0.003046821    0.005277249    0.036334075
      3        1           0.033240488    0.005277249   -0.014983929
      4        1          -0.021190476   -0.026148482   -0.014983929
 -------------------------------------------------------------------
 Cartesian Forces:  Max     0.036334075 RMS     0.019228128
 Leave Link  716 at Tue Sep 17 13:09:01 2024, MaxMem=   13107200 cpu:       0.0
 (Enter /programs/64bit/g09/g09-gfortran/bin/l103.exe)

 GradGradGradGradGradGradGradGradGradGradGradGradGradGradGradGradGradGrad
 Berny optimization.
 Internal  Forces:  Max     0.036334075 RMS     0.024197344
 Search for a local minimum.
 Step number   1 out of a maximum of   20
 All quantities printed in internal units (Hartrees-Bohrs-Radians)
 RMS Force = .24197D-01 SwitMx=.10000D-02 MixMth= 1
 Mixed Optimization -- RFO/linear search
 Second derivative matrix not updated -- first step.
 The second derivative matrix:
                          R1        R2        R3        A1        A2
           R1           0.57681
           R2           0.00000   0.57681
           R3           0.00000   0.00000   0.57681
           A1           0.00000   0.00000   0.00000   0.16000
           A2           0.00000   0.00000   0.00000   0.00000   0.16000
           A3           0.00000   0.00000   0.00000   0.00000   0.00000
           D1           0.00000   0.00000   0.00000   0.00000   0.00000
                          A3        D1
           A3           0.16000
           D1           0.00000   0.01690
     Eigenvalues ---    0.06093   0.16000   0.16000   0.57681   0.57681
     Eigenvalues ---    0.576811000.00000
 RFO step:  Lambda=-8.42018574D-03 EMin= 6.09292894D-02
 Linear search not attempted -- first point.
 Iteration  1 RMS(Cart)=  0.06184439 RMS(Int)=  0.00323331
 Iteration  2 RMS(Cart)=  0.00140804 RMS(Int)=  0.00267225
 Iteration  3 RMS(Cart)=  0.00000706 RMS(Int)=  0.00267224
 Iteration  4 RMS(Cart)=  0.00000004 RMS(Int)=  0.00267224
 ClnCor:  largest displacement from symmetrization is 5.98D-03 for atom     4.
 Variable       Old X    -DE/DX   Delta X   Delta X   Delta X     New X
                                 (Linear)    (Quad)   (Total)
    R1        1.79524   0.03633   0.00000   0.06208   0.06033   1.85557
    R2        1.79524   0.03633   0.00000   0.06208   0.06033   1.85557
    R3        1.79524   0.03633   0.00000   0.06208   0.06033   1.85557
    A1        1.91063   0.00084   0.00000   0.04306   0.04644   1.95708
    A2        1.91063   0.00589   0.00000   0.05401   0.04644   1.95708
    A3        1.91063   0.00589   0.00000   0.05401   0.04644   1.95708
    D1       -2.09440  -0.00825   0.00000  -0.11889  -0.12552  -2.21991
         Item               Value     Threshold  Converged?
 Maximum Force            0.036334     0.000450     NO 
 RMS     Force            0.024197     0.000300     NO 
 Maximum Displacement     0.074822     0.001800     NO 
 RMS     Displacement     0.059832     0.001200     NO 
 Predicted change in Energy=-4.397289D-03
 GradGradGradGradGradGradGradGradGradGradGradGradGradGradGradGradGradGrad

 Leave Link  103 at Tue Sep 17 13:09:01 2024, MaxMem=   13107200 cpu:       0.0
 (Enter /programs/64bit/g09/g09-gfortran/bin/l202.exe)
                          Input orientation:                          
 ---------------------------------------------------------------------
 Center     Atomic      Atomic             Coordinates (Angstroms)
 Number     Number       Type             X           Y           Z
 ---------------------------------------------------------------------
      1          8           0        0.012523   -0.021690    0.008855
      2          1           0       -0.011578    0.020053    0.989594
      3          1           0        0.929139    0.020053   -0.340780
      4          1           0       -0.481936   -0.794632   -0.340780
 ---------------------------------------------------------------------
                    Distance matrix (angstroms):
                    1          2          3          4
     1  O    0.000000
     2  H    0.981923   0.000000
     3  H    0.981923   1.629369   0.000000
     4  H    0.981923   1.629369   1.629369   0.000000
 Stoichiometry    H3O(1+)
 Framework group  C3V[C3(O),3SGV(H)]
 Deg. of freedom     2
 Full point group                 C3V     NOp   6
 Largest Abelian subgroup         CS      NOp   2
 Largest concise Abelian subgroup CS      NOp   2
                         Standard orientation:                         
 ---------------------------------------------------------------------
 Center     Atomic      Atomic             Coordinates (Angstroms)
 Number     Number       Type             X           Y           Z
 ---------------------------------------------------------------------
      1          8           0       -0.000000    0.000000    0.076764
      2          1           0        0.000000    0.940717   -0.204705
      3          1           0       -0.814685   -0.470358   -0.204705
      4          1           0        0.814685   -0.470358   -0.204705
 ---------------------------------------------------------------------
 Rotational constants (GHZ):    328.3251758    328.3251758    188.8830574
 Leave Link  202 at Tue Sep 17 13:09:01 2024, MaxMem=   13107200 cpu:       0.0
 (Enter /programs/64bit/g09/g09-gfortran/bin/l301.exe)
 Standard basis: 6-31+G(d,p) (6D, 7F)
 Ernie: Thresh=  0.10000D-02 Tol=  0.10000D-05 Strict=F.
 There are    23 symmetry adapted basis functions of A'  symmetry.
 There are    11 symmetry adapted basis functions of A"  symmetry.
 Integral buffers will be    131072 words long.
 Raffenetti 2 integral format.
 Two-electron integral symmetry is turned on.
    34 basis functions,    53 primitive gaussians,    34 cartesian basis functions
     5 alpha electrons        5 beta electrons
       nuclear repulsion energy        13.9083829028 Hartrees.
 IExCor=  402 DFT=T Ex+Corr=B3LYP ExCW=0 ScaHFX=  0.200000
 ScaDFX=  0.800000  0.720000  1.000000  0.810000 ScalE2=  1.000000  1.000000
 IRadAn=      0 IRanWt=     -1 IRanGd=            0 ICorTp=0
 NAtoms=    4 NActive=    4 NUniq=    2 SFac= 3.00D+00 NAtFMM=   80 NAOKFM=F Big=F
 Leave Link  301 at Tue Sep 17 13:09:01 2024, MaxMem=   13107200 cpu:       0.1
 (Enter /programs/64bit/g09/g09-gfortran/bin/l302.exe)
 NPDir=0 NMtPBC=     1 NCelOv=     1 NCel=       1 NClECP=     1 NCelD=      1
         NCelK=      1 NCelE2=     1 NClLst=     1 CellRange=     0.0.
 One-electron integrals computed using PRISM.
 One-electron integral symmetry used in STVInt
 NBasis=    34 RedAO= T  NBF=    23    11
 NBsUse=    34 1.00D-06 NBFU=    23    11
 Precomputing XC quadrature grid using
 IXCGrd= 2 IRadAn=           0 IRanWt=          -1 IRanGd=           0 AccXCQ= 1.00D-10.
 NRdTot=     249 NPtTot=       31528 NUsed=       33336 NTot=       33368
 NSgBfM=    34    34    34    34    34 NAtAll=     4     4.
 Leave Link  302 at Tue Sep 17 13:09:01 2024, MaxMem=   13107200 cpu:       0.3
 (Enter /programs/64bit/g09/g09-gfortran/bin/l303.exe)
 DipDrv:  MaxL=1.
 Leave Link  303 at Tue Sep 17 13:09:01 2024, MaxMem=   13107200 cpu:       0.1
 (Enter /programs/64bit/g09/g09-gfortran/bin/l401.exe)
 Initial guess read from the read-write file.
 B after Tr=     0.000000    0.000000    0.000000
         Rot=    1.000000    0.000000    0.000000    0.000000 Ang=   0.00 deg.
 Guess basis will be translated and rotated to current coordinates.
 Initial guess orbital symmetries:
       Occupied  (A1) (A1) (E) (E) (A1)
       Virtual   (A1) (E) (E) (A1) (E) (E) (A1) (E) (E) (E) (E)
                 (A1) (A1) (A1) (E) (E) (A1) (A2) (E) (E) (E) (E)
                 (A1) (E) (E) (A1) (E) (E) (A1)
 The electronic state of the initial guess is 1-A1.
 Generating alternative initial guess.
 Harris functional with IExCor=  402 diagonalized for initial guess.
 ExpMin= 8.45D-02 ExpMax= 5.48D+03 ExpMxC= 8.25D+02 IAcc=2 IRadAn=         0 AccDes= 0.00D+00
 HarFok:  IExCor=  402 AccDes= 0.00D+00 IRadAn=         0 IDoV= 1
 ScaDFX=  1.000000  1.000000  1.000000  1.000000
 FoFCou: FMM=F IPFlag=           0 FMFlag=      100000 FMFlg1=           0
         NFxFlg=           0 DoJE=T BraDBF=F KetDBF=T FulRan=T
         Omega=  0.000000  0.000000  1.000000  0.000000  0.000000 ICntrl=     500 IOpCl=  0
         NMat0=    1 NMatS0=    1 NMatT0=    0 NMatD0=    1 NMtDS0=    0 NMtDT0=    0
         I1Cent=           4 NGrid=           0.
 Petite list used in FoFCou.
 Harris En= -76.8315444698762    
 Leave Link  401 at Tue Sep 17 13:09:02 2024, MaxMem=   13107200 cpu:       0.6
 (Enter /programs/64bit/g09/g09-gfortran/bin/l502.exe)
 Closed shell SCF:
 Requested convergence on RMS density matrix=1.00D-08 within 128 cycles.
 Requested convergence on MAX density matrix=1.00D-06.
 Requested convergence on             energy=1.00D-06.
 No special actions if energy rises.
 Using DIIS extrapolation, IDIIS=  1040.
 Integral symmetry usage will be decided dynamically.
        33287 words used for storage of precomputed grid.
 Keep R1 ints in memory in canonical form, NReq=1091687.
 IEnd=       55469 IEndB=       55469 NGot=    13107200 MDV=    12892224
 LenX=    12892224 LenY=    12890627
 Symmetry not used in FoFDir.
 MinBra= 0 MaxBra= 2 Meth= 1.
 IRaf=       0 NMat=   1 IRICut=       1 DoRegI=T DoRafI=F ISym2E= 0 JSym2E=0.
 Integral accuracy reduced to 1.0D-05 until final iterations.

 Cycle   1  Pass 0  IDiag  1:
 E= -76.7063227735580    
 DIIS: error= 7.12D-03 at cycle   1 NSaved=   1.
 NSaved= 1 IEnMin= 1 EnMin= -76.7063227735580     IErMin= 1 ErrMin= 7.12D-03
 ErrMax= 7.12D-03 EMaxC= 1.00D-01 BMatC= 1.57D-03 BMatP= 1.57D-03
 IDIUse=3 WtCom= 9.29D-01 WtEn= 7.12D-02
 Coeff-Com:  0.100D+01
 Coeff-En:   0.100D+01
 Coeff:      0.100D+01
 Gap=     0.481 Goal=   None    Shift=    0.000
 GapD=    0.481 DampG=2.000 DampE=1.000 DampFc=2.0000 IDamp=-1.
 RMSDP=1.20D-03 MaxDP=8.87D-03              OVMax= 1.20D-02

 Cycle   2  Pass 0  IDiag  1:
 E= -76.7074126553188     Delta-E=       -0.001089881761 Rises=F Damp=F
 DIIS: error= 3.26D-03 at cycle   2 NSaved=   2.
 NSaved= 2 IEnMin= 2 EnMin= -76.7074126553188     IErMin= 2 ErrMin= 3.26D-03
 ErrMax= 3.26D-03 EMaxC= 1.00D-01 BMatC= 3.34D-04 BMatP= 1.57D-03
 IDIUse=3 WtCom= 9.67D-01 WtEn= 3.26D-02
 Coeff-Com:  0.241D+00 0.759D+00
 Coeff-En:   0.000D+00 0.100D+01
 Coeff:      0.233D+00 0.767D+00
 Gap=     0.478 Goal=   None    Shift=    0.000
 RMSDP=4.55D-04 MaxDP=7.66D-03 DE=-1.09D-03 OVMax= 7.33D-03

 Cycle   3  Pass 0  IDiag  1:
 E= -76.7074929616202     Delta-E=       -0.000080306301 Rises=F Damp=F
 DIIS: error= 2.75D-03 at cycle   3 NSaved=   3.
 NSaved= 3 IEnMin= 3 EnMin= -76.7074929616202     IErMin= 3 ErrMin= 2.75D-03
 ErrMax= 2.75D-03 EMaxC= 1.00D-01 BMatC= 2.24D-04 BMatP= 3.34D-04
 IDIUse=3 WtCom= 9.72D-01 WtEn= 2.75D-02
 Coeff-Com: -0.152D-02 0.450D+00 0.552D+00
 Coeff-En:   0.000D+00 0.406D+00 0.594D+00
 Coeff:     -0.148D-02 0.449D+00 0.553D+00
 Gap=     0.474 Goal=   None    Shift=    0.000
 RMSDP=2.05D-04 MaxDP=3.11D-03 DE=-8.03D-05 OVMax= 3.14D-03

 Cycle   4  Pass 0  IDiag  1:
 E= -76.7076426694716     Delta-E=       -0.000149707851 Rises=F Damp=F
 DIIS: error= 8.39D-05 at cycle   4 NSaved=   4.
 NSaved= 4 IEnMin= 4 EnMin= -76.7076426694716     IErMin= 4 ErrMin= 8.39D-05
 ErrMax= 8.39D-05 EMaxC= 1.00D-01 BMatC= 1.60D-07 BMatP= 2.24D-04
 IDIUse=1 WtCom= 1.00D+00 WtEn= 0.00D+00
 Coeff-Com: -0.354D-02 0.724D-01 0.950D-01 0.836D+00
 Coeff:     -0.354D-02 0.724D-01 0.950D-01 0.836D+00
 Gap=     0.474 Goal=   None    Shift=    0.000
 RMSDP=6.69D-06 MaxDP=5.50D-05 DE=-1.50D-04 OVMax= 1.06D-04

 Initial convergence to 1.0D-05 achieved.  Increase integral accuracy.
 Cycle   5  Pass 1  IDiag  1:
 E= -76.7076373941733     Delta-E=        0.000005275298 Rises=F Damp=F
 DIIS: error= 1.17D-05 at cycle   1 NSaved=   1.
 NSaved= 1 IEnMin= 1 EnMin= -76.7076373941733     IErMin= 1 ErrMin= 1.17D-05
 ErrMax= 1.17D-05 EMaxC= 1.00D-01 BMatC= 2.64D-09 BMatP= 2.64D-09
 IDIUse=1 WtCom= 1.00D+00 WtEn= 0.00D+00
 Coeff-Com:  0.100D+01
 Coeff:      0.100D+01
 Gap=     0.474 Goal=   None    Shift=    0.000
 RMSDP=6.69D-06 MaxDP=5.50D-05 DE= 5.28D-06 OVMax= 3.23D-05

 Cycle   6  Pass 1  IDiag  1:
 E= -76.7076373956849     Delta-E=       -0.000000001512 Rises=F Damp=F
 DIIS: error= 7.60D-06 at cycle   2 NSaved=   2.
 NSaved= 2 IEnMin= 2 EnMin= -76.7076373956849     IErMin= 2 ErrMin= 7.60D-06
 ErrMax= 7.60D-06 EMaxC= 1.00D-01 BMatC= 1.63D-09 BMatP= 2.64D-09
 IDIUse=1 WtCom= 1.00D+00 WtEn= 0.00D+00
 Coeff-Com:  0.432D+00 0.568D+00
 Coeff:      0.432D+00 0.568D+00
 Gap=     0.474 Goal=   None    Shift=    0.000
 RMSDP=7.44D-07 MaxDP=1.11D-05 DE=-1.51D-09 OVMax= 1.13D-05

 Cycle   7  Pass 1  IDiag  1:
 E= -76.7076373966766     Delta-E=       -0.000000000992 Rises=F Damp=F
 DIIS: error= 2.26D-06 at cycle   3 NSaved=   3.
 NSaved= 3 IEnMin= 3 EnMin= -76.7076373966766     IErMin= 3 ErrMin= 2.26D-06
 ErrMax= 2.26D-06 EMaxC= 1.00D-01 BMatC= 1.83D-10 BMatP= 1.63D-09
 IDIUse=1 WtCom= 1.00D+00 WtEn= 0.00D+00
 Coeff-Com:  0.138D+00 0.292D+00 0.570D+00
 Coeff:      0.138D+00 0.292D+00 0.570D+00
 Gap=     0.474 Goal=   None    Shift=    0.000
 RMSDP=1.89D-07 MaxDP=2.64D-06 DE=-9.92D-10 OVMax= 2.85D-06

 Cycle   8  Pass 1  IDiag  1:
 E= -76.7076373967992     Delta-E=       -0.000000000123 Rises=F Damp=F
 DIIS: error= 9.88D-08 at cycle   4 NSaved=   4.
 NSaved= 4 IEnMin= 4 EnMin= -76.7076373967992     IErMin= 4 ErrMin= 9.88D-08
 ErrMax= 9.88D-08 EMaxC= 1.00D-01 BMatC= 2.13D-13 BMatP= 1.83D-10
 IDIUse=1 WtCom= 1.00D+00 WtEn= 0.00D+00
 Coeff-Com: -0.131D-01-0.232D-01-0.153D-01 0.105D+01
 Coeff:     -0.131D-01-0.232D-01-0.153D-01 0.105D+01
 Gap=     0.474 Goal=   None    Shift=    0.000
 RMSDP=2.82D-08 MaxDP=3.48D-07 DE=-1.23D-10 OVMax= 6.01D-07

 Cycle   9  Pass 1  IDiag  1:
 E= -76.7076373967997     Delta-E=       -0.000000000000 Rises=F Damp=F
 DIIS: error= 7.94D-09 at cycle   5 NSaved=   5.
 NSaved= 5 IEnMin= 5 EnMin= -76.7076373967997     IErMin= 5 ErrMin= 7.94D-09
 ErrMax= 7.94D-09 EMaxC= 1.00D-01 BMatC= 1.59D-15 BMatP= 2.13D-13
 IDIUse=1 WtCom= 1.00D+00 WtEn= 0.00D+00
 Coeff-Com:  0.116D-03-0.849D-03-0.441D-02-0.249D-01 0.103D+01
 Coeff:      0.116D-03-0.849D-03-0.441D-02-0.249D-01 0.103D+01
 Gap=     0.474 Goal=   None    Shift=    0.000
 RMSDP=1.28D-09 MaxDP=1.24D-08 DE=-4.83D-13 OVMax= 2.40D-08

 SCF Done:  E(RB3LYP) =  -76.7076373968     A.U. after    9 cycles
             Convg  =    0.1281D-08             -V/T =  2.0094
 KE= 7.599612820790D+01 PE=-2.043948142419D+02 EE= 3.778266573436D+01
 Leave Link  502 at Tue Sep 17 13:09:03 2024, MaxMem=   13107200 cpu:       1.7
 (Enter /programs/64bit/g09/g09-gfortran/bin/l701.exe)
 Compute integral first derivatives.
 ... and contract with generalized density number  0.
 Leave Link  701 at Tue Sep 17 13:09:04 2024, MaxMem=   13107200 cpu:       0.3
 (Enter /programs/64bit/g09/g09-gfortran/bin/l702.exe)
 L702 exits ... SP integral derivatives will be done elsewhere.
 Leave Link  702 at Tue Sep 17 13:09:04 2024, MaxMem=   13107200 cpu:       0.0
 (Enter /programs/64bit/g09/g09-gfortran/bin/l703.exe)
 Compute integral first derivatives, UseDBF=F ICtDFT=           0.
 Integral derivatives from FoFDir, PRISM(SPDF).
 Calling FoFJK, ICntrl=      2127 FMM=F ISym2X=1 I1Cent= 0 IOpClX= 0 NMat=1 NMatS=1 NMatT=0.
 FoFCou: FMM=F IPFlag=           0 FMFlag=      100000 FMFlg1=         800
         NFxFlg=           0 DoJE=F BraDBF=F KetDBF=F FulRan=T
         Omega=  0.000000  0.000000  1.000000  0.000000  0.000000 ICntrl=    2127 IOpCl=  0
         NMat0=    1 NMatS0=    1 NMatT0=    0 NMatD0=    1 NMtDS0=    0 NMtDT0=    0
         I1Cent=           0 NGrid=           0.
 Petite list used in FoFCou.
 Leave Link  703 at Tue Sep 17 13:09:05 2024, MaxMem=   13107200 cpu:       1.0
 (Enter /programs/64bit/g09/g09-gfortran/bin/l716.exe)
 Dipole        =-2.22044605D-16-8.88178420D-16-6.31070198D-01
 ***** Axes restored to original set *****
 -------------------------------------------------------------------
 Center     Atomic                   Forces (Hartrees/Bohr)
 Number     Number              X              Y              Z
 -------------------------------------------------------------------
      1        8           0.001340211   -0.002321314    0.000947673
      2        1          -0.000764843    0.001324747    0.001483589
      3        1           0.001143794    0.001324747   -0.001215631
      4        1          -0.001719162   -0.000328181   -0.001215631
 -------------------------------------------------------------------
 Cartesian Forces:  Max     0.002321314 RMS     0.001344919
 Leave Link  716 at Tue Sep 17 13:09:05 2024, MaxMem=   13107200 cpu:       0.0
 (Enter /programs/64bit/g09/g09-gfortran/bin/l103.exe)

 GradGradGradGradGradGradGradGradGradGradGradGradGradGradGradGradGradGrad
 Berny optimization.
 Using GEDIIS/GDIIS optimizer.
 Internal  Forces:  Max     0.002174713 RMS     0.001471381
 Search for a local minimum.
 Step number   2 out of a maximum of   20
 All quantities printed in internal units (Hartrees-Bohrs-Radians)
 RMS Force = .14714D-02 SwitMx=.10000D-02 MixMth= 1
 Mixed Optimization -- RFO/linear search
 Update second derivatives using D2CorX and points    1    2
 DE= -4.28D-03 DEPred=-4.40D-03 R= 9.74D-01
 SS=  1.41D+00  RLast= 1.82D-01 DXNew= 5.0454D-01 5.4617D-01
 Trust test= 9.74D-01 RLast= 1.82D-01 DXMaxT set to 5.05D-01
 The second derivative matrix:
                          R1        R2        R3        A1        A2
           R1           0.57827
           R2           0.00146   0.57827
           R3           0.00146   0.00146   0.57827
           A1          -0.03055  -0.03055  -0.03055   0.15281
           A2          -0.01259  -0.01259  -0.01259  -0.00680   0.15559
           A3          -0.01259  -0.01259  -0.01259  -0.00680  -0.00441
           D1          -0.01836  -0.01836  -0.01836   0.00147  -0.00167
                          A3        D1
           A3           0.15559
           D1          -0.00167   0.02120
 Use linear search instead of GDIIS.
     Eigenvalues ---    0.05060   0.16000   0.16110   0.57681   0.57681
     Eigenvalues ---    0.581491000.00000
 RFO step:  Lambda=-1.13854845D-04 EMin= 5.05966177D-02
 Quartic linear search produced a step of  0.10350.
 Iteration  1 RMS(Cart)=  0.01362584 RMS(Int)=  0.00067564
 Iteration  2 RMS(Cart)=  0.00020421 RMS(Int)=  0.00064000
 Iteration  3 RMS(Cart)=  0.00000006 RMS(Int)=  0.00064000
 ClnCor:  largest displacement from symmetrization is 3.43D-04 for atom     4.
 Variable       Old X    -DE/DX   Delta X   Delta X   Delta X     New X
                                 (Linear)    (Quad)   (Total)
    R1        1.85557   0.00156   0.00624  -0.00318   0.00296   1.85853
    R2        1.85557   0.00156   0.00624  -0.00318   0.00296   1.85853
    R3        1.85557   0.00156   0.00624  -0.00318   0.00296   1.85853
    A1        1.95708   0.00009   0.00481   0.01212   0.01629   1.97337
    A2        1.95708   0.00125   0.00481   0.01247   0.01629   1.97337
    A3        1.95708   0.00125   0.00481   0.01247   0.01629   1.97337
    D1       -2.21991  -0.00217  -0.01299  -0.03685  -0.05080  -2.27072
         Item               Value     Threshold  Converged?
 Maximum Force            0.002175     0.000450     NO 
 RMS     Force            0.001471     0.000300     NO 
 Maximum Displacement     0.020043     0.001800     NO 
 RMS     Displacement     0.013490     0.001200     NO 
 Predicted change in Energy=-7.305677D-05
 GradGradGradGradGradGradGradGradGradGradGradGradGradGradGradGradGradGrad

 Leave Link  103 at Tue Sep 17 13:09:05 2024, MaxMem=   13107200 cpu:       0.0
 (Enter /programs/64bit/g09/g09-gfortran/bin/l202.exe)
                          Input orientation:                          
 ---------------------------------------------------------------------
 Center     Atomic      Atomic             Coordinates (Angstroms)
 Number     Number       Type             X           Y           Z
 ---------------------------------------------------------------------
      1          8           0        0.018646   -0.032296    0.013185
      2          1           0       -0.014719    0.025495    0.994410
      3          1           0        0.932632    0.025495   -0.345347
      4          1           0       -0.488395   -0.794936   -0.345347
 ---------------------------------------------------------------------
                    Distance matrix (angstroms):
                    1          2          3          4
     1  O    0.000000
     2  H    0.983491   0.000000
     3  H    0.983491   1.640861   0.000000
     4  H    0.983491   1.640861   1.640861   0.000000
 Stoichiometry    H3O(1+)
 Framework group  C3V[C3(O),3SGV(H)]
 Deg. of freedom     2
 Full point group                 C3V     NOp   6
 Largest Abelian subgroup         CS      NOp   2
 Largest concise Abelian subgroup CS      NOp   2
                         Standard orientation:                         
 ---------------------------------------------------------------------
 Center     Atomic      Atomic             Coordinates (Angstroms)
 Number     Number       Type             X           Y           Z
 ---------------------------------------------------------------------
      1          8           0        0.000000   -0.000000    0.072044
      2          1           0       -0.000000    0.947351   -0.192117
      3          1           0       -0.820430   -0.473676   -0.192117
      4          1           0        0.820430   -0.473676   -0.192117
 ---------------------------------------------------------------------
 Rotational constants (GHZ):    329.4119046    329.4119046    186.2467449
 Leave Link  202 at Tue Sep 17 13:09:05 2024, MaxMem=   13107200 cpu:       0.0
 (Enter /programs/64bit/g09/g09-gfortran/bin/l301.exe)
 Standard basis: 6-31+G(d,p) (6D, 7F)
 Ernie: Thresh=  0.10000D-02 Tol=  0.10000D-05 Strict=F.
 There are    23 symmetry adapted basis functions of A'  symmetry.
 There are    11 symmetry adapted basis functions of A"  symmetry.
 Integral buffers will be    131072 words long.
 Raffenetti 2 integral format.
 Two-electron integral symmetry is turned on.
    34 basis functions,    53 primitive gaussians,    34 cartesian basis functions
     5 alpha electrons        5 beta electrons
       nuclear repulsion energy        13.8809351330 Hartrees.
 IExCor=  402 DFT=T Ex+Corr=B3LYP ExCW=0 ScaHFX=  0.200000
 ScaDFX=  0.800000  0.720000  1.000000  0.810000 ScalE2=  1.000000  1.000000
 IRadAn=      0 IRanWt=     -1 IRanGd=            0 ICorTp=0
 NAtoms=    4 NActive=    4 NUniq=    2 SFac= 3.00D+00 NAtFMM=   80 NAOKFM=F Big=F
 Leave Link  301 at Tue Sep 17 13:09:05 2024, MaxMem=   13107200 cpu:       0.1
 (Enter /programs/64bit/g09/g09-gfortran/bin/l302.exe)
 NPDir=0 NMtPBC=     1 NCelOv=     1 NCel=       1 NClECP=     1 NCelD=      1
         NCelK=      1 NCelE2=     1 NClLst=     1 CellRange=     0.0.
 One-electron integrals computed using PRISM.
 One-electron integral symmetry used in STVInt
 NBasis=    34 RedAO= T  NBF=    23    11
 NBsUse=    34 1.00D-06 NBFU=    23    11
 Precomputing XC quadrature grid using
 IXCGrd= 2 IRadAn=           0 IRanWt=          -1 IRanGd=           0 AccXCQ= 1.00D-10.
 NRdTot=     249 NPtTot=       31528 NUsed=       33336 NTot=       33368
 NSgBfM=    34    34    34    34    34 NAtAll=     4     4.
 Leave Link  302 at Tue Sep 17 13:09:05 2024, MaxMem=   13107200 cpu:       0.3
 (Enter /programs/64bit/g09/g09-gfortran/bin/l303.exe)
 DipDrv:  MaxL=1.
 Leave Link  303 at Tue Sep 17 13:09:05 2024, MaxMem=   13107200 cpu:       0.0
 (Enter /programs/64bit/g09/g09-gfortran/bin/l401.exe)
 Initial guess read from the read-write file.
 B after Tr=     0.000000    0.000000    0.000000
         Rot=    1.000000    0.000000    0.000000    0.000000 Ang=   0.00 deg.
 Guess basis will be translated and rotated to current coordinates.
 Initial guess orbital symmetries:
       Occupied  (A1) (A1) (E) (E) (A1)
       Virtual   (A1) (E) (E) (A1) (E) (E) (A1) (E) (E) (A1) (E)
                 (E) (A1) (A1) (E) (E) (A1) (A2) (E) (E) (E) (E)
                 (A1) (E) (E) (A1) (E) (E) (A1)
 The electronic state of the initial guess is 1-A1.
 Generating alternative initial guess.
 Harris functional with IExCor=  402 diagonalized for initial guess.
 ExpMin= 8.45D-02 ExpMax= 5.48D+03 ExpMxC= 8.25D+02 IAcc=2 IRadAn=         0 AccDes= 0.00D+00
 HarFok:  IExCor=  402 AccDes= 0.00D+00 IRadAn=         0 IDoV= 1
 ScaDFX=  1.000000  1.000000  1.000000  1.000000
 FoFCou: FMM=F IPFlag=           0 FMFlag=      100000 FMFlg1=           0
         NFxFlg=           0 DoJE=T BraDBF=F KetDBF=T FulRan=T
         Omega=  0.000000  0.000000  1.000000  0.000000  0.000000 ICntrl=     500 IOpCl=  0
         NMat0=    1 NMatS0=    1 NMatT0=    0 NMatD0=    1 NMtDS0=    0 NMtDT0=    0
         I1Cent=           4 NGrid=           0.
 Petite list used in FoFCou.
 Harris En= -76.8313756225727    
 Leave Link  401 at Tue Sep 17 13:09:06 2024, MaxMem=   13107200 cpu:       0.6
 (Enter /programs/64bit/g09/g09-gfortran/bin/l502.exe)
 Closed shell SCF:
 Requested convergence on RMS density matrix=1.00D-08 within 128 cycles.
 Requested convergence on MAX density matrix=1.00D-06.
 Requested convergence on             energy=1.00D-06.
 No special actions if energy rises.
 Using DIIS extrapolation, IDIIS=  1040.
 Integral symmetry usage will be decided dynamically.
        33287 words used for storage of precomputed grid.
 Keep R1 ints in memory in canonical form, NReq=1091687.
 IEnd=       55469 IEndB=       55469 NGot=    13107200 MDV=    12892224
 LenX=    12892224 LenY=    12890627
 Symmetry not used in FoFDir.
 MinBra= 0 MaxBra= 2 Meth= 1.
 IRaf=       0 NMat=   1 IRICut=       1 DoRegI=T DoRafI=F ISym2E= 0 JSym2E=0.
 Integral accuracy reduced to 1.0D-05 until final iterations.

 Cycle   1  Pass 0  IDiag  1:
 E= -76.7076616061321    
 DIIS: error= 2.13D-03 at cycle   1 NSaved=   1.
 NSaved= 1 IEnMin= 1 EnMin= -76.7076616061321     IErMin= 1 ErrMin= 2.13D-03
 ErrMax= 2.13D-03 EMaxC= 1.00D-01 BMatC= 9.02D-05 BMatP= 9.02D-05
 IDIUse=3 WtCom= 9.79D-01 WtEn= 2.13D-02
 Coeff-Com:  0.100D+01
 Coeff-En:   0.100D+01
 Coeff:      0.100D+01
 Gap=     0.471 Goal=   None    Shift=    0.000
 GapD=    0.471 DampG=2.000 DampE=1.000 DampFc=2.0000 IDamp=-1.
 RMSDP=3.39D-04 MaxDP=2.77D-03              OVMax= 5.17D-03

 Cycle   2  Pass 0  IDiag  1:
 E= -76.7077522777633     Delta-E=       -0.000090671631 Rises=F Damp=F
 DIIS: error= 8.77D-05 at cycle   2 NSaved=   2.
 NSaved= 2 IEnMin= 2 EnMin= -76.7077522777633     IErMin= 2 ErrMin= 8.77D-05
 ErrMax= 8.77D-05 EMaxC= 1.00D-01 BMatC= 5.14D-07 BMatP= 9.02D-05
 IDIUse=1 WtCom= 1.00D+00 WtEn= 0.00D+00
 Coeff-Com: -0.458D-01 0.105D+01
 Coeff:     -0.458D-01 0.105D+01
 Gap=     0.471 Goal=   None    Shift=    0.000
 RMSDP=3.64D-05 MaxDP=3.27D-04 DE=-9.07D-05 OVMax= 5.67D-04

 Cycle   3  Pass 0  IDiag  1:
 E= -76.7077527538949     Delta-E=       -0.000000476132 Rises=F Damp=F
 DIIS: error= 1.05D-04 at cycle   3 NSaved=   3.
 NSaved= 3 IEnMin= 3 EnMin= -76.7077527538949     IErMin= 2 ErrMin= 8.77D-05
 ErrMax= 1.05D-04 EMaxC= 1.00D-01 BMatC= 3.16D-07 BMatP= 5.14D-07
 IDIUse=3 WtCom= 9.99D-01 WtEn= 1.05D-03
 Coeff-Com: -0.252D-01 0.513D+00 0.512D+00
 Coeff-En:   0.000D+00 0.000D+00 0.100D+01
 Coeff:     -0.252D-01 0.512D+00 0.513D+00
 Gap=     0.471 Goal=   None    Shift=    0.000
 RMSDP=9.32D-06 MaxDP=1.57D-04 DE=-4.76D-07 OVMax= 1.52D-04

 Initial convergence to 1.0D-05 achieved.  Increase integral accuracy.
 Cycle   4  Pass 1  IDiag  1:
 E= -76.7077445282945     Delta-E=        0.000008225600 Rises=F Damp=F
 DIIS: error= 2.18D-05 at cycle   1 NSaved=   1.
 NSaved= 1 IEnMin= 1 EnMin= -76.7077445282945     IErMin= 1 ErrMin= 2.18D-05
 ErrMax= 2.18D-05 EMaxC= 1.00D-01 BMatC= 1.61D-08 BMatP= 1.61D-08
 IDIUse=1 WtCom= 1.00D+00 WtEn= 0.00D+00
 Coeff-Com:  0.100D+01
 Coeff:      0.100D+01
 Gap=     0.471 Goal=   None    Shift=    0.000
 RMSDP=9.32D-06 MaxDP=1.57D-04 DE= 8.23D-06 OVMax= 6.11D-05

 Cycle   5  Pass 1  IDiag  1:
 E= -76.7077445211164     Delta-E=        0.000000007178 Rises=F Damp=F
 DIIS: error= 3.02D-05 at cycle   2 NSaved=   2.
 NSaved= 2 IEnMin= 1 EnMin= -76.7077445282945     IErMin= 1 ErrMin= 2.18D-05
 ErrMax= 3.02D-05 EMaxC= 1.00D-01 BMatC= 2.75D-08 BMatP= 1.61D-08
 IDIUse=1 WtCom= 1.00D+00 WtEn= 0.00D+00
 Coeff-Com:  0.567D+00 0.433D+00
 Coeff:      0.567D+00 0.433D+00
 Gap=     0.471 Goal=   None    Shift=    0.000
 RMSDP=2.31D-06 MaxDP=3.76D-05 DE= 7.18D-09 OVMax= 3.60D-05

 Cycle   6  Pass 1  IDiag  1:
 E= -76.7077445396058     Delta-E=       -0.000000018489 Rises=F Damp=F
 DIIS: error= 1.02D-06 at cycle   3 NSaved=   3.
 NSaved= 3 IEnMin= 3 EnMin= -76.7077445396058     IErMin= 3 ErrMin= 1.02D-06
 ErrMax= 1.02D-06 EMaxC= 1.00D-01 BMatC= 2.65D-11 BMatP= 1.61D-08
 IDIUse=1 WtCom= 1.00D+00 WtEn= 0.00D+00
 Coeff-Com:  0.223D-01 0.421D-01 0.936D+00
 Coeff:      0.223D-01 0.421D-01 0.936D+00
 Gap=     0.471 Goal=   None    Shift=    0.000
 RMSDP=1.49D-07 MaxDP=1.78D-06 DE=-1.85D-08 OVMax= 2.41D-06

 Cycle   7  Pass 1  IDiag  1:
 E= -76.7077445396293     Delta-E=       -0.000000000023 Rises=F Damp=F
 DIIS: error= 1.93D-07 at cycle   4 NSaved=   4.
 NSaved= 4 IEnMin= 4 EnMin= -76.7077445396293     IErMin= 4 ErrMin= 1.93D-07
 ErrMax= 1.93D-07 EMaxC= 1.00D-01 BMatC= 8.04D-13 BMatP= 2.65D-11
 IDIUse=1 WtCom= 1.00D+00 WtEn= 0.00D+00
 Coeff-Com: -0.169D-01-0.706D-02 0.173D+00 0.851D+00
 Coeff:     -0.169D-01-0.706D-02 0.173D+00 0.851D+00
 Gap=     0.471 Goal=   None    Shift=    0.000
 RMSDP=1.88D-08 MaxDP=2.53D-07 DE=-2.34D-11 OVMax= 2.99D-07

 Cycle   8  Pass 1  IDiag  1:
 E= -76.7077445396298     Delta-E=       -0.000000000001 Rises=F Damp=F
 DIIS: error= 4.03D-09 at cycle   5 NSaved=   5.
 NSaved= 5 IEnMin= 5 EnMin= -76.7077445396298     IErMin= 5 ErrMin= 4.03D-09
 ErrMax= 4.03D-09 EMaxC= 1.00D-01 BMatC= 4.54D-16 BMatP= 8.04D-13
 IDIUse=1 WtCom= 1.00D+00 WtEn= 0.00D+00
 Coeff-Com:  0.246D-03-0.246D-04-0.502D-02-0.191D-01 0.102D+01
 Coeff:      0.246D-03-0.246D-04-0.502D-02-0.191D-01 0.102D+01
 Gap=     0.471 Goal=   None    Shift=    0.000
 RMSDP=1.79D-09 MaxDP=1.71D-08 DE=-5.26D-13 OVMax= 2.64D-08

 SCF Done:  E(RB3LYP) =  -76.7077445396     A.U. after    8 cycles
             Convg  =    0.1785D-08             -V/T =  2.0095
 KE= 7.598400726518D+01 PE=-2.043462390636D+02 EE= 3.777355212575D+01
 Leave Link  502 at Tue Sep 17 13:09:08 2024, MaxMem=   13107200 cpu:       1.6
 (Enter /programs/64bit/g09/g09-gfortran/bin/l701.exe)
 Compute integral first derivatives.
 ... and contract with generalized density number  0.
 Leave Link  701 at Tue Sep 17 13:09:08 2024, MaxMem=   13107200 cpu:       0.3
 (Enter /programs/64bit/g09/g09-gfortran/bin/l702.exe)
 L702 exits ... SP integral derivatives will be done elsewhere.
 Leave Link  702 at Tue Sep 17 13:09:08 2024, MaxMem=   13107200 cpu:       0.0
 (Enter /programs/64bit/g09/g09-gfortran/bin/l703.exe)
 Compute integral first derivatives, UseDBF=F ICtDFT=           0.
 Integral derivatives from FoFDir, PRISM(SPDF).
 Calling FoFJK, ICntrl=      2127 FMM=F ISym2X=1 I1Cent= 0 IOpClX= 0 NMat=1 NMatS=1 NMatT=0.
 FoFCou: FMM=F IPFlag=           0 FMFlag=      100000 FMFlg1=         800
         NFxFlg=           0 DoJE=F BraDBF=F KetDBF=F FulRan=T
         Omega=  0.000000  0.000000  1.000000  0.000000  0.000000 ICntrl=    2127 IOpCl=  0
         NMat0=    1 NMatS0=    1 NMatT0=    0 NMatD0=    1 NMtDS0=    0 NMtDT0=    0
         I1Cent=           0 NGrid=           0.
 Petite list used in FoFCou.
 Leave Link  703 at Tue Sep 17 13:09:09 2024, MaxMem=   13107200 cpu:       1.0
 (Enter /programs/64bit/g09/g09-gfortran/bin/l716.exe)
 Dipole        =-4.44089210D-16 3.33066907D-16-5.95011876D-01
 ***** Axes restored to original set *****
 -------------------------------------------------------------------
 Center     Atomic                   Forces (Hartrees/Bohr)
 Number     Number              X              Y              Z
 -------------------------------------------------------------------
      1        8           0.000940052   -0.001628218    0.000664717
      2        1          -0.000247191    0.000428148   -0.000595828
      3        1          -0.000644149    0.000428148   -0.000034445
      4        1          -0.000048712    0.000771923   -0.000034445
 -------------------------------------------------------------------
 Cartesian Forces:  Max     0.001628218 RMS     0.000693717
 Leave Link  716 at Tue Sep 17 13:09:09 2024, MaxMem=   13107200 cpu:       0.0
 (Enter /programs/64bit/g09/g09-gfortran/bin/l103.exe)

 GradGradGradGradGradGradGradGradGradGradGradGradGradGradGradGradGradGrad
 Berny optimization.
 Using GEDIIS/GDIIS optimizer.
 Internal  Forces:  Max     0.000814294 RMS     0.000531534
 Search for a local minimum.
 Step number   3 out of a maximum of   20
 All quantities printed in internal units (Hartrees-Bohrs-Radians)
 RMS Force = .53153D-03 SwitMx=.10000D-02 MixMth= 2
 Mixed Optimization -- En-DIIS/RFO-DIIS
 Update second derivatives using D2CorX and points    1    2    3
 DE= -1.07D-04 DEPred=-7.31D-05 R= 1.47D+00
 SS=  1.41D+00  RLast= 5.83D-02 DXNew= 8.4853D-01 1.7501D-01
 Trust test= 1.47D+00 RLast= 5.83D-02 DXMaxT set to 5.05D-01
 The second derivative matrix:
                          R1        R2        R3        A1        A2
           R1           0.60902
           R2           0.03220   0.60902
           R3           0.03220   0.03220   0.60902
           A1          -0.05211  -0.05211  -0.05211   0.13517
           A2          -0.02214  -0.02214  -0.02214  -0.02890   0.13336
           A3          -0.02214  -0.02214  -0.02214  -0.02890  -0.02664
           D1          -0.03331  -0.03331  -0.03331   0.01431   0.00486
                          A3        D1
           A3           0.13336
           D1           0.00486   0.02866
 Use linear search instead of GDIIS.
     Eigenvalues ---    0.02731   0.15962   0.16000   0.57681   0.57681
     Eigenvalues ---    0.674281000.00000
 RFO step:  Lambda=-1.40159187D-05 EMin= 2.73095369D-02
 Quartic linear search produced a step of  0.49396.
 Iteration  1 RMS(Cart)=  0.00805038 RMS(Int)=  0.00036488
 Iteration  2 RMS(Cart)=  0.00009519 RMS(Int)=  0.00035135
 Iteration  3 RMS(Cart)=  0.00000000 RMS(Int)=  0.00035135
 ClnCor:  largest displacement from symmetrization is 1.55D-04 for atom     4.
 Variable       Old X    -DE/DX   Delta X   Delta X   Delta X     New X
                                 (Linear)    (Quad)   (Total)
    R1        1.85853  -0.00056   0.00146  -0.00243  -0.00101   1.85752
    R2        1.85853  -0.00056   0.00146  -0.00243  -0.00101   1.85752
    R3        1.85853  -0.00056   0.00146  -0.00243  -0.00101   1.85752
    A1        1.97337   0.00002   0.00805   0.00252   0.01018   1.98355
    A2        1.97337   0.00043   0.00805   0.00266   0.01018   1.98355
    A3        1.97337   0.00043   0.00805   0.00266   0.01018   1.98355
    D1       -2.27072  -0.00081  -0.02509  -0.00845  -0.03404  -2.30475
         Item               Value     Threshold  Converged?
 Maximum Force            0.000814     0.000450     NO 
 RMS     Force            0.000532     0.000300     NO 
 Maximum Displacement     0.013661     0.001800     NO 
 RMS     Displacement     0.008006     0.001200     NO 
 Predicted change in Energy=-1.745481D-05
 GradGradGradGradGradGradGradGradGradGradGradGradGradGradGradGradGradGrad

 Leave Link  103 at Tue Sep 17 13:09:09 2024, MaxMem=   13107200 cpu:       0.0
 (Enter /programs/64bit/g09/g09-gfortran/bin/l202.exe)
                          Input orientation:                          
 ---------------------------------------------------------------------
 Center     Atomic      Atomic             Coordinates (Angstroms)
 Number     Number       Type             X           Y           Z
 ---------------------------------------------------------------------
      1          8           0        0.022820   -0.039525    0.016136
      2          1           0       -0.016552    0.028668    0.995934
      3          1           0        0.933459    0.028668   -0.347583
      4          1           0       -0.491557   -0.794065   -0.347583
 ---------------------------------------------------------------------
                    Distance matrix (angstroms):
                    1          2          3          4
     1  O    0.000000
     2  H    0.982957   0.000000
     3  H    0.982957   1.645466   0.000000
     4  H    0.982957   1.645466   1.645466   0.000000
 Stoichiometry    H3O(1+)
 Framework group  C3V[C3(O),3SGV(H)]
 Deg. of freedom     2
 Full point group                 C3V     NOp   6
 Largest Abelian subgroup         CS      NOp   2
 Largest concise Abelian subgroup CS      NOp   2
                         Standard orientation:                         
 ---------------------------------------------------------------------
 Center     Atomic      Atomic             Coordinates (Angstroms)
 Number     Number       Type             X           Y           Z
 ---------------------------------------------------------------------
      1          8           0       -0.000000   -0.000000    0.068826
      2          1           0        0.000000    0.950010   -0.183535
      3          1           0       -0.822733   -0.475005   -0.183535
      4          1           0        0.822733   -0.475005   -0.183535
 ---------------------------------------------------------------------
 Rotational constants (GHZ):    331.1108419    331.1108419    185.2056517
 Leave Link  202 at Tue Sep 17 13:09:09 2024, MaxMem=   13107200 cpu:       0.0
 (Enter /programs/64bit/g09/g09-gfortran/bin/l301.exe)
 Standard basis: 6-31+G(d,p) (6D, 7F)
 Ernie: Thresh=  0.10000D-02 Tol=  0.10000D-05 Strict=F.
 There are    23 symmetry adapted basis functions of A'  symmetry.
 There are    11 symmetry adapted basis functions of A"  symmetry.
 Integral buffers will be    131072 words long.
 Raffenetti 2 integral format.
 Two-electron integral symmetry is turned on.
    34 basis functions,    53 primitive gaussians,    34 cartesian basis functions
     5 alpha electrons        5 beta electrons
       nuclear repulsion energy        13.8852426842 Hartrees.
 IExCor=  402 DFT=T Ex+Corr=B3LYP ExCW=0 ScaHFX=  0.200000
 ScaDFX=  0.800000  0.720000  1.000000  0.810000 ScalE2=  1.000000  1.000000
 IRadAn=      0 IRanWt=     -1 IRanGd=            0 ICorTp=0
 NAtoms=    4 NActive=    4 NUniq=    2 SFac= 3.00D+00 NAtFMM=   80 NAOKFM=F Big=F
 Leave Link  301 at Tue Sep 17 13:09:09 2024, MaxMem=   13107200 cpu:       0.1
 (Enter /programs/64bit/g09/g09-gfortran/bin/l302.exe)
 NPDir=0 NMtPBC=     1 NCelOv=     1 NCel=       1 NClECP=     1 NCelD=      1
         NCelK=      1 NCelE2=     1 NClLst=     1 CellRange=     0.0.
 One-electron integrals computed using PRISM.
 One-electron integral symmetry used in STVInt
 NBasis=    34 RedAO= T  NBF=    23    11
 NBsUse=    34 1.00D-06 NBFU=    23    11
 Precomputing XC quadrature grid using
 IXCGrd= 2 IRadAn=           0 IRanWt=          -1 IRanGd=           0 AccXCQ= 1.00D-10.
 NRdTot=     249 NPtTot=       31528 NUsed=       33336 NTot=       33368
 NSgBfM=    34    34    34    34    34 NAtAll=     4     4.
 Leave Link  302 at Tue Sep 17 13:09:10 2024, MaxMem=   13107200 cpu:       0.3
 (Enter /programs/64bit/g09/g09-gfortran/bin/l303.exe)
 DipDrv:  MaxL=1.
 Leave Link  303 at Tue Sep 17 13:09:10 2024, MaxMem=   13107200 cpu:       0.0
 (Enter /programs/64bit/g09/g09-gfortran/bin/l401.exe)
 Initial guess read from the read-write file.
 B after Tr=     0.000000    0.000000    0.000000
         Rot=    1.000000    0.000000    0.000000    0.000000 Ang=   0.00 deg.
 Guess basis will be translated and rotated to current coordinates.
 Initial guess orbital symmetries:
       Occupied  (A1) (A1) (E) (E) (A1)
       Virtual   (A1) (E) (E) (A1) (E) (E) (A1) (E) (E) (A1) (E)
                 (E) (A1) (A1) (E) (E) (A1) (A2) (E) (E) (E) (E)
                 (A1) (E) (E) (A1) (E) (E) (A1)
 The electronic state of the initial guess is 1-A1.
 Leave Link  401 at Tue Sep 17 13:09:10 2024, MaxMem=   13107200 cpu:       0.1
 (Enter /programs/64bit/g09/g09-gfortran/bin/l502.exe)
 Closed shell SCF:
 Requested convergence on RMS density matrix=1.00D-08 within 128 cycles.
 Requested convergence on MAX density matrix=1.00D-06.
 Requested convergence on             energy=1.00D-06.
 No special actions if energy rises.
 Using DIIS extrapolation, IDIIS=  1040.
 Integral symmetry usage will be decided dynamically.
        33287 words used for storage of precomputed grid.
 Keep R1 ints in memory in canonical form, NReq=1091687.
 IEnd=       55469 IEndB=       55469 NGot=    13107200 MDV=    12892224
 LenX=    12892224 LenY=    12890627
 Symmetry not used in FoFDir.
 MinBra= 0 MaxBra= 2 Meth= 1.
 IRaf=       0 NMat=   1 IRICut=       1 DoRegI=T DoRafI=F ISym2E= 0 JSym2E=0.

 Cycle   1  Pass 1  IDiag  1:
 E= -76.7077252315078    
 DIIS: error= 1.38D-03 at cycle   1 NSaved=   1.
 NSaved= 1 IEnMin= 1 EnMin= -76.7077252315078     IErMin= 1 ErrMin= 1.38D-03
 ErrMax= 1.38D-03 EMaxC= 1.00D-01 BMatC= 3.86D-05 BMatP= 3.86D-05
 IDIUse=3 WtCom= 9.86D-01 WtEn= 1.38D-02
 Coeff-Com:  0.100D+01
 Coeff-En:   0.100D+01
 Coeff:      0.100D+01
 Gap=     0.470 Goal=   None    Shift=    0.000
 GapD=    0.470 DampG=2.000 DampE=1.000 DampFc=2.0000 IDamp=-1.
 RMSDP=2.34D-04 MaxDP=1.82D-03              OVMax= 3.71D-03

 Cycle   2  Pass 1  IDiag  1:
 E= -76.7077650343050     Delta-E=       -0.000039802797 Rises=F Damp=F
 DIIS: error= 2.39D-04 at cycle   2 NSaved=   2.
 NSaved= 2 IEnMin= 2 EnMin= -76.7077650343050     IErMin= 2 ErrMin= 2.39D-04
 ErrMax= 2.39D-04 EMaxC= 1.00D-01 BMatC= 1.90D-06 BMatP= 3.86D-05
 IDIUse=3 WtCom= 9.98D-01 WtEn= 2.39D-03
 Coeff-Com:  0.126D-01 0.987D+00
 Coeff-En:   0.000D+00 0.100D+01
 Coeff:      0.126D-01 0.987D+00
 Gap=     0.469 Goal=   None    Shift=    0.000
 RMSDP=4.49D-05 MaxDP=5.93D-04 DE=-3.98D-05 OVMax= 6.30D-04

 Cycle   3  Pass 1  IDiag  1:
 E= -76.7077644250596     Delta-E=        0.000000609245 Rises=F Damp=F
 DIIS: error= 3.18D-04 at cycle   3 NSaved=   3.
 NSaved= 3 IEnMin= 2 EnMin= -76.7077650343050     IErMin= 2 ErrMin= 2.39D-04
 ErrMax= 3.18D-04 EMaxC= 1.00D-01 BMatC= 2.96D-06 BMatP= 1.90D-06
 IDIUse=3 WtCom= 3.59D-01 WtEn= 6.41D-01
 Coeff-Com: -0.353D-01 0.577D+00 0.458D+00
 Coeff-En:   0.000D+00 0.587D+00 0.413D+00
 Coeff:     -0.127D-01 0.584D+00 0.429D+00
 Gap=     0.470 Goal=   None    Shift=    0.000
 RMSDP=2.30D-05 MaxDP=3.79D-04 DE= 6.09D-07 OVMax= 3.62D-04

 Cycle   4  Pass 1  IDiag  1:
 E= -76.7077664270355     Delta-E=       -0.000002001976 Rises=F Damp=F
 DIIS: error= 5.93D-06 at cycle   4 NSaved=   4.
 NSaved= 4 IEnMin= 4 EnMin= -76.7077664270355     IErMin= 4 ErrMin= 5.93D-06
 ErrMax= 5.93D-06 EMaxC= 1.00D-01 BMatC= 1.21D-09 BMatP= 1.90D-06
 IDIUse=1 WtCom= 1.00D+00 WtEn= 0.00D+00
 Coeff-Com:  0.123D-02-0.526D-01-0.592D-01 0.111D+01
 Coeff:      0.123D-02-0.526D-01-0.592D-01 0.111D+01
 Gap=     0.470 Goal=   None    Shift=    0.000
 RMSDP=2.00D-06 MaxDP=2.12D-05 DE=-2.00D-06 OVMax= 3.32D-05

 Cycle   5  Pass 1  IDiag  1:
 E= -76.7077664287075     Delta-E=       -0.000000001672 Rises=F Damp=F
 DIIS: error= 6.70D-07 at cycle   5 NSaved=   5.
 NSaved= 5 IEnMin= 5 EnMin= -76.7077664287075     IErMin= 5 ErrMin= 6.70D-07
 ErrMax= 6.70D-07 EMaxC= 1.00D-01 BMatC= 1.06D-11 BMatP= 1.21D-09
 IDIUse=1 WtCom= 1.00D+00 WtEn= 0.00D+00
 Coeff-Com:  0.457D-03-0.146D-01-0.137D-01 0.175D+00 0.853D+00
 Coeff:      0.457D-03-0.146D-01-0.137D-01 0.175D+00 0.853D+00
 Gap=     0.470 Goal=   None    Shift=    0.000
 RMSDP=5.65D-08 MaxDP=4.27D-07 DE=-1.67D-09 OVMax= 9.62D-07

 Cycle   6  Pass 1  IDiag  1:
 E= -76.7077664287153     Delta-E=       -0.000000000008 Rises=F Damp=F
 DIIS: error= 7.66D-08 at cycle   6 NSaved=   6.
 NSaved= 6 IEnMin= 6 EnMin= -76.7077664287153     IErMin= 6 ErrMin= 7.66D-08
 ErrMax= 7.66D-08 EMaxC= 1.00D-01 BMatC= 1.50D-13 BMatP= 1.06D-11
 IDIUse=1 WtCom= 1.00D+00 WtEn= 0.00D+00
 Coeff-Com:  0.847D-05 0.142D-03 0.456D-03-0.106D-01 0.954D-01 0.915D+00
 Coeff:      0.847D-05 0.142D-03 0.456D-03-0.106D-01 0.954D-01 0.915D+00
 Gap=     0.470 Goal=   None    Shift=    0.000
 RMSDP=1.14D-08 MaxDP=1.17D-07 DE=-7.80D-12 OVMax= 1.57D-07

 Cycle   7  Pass 1  IDiag  1:
 E= -76.7077664287157     Delta-E=       -0.000000000000 Rises=F Damp=F
 DIIS: error= 2.27D-09 at cycle   7 NSaved=   7.
 NSaved= 7 IEnMin= 7 EnMin= -76.7077664287157     IErMin= 7 ErrMin= 2.27D-09
 ErrMax= 2.27D-09 EMaxC= 1.00D-01 BMatC= 7.79D-17 BMatP= 1.50D-13
 IDIUse=1 WtCom= 1.00D+00 WtEn= 0.00D+00
 Coeff-Com: -0.154D-05 0.312D-04 0.181D-04-0.123D-04-0.600D-02-0.472D-01
 Coeff-Com:  0.105D+01
 Coeff:     -0.154D-05 0.312D-04 0.181D-04-0.123D-04-0.600D-02-0.472D-01
 Coeff:      0.105D+01
 Gap=     0.470 Goal=   None    Shift=    0.000
 RMSDP=5.06D-10 MaxDP=6.22D-09 DE=-3.69D-13 OVMax= 6.41D-09

 SCF Done:  E(RB3LYP) =  -76.7077664287     A.U. after    7 cycles
             Convg  =    0.5062D-09             -V/T =  2.0095
 KE= 7.598390736837D+01 PE=-2.043581643872D+02 EE= 3.778124790589D+01
 Leave Link  502 at Tue Sep 17 13:09:12 2024, MaxMem=   13107200 cpu:       1.8
 (Enter /programs/64bit/g09/g09-gfortran/bin/l701.exe)
 Compute integral first derivatives.
 ... and contract with generalized density number  0.
 Leave Link  701 at Tue Sep 17 13:09:12 2024, MaxMem=   13107200 cpu:       0.3
 (Enter /programs/64bit/g09/g09-gfortran/bin/l702.exe)
 L702 exits ... SP integral derivatives will be done elsewhere.
 Leave Link  702 at Tue Sep 17 13:09:12 2024, MaxMem=   13107200 cpu:       0.0
 (Enter /programs/64bit/g09/g09-gfortran/bin/l703.exe)
 Compute integral first derivatives, UseDBF=F ICtDFT=           0.
 Integral derivatives from FoFDir, PRISM(SPDF).
 Calling FoFJK, ICntrl=      2127 FMM=F ISym2X=1 I1Cent= 0 IOpClX= 0 NMat=1 NMatS=1 NMatT=0.
 FoFCou: FMM=F IPFlag=           0 FMFlag=      100000 FMFlg1=         800
         NFxFlg=           0 DoJE=F BraDBF=F KetDBF=F FulRan=T
         Omega=  0.000000  0.000000  1.000000  0.000000  0.000000 ICntrl=    2127 IOpCl=  0
         NMat0=    1 NMatS0=    1 NMatT0=    0 NMatD0=    1 NMtDS0=    0 NMtDT0=    0
         I1Cent=           0 NGrid=           0.
 Petite list used in FoFCou.
 Leave Link  703 at Tue Sep 17 13:09:13 2024, MaxMem=   13107200 cpu:       1.0
 (Enter /programs/64bit/g09/g09-gfortran/bin/l716.exe)
 Dipole        = 0.00000000D+00-1.11022302D-16-5.70140051D-01
 ***** Axes restored to original set *****
 -------------------------------------------------------------------
 Center     Atomic                   Forces (Hartrees/Bohr)
 Number     Number              X              Y              Z
 -------------------------------------------------------------------
      1        8           0.000276395   -0.000478729    0.000195440
      2        1          -0.000013364    0.000023146   -0.000510726
      3        1          -0.000485971    0.000023146    0.000157643
      4        1           0.000222940    0.000432437    0.000157643
 -------------------------------------------------------------------
 Cartesian Forces:  Max     0.000510726 RMS     0.000306654
 Leave Link  716 at Tue Sep 17 13:09:13 2024, MaxMem=   13107200 cpu:       0.0
 (Enter /programs/64bit/g09/g09-gfortran/bin/l103.exe)

 GradGradGradGradGradGradGradGradGradGradGradGradGradGradGradGradGradGrad
 Berny optimization.
 Using GEDIIS/GDIIS optimizer.
 Internal  Forces:  Max     0.000506943 RMS     0.000335346
 Search for a local minimum.
 Step number   4 out of a maximum of   20
 All quantities printed in internal units (Hartrees-Bohrs-Radians)
 RMS Force = .33535D-03 SwitMx=.10000D-02 MixMth= 2
 Mixed Optimization -- En-DIIS/RFO-DIIS
 Swaping is turned off.
 Update second derivatives using D2CorX and points    1    2    3    4
 DE= -2.19D-05 DEPred=-1.75D-05 R= 1.25D+00
 SS=  1.41D+00  RLast= 3.84D-02 DXNew= 8.4853D-01 1.1511D-01
 Trust test= 1.25D+00 RLast= 3.84D-02 DXMaxT set to 5.05D-01
 The second derivative matrix:
                          R1        R2        R3        A1        A2
           R1           0.57130
           R2          -0.00552   0.57130
           R3          -0.00552  -0.00552   0.57130
           A1          -0.02510  -0.02510  -0.02510   0.12386
           A2          -0.00456  -0.00456  -0.00456  -0.03846   0.12566
           A3          -0.00456  -0.00456  -0.00456  -0.03846  -0.03434
           D1          -0.02526  -0.02526  -0.02526   0.01576   0.00510
                          A3        D1
           A3           0.12566
           D1           0.00510   0.03087
     Eigenvalues ---    0.02140   0.16000   0.16000   0.56232   0.57681
     Eigenvalues ---    0.576811000.00000
 En-DIIS/RFO-DIIS IScMMF=        0 using points:     4    3
 RFO step:  Lambda=-1.19116519D-06.
 DIIS coeffs:      1.19202     -0.19202
 Iteration  1 RMS(Cart)=  0.00144064 RMS(Int)=  0.00003744
 Iteration  2 RMS(Cart)=  0.00000402 RMS(Int)=  0.00003721
 Iteration  3 RMS(Cart)=  0.00000000 RMS(Int)=  0.00003721
 ClnCor:  largest displacement from symmetrization is 6.20D-05 for atom     4.
 Variable       Old X    -DE/DX   Delta X   Delta X   Delta X     New X
                                  (DIIS)     (GDIIS)  (Total)
    R1        1.85752  -0.00051  -0.00019  -0.00088  -0.00110   1.85642
    R2        1.85752  -0.00051  -0.00019  -0.00088  -0.00110   1.85642
    R3        1.85752  -0.00051  -0.00019  -0.00088  -0.00110   1.85642
    A1        1.98355   0.00000   0.00195  -0.00012   0.00186   1.98540
    A2        1.98355   0.00005   0.00195  -0.00001   0.00186   1.98540
    A3        1.98355   0.00005   0.00195  -0.00001   0.00186   1.98540
    D1       -2.30475  -0.00010  -0.00654   0.00019  -0.00642  -2.31117
         Item               Value     Threshold  Converged?
 Maximum Force            0.000507     0.000450     NO 
 RMS     Force            0.000335     0.000300     NO 
 Maximum Displacement     0.002694     0.001800     NO 
 RMS     Displacement     0.001439     0.001200     NO 
 Predicted change in Energy=-1.255208D-06
 GradGradGradGradGradGradGradGradGradGradGradGradGradGradGradGradGradGrad

 Leave Link  103 at Tue Sep 17 13:09:13 2024, MaxMem=   13107200 cpu:       0.0
 (Enter /programs/64bit/g09/g09-gfortran/bin/l202.exe)
                          Input orientation:                          
 ---------------------------------------------------------------------
 Center     Atomic      Atomic             Coordinates (Angstroms)
 Number     Number       Type             X           Y           Z
 ---------------------------------------------------------------------
      1          8           0        0.023643   -0.040950    0.016718
      2          1           0       -0.016827    0.029146    0.995755
      3          1           0        0.933198    0.029146   -0.347784
      4          1           0       -0.491840   -0.793600   -0.347784
 ---------------------------------------------------------------------
                    Distance matrix (angstroms):
                    1          2          3          4
     1  O    0.000000
     2  H    0.982377   0.000000
     3  H    0.982377   1.645492   0.000000
     4  H    0.982377   1.645492   1.645492   0.000000
 Stoichiometry    H3O(1+)
 Framework group  C3V[C3(O),3SGV(H)]
 Deg. of freedom     2
 Full point group                 C3V     NOp   6
 Largest Abelian subgroup         CS      NOp   2
 Largest concise Abelian subgroup CS      NOp   2
                         Standard orientation:                         
 ---------------------------------------------------------------------
 Center     Atomic      Atomic             Coordinates (Angstroms)
 Number     Number       Type             X           Y           Z
 ---------------------------------------------------------------------
      1          8           0        0.000000   -0.000000    0.068191
      2          1           0       -0.000000    0.950025   -0.181843
      3          1           0       -0.822746   -0.475013   -0.181843
      4          1           0        0.822746   -0.475013   -0.181843
 ---------------------------------------------------------------------
 Rotational constants (GHZ):    331.7471840    331.7471840    185.1997542
 Leave Link  202 at Tue Sep 17 13:09:13 2024, MaxMem=   13107200 cpu:       0.0
 (Enter /programs/64bit/g09/g09-gfortran/bin/l301.exe)
 Standard basis: 6-31+G(d,p) (6D, 7F)
 Ernie: Thresh=  0.10000D-02 Tol=  0.10000D-05 Strict=F.
 There are    23 symmetry adapted basis functions of A'  symmetry.
 There are    11 symmetry adapted basis functions of A"  symmetry.
 Integral buffers will be    131072 words long.
 Raffenetti 2 integral format.
 Two-electron integral symmetry is turned on.
    34 basis functions,    53 primitive gaussians,    34 cartesian basis functions
     5 alpha electrons        5 beta electrons
       nuclear repulsion energy        13.8928543833 Hartrees.
 IExCor=  402 DFT=T Ex+Corr=B3LYP ExCW=0 ScaHFX=  0.200000
 ScaDFX=  0.800000  0.720000  1.000000  0.810000 ScalE2=  1.000000  1.000000
 IRadAn=      0 IRanWt=     -1 IRanGd=            0 ICorTp=0
 NAtoms=    4 NActive=    4 NUniq=    2 SFac= 3.00D+00 NAtFMM=   80 NAOKFM=F Big=F
 Leave Link  301 at Tue Sep 17 13:09:13 2024, MaxMem=   13107200 cpu:       0.1
 (Enter /programs/64bit/g09/g09-gfortran/bin/l302.exe)
 NPDir=0 NMtPBC=     1 NCelOv=     1 NCel=       1 NClECP=     1 NCelD=      1
         NCelK=      1 NCelE2=     1 NClLst=     1 CellRange=     0.0.
 One-electron integrals computed using PRISM.
 One-electron integral symmetry used in STVInt
 NBasis=    34 RedAO= T  NBF=    23    11
 NBsUse=    34 1.00D-06 NBFU=    23    11
 Precomputing XC quadrature grid using
 IXCGrd= 2 IRadAn=           0 IRanWt=          -1 IRanGd=           0 AccXCQ= 1.00D-10.
 NRdTot=     249 NPtTot=       31528 NUsed=       33336 NTot=       33368
 NSgBfM=    34    34    34    34    34 NAtAll=     4     4.
 Leave Link  302 at Tue Sep 17 13:09:13 2024, MaxMem=   13107200 cpu:       0.3
 (Enter /programs/64bit/g09/g09-gfortran/bin/l303.exe)
 DipDrv:  MaxL=1.
 Leave Link  303 at Tue Sep 17 13:09:13 2024, MaxMem=   13107200 cpu:       0.0
 (Enter /programs/64bit/g09/g09-gfortran/bin/l401.exe)
 Initial guess read from the read-write file.
 B after Tr=     0.000000    0.000000    0.000000
         Rot=    1.000000    0.000000    0.000000    0.000000 Ang=   0.00 deg.
 Guess basis will be translated and rotated to current coordinates.
 Initial guess orbital symmetries:
       Occupied  (A1) (A1) (E) (E) (A1)
       Virtual   (A1) (E) (E) (A1) (E) (E) (A1) (E) (E) (A1) (E)
                 (E) (A1) (A1) (E) (E) (A1) (A2) (E) (E) (E) (E)
                 (A1) (E) (E) (A1) (E) (E) (A1)
 The electronic state of the initial guess is 1-A1.
 Leave Link  401 at Tue Sep 17 13:09:14 2024, MaxMem=   13107200 cpu:       0.1
 (Enter /programs/64bit/g09/g09-gfortran/bin/l502.exe)
 Closed shell SCF:
 Requested convergence on RMS density matrix=1.00D-08 within 128 cycles.
 Requested convergence on MAX density matrix=1.00D-06.
 Requested convergence on             energy=1.00D-06.
 No special actions if energy rises.
 Using DIIS extrapolation, IDIIS=  1040.
 Integral symmetry usage will be decided dynamically.
        33287 words used for storage of precomputed grid.
 Keep R1 ints in memory in canonical form, NReq=1091687.
 IEnd=       55469 IEndB=       55469 NGot=    13107200 MDV=    12892224
 LenX=    12892224 LenY=    12890627
 Symmetry not used in FoFDir.
 MinBra= 0 MaxBra= 2 Meth= 1.
 IRaf=       0 NMat=   1 IRICut=       1 DoRegI=T DoRafI=F ISym2E= 0 JSym2E=0.

 Cycle   1  Pass 1  IDiag  1:
 E= -76.7077659929598    
 DIIS: error= 2.50D-04 at cycle   1 NSaved=   1.
 NSaved= 1 IEnMin= 1 EnMin= -76.7077659929598     IErMin= 1 ErrMin= 2.50D-04
 ErrMax= 2.50D-04 EMaxC= 1.00D-01 BMatC= 1.66D-06 BMatP= 1.66D-06
 IDIUse=3 WtCom= 9.98D-01 WtEn= 2.50D-03
 Coeff-Com:  0.100D+01
 Coeff-En:   0.100D+01
 Coeff:      0.100D+01
 Gap=     0.470 Goal=   None    Shift=    0.000
 RMSDP=5.05D-05 MaxDP=3.51D-04              OVMax= 7.95D-04

 Cycle   2  Pass 1  IDiag  1:
 E= -76.7077675752092     Delta-E=       -0.000001582249 Rises=F Damp=F
 DIIS: error= 1.04D-04 at cycle   2 NSaved=   2.
 NSaved= 2 IEnMin= 2 EnMin= -76.7077675752092     IErMin= 2 ErrMin= 1.04D-04
 ErrMax= 1.04D-04 EMaxC= 1.00D-01 BMatC= 3.47D-07 BMatP= 1.66D-06
 IDIUse=3 WtCom= 9.99D-01 WtEn= 1.04D-03
 Coeff-Com:  0.203D+00 0.797D+00
 Coeff-En:   0.000D+00 0.100D+01
 Coeff:      0.203D+00 0.797D+00
 Gap=     0.470 Goal=   None    Shift=    0.000
 RMSDP=1.49D-05 MaxDP=2.23D-04 DE=-1.58D-06 OVMax= 2.23D-04

 Cycle   3  Pass 1  IDiag  1:
 E= -76.7077676336473     Delta-E=       -0.000000058438 Rises=F Damp=F
 DIIS: error= 9.47D-05 at cycle   3 NSaved=   3.
 NSaved= 3 IEnMin= 3 EnMin= -76.7077676336473     IErMin= 3 ErrMin= 9.47D-05
 ErrMax= 9.47D-05 EMaxC= 1.00D-01 BMatC= 2.61D-07 BMatP= 3.47D-07
 IDIUse=1 WtCom= 1.00D+00 WtEn= 0.00D+00
 Coeff-Com: -0.367D-01 0.472D+00 0.564D+00
 Coeff:     -0.367D-01 0.472D+00 0.564D+00
 Gap=     0.470 Goal=   None    Shift=    0.000
 RMSDP=7.12D-06 MaxDP=1.18D-04 DE=-5.84D-08 OVMax= 1.15D-04

 Cycle   4  Pass 1  IDiag  1:
 E= -76.7077678107847     Delta-E=       -0.000000177137 Rises=F Damp=F
 DIIS: error= 1.75D-06 at cycle   4 NSaved=   4.
 NSaved= 4 IEnMin= 4 EnMin= -76.7077678107847     IErMin= 4 ErrMin= 1.75D-06
 ErrMax= 1.75D-06 EMaxC= 1.00D-01 BMatC= 4.92D-11 BMatP= 2.61D-07
 IDIUse=1 WtCom= 1.00D+00 WtEn= 0.00D+00
 Coeff-Com: -0.350D-02 0.462D-01 0.593D-01 0.898D+00
 Coeff:     -0.350D-02 0.462D-01 0.593D-01 0.898D+00
 Gap=     0.470 Goal=   None    Shift=    0.000
 RMSDP=3.89D-07 MaxDP=3.92D-06 DE=-1.77D-07 OVMax= 5.17D-06

 Cycle   5  Pass 1  IDiag  1:
 E= -76.7077678108396     Delta-E=       -0.000000000055 Rises=F Damp=F
 DIIS: error= 4.12D-07 at cycle   5 NSaved=   5.
 NSaved= 5 IEnMin= 5 EnMin= -76.7077678108396     IErMin= 5 ErrMin= 4.12D-07
 ErrMax= 4.12D-07 EMaxC= 1.00D-01 BMatC= 3.73D-12 BMatP= 4.92D-11
 IDIUse=1 WtCom= 1.00D+00 WtEn= 0.00D+00
 Coeff-Com:  0.623D-03-0.125D-01-0.134D-01 0.132D+00 0.893D+00
 Coeff:      0.623D-03-0.125D-01-0.134D-01 0.132D+00 0.893D+00
 Gap=     0.470 Goal=   None    Shift=    0.000
 RMSDP=3.69D-08 MaxDP=2.93D-07 DE=-5.49D-11 OVMax= 6.16D-07

 Cycle   6  Pass 1  IDiag  1:
 E= -76.7077678108423     Delta-E=       -0.000000000003 Rises=F Damp=F
 DIIS: error= 2.36D-08 at cycle   6 NSaved=   6.
 NSaved= 6 IEnMin= 6 EnMin= -76.7077678108423     IErMin= 6 ErrMin= 2.36D-08
 ErrMax= 2.36D-08 EMaxC= 1.00D-01 BMatC= 1.19D-14 BMatP= 3.73D-12
 IDIUse=1 WtCom= 1.00D+00 WtEn= 0.00D+00
 Coeff-Com:  0.797D-05-0.530D-04 0.118D-03-0.406D-02-0.804D-02 0.101D+01
 Coeff:      0.797D-05-0.530D-04 0.118D-03-0.406D-02-0.804D-02 0.101D+01
 Gap=     0.470 Goal=   None    Shift=    0.000
 RMSDP=2.31D-09 MaxDP=2.81D-08 DE=-2.73D-12 OVMax= 3.18D-08

 SCF Done:  E(RB3LYP) =  -76.7077678108     A.U. after    6 cycles
             Convg  =    0.2314D-08             -V/T =  2.0095
 KE= 7.598628070195D+01 PE=-2.043737926157D+02 EE= 3.778688971962D+01
 Leave Link  502 at Tue Sep 17 13:09:15 2024, MaxMem=   13107200 cpu:       1.5
 (Enter /programs/64bit/g09/g09-gfortran/bin/l701.exe)
 Compute integral first derivatives.
 ... and contract with generalized density number  0.
 Leave Link  701 at Tue Sep 17 13:09:16 2024, MaxMem=   13107200 cpu:       0.3
 (Enter /programs/64bit/g09/g09-gfortran/bin/l702.exe)
 L702 exits ... SP integral derivatives will be done elsewhere.
 Leave Link  702 at Tue Sep 17 13:09:16 2024, MaxMem=   13107200 cpu:       0.0
 (Enter /programs/64bit/g09/g09-gfortran/bin/l703.exe)
 Compute integral first derivatives, UseDBF=F ICtDFT=           0.
 Integral derivatives from FoFDir, PRISM(SPDF).
 Calling FoFJK, ICntrl=      2127 FMM=F ISym2X=1 I1Cent= 0 IOpClX= 0 NMat=1 NMatS=1 NMatT=0.
 FoFCou: FMM=F IPFlag=           0 FMFlag=      100000 FMFlg1=         800
         NFxFlg=           0 DoJE=F BraDBF=F KetDBF=F FulRan=T
         Omega=  0.000000  0.000000  1.000000  0.000000  0.000000 ICntrl=    2127 IOpCl=  0
         NMat0=    1 NMatS0=    1 NMatT0=    0 NMatD0=    1 NMtDS0=    0 NMtDT0=    0
         I1Cent=           0 NGrid=           0.
 Petite list used in FoFCou.
 Leave Link  703 at Tue Sep 17 13:09:17 2024, MaxMem=   13107200 cpu:       1.0
 (Enter /programs/64bit/g09/g09-gfortran/bin/l716.exe)
 Dipole        = 2.22044605D-16-5.55111512D-16-5.65204271D-01
 ***** Axes restored to original set *****
 -------------------------------------------------------------------
 Center     Atomic                   Forces (Hartrees/Bohr)
 Number     Number              X              Y              Z
 -------------------------------------------------------------------
      1        8           0.000025843   -0.000044761    0.000018274
      2        1           0.000000644   -0.000001116   -0.000058464
      3        1          -0.000054906   -0.000001116    0.000020095
      4        1           0.000028419    0.000046992    0.000020095
 -------------------------------------------------------------------
 Cartesian Forces:  Max     0.000058464 RMS     0.000033247
 Leave Link  716 at Tue Sep 17 13:09:17 2024, MaxMem=   13107200 cpu:       0.0
 (Enter /programs/64bit/g09/g09-gfortran/bin/l103.exe)

 GradGradGradGradGradGradGradGradGradGradGradGradGradGradGradGradGradGrad
 Berny optimization.
 Using GEDIIS/GDIIS optimizer.
 Internal  Forces:  Max     0.000058372 RMS     0.000038296
 Search for a local minimum.
 Step number   5 out of a maximum of   20
 All quantities printed in internal units (Hartrees-Bohrs-Radians)
 RMS Force = .38296D-04 SwitMx=.10000D-02 MixMth= 2
 Mixed Optimization -- En-DIIS/RFO-DIIS
 Swaping is turned off.
 Update second derivatives using D2CorX and points    1    2    3    4    5
 DE= -1.38D-06 DEPred=-1.26D-06 R= 1.10D+00
 SS=  1.41D+00  RLast= 7.42D-03 DXNew= 8.4853D-01 2.2274D-02
 Trust test= 1.10D+00 RLast= 7.42D-03 DXMaxT set to 5.05D-01
 The second derivative matrix:
                          R1        R2        R3        A1        A2
           R1           0.54819
           R2          -0.02862   0.54819
           R3          -0.02862  -0.02862   0.54819
           A1          -0.00315  -0.00315  -0.00315   0.12097
           A2           0.00514   0.00514   0.00514  -0.03928   0.12560
           A3           0.00514   0.00514   0.00514  -0.03928  -0.03440
           D1          -0.01188  -0.01188  -0.01188   0.01368   0.00472
                          A3        D1
           A3           0.12560
           D1           0.00472   0.02815
     Eigenvalues ---    0.02015   0.16000   0.16050   0.49234   0.57681
     Eigenvalues ---    0.576811000.00000
 En-DIIS/RFO-DIIS IScMMF=        0 using points:     5    4    3
 RFO step:  Lambda=-1.53075933D-08.
 DIIS coeffs:      1.13138     -0.14180      0.01041
 Iteration  1 RMS(Cart)=  0.00011719 RMS(Int)=  0.00000156
 Iteration  2 RMS(Cart)=  0.00000003 RMS(Int)=  0.00000156
 ClnCor:  largest displacement from symmetrization is 1.79D-08 for atom     4.
 Variable       Old X    -DE/DX   Delta X   Delta X   Delta X     New X
                                  (DIIS)     (GDIIS)  (Total)
    R1        1.85642  -0.00006  -0.00013  -0.00000  -0.00013   1.85629
    R2        1.85642  -0.00006  -0.00013  -0.00000  -0.00013   1.85629
    R3        1.85642  -0.00006  -0.00013  -0.00000  -0.00013   1.85629
    A1        1.98540   0.00000   0.00014  -0.00000   0.00014   1.98554
    A2        1.98540   0.00000   0.00014   0.00000   0.00014   1.98554
    A3        1.98540   0.00000   0.00014   0.00000   0.00014   1.98554
    D1       -2.31117  -0.00001  -0.00049   0.00000  -0.00049  -2.31166
         Item               Value     Threshold  Converged?
 Maximum Force            0.000058     0.000450     YES
 RMS     Force            0.000038     0.000300     YES
 Maximum Displacement     0.000212     0.001800     YES
 RMS     Displacement     0.000117     0.001200     YES
 Predicted change in Energy=-1.319060D-08
 Optimization completed.
    -- Stationary point found.
                           ----------------------------
                           !   Optimized Parameters   !
                           ! (Angstroms and Degrees)  !
 --------------------------                            --------------------------
 ! Name  Definition              Value          Derivative Info.                !
 --------------------------------------------------------------------------------
 ! R1    R(1,2)                  0.9824         -DE/DX =   -0.0001              !
 ! R2    R(1,3)                  0.9824         -DE/DX =   -0.0001              !
 ! R3    R(1,4)                  0.9824         -DE/DX =   -0.0001              !
 ! A1    A(2,1,3)              113.7552         -DE/DX =    0.0                 !
 ! A2    A(2,1,4)              113.7552         -DE/DX =    0.0                 !
 ! A3    A(3,1,4)              113.7552         -DE/DX =    0.0                 !
 ! D1    D(2,1,4,3)           -132.4202         -DE/DX =    0.0                 !
 --------------------------------------------------------------------------------
 GradGradGradGradGradGradGradGradGradGradGradGradGradGradGradGradGradGrad

 Largest change from initial coordinates is atom    4       0.073 Angstoms.
 Leave Link  103 at Tue Sep 17 13:09:17 2024, MaxMem=   13107200 cpu:       0.0
 (Enter /programs/64bit/g09/g09-gfortran/bin/l202.exe)
                          Input orientation:                          
 ---------------------------------------------------------------------
 Center     Atomic      Atomic             Coordinates (Angstroms)
 Number     Number       Type             X           Y           Z
 ---------------------------------------------------------------------
      1          8           0        0.023643   -0.040950    0.016718
      2          1           0       -0.016827    0.029146    0.995755
      3          1           0        0.933198    0.029146   -0.347784
      4          1           0       -0.491840   -0.793600   -0.347784
 ---------------------------------------------------------------------
                    Distance matrix (angstroms):
                    1          2          3          4
     1  O    0.000000
     2  H    0.982377   0.000000
     3  H    0.982377   1.645492   0.000000
     4  H    0.982377   1.645492   1.645492   0.000000
 Stoichiometry    H3O(1+)
 Framework group  C3V[C3(O),3SGV(H)]
 Deg. of freedom     2
 Full point group                 C3V     NOp   6
 Largest Abelian subgroup         CS      NOp   2
 Largest concise Abelian subgroup CS      NOp   2
                         Standard orientation:                         
 ---------------------------------------------------------------------
 Center     Atomic      Atomic             Coordinates (Angstroms)
 Number     Number       Type             X           Y           Z
 ---------------------------------------------------------------------
      1          8           0       -0.000000   -0.000000    0.068191
      2          1           0        0.000000    0.950025   -0.181843
      3          1           0       -0.822746   -0.475013   -0.181843
      4          1           0        0.822746   -0.475013   -0.181843
 ---------------------------------------------------------------------
 Rotational constants (GHZ):    331.7471840    331.7471840    185.1997542
 Leave Link  202 at Tue Sep 17 13:09:17 2024, MaxMem=   13107200 cpu:       0.0
 (Enter /programs/64bit/g09/g09-gfortran/bin/l601.exe)
 Copying SCF densities to generalized density rwf, IOpCl= 0 IROHF=0.

 **********************************************************************

            Population analysis using the SCF density.

 **********************************************************************

 Orbital symmetries:
       Occupied  (A1) (A1) (E) (E) (A1)
       Virtual   (A1) (E) (E) (A1) (E) (E) (A1) (E) (E) (A1) (E)
                 (E) (A1) (A1) (E) (E) (A1) (A2) (E) (E) (E) (E)
                 (A1) (E) (E) (A1) (E) (E) (A1)
 The electronic state is 1-A1.
 Alpha  occ. eigenvalues --  -19.59572  -1.45408  -0.94336  -0.94336  -0.74279
 Alpha virt. eigenvalues --   -0.27314  -0.16773  -0.16773  -0.09247  -0.07110
 Alpha virt. eigenvalues --   -0.07110  -0.01564   0.57613   0.57613   0.68500
 Alpha virt. eigenvalues --    0.71909   0.71909   0.76171   0.91944   1.06770
 Alpha virt. eigenvalues --    1.06770   1.65303   1.69579   1.92812   1.92812
 Alpha virt. eigenvalues --    2.17325   2.17325   2.30619   2.67419   2.67419
 Alpha virt. eigenvalues --    2.92839   3.07757   3.07757   3.68604
          Condensed to atoms (all electrons):
              1          2          3          4
     1  O    7.587218   0.294910   0.294910   0.294910
     2  H    0.294910   0.237926  -0.011743  -0.011743
     3  H    0.294910  -0.011743   0.237926  -0.011743
     4  H    0.294910  -0.011743  -0.011743   0.237926
 Mulliken atomic charges:
              1
     1  O   -0.471948
     2  H    0.490649
     3  H    0.490649
     4  H    0.490649
 Sum of Mulliken atomic charges =   1.00000
 Mulliken charges with hydrogens summed into heavy atoms:
              1
     1  O    1.000000
 Sum of Mulliken charges with hydrogens summed into heavy atoms =   1.00000
 Electronic spatial extent (au):  <R**2>=             18.4976
 Charge=              1.0000 electrons
 Dipole moment (field-independent basis, Debye):
    X=              0.0000    Y=              0.0000    Z=             -1.4366  Tot=              1.4366
 Quadrupole moment (field-independent basis, Debye-Ang):
   XX=             -2.4125   YY=             -2.4125   ZZ=             -6.3944
   XY=              0.0000   XZ=             -0.0000   YZ=             -0.0000
 Traceless Quadrupole moment (field-independent basis, Debye-Ang):
   XX=              1.3273   YY=              1.3273   ZZ=             -2.6546
   XY=              0.0000   XZ=             -0.0000   YZ=             -0.0000
 Octapole moment (field-independent basis, Debye-Ang**2):
  XXX=             -0.0000  YYY=              1.8035  ZZZ=             -0.6485  XYY=              0.0000
  XXY=             -1.8035  XXZ=             -0.8717  XZZ=              0.0000  YZZ=              0.0000
  YYZ=             -0.8717  XYZ=              0.0000
 Hexadecapole moment (field-independent basis, Debye-Ang**3):
 XXXX=             -3.1297 YYYY=             -3.1297 ZZZZ=             -5.2756 XXXY=              0.0000
 XXXZ=             -0.0000 YYYX=              0.0000 YYYZ=             -0.3834 ZZZX=             -0.0000
 ZZZY=             -0.0000 XXYY=             -1.0432 XXZZ=             -1.7380 YYZZ=             -1.7380
 XXYZ=              0.3834 YYXZ=             -0.0000 ZZXY=              0.0000
 N-N= 1.389285438330D+01 E-N=-2.043737919848D+02  KE= 7.598628070195D+01
 Symmetry A'   KE= 7.209514446888D+01
 Symmetry A"   KE= 3.891136233067D+00
 No NMR shielding tensors so no spin-rotation constants.
 Leave Link  601 at Tue Sep 17 13:09:17 2024, MaxMem=   13107200 cpu:       0.2
 (Enter /programs/64bit/g09/g09-gfortran/bin/l9999.exe)
 B after Tr=     0.076935   -0.133255    0.054402
         Rot=    0.149429   -0.211325    0.788676    0.557677 Ang= 162.81 deg.
 Final structure in terms of initial Z-matrix:
 O
 H,1,ho2
 H,1,ho3,2,hoh3
 H,1,ho4,2,hoh4,3,dih4,0
      Variables:
 ho2=0.98237749
 ho3=0.98237749
 hoh3=113.75517534
 ho4=0.98237749
 hoh4=113.75517534
 dih4=132.42024339
 1\1\GINC-MOLMOD\FOpt\RB3LYP\6-31+G(d,p)\H3O1(1+)\OSPITE\17-Sep-2024\0\
 \#p B3LYP/6-31+g(d,p) opt\\h3o+ gas\\1,1\O,0.0236425756,-0.0409501422,
 0.0167178256\H,-0.0168274936,0.0291460739,0.9957552212\H,0.9331978612,
 0.0291460739,-0.3477835202\H,-0.491840171,-0.7936000176,-0.3477835202\
 \Version=EM64L-G09RevA.02\State=1-A1\HF=-76.7077678\RMSD=2.314e-09\RMS
 F=3.325e-05\Dipole=0.2664398,-0.4614874,0.1884014\Quadrupole=0.3289422
 ,-0.9868266,0.6578844,1.1394892,-0.4651945,0.8057406\PG=C03V [C3(O1),3
 SGV(H1)]\\@


 If your ship doesn't come in, swim out to it!
                          -- Jonathan Winters
 Job cpu time:  0 days  0 hours  0 minutes 20.9 seconds.
 File lengths (MBytes):  RWF=      5 Int=      0 D2E=      0 Chk=      1 Scr=      1
 Normal termination of Gaussian 09 at Tue Sep 17 13:09:17 2024.
