 Entering Gaussian System, Link 0=/programs/64bit/g09/g09-gfortran/bin/g09
 Input=sol.com
 Output=sol.log
 Initial command:
 /programs/64bit/g09/g09-gfortran/bin/l1.exe /home/ospite/Desktop/MMfP/Project10/pKa_calcualtion/H3O+/Gau-10985.inp -scrdir=/home/ospite/Desktop/MMfP/Project10/pKa_calcualtion/H3O+/
 Entering Link 1 = /programs/64bit/g09/g09-gfortran/bin/l1.exe PID=     10986.
  
 Copyright (c) 1988,1990,1992,1993,1995,1998,2003,2009, Gaussian, Inc.
                  All Rights Reserved.
  
 This is part of the Gaussian(R) 09 program.  It is based on
 the Gaussian(R) 03 system (copyright 2003, Gaussian, Inc.),
 the Gaussian(R) 98 system (copyright 1998, Gaussian, Inc.),
 the Gaussian(R) 94 system (copyright 1995, Gaussian, Inc.),
 the Gaussian 92(TM) system (copyright 1992, Gaussian, Inc.),
 the Gaussian 90(TM) system (copyright 1990, Gaussian, Inc.),
 the Gaussian 88(TM) system (copyright 1988, Gaussian, Inc.),
 the Gaussian 86(TM) system (copyright 1986, Carnegie Mellon
 University), and the Gaussian 82(TM) system (copyright 1983,
 Carnegie Mellon University). Gaussian is a federally registered
 trademark of Gaussian, Inc.
  
 This software contains proprietary and confidential information,
 including trade secrets, belonging to Gaussian, Inc.
  
 This software is provided under written license and may be
 used, copied, transmitted, or stored only in accord with that
 written license.
  
 The following legend is applicable only to US Government
 contracts under FAR:
  
                    RESTRICTED RIGHTS LEGEND
  
 Use, reproduction and disclosure by the US Government is
 subject to restrictions as set forth in subparagraphs (a)
 and (c) of the Commercial Computer Software - Restricted
 Rights clause in FAR 52.227-19.
  
 Gaussian, Inc.
 340 Quinnipiac St., Bldg. 40, Wallingford CT 06492
  
  
 ---------------------------------------------------------------
 Warning -- This program may not be used in any manner that
 competes with the business of Gaussian, Inc. or will provide
 assistance to any competitor of Gaussian, Inc.  The licensee
 of this program is prohibited from giving any competitor of
 Gaussian, Inc. access to this program.  By using this program,
 the user acknowledges that Gaussian, Inc. is engaged in the
 business of creating and licensing software in the field of
 computational chemistry and represents and warrants to the
 licensee that it is not a competitor of Gaussian, Inc. and that
 it will not use this program in any manner prohibited above.
 ---------------------------------------------------------------
  

 Cite this work as:
 Gaussian 09, Revision A.02,
 M. J. Frisch, G. W. Trucks, H. B. Schlegel, G. E. Scuseria, 
 M. A. Robb, J. R. Cheeseman, G. Scalmani, V. Barone, B. Mennucci, 
 G. A. Petersson, H. Nakatsuji, M. Caricato, X. Li, H. P. Hratchian, 
 A. F. Izmaylov, J. Bloino, G. Zheng, J. L. Sonnenberg, M. Hada, 
 M. Ehara, K. Toyota, R. Fukuda, J. Hasegawa, M. Ishida, T. Nakajima, 
 Y. Honda, O. Kitao, H. Nakai, T. Vreven, J. A. Montgomery, Jr., 
 J. E. Peralta, F. Ogliaro, M. Bearpark, J. J. Heyd, E. Brothers, 
 K. N. Kudin, V. N. Staroverov, R. Kobayashi, J. Normand, 
 K. Raghavachari, A. Rendell, J. C. Burant, S. S. Iyengar, J. Tomasi, 
 M. Cossi, N. Rega, J. M. Millam, M. Klene, J. E. Knox, J. B. Cross, 
 V. Bakken, C. Adamo, J. Jaramillo, R. Gomperts, R. E. Stratmann, 
 O. Yazyev, A. J. Austin, R. Cammi, C. Pomelli, J. W. Ochterski, 
 R. L. Martin, K. Morokuma, V. G. Zakrzewski, G. A. Voth, 
 P. Salvador, J. J. Dannenberg, S. Dapprich, A. D. Daniels, 
 O. Farkas, J. B. Foresman, J. V. Ortiz, J. Cioslowski, 
 and D. J. Fox, Gaussian, Inc., Wallingford CT, 2009.
 
 ******************************************
 Gaussian 09:  EM64L-G09RevA.02 11-Jun-2009
                17-Sep-2024 
 ******************************************
 %mem=100Mb
 %nprocshared=2
 Will use up to    2 processors via shared memory.
 ------------------------------------------------------
 #p B3LYP/6-31+g(d,p) opt scrf=(smd,solvent=water) freq
 ------------------------------------------------------
 1/14=-1,18=20,19=15,26=3,38=1/1,3;
 2/9=110,12=2,17=6,18=5,40=1/2;
 3/5=1,6=6,7=111,11=2,16=1,25=1,30=1,70=32201,71=1,72=1,74=-5/1,2,3;
 4//1;
 5/5=2,38=5,53=1/2;
 6/7=2,8=2,9=2,10=2,28=1/1;
 7//1,2,3,16;
 1/14=-1,18=20,19=15/3(2);
 2/9=110/2;
 99//99;
 2/9=110/2;
 3/5=1,6=6,7=111,11=2,16=1,25=1,30=1,70=32205,71=1,72=1,74=-5/1,2,3;
 4/5=5,16=3/1;
 5/5=2,38=5,53=1/2;
 7//1,2,3,16;
 1/14=-1,18=20,19=15/3(-5);
 2/9=110/2;
 6/7=2,8=2,9=2,10=2,19=2,28=1/1;
 99/9=1/99;
 Leave Link    1 at Tue Sep 17 19:15:27 2024, MaxMem=   13107200 cpu:       0.1
 (Enter /programs/64bit/g09/g09-gfortran/bin/l101.exe)
 --------
 h3o+ gas
 --------
 Symbolic Z-matrix:
 Charge =  1 Multiplicity = 1
 o
 h                    1    ho2
 h                    1    ho3      2    hoh3
 h                    1    ho4      2    hoh4     3    dih4     0
       Variables:
  ho2                   0.95                     
  ho3                   0.95                     
  hoh3                109.471                    
  ho4                   0.95                     
  hoh4                109.471                    
  dih4                120.                       
 
     2 tetrahedral angles replaced.
 NAtoms=      4 NQM=      4 NQMF=      0 NMic=      0 NMicF=      0 NTot=      4.
                    Isotopes and Nuclear Properties:
 (Nuclear quadrupole moments (NQMom) in fm**2, nuclear magnetic moments (NMagM)
  in nuclear magnetons)

  Atom         1           2           3           4
 IAtWgt=          16           1           1           1
 AtmWgt=  15.9949146   1.0078250   1.0078250   1.0078250
 NucSpn=           0           1           1           1
 AtZEff=   0.0000000   0.0000000   0.0000000   0.0000000
 NQMom=    0.0000000   0.0000000   0.0000000   0.0000000
 NMagM=    0.0000000   2.7928460   2.7928460   2.7928460
 Leave Link  101 at Tue Sep 17 19:15:27 2024, MaxMem=   13107200 cpu:       0.2
 (Enter /programs/64bit/g09/g09-gfortran/bin/l103.exe)

 GradGradGradGradGradGradGradGradGradGradGradGradGradGradGradGradGradGrad
 Berny optimization.
 Initialization pass.
                           ----------------------------
                           !    Initial Parameters    !
                           ! (Angstroms and Degrees)  !
 --------------------------                            --------------------------
 ! Name  Definition              Value          Derivative Info.                !
 --------------------------------------------------------------------------------
 ! R1    R(1,2)                  0.95           estimate D2E/DX2                !
 ! R2    R(1,3)                  0.95           estimate D2E/DX2                !
 ! R3    R(1,4)                  0.95           estimate D2E/DX2                !
 ! A1    A(2,1,3)              109.4712         estimate D2E/DX2                !
 ! A2    A(2,1,4)              109.4712         estimate D2E/DX2                !
 ! A3    A(3,1,4)              109.4712         estimate D2E/DX2                !
 ! D1    D(2,1,4,3)           -120.0            estimate D2E/DX2                !
 --------------------------------------------------------------------------------
 Trust Radius=3.00D-01 FncErr=1.00D-07 GrdErr=1.00D-06
 Number of steps in this run=  20 maximum allowed number of steps= 100.
 GradGradGradGradGradGradGradGradGradGradGradGradGradGradGradGradGradGrad

 Leave Link  103 at Tue Sep 17 19:15:27 2024, MaxMem=   13107200 cpu:       0.0
 (Enter /programs/64bit/g09/g09-gfortran/bin/l202.exe)
                          Input orientation:                          
 ---------------------------------------------------------------------
 Center     Atomic      Atomic             Coordinates (Angstroms)
 Number     Number       Type             X           Y           Z
 ---------------------------------------------------------------------
      1          8           0        0.000000    0.000000    0.000000
      2          1           0        0.000000    0.000000    0.950000
      3          1           0        0.895669    0.000000   -0.316667
      4          1           0       -0.447834   -0.775672   -0.316667
 ---------------------------------------------------------------------
                    Distance matrix (angstroms):
                    1          2          3          4
     1  O    0.000000
     2  H    0.950000   0.000000
     3  H    0.950000   1.551344   0.000000
     4  H    0.950000   1.551344   1.551344   0.000000
 Stoichiometry    H3O(1+)
 Framework group  C3V[C3(O),3SGV(H)]
 Deg. of freedom     2
 Full point group                 C3V     NOp   6
 Largest Abelian subgroup         CS      NOp   2
 Largest concise Abelian subgroup CS      NOp   2
                         Standard orientation:                         
 ---------------------------------------------------------------------
 Center     Atomic      Atomic             Coordinates (Angstroms)
 Number     Number       Type             X           Y           Z
 ---------------------------------------------------------------------
      1          8           0       -0.000000    0.000000    0.086364
      2          1           0        0.000000    0.895669   -0.230303
      3          1           0       -0.775672   -0.447834   -0.230303
      4          1           0        0.775672   -0.447834   -0.230303
 ---------------------------------------------------------------------
 Rotational constants (GHZ):    344.3252703    344.3252703    208.3608450
 Leave Link  202 at Tue Sep 17 19:15:27 2024, MaxMem=   13107200 cpu:       0.0
 (Enter /programs/64bit/g09/g09-gfortran/bin/l301.exe)
 Standard basis: 6-31+G(d,p) (6D, 7F)
 Ernie: Thresh=  0.10000D-02 Tol=  0.10000D-05 Strict=F.
 There are    23 symmetry adapted basis functions of A'  symmetry.
 There are    11 symmetry adapted basis functions of A"  symmetry.
 Integral buffers will be    131072 words long.
 Raffenetti 2 integral format.
 Two-electron integral symmetry is turned on.
    34 basis functions,    53 primitive gaussians,    34 cartesian basis functions
     5 alpha electrons        5 beta electrons
       nuclear repulsion energy        14.3920143311 Hartrees.
 IExCor=  402 DFT=T Ex+Corr=B3LYP ExCW=0 ScaHFX=  0.200000
 ScaDFX=  0.800000  0.720000  1.000000  0.810000 ScalE2=  1.000000  1.000000
 IRadAn=      0 IRanWt=     -1 IRanGd=            0 ICorTp=0
 NAtoms=    4 NActive=    4 NUniq=    2 SFac= 3.00D+00 NAtFMM=   80 NAOKFM=F Big=F
 ------------------------------------------------------------------------------
 Polarizable Continuum Model (PCM)
 =================================
 Model                : PCM.
 Atomic radii         : SMD-Coulomb.
 Polarization charges : Total charges.
 Charge compensation  : None.
 Solution method      : Matrix inversion.
 Cavity type          : VdW (van der Waals Surface) (Alpha=1.000).
 Cavity algorithm     : GePol (No added spheres)
                        Default sphere list used, NSphG=    4.
                        Lebedev-Laikov grids with approx.  5.0 points / Ang**2.
                        Smoothing algorithm: Karplus/York (Gamma=1.0000).
                        Polarization charges: spherical gaussians, with
                                              point-specific exponents (IZeta= 3).
                        Self-potential: point-specific (ISelfS= 7).
                        Self-field    : sphere-specific E.n sum rule (ISelfD= 2).
 1st derivatives      : Analytical E(r).r(x)/FMM algorithm (CHGder, D1EAlg=3).
                        Cavity 1st derivative terms included.
 Solvent              : Water, Eps=  78.355300 Eps(inf)=   1.777849
 ------------------------------------------------------------------------------
 Spheres list:
 ISph  on   Nord    Re0     Alpha      Xe            Ye            Ze
    1   O      1    1.520   1.000     -0.000000      0.000000      0.086364
    2   H      2    1.200   1.000      0.000000      0.895669     -0.230303
    3   H      3    1.200   1.000     -0.775672     -0.447834     -0.230303
    4   H      4    1.200   1.000      0.775672     -0.447834     -0.230303
 ------------------------------------------------------------------------------
 GePol: Number of generator spheres                  =       4
 GePol: Total number of spheres                      =       4
 GePol: Number of exposed spheres                    =       4 (100.00%)
 GePol: Number of points                             =     281
 GePol: Average weight of points                     =       0.14
 GePol: Minimum weight of points                     =   0.43D-04
 GePol: Maximum weight of points                     =    0.21991
 GePol: Number of points with low weight             =       8
 GePol: Fraction of low-weight points (<1% of avg)   =       2.85%
 GePol: Cavity surface area                          =     39.706 Ang**2
 GePol: Cavity volume                                =     21.452 Ang**3
 ------------------------------------------------------------------------------
 Atomic radii for non-electrostatic terms: SMD-CDS.
 ------------------------------------------------------------------------------
 PCM non-electrostatic energy =         0.0034242630 Hartrees.
 Nuclear repulsion after PCM non-electrostatic terms =       14.3954385942 Hartrees.
 Leave Link  301 at Tue Sep 17 19:15:27 2024, MaxMem=   13107200 cpu:       0.1
 (Enter /programs/64bit/g09/g09-gfortran/bin/l302.exe)
 NPDir=0 NMtPBC=     1 NCelOv=     1 NCel=       1 NClECP=     1 NCelD=      1
         NCelK=      1 NCelE2=     1 NClLst=     1 CellRange=     0.0.
 One-electron integrals computed using PRISM.
 One-electron integral symmetry used in STVInt
 NBasis=    34 RedAO= T  NBF=    23    11
 NBsUse=    34 1.00D-06 NBFU=    23    11
 Precomputing XC quadrature grid using
 IXCGrd= 2 IRadAn=           0 IRanWt=          -1 IRanGd=           0 AccXCQ= 1.00D-10.
 NRdTot=     249 NPtTot=       31528 NUsed=       33336 NTot=       33368
 NSgBfM=    34    34    34    34    34 NAtAll=     4     4.
 Leave Link  302 at Tue Sep 17 19:15:27 2024, MaxMem=   13107200 cpu:       0.3
 (Enter /programs/64bit/g09/g09-gfortran/bin/l303.exe)
 DipDrv:  MaxL=1.
 Leave Link  303 at Tue Sep 17 19:15:27 2024, MaxMem=   13107200 cpu:       0.0
 (Enter /programs/64bit/g09/g09-gfortran/bin/l401.exe)
 Harris functional with IExCor=  402 diagonalized for initial guess.
 ExpMin= 8.45D-02 ExpMax= 5.48D+03 ExpMxC= 8.25D+02 IAcc=2 IRadAn=         0 AccDes= 0.00D+00
 HarFok:  IExCor=  402 AccDes= 0.00D+00 IRadAn=         0 IDoV= 1
 ScaDFX=  1.000000  1.000000  1.000000  1.000000
 FoFCou: FMM=F IPFlag=           0 FMFlag=      100000 FMFlg1=           0
         NFxFlg=           0 DoJE=T BraDBF=F KetDBF=T FulRan=T
         Omega=  0.000000  0.000000  1.000000  0.000000  0.000000 ICntrl=     500 IOpCl=  0
         NMat0=    1 NMatS0=    1 NMatT0=    0 NMatD0=    1 NMtDS0=    0 NMtDT0=    0
         I1Cent=           4 NGrid=           0.
 Petite list used in FoFCou.
 Harris En= -76.8249795174593    
 Initial guess orbital symmetries:
       Occupied  (A1) (A1) (E) (E) (A1)
       Virtual   (A1) (E) (E) (A1) (E) (E) (A1) (E) (E) (A1) (E)
                 (E) (A1) (A1) (E) (E) (A1) (A2) (E) (E) (E) (E)
                 (A1) (E) (E) (A1) (E) (E) (A1)
 The electronic state of the initial guess is 1-A1.
 Leave Link  401 at Tue Sep 17 19:15:28 2024, MaxMem=   13107200 cpu:       0.5
 (Enter /programs/64bit/g09/g09-gfortran/bin/l502.exe)
 Closed shell SCF:
 Requested convergence on RMS density matrix=1.00D-08 within 128 cycles.
 Requested convergence on MAX density matrix=1.00D-06.
 Requested convergence on             energy=1.00D-06.
 No special actions if energy rises.
 Using DIIS extrapolation, IDIIS=  1040.
 Integral symmetry usage will be decided dynamically.
        33287 words used for storage of precomputed grid.
 Keep R1 ints in memory in canonical form, NReq=3191524.
 IEnd=       55469 IEndB=       55469 NGot=    13107200 MDV=    12892224
 LenX=    12892224 LenY=    12890627
 Symmetry not used in FoFDir.
 MinBra= 0 MaxBra= 2 Meth= 1.
 IRaf=       0 NMat=   1 IRICut=       1 DoRegI=T DoRafI=F ISym2E= 0 JSym2E=0.

 Cycle   1  Pass 1  IDiag  1:
 E= -76.8432929909384    
 DIIS: error= 2.76D-02 at cycle   1 NSaved=   1.
 NSaved= 1 IEnMin= 1 EnMin= -76.8432929909384     IErMin= 1 ErrMin= 2.76D-02
 ErrMax= 2.76D-02 EMaxC= 1.00D-01 BMatC= 2.64D-02 BMatP= 2.64D-02
 IDIUse=3 WtCom= 7.24D-01 WtEn= 2.76D-01
 Coeff-Com:  0.100D+01
 Coeff-En:   0.100D+01
 Coeff:      0.100D+01
 Gap=     0.425 Goal=   None    Shift=    0.000
 GapD=    0.425 DampG=2.000 DampE=0.500 DampFc=1.0000 IDamp=-1.
 RMSDP=4.80D-03 MaxDP=7.91D-02              OVMax= 7.31D-02

 Cycle   2  Pass 1  IDiag  1:
 Density matrix breaks symmetry, PCut= 1.00D-04
 Density has only Abelian symmetry.
 E= -76.8325040886610     Delta-E=        0.010788902277 Rises=F Damp=F
 DIIS: error= 3.74D-02 at cycle   2 NSaved=   2.
 NSaved= 2 IEnMin= 1 EnMin= -76.8432929909384     IErMin= 1 ErrMin= 2.76D-02
 ErrMax= 3.74D-02 EMaxC= 1.00D-01 BMatC= 4.06D-02 BMatP= 2.64D-02
 IDIUse=2 WtCom= 0.00D+00 WtEn= 1.00D+00
 Coeff-En:   0.614D+00 0.386D+00
 Coeff:      0.614D+00 0.386D+00
 Gap=     0.480 Goal=   None    Shift=    0.000
 RMSDP=2.45D-03 MaxDP=4.00D-02 DE= 1.08D-02 OVMax= 4.05D-02

 Cycle   3  Pass 1  IDiag  1:
 Density matrix breaks symmetry, PCut= 1.00D-04
 Density has only Abelian symmetry.
 E= -76.8595120242887     Delta-E=       -0.027007935628 Rises=F Damp=F
 DIIS: error= 3.58D-03 at cycle   3 NSaved=   3.
 NSaved= 3 IEnMin= 3 EnMin= -76.8595120242887     IErMin= 3 ErrMin= 3.58D-03
 ErrMax= 3.58D-03 EMaxC= 1.00D-01 BMatC= 3.84D-04 BMatP= 2.64D-02
 IDIUse=3 WtCom= 9.64D-01 WtEn= 3.58D-02
 Coeff-Com:  0.324D-01-0.750D-01 0.104D+01
 Coeff-En:   0.000D+00 0.000D+00 0.100D+01
 Coeff:      0.313D-01-0.724D-01 0.104D+01
 Gap=     0.487 Goal=   None    Shift=    0.000
 RMSDP=2.84D-04 MaxDP=4.37D-03 DE=-2.70D-02 OVMax= 4.43D-03

 Cycle   4  Pass 1  IDiag  1:
 Density matrix breaks symmetry, PCut= 1.00D-04
 Density has only Abelian symmetry.
 E= -76.8597618331587     Delta-E=       -0.000249808870 Rises=F Damp=F
 DIIS: error= 1.54D-04 at cycle   4 NSaved=   4.
 NSaved= 4 IEnMin= 4 EnMin= -76.8597618331587     IErMin= 4 ErrMin= 1.54D-04
 ErrMax= 1.54D-04 EMaxC= 1.00D-01 BMatC= 8.36D-07 BMatP= 3.84D-04
 IDIUse=3 WtCom= 9.98D-01 WtEn= 1.54D-03
 Coeff-Com:  0.673D-03-0.151D-01 0.188D+00 0.827D+00
 Coeff-En:   0.000D+00 0.000D+00 0.000D+00 0.100D+01
 Coeff:      0.672D-03-0.151D-01 0.187D+00 0.827D+00
 Gap=     0.486 Goal=   None    Shift=    0.000
 RMSDP=1.47D-05 MaxDP=1.39D-04 DE=-2.50D-04 OVMax= 2.82D-04

 Cycle   5  Pass 1  IDiag  1:
 Density matrix breaks symmetry, PCut= 1.00D-04
 Density has only Abelian symmetry.
 E= -76.8597624324053     Delta-E=       -0.000000599247 Rises=F Damp=F
 DIIS: error= 1.41D-05 at cycle   5 NSaved=   5.
 NSaved= 5 IEnMin= 5 EnMin= -76.8597624324053     IErMin= 5 ErrMin= 1.41D-05
 ErrMax= 1.41D-05 EMaxC= 1.00D-01 BMatC= 5.00D-09 BMatP= 8.36D-07
 IDIUse=1 WtCom= 1.00D+00 WtEn= 0.00D+00
 Coeff-Com: -0.641D-06-0.468D-03 0.288D-02 0.417D-01 0.956D+00
 Coeff:     -0.641D-06-0.468D-03 0.288D-02 0.417D-01 0.956D+00
 Gap=     0.486 Goal=   None    Shift=    0.000
 RMSDP=1.55D-06 MaxDP=1.86D-05 DE=-5.99D-07 OVMax= 2.19D-05

 Cycle   6  Pass 1  IDiag  1:
 Density matrix breaks symmetry, PCut= 1.00D-04
 Density has only Abelian symmetry.
 E= -76.8597624361861     Delta-E=       -0.000000003781 Rises=F Damp=F
 DIIS: error= 5.97D-07 at cycle   6 NSaved=   6.
 NSaved= 6 IEnMin= 6 EnMin= -76.8597624361861     IErMin= 6 ErrMin= 5.97D-07
 ErrMax= 5.97D-07 EMaxC= 1.00D-01 BMatC= 1.11D-11 BMatP= 5.00D-09
 IDIUse=1 WtCom= 1.00D+00 WtEn= 0.00D+00
 Coeff-Com: -0.136D-04 0.876D-04-0.689D-03-0.349D-02-0.812D-01 0.109D+01
 Coeff:     -0.136D-04 0.876D-04-0.689D-03-0.349D-02-0.812D-01 0.109D+01
 Gap=     0.486 Goal=   None    Shift=    0.000
 RMSDP=1.73D-07 MaxDP=3.03D-06 DE=-3.78D-09 OVMax= 2.33D-06

 Cycle   7  Pass 1  IDiag  1:
 Density matrix breaks symmetry, PCut= 1.00D-04
 Density has only Abelian symmetry.
 E= -76.8597624361978     Delta-E=       -0.000000000012 Rises=F Damp=F
 DIIS: error= 2.17D-08 at cycle   7 NSaved=   7.
 NSaved= 7 IEnMin= 7 EnMin= -76.8597624361978     IErMin= 7 ErrMin= 2.17D-08
 ErrMax= 2.17D-08 EMaxC= 1.00D-01 BMatC= 1.50D-14 BMatP= 1.11D-11
 IDIUse=1 WtCom= 1.00D+00 WtEn= 0.00D+00
 Coeff-Com:  0.108D-05-0.394D-05 0.374D-04 0.242D-03 0.268D-02-0.745D-01
 Coeff-Com:  0.107D+01
 Coeff:      0.108D-05-0.394D-05 0.374D-04 0.242D-03 0.268D-02-0.745D-01
 Coeff:      0.107D+01
 Gap=     0.486 Goal=   None    Shift=    0.000
 RMSDP=7.01D-09 MaxDP=1.18D-07 DE=-1.17D-11 OVMax= 1.20D-07

 Density matrix breaks symmetry, PCut= 1.00D-04
 Density has only Abelian symmetry.
 Error on total polarization charges =  0.00909
 SCF Done:  E(RB3LYP) =  -76.8597624362     A.U. after    7 cycles
             Convg  =    0.7010D-08             -V/T =  2.0092
 KE= 7.615798002185D+01 PE=-2.053017674995D+02 EE= 3.788858644726D+01
 SMD-CDS (non-electrostatic) energy             (kcal/mol) =       2.15
 (included in total energy above)
 Leave Link  502 at Tue Sep 17 19:15:32 2024, MaxMem=   13107200 cpu:       3.5
 (Enter /programs/64bit/g09/g09-gfortran/bin/l601.exe)
 Copying SCF densities to generalized density rwf, IOpCl= 0 IROHF=0.

 **********************************************************************

            Population analysis using the SCF density.

 **********************************************************************

 Orbital symmetries:
       Occupied  (A1) (A1) (E) (E) (A1)
       Virtual   (A1) (E) (E) (A1) (E) (E) (A1) (E) (E) (E) (E)
                 (A1) (A1) (A1) (E) (E) (A1) (A2) (E) (E) (E) (E)
                 (A1) (E) (E) (A1) (E) (E) (A1)
 The electronic state is 1-A1.
 Alpha  occ. eigenvalues --  -19.30618  -1.18591  -0.66046  -0.66036  -0.47482
 Alpha virt. eigenvalues --    0.01161   0.10899   0.10913   0.13474   0.18793
 Alpha virt. eigenvalues --    0.18796   0.25522   0.86972   0.86973   0.98270
 Alpha virt. eigenvalues --    0.98291   0.99722   1.07218   1.20509   1.34220
 Alpha virt. eigenvalues --    1.34231   1.91076   2.05040   2.29762   2.29768
 Alpha virt. eigenvalues --    2.46555   2.46558   2.77755   3.04145   3.04151
 Alpha virt. eigenvalues --    3.29546   3.42115   3.42121   3.99417
          Condensed to atoms (all electrons):
              1          2          3          4
     1  O    7.586315   0.296915   0.296832   0.296832
     2  H    0.296915   0.233751  -0.011474  -0.011474
     3  H    0.296832  -0.011474   0.233827  -0.011492
     4  H    0.296832  -0.011474  -0.011492   0.233827
 Mulliken atomic charges:
              1
     1  O   -0.476894
     2  H    0.492282
     3  H    0.492306
     4  H    0.492306
 Sum of Mulliken atomic charges =   1.00000
 Mulliken charges with hydrogens summed into heavy atoms:
              1
     1  O    1.000000
 Sum of Mulliken charges with hydrogens summed into heavy atoms =   1.00000
 Electronic spatial extent (au):  <R**2>=             18.1244
 Charge=              1.0000 electrons
 Dipole moment (field-independent basis, Debye):
    X=             -0.0000    Y=              0.0006    Z=             -1.9917  Tot=              1.9917
 Quadrupole moment (field-independent basis, Debye-Ang):
   XX=             -2.7919   YY=             -2.7929   ZZ=             -6.1825
   XY=             -0.0000   XZ=              0.0000   YZ=             -0.0002
 Traceless Quadrupole moment (field-independent basis, Debye-Ang):
   XX=              1.1305   YY=              1.1295   ZZ=             -2.2601
   XY=             -0.0000   XZ=              0.0000   YZ=             -0.0002
 Octapole moment (field-independent basis, Debye-Ang**2):
  XXX=             -0.0000  YYY=              1.4894  ZZZ=             -1.1391  XYY=              0.0000
  XXY=             -1.4886  XXZ=             -1.0837  XZZ=              0.0000  YZZ=             -0.0000
  YYZ=             -1.0834  XYZ=              0.0000
 Hexadecapole moment (field-independent basis, Debye-Ang**3):
 XXXX=             -3.4585 YYYY=             -3.4601 ZZZZ=             -5.5264 XXXY=              0.0000
 XXXZ=              0.0000 YYYX=             -0.0000 YYYZ=             -0.4064 ZZZX=              0.0000
 ZZZY=             -0.0002 XXYY=             -1.1532 XXZZ=             -1.6634 YYZZ=             -1.6636
 XXYZ=              0.4061 YYXZ=             -0.0000 ZZXY=             -0.0000
 N-N= 1.439543859418D+01 E-N=-2.053017673814D+02  KE= 7.615798002185D+01
 Symmetry A'   KE= 7.216516262640D+01
 Symmetry A"   KE= 3.992817395446D+00
 No NMR shielding tensors so no spin-rotation constants.
 Leave Link  601 at Tue Sep 17 19:15:32 2024, MaxMem=   13107200 cpu:       0.2
 (Enter /programs/64bit/g09/g09-gfortran/bin/l701.exe)
 Compute integral first derivatives.
 ... and contract with generalized density number  0.
 Density matrix has only Abelian symmetry.
 D1PCM: PCM CHGder 1st derivatives, ID1Alg=3 FixD1E=F DoIter=F DoCFld=F I1PDM=0.
 GePol: Maximum number of non-zero 1st derivatives   =     148
 Leave Link  701 at Tue Sep 17 19:15:33 2024, MaxMem=   13107200 cpu:       0.7
 (Enter /programs/64bit/g09/g09-gfortran/bin/l702.exe)
 L702 exits ... SP integral derivatives will be done elsewhere.
 Leave Link  702 at Tue Sep 17 19:15:33 2024, MaxMem=   13107200 cpu:       0.0
 (Enter /programs/64bit/g09/g09-gfortran/bin/l703.exe)
 Compute integral first derivatives, UseDBF=F ICtDFT=           0.
 Integral derivatives from FoFDir, PRISM(SPDF).
 Density matrix has only Abelian symmetry.
 Calling FoFJK, ICntrl=      2127 FMM=F ISym2X=1 I1Cent= 0 IOpClX= 0 NMat=1 NMatS=1 NMatT=0.
 FoFCou: FMM=F IPFlag=           0 FMFlag=      100000 FMFlg1=         800
         NFxFlg=           0 DoJE=F BraDBF=F KetDBF=F FulRan=T
         Omega=  0.000000  0.000000  1.000000  0.000000  0.000000 ICntrl=    2127 IOpCl=  0
         NMat0=    1 NMatS0=    1 NMatT0=    0 NMatD0=    1 NMtDS0=    0 NMtDT0=    0
         I1Cent=           0 NGrid=           0.
 Petite list used in FoFCou.
 Leave Link  703 at Tue Sep 17 19:15:34 2024, MaxMem=   13107200 cpu:       1.2
 (Enter /programs/64bit/g09/g09-gfortran/bin/l716.exe)
 Dipole        =-6.66133815D-16 2.44275493D-04-7.83602699D-01
 ***** Axes restored to original set *****
 -------------------------------------------------------------------
 Center     Atomic                   Forces (Hartrees/Bohr)
 Number     Number              X              Y              Z
 -------------------------------------------------------------------
      1        8          -0.013423947    0.023250959   -0.008751331
      2        1          -0.000167040    0.000289322    0.030619647
      3        1           0.028591446    0.000813759   -0.010934158
      4        1          -0.015000459   -0.024354039   -0.010934158
 -------------------------------------------------------------------
 Cartesian Forces:  Max     0.030619647 RMS     0.017345622
 Leave Link  716 at Tue Sep 17 19:15:34 2024, MaxMem=   13107200 cpu:       0.0
 (Enter /programs/64bit/g09/g09-gfortran/bin/l103.exe)

 GradGradGradGradGradGradGradGradGradGradGradGradGradGradGradGradGradGrad
 Berny optimization.
 Internal  Forces:  Max     0.030677035 RMS     0.020046324
 Search for a local minimum.
 Step number   1 out of a maximum of   20
 All quantities printed in internal units (Hartrees-Bohrs-Radians)
 RMS Force = .20046D-01 SwitMx=.10000D-02 MixMth= 1
 Mixed Optimization -- RFO/linear search
 Second derivative matrix not updated -- first step.
 The second derivative matrix:
                          R1        R2        R3        A1        A2
           R1           0.57681
           R2           0.00000   0.57681
           R3           0.00000   0.00000   0.57681
           A1           0.00000   0.00000   0.00000   0.16000
           A2           0.00000   0.00000   0.00000   0.00000   0.16000
           A3           0.00000   0.00000   0.00000   0.00000   0.00000
           D1           0.00000   0.00000   0.00000   0.00000   0.00000
                          A3        D1
           A3           0.16000
           D1           0.00000   0.01690
     Eigenvalues ---    0.06093   0.16000   0.16000   0.57681   0.57681
     Eigenvalues ---    0.576811000.00000
 RFO step:  Lambda=-4.86503694D-03 EMin= 6.09292894D-02
 Linear search not attempted -- first point.
 Iteration  1 RMS(Cart)=  0.03536324 RMS(Int)=  0.00022965
 Iteration  2 RMS(Cart)=  0.00013055 RMS(Int)=  0.00005236
 Iteration  3 RMS(Cart)=  0.00000003 RMS(Int)=  0.00005236
 Variable       Old X    -DE/DX   Delta X   Delta X   Delta X     New X
                                 (Linear)    (Quad)   (Total)
    R1        1.79524   0.03047   0.00000   0.05238   0.05238   1.84762
    R2        1.79524   0.03068   0.00000   0.05274   0.05274   1.84798
    R3        1.79524   0.03068   0.00000   0.05274   0.05274   1.84798
    A1        1.91063   0.00023   0.00000   0.00721   0.00712   1.91775
    A2        1.91063   0.00095   0.00000   0.00865   0.00860   1.91923
    A3        1.91063   0.00049   0.00000   0.00587   0.00582   1.91646
    D1       -2.09440  -0.00117   0.00000  -0.01772  -0.01780  -2.11219
         Item               Value     Threshold  Converged?
 Maximum Force            0.030677     0.000450     NO 
 RMS     Force            0.020046     0.000300     NO 
 Maximum Displacement     0.051748     0.001800     NO 
 RMS     Displacement     0.035408     0.001200     NO 
 Predicted change in Energy=-2.454072D-03
 GradGradGradGradGradGradGradGradGradGradGradGradGradGradGradGradGradGrad

 Leave Link  103 at Tue Sep 17 19:15:34 2024, MaxMem=   13107200 cpu:       0.0
 (Enter /programs/64bit/g09/g09-gfortran/bin/l202.exe)
                          Input orientation:                          
 ---------------------------------------------------------------------
 Center     Atomic      Atomic             Coordinates (Angstroms)
 Number     Number       Type             X           Y           Z
 ---------------------------------------------------------------------
      1          8           0       -0.001150    0.001601   -0.000308
      2          1           0       -0.004245    0.008037    0.977384
      3          1           0        0.919500    0.007432   -0.329965
      4          1           0       -0.466270   -0.792741   -0.330444
 ---------------------------------------------------------------------
                    Distance matrix (angstroms):
                    1          2          3          4
     1  O    0.000000
     2  H    0.977718   0.000000
     3  H    0.977908   1.600771   0.000000
     4  H    0.977908   1.601601   1.600199   0.000000
 Stoichiometry    H3O(1+)
 Framework group  C1[X(H3O)]
 Deg. of freedom     6
 Full point group                 C1      NOp   1
 Omega: Change in point group or standard orientation.

 Old FWG=C03V [C3(O1),3SGV(H1)]
 New FWG=C01  [X(H3O1)]
 Largest Abelian subgroup         C1      NOp   1
 Largest concise Abelian subgroup C1      NOp   1
                         Standard orientation:                         
 ---------------------------------------------------------------------
 Center     Atomic      Atomic             Coordinates (Angstroms)
 Number     Number       Type             X           Y           Z
 ---------------------------------------------------------------------
      1          8           0       -0.000133   -0.000139   -0.087073
      2          1           0       -0.879007   -0.285413    0.232508
      3          1           0        0.192287    0.904040    0.231893
      4          1           0        0.687785   -0.617511    0.232185
 ---------------------------------------------------------------------
 Rotational constants (GHZ):    326.2024196    325.6502472    195.6711843
 Leave Link  202 at Tue Sep 17 19:15:34 2024, MaxMem=   13107200 cpu:       0.0
 (Enter /programs/64bit/g09/g09-gfortran/bin/l301.exe)
 Standard basis: 6-31+G(d,p) (6D, 7F)
 Ernie: Thresh=  0.10000D-02 Tol=  0.10000D-05 Strict=F.
 There are    34 symmetry adapted basis functions of A   symmetry.
 Integral buffers will be    131072 words long.
 Raffenetti 2 integral format.
 Two-electron integral symmetry is turned on.
    34 basis functions,    53 primitive gaussians,    34 cartesian basis functions
     5 alpha electrons        5 beta electrons
       nuclear repulsion energy        13.9796817124 Hartrees.
 IExCor=  402 DFT=T Ex+Corr=B3LYP ExCW=0 ScaHFX=  0.200000
 ScaDFX=  0.800000  0.720000  1.000000  0.810000 ScalE2=  1.000000  1.000000
 IRadAn=      0 IRanWt=     -1 IRanGd=            0 ICorTp=0
 NAtoms=    4 NActive=    4 NUniq=    4 SFac= 7.50D-01 NAtFMM=   80 NAOKFM=F Big=F
 ------------------------------------------------------------------------------
 Polarizable Continuum Model (PCM)
 =================================
 Model                : PCM.
 Atomic radii         : SMD-Coulomb.
 Polarization charges : Total charges.
 Charge compensation  : None.
 Solution method      : Matrix inversion.
 Cavity type          : VdW (van der Waals Surface) (Alpha=1.000).
 Cavity algorithm     : GePol (No added spheres)
                        Default sphere list used, NSphG=    4.
                        Lebedev-Laikov grids with approx.  5.0 points / Ang**2.
                        Smoothing algorithm: Karplus/York (Gamma=1.0000).
                        Polarization charges: spherical gaussians, with
                                              point-specific exponents (IZeta= 3).
                        Self-potential: point-specific (ISelfS= 7).
                        Self-field    : sphere-specific E.n sum rule (ISelfD= 2).
 1st derivatives      : Analytical E(r).r(x)/FMM algorithm (CHGder, D1EAlg=3).
                        Cavity 1st derivative terms included.
 Solvent              : Water, Eps=  78.355300 Eps(inf)=   1.777849
 ------------------------------------------------------------------------------
 Spheres list:
 ISph  on   Nord    Re0     Alpha      Xe            Ye            Ze
    1   O      1    1.520   1.000     -0.000133     -0.000139     -0.087073
    2   H      2    1.200   1.000     -0.879007     -0.285413      0.232508
    3   H      3    1.200   1.000      0.192287      0.904040      0.231893
    4   H      4    1.200   1.000      0.687785     -0.617511      0.232185
 ------------------------------------------------------------------------------
 GePol: Number of generator spheres                  =       4
 GePol: Total number of spheres                      =       4
 GePol: Number of exposed spheres                    =       4 (100.00%)
 GePol: Number of points                             =     290
 GePol: Average weight of points                     =       0.14
 GePol: Minimum weight of points                     =   0.88D-05
 GePol: Maximum weight of points                     =    0.21991
 GePol: Number of points with low weight             =      12
 GePol: Fraction of low-weight points (<1% of avg)   =       4.14%
 GePol: Cavity surface area                          =     40.129 Ang**2
 GePol: Cavity volume                                =     21.741 Ang**3
 ------------------------------------------------------------------------------
 Atomic radii for non-electrostatic terms: SMD-CDS.
 ------------------------------------------------------------------------------
 PCM non-electrostatic energy =         0.0034863795 Hartrees.
 Nuclear repulsion after PCM non-electrostatic terms =       13.9831680919 Hartrees.
 Leave Link  301 at Tue Sep 17 19:15:34 2024, MaxMem=   13107200 cpu:       0.1
 (Enter /programs/64bit/g09/g09-gfortran/bin/l302.exe)
 NPDir=0 NMtPBC=     1 NCelOv=     1 NCel=       1 NClECP=     1 NCelD=      1
         NCelK=      1 NCelE2=     1 NClLst=     1 CellRange=     0.0.
 One-electron integrals computed using PRISM.
 NBasis=    34 RedAO= T  NBF=    34
 NBsUse=    34 1.00D-06 NBFU=    34
 Precomputing XC quadrature grid using
 IXCGrd= 2 IRadAn=           0 IRanWt=          -1 IRanGd=           0 AccXCQ= 1.00D-10.
 NRdTot=     249 NPtTot=       31528 NUsed=       33336 NTot=       33368
 NSgBfM=    34    34    34    34    34 NAtAll=     4     4.
 Leave Link  302 at Tue Sep 17 19:15:34 2024, MaxMem=   13107200 cpu:       0.3
 (Enter /programs/64bit/g09/g09-gfortran/bin/l303.exe)
 DipDrv:  MaxL=1.
 Leave Link  303 at Tue Sep 17 19:15:35 2024, MaxMem=   13107200 cpu:       0.0
 (Enter /programs/64bit/g09/g09-gfortran/bin/l401.exe)
 Initial guess read from the read-write file.
 B after Tr=     0.000000    0.000000    0.000000
         Rot=    1.000000    0.000000    0.000000    0.000000 Ang=   0.00 deg.
 Guess basis will be translated and rotated to current coordinates.
 Initial guess orbital symmetries:
       Occupied  (A) (A) (A) (A) (A)
       Virtual   (A) (A) (A) (A) (A) (A) (A) (A) (A) (A) (A) (A)
                 (A) (A) (A) (A) (A) (A) (A) (A) (A) (A) (A) (A)
                 (A) (A) (A) (A) (A)
 The electronic state of the initial guess is 1-A.
 Generating alternative initial guess.
 Harris functional with IExCor=  402 diagonalized for initial guess.
 ExpMin= 8.45D-02 ExpMax= 5.48D+03 ExpMxC= 8.25D+02 IAcc=2 IRadAn=         0 AccDes= 0.00D+00
 HarFok:  IExCor=  402 AccDes= 0.00D+00 IRadAn=         0 IDoV= 1
 ScaDFX=  1.000000  1.000000  1.000000  1.000000
 FoFCou: FMM=F IPFlag=           0 FMFlag=      100000 FMFlg1=           0
         NFxFlg=           0 DoJE=T BraDBF=F KetDBF=T FulRan=T
         Omega=  0.000000  0.000000  1.000000  0.000000  0.000000 ICntrl=     500 IOpCl=  0
         NMat0=    1 NMatS0=    1 NMatT0=    0 NMatD0=    1 NMtDS0=    0 NMtDT0=    0
         I1Cent=           4 NGrid=           0.
 Petite list used in FoFCou.
 Harris En= -76.8280098820067    
 Leave Link  401 at Tue Sep 17 19:15:36 2024, MaxMem=   13107200 cpu:       1.0
 (Enter /programs/64bit/g09/g09-gfortran/bin/l502.exe)
 Closed shell SCF:
 Requested convergence on RMS density matrix=1.00D-08 within 128 cycles.
 Requested convergence on MAX density matrix=1.00D-06.
 Requested convergence on             energy=1.00D-06.
 No special actions if energy rises.
 Using DIIS extrapolation, IDIIS=  1040.
 Integral symmetry usage will be decided dynamically.
        33287 words used for storage of precomputed grid.
 Keep R1 ints in memory in canonical form, NReq=3197988.
 IEnd=       55365 IEndB=       55365 NGot=    13107200 MDV=    12892328
 LenX=    12892328 LenY=    12890731
 Symmetry not used in FoFDir.
 MinBra= 0 MaxBra= 2 Meth= 1.
 IRaf=       0 NMat=   1 IRICut=       1 DoRegI=T DoRafI=F ISym2E= 0 JSym2E=0.

 Cycle   1  Pass 1  IDiag  1:
 E= -75.4753412898909    
 DIIS: error= 1.20D-01 at cycle   1 NSaved=   1.
 NSaved= 1 IEnMin= 1 EnMin= -75.4753412898909     IErMin= 1 ErrMin= 1.20D-01
 ErrMax= 1.20D-01 EMaxC= 1.00D-01 BMatC= 6.52D-01 BMatP= 6.52D-01
 IDIUse=3 WtCom= 0.00D+00 WtEn= 1.00D+00
 Coeff-Com:  0.100D+01
 Coeff-En:   0.100D+01
 Coeff:      0.100D+01
 Recover alternate guess density for next cycle.
 RMSDP=3.70D-02 MaxDP=3.78D-01              OVMax= 0.00D+00

 Cycle   2  Pass 1  IDiag  1:
 E= -76.8477998947712     Delta-E=       -1.372458604880 Rises=F Damp=F
 DIIS: error= 2.65D-02 at cycle   2 NSaved=   2.
 NSaved= 2 IEnMin= 2 EnMin= -76.8477998947712     IErMin= 2 ErrMin= 2.65D-02
 ErrMax= 2.65D-02 EMaxC= 1.00D-01 BMatC= 2.29D-02 BMatP= 6.52D-01
 IDIUse=3 WtCom= 7.35D-01 WtEn= 2.65D-01
 Coeff-Com: -0.128D+00 0.113D+01
 Coeff-En:   0.000D+00 0.100D+01
 Coeff:     -0.938D-01 0.109D+01
 Gap=     0.433 Goal=   None    Shift=    0.000
 RMSDP=3.83D-03 MaxDP=6.13D-02 DE=-1.37D+00 OVMax= 5.80D-02

 Cycle   3  Pass 1  IDiag  1:
 E= -76.8490417737254     Delta-E=       -0.001241878954 Rises=F Damp=F
 DIIS: error= 2.56D-02 at cycle   3 NSaved=   3.
 NSaved= 3 IEnMin= 3 EnMin= -76.8490417737254     IErMin= 3 ErrMin= 2.56D-02
 ErrMax= 2.56D-02 EMaxC= 1.00D-01 BMatC= 1.93D-02 BMatP= 2.29D-02
 IDIUse=3 WtCom= 7.44D-01 WtEn= 2.56D-01
 Coeff-Com: -0.648D-02 0.494D+00 0.512D+00
 Coeff-En:   0.000D+00 0.479D+00 0.521D+00
 Coeff:     -0.482D-02 0.490D+00 0.514D+00
 Gap=     0.475 Goal=   None    Shift=    0.000
 RMSDP=2.01D-03 MaxDP=3.18D-02 DE=-1.24D-03 OVMax= 3.21D-02

 Cycle   4  Pass 1  IDiag  1:
 E= -76.8621471868917     Delta-E=       -0.013105413166 Rises=F Damp=F
 DIIS: error= 1.55D-03 at cycle   4 NSaved=   4.
 NSaved= 4 IEnMin= 4 EnMin= -76.8621471868917     IErMin= 4 ErrMin= 1.55D-03
 ErrMax= 1.55D-03 EMaxC= 1.00D-01 BMatC= 8.75D-05 BMatP= 1.93D-02
 IDIUse=3 WtCom= 9.84D-01 WtEn= 1.55D-02
 Coeff-Com:  0.138D-02 0.235D-01 0.854D-01 0.890D+00
 Coeff-En:   0.000D+00 0.000D+00 0.000D+00 0.100D+01
 Coeff:      0.136D-02 0.231D-01 0.841D-01 0.891D+00
 Gap=     0.473 Goal=   None    Shift=    0.000
 RMSDP=1.38D-04 MaxDP=2.00D-03 DE=-1.31D-02 OVMax= 2.16D-03

 Cycle   5  Pass 1  IDiag  1:
 E= -76.8622074378699     Delta-E=       -0.000060250978 Rises=F Damp=F
 DIIS: error= 1.17D-04 at cycle   5 NSaved=   5.
 NSaved= 5 IEnMin= 5 EnMin= -76.8622074378699     IErMin= 5 ErrMin= 1.17D-04
 ErrMax= 1.17D-04 EMaxC= 1.00D-01 BMatC= 4.64D-07 BMatP= 8.75D-05
 IDIUse=3 WtCom= 9.99D-01 WtEn= 1.17D-03
 Coeff-Com:  0.135D-03-0.127D-02 0.842D-02 0.155D+00 0.838D+00
 Coeff-En:   0.000D+00 0.000D+00 0.000D+00 0.000D+00 0.100D+01
 Coeff:      0.135D-03-0.127D-02 0.841D-02 0.155D+00 0.838D+00
 Gap=     0.473 Goal=   None    Shift=    0.000
 RMSDP=1.17D-05 MaxDP=1.06D-04 DE=-6.03D-05 OVMax= 2.60D-04

 Cycle   6  Pass 1  IDiag  1:
 E= -76.8622078003806     Delta-E=       -0.000000362511 Rises=F Damp=F
 DIIS: error= 7.03D-06 at cycle   6 NSaved=   6.
 NSaved= 6 IEnMin= 6 EnMin= -76.8622078003806     IErMin= 6 ErrMin= 7.03D-06
 ErrMax= 7.03D-06 EMaxC= 1.00D-01 BMatC= 1.70D-09 BMatP= 4.64D-07
 IDIUse=1 WtCom= 1.00D+00 WtEn= 0.00D+00
 Coeff-Com: -0.583D-05-0.144D-03-0.124D-03 0.360D-02 0.533D-01 0.943D+00
 Coeff:     -0.583D-05-0.144D-03-0.124D-03 0.360D-02 0.533D-01 0.943D+00
 Gap=     0.473 Goal=   None    Shift=    0.000
 RMSDP=1.32D-06 MaxDP=2.03D-05 DE=-3.63D-07 OVMax= 2.03D-05

 Cycle   7  Pass 1  IDiag  1:
 E= -76.8622078018833     Delta-E=       -0.000000001503 Rises=F Damp=F
 DIIS: error= 1.20D-06 at cycle   7 NSaved=   7.
 NSaved= 7 IEnMin= 7 EnMin= -76.8622078018833     IErMin= 7 ErrMin= 1.20D-06
 ErrMax= 1.20D-06 EMaxC= 1.00D-01 BMatC= 4.81D-11 BMatP= 1.70D-09
 IDIUse=1 WtCom= 1.00D+00 WtEn= 0.00D+00
 Coeff-Com: -0.150D-05 0.924D-05-0.181D-03-0.247D-02-0.579D-02 0.125D+00
 Coeff-Com:  0.883D+00
 Coeff:     -0.150D-05 0.924D-05-0.181D-03-0.247D-02-0.579D-02 0.125D+00
 Coeff:      0.883D+00
 Gap=     0.473 Goal=   None    Shift=    0.000
 RMSDP=2.19D-07 MaxDP=3.21D-06 DE=-1.50D-09 OVMax= 3.65D-06

 Cycle   8  Pass 1  IDiag  1:
 E= -76.8622078019309     Delta-E=       -0.000000000048 Rises=F Damp=F
 DIIS: error= 1.40D-07 at cycle   8 NSaved=   8.
 NSaved= 8 IEnMin= 8 EnMin= -76.8622078019309     IErMin= 8 ErrMin= 1.40D-07
 ErrMax= 1.40D-07 EMaxC= 1.00D-01 BMatC= 7.64D-13 BMatP= 4.81D-11
 IDIUse=1 WtCom= 1.00D+00 WtEn= 0.00D+00
 Coeff-Com:  0.102D-06 0.226D-07 0.727D-05-0.571D-05-0.507D-04-0.173D-01
 Coeff-Com:  0.689D-03 0.102D+01
 Coeff:      0.102D-06 0.226D-07 0.727D-05-0.571D-05-0.507D-04-0.173D-01
 Coeff:      0.689D-03 0.102D+01
 Gap=     0.473 Goal=   None    Shift=    0.000
 RMSDP=3.37D-08 MaxDP=5.60D-07 DE=-4.76D-11 OVMax= 5.38D-07

 Cycle   9  Pass 1  IDiag  1:
 E= -76.8622078019316     Delta-E=       -0.000000000001 Rises=F Damp=F
 DIIS: error= 8.47D-09 at cycle   9 NSaved=   9.
 NSaved= 9 IEnMin= 9 EnMin= -76.8622078019316     IErMin= 9 ErrMin= 8.47D-09
 ErrMax= 8.47D-09 EMaxC= 1.00D-01 BMatC= 2.28D-15 BMatP= 7.64D-13
 IDIUse=1 WtCom= 1.00D+00 WtEn= 0.00D+00
 Coeff-Com: -0.303D-08-0.119D-06 0.528D-06 0.539D-05 0.284D-04-0.337D-03
 Coeff-Com: -0.484D-02-0.149D-01 0.102D+01
 Coeff:     -0.303D-08-0.119D-06 0.528D-06 0.539D-05 0.284D-04-0.337D-03
 Coeff:     -0.484D-02-0.149D-01 0.102D+01
 Gap=     0.473 Goal=   None    Shift=    0.000
 RMSDP=1.59D-09 MaxDP=2.57D-08 DE=-6.25D-13 OVMax= 2.59D-08

 Error on total polarization charges =  0.00968
 SCF Done:  E(RB3LYP) =  -76.8622078019     A.U. after    9 cycles
             Convg  =    0.1589D-08             -V/T =  2.0112
 KE= 7.600817904448D+01 PE=-2.044912539943D+02 EE= 3.763769905605D+01
 SMD-CDS (non-electrostatic) energy             (kcal/mol) =       2.19
 (included in total energy above)
 Leave Link  502 at Tue Sep 17 19:15:43 2024, MaxMem=   13107200 cpu:       7.0
 (Enter /programs/64bit/g09/g09-gfortran/bin/l701.exe)
 Compute integral first derivatives.
 ... and contract with generalized density number  0.
 D1PCM: PCM CHGder 1st derivatives, ID1Alg=3 FixD1E=F DoIter=F DoCFld=F I1PDM=0.
 GePol: Maximum number of non-zero 1st derivatives   =     152
 Leave Link  701 at Tue Sep 17 19:15:43 2024, MaxMem=   13107200 cpu:       0.7
 (Enter /programs/64bit/g09/g09-gfortran/bin/l702.exe)
 L702 exits ... SP integral derivatives will be done elsewhere.
 Leave Link  702 at Tue Sep 17 19:15:43 2024, MaxMem=   13107200 cpu:       0.0
 (Enter /programs/64bit/g09/g09-gfortran/bin/l703.exe)
 Compute integral first derivatives, UseDBF=F ICtDFT=           0.
 Integral derivatives from FoFDir, PRISM(SPDF).
 Calling FoFJK, ICntrl=      2127 FMM=F ISym2X=0 I1Cent= 0 IOpClX= 0 NMat=1 NMatS=1 NMatT=0.
 FoFCou: FMM=F IPFlag=           0 FMFlag=      100000 FMFlg1=         800
         NFxFlg=           0 DoJE=F BraDBF=F KetDBF=F FulRan=T
         Omega=  0.000000  0.000000  1.000000  0.000000  0.000000 ICntrl=    2127 IOpCl=  0
         NMat0=    1 NMatS0=    1 NMatT0=    0 NMatD0=    1 NMtDS0=    0 NMtDT0=    0
         I1Cent=           0 NGrid=           0.
 Symmetry not used in FoFCou.
 Leave Link  703 at Tue Sep 17 19:15:45 2024, MaxMem=   13107200 cpu:       1.9
 (Enter /programs/64bit/g09/g09-gfortran/bin/l716.exe)
 Dipole        = 1.31942463D-03 8.93198734D-04 7.91340063D-01
 ***** Axes restored to original set *****
 -------------------------------------------------------------------
 Center     Atomic                   Forces (Hartrees/Bohr)
 Number     Number              X              Y              Z
 -------------------------------------------------------------------
      1        8          -0.002267617    0.003398793   -0.001092590
      2        1           0.000741741   -0.000977010    0.001439293
      3        1           0.001639412   -0.000494625   -0.000322773
      4        1          -0.000113535   -0.001927158   -0.000023929
 -------------------------------------------------------------------
 Cartesian Forces:  Max     0.003398793 RMS     0.001533727
 Leave Link  716 at Tue Sep 17 19:15:45 2024, MaxMem=   13107200 cpu:       0.0
 (Enter /programs/64bit/g09/g09-gfortran/bin/l103.exe)

 GradGradGradGradGradGradGradGradGradGradGradGradGradGradGradGradGradGrad
 Berny optimization.
 Using GEDIIS/GDIIS optimizer.
 Internal  Forces:  Max     0.001747003 RMS     0.001243505
 Search for a local minimum.
 Step number   2 out of a maximum of   20
 All quantities printed in internal units (Hartrees-Bohrs-Radians)
 RMS Force = .12435D-02 SwitMx=.10000D-02 MixMth= 1
 Mixed Optimization -- RFO/linear search
 Update second derivatives using D2CorX and points    1    2
 DE= -2.45D-03 DEPred=-2.45D-03 R= 9.96D-01
 SS=  1.41D+00  RLast= 9.37D-02 DXNew= 5.0454D-01 2.8113D-01
 Trust test= 9.96D-01 RLast= 9.37D-02 DXMaxT set to 3.00D-01
 The second derivative matrix:
                          R1        R2        R3        A1        A2
           R1           0.56950
           R2          -0.00972   0.56469
           R3          -0.00879  -0.01120   0.56654
           A1          -0.00458  -0.00464  -0.00463   0.15977
           A2           0.00281   0.00268   0.00274  -0.00016   0.16033
           A3           0.00268   0.00259   0.00263  -0.00010   0.00027
           D1          -0.01378  -0.01368  -0.01375  -0.00015  -0.00090
                          A3        D1
           A3           0.16022
           D1          -0.00068   0.01823
 Use linear search instead of GDIIS.
     Eigenvalues ---    0.06041   0.15998   0.16021   0.54776   0.57681
     Eigenvalues ---    0.577111000.00000
 RFO step:  Lambda=-5.37930560D-05 EMin= 6.04083744D-02
 Quartic linear search produced a step of  0.05139.
 Iteration  1 RMS(Cart)=  0.00584027 RMS(Int)=  0.00011580
 Iteration  2 RMS(Cart)=  0.00006596 RMS(Int)=  0.00009029
 Iteration  3 RMS(Cart)=  0.00000000 RMS(Int)=  0.00009029
 Variable       Old X    -DE/DX   Delta X   Delta X   Delta X     New X
                                 (Linear)    (Quad)   (Total)
    R1        1.84762   0.00136   0.00269   0.00070   0.00339   1.85101
    R2        1.84798   0.00175   0.00271   0.00139   0.00410   1.85208
    R3        1.84798   0.00160   0.00271   0.00112   0.00383   1.85181
    A1        1.91775  -0.00018   0.00037  -0.00881  -0.00861   1.90914
    A2        1.91923  -0.00088   0.00044  -0.00983  -0.00947   1.90976
    A3        1.91646  -0.00087   0.00030  -0.00973  -0.00951   1.90695
    D1       -2.11219   0.00134  -0.00091   0.02344   0.02240  -2.08980
         Item               Value     Threshold  Converged?
 Maximum Force            0.001747     0.000450     NO 
 RMS     Force            0.001244     0.000300     NO 
 Maximum Displacement     0.010812     0.001800     NO 
 RMS     Displacement     0.005863     0.001200     NO 
 Predicted change in Energy=-3.262337D-05
 GradGradGradGradGradGradGradGradGradGradGradGradGradGradGradGradGradGrad

 Leave Link  103 at Tue Sep 17 19:15:45 2024, MaxMem=   13107200 cpu:       0.0
 (Enter /programs/64bit/g09/g09-gfortran/bin/l202.exe)
                          Input orientation:                          
 ---------------------------------------------------------------------
 Center     Atomic      Atomic             Coordinates (Angstroms)
 Number     Number       Type             X           Y           Z
 ---------------------------------------------------------------------
      1          8           0       -0.004362    0.007322   -0.002457
      2          1           0       -0.003180    0.005741    0.977054
      3          1           0        0.919753    0.005197   -0.328894
      4          1           0       -0.464377   -0.793932   -0.329036
 ---------------------------------------------------------------------
                    Distance matrix (angstroms):
                    1          2          3          4
     1  O    0.000000
     2  H    0.979514   0.000000
     3  H    0.980079   1.599158   0.000000
     4  H    0.979937   1.599392   1.598257   0.000000
 Stoichiometry    H3O(1+)
 Framework group  C1[X(H3O)]
 Deg. of freedom     6
 Full point group                 C1      NOp   1
 Largest Abelian subgroup         C1      NOp   1
 Largest concise Abelian subgroup C1      NOp   1
                         Standard orientation:                         
 ---------------------------------------------------------------------
 Center     Atomic      Atomic             Coordinates (Angstroms)
 Number     Number       Type             X           Y           Z
 ---------------------------------------------------------------------
      1          8           0       -0.000241   -0.000079   -0.089583
      2          1           0       -0.918490   -0.089878    0.239358
      3          1           0        0.382122    0.840560    0.238562
      4          1           0        0.538297   -0.750048    0.238744
 ---------------------------------------------------------------------
 Rotational constants (GHZ):    323.6416483    323.1797696    196.1416198
 Leave Link  202 at Tue Sep 17 19:15:45 2024, MaxMem=   13107200 cpu:       0.0
 (Enter /programs/64bit/g09/g09-gfortran/bin/l301.exe)
 Standard basis: 6-31+G(d,p) (6D, 7F)
 Ernie: Thresh=  0.10000D-02 Tol=  0.10000D-05 Strict=F.
 There are    34 symmetry adapted basis functions of A   symmetry.
 Integral buffers will be    131072 words long.
 Raffenetti 2 integral format.
 Two-electron integral symmetry is turned on.
    34 basis functions,    53 primitive gaussians,    34 cartesian basis functions
     5 alpha electrons        5 beta electrons
       nuclear repulsion energy        13.9543841782 Hartrees.
 IExCor=  402 DFT=T Ex+Corr=B3LYP ExCW=0 ScaHFX=  0.200000
 ScaDFX=  0.800000  0.720000  1.000000  0.810000 ScalE2=  1.000000  1.000000
 IRadAn=      0 IRanWt=     -1 IRanGd=            0 ICorTp=0
 NAtoms=    4 NActive=    4 NUniq=    4 SFac= 7.50D-01 NAtFMM=   80 NAOKFM=F Big=F
 ------------------------------------------------------------------------------
 Polarizable Continuum Model (PCM)
 =================================
 Model                : PCM.
 Atomic radii         : SMD-Coulomb.
 Polarization charges : Total charges.
 Charge compensation  : None.
 Solution method      : Matrix inversion.
 Cavity type          : VdW (van der Waals Surface) (Alpha=1.000).
 Cavity algorithm     : GePol (No added spheres)
                        Default sphere list used, NSphG=    4.
                        Lebedev-Laikov grids with approx.  5.0 points / Ang**2.
                        Smoothing algorithm: Karplus/York (Gamma=1.0000).
                        Polarization charges: spherical gaussians, with
                                              point-specific exponents (IZeta= 3).
                        Self-potential: point-specific (ISelfS= 7).
                        Self-field    : sphere-specific E.n sum rule (ISelfD= 2).
 1st derivatives      : Analytical E(r).r(x)/FMM algorithm (CHGder, D1EAlg=3).
                        Cavity 1st derivative terms included.
 Solvent              : Water, Eps=  78.355300 Eps(inf)=   1.777849
 ------------------------------------------------------------------------------
 Spheres list:
 ISph  on   Nord    Re0     Alpha      Xe            Ye            Ze
    1   O      1    1.520   1.000     -0.000241     -0.000079     -0.089583
    2   H      2    1.200   1.000     -0.918490     -0.089878      0.239358
    3   H      3    1.200   1.000      0.382122      0.840560      0.238562
    4   H      4    1.200   1.000      0.538297     -0.750048      0.238744
 ------------------------------------------------------------------------------
 GePol: Number of generator spheres                  =       4
 GePol: Total number of spheres                      =       4
 GePol: Number of exposed spheres                    =       4 (100.00%)
 GePol: Number of points                             =     287
 GePol: Average weight of points                     =       0.14
 GePol: Minimum weight of points                     =   0.16D-05
 GePol: Maximum weight of points                     =    0.21991
 GePol: Number of points with low weight             =      12
 GePol: Fraction of low-weight points (<1% of avg)   =       4.18%
 GePol: Cavity surface area                          =     40.343 Ang**2
 GePol: Cavity volume                                =     21.843 Ang**3
 ------------------------------------------------------------------------------
 Atomic radii for non-electrostatic terms: SMD-CDS.
 ------------------------------------------------------------------------------
 PCM non-electrostatic energy =         0.0035054835 Hartrees.
 Nuclear repulsion after PCM non-electrostatic terms =       13.9578896617 Hartrees.
 Leave Link  301 at Tue Sep 17 19:15:45 2024, MaxMem=   13107200 cpu:       0.1
 (Enter /programs/64bit/g09/g09-gfortran/bin/l302.exe)
 NPDir=0 NMtPBC=     1 NCelOv=     1 NCel=       1 NClECP=     1 NCelD=      1
         NCelK=      1 NCelE2=     1 NClLst=     1 CellRange=     0.0.
 One-electron integrals computed using PRISM.
 NBasis=    34 RedAO= T  NBF=    34
 NBsUse=    34 1.00D-06 NBFU=    34
 Precomputing XC quadrature grid using
 IXCGrd= 2 IRadAn=           0 IRanWt=          -1 IRanGd=           0 AccXCQ= 1.00D-10.
 NRdTot=     249 NPtTot=       31528 NUsed=       33336 NTot=       33368
 NSgBfM=    34    34    34    34    34 NAtAll=     4     4.
 Leave Link  302 at Tue Sep 17 19:15:46 2024, MaxMem=   13107200 cpu:       0.3
 (Enter /programs/64bit/g09/g09-gfortran/bin/l303.exe)
 DipDrv:  MaxL=1.
 Leave Link  303 at Tue Sep 17 19:15:46 2024, MaxMem=   13107200 cpu:       0.0
 (Enter /programs/64bit/g09/g09-gfortran/bin/l401.exe)
 Initial guess read from the read-write file.
 B after Tr=     0.000000    0.000000    0.000000
         Rot=    1.000000    0.000000    0.000000    0.000000 Ang=   0.00 deg.
 Guess basis will be translated and rotated to current coordinates.
 Initial guess orbital symmetries:
       Occupied  (A) (A) (A) (A) (A)
       Virtual   (A) (A) (A) (A) (A) (A) (A) (A) (A) (A) (A) (A)
                 (A) (A) (A) (A) (A) (A) (A) (A) (A) (A) (A) (A)
                 (A) (A) (A) (A) (A)
 The electronic state of the initial guess is 1-A.
 Leave Link  401 at Tue Sep 17 19:15:46 2024, MaxMem=   13107200 cpu:       0.1
 (Enter /programs/64bit/g09/g09-gfortran/bin/l502.exe)
 Closed shell SCF:
 Requested convergence on RMS density matrix=1.00D-08 within 128 cycles.
 Requested convergence on MAX density matrix=1.00D-06.
 Requested convergence on             energy=1.00D-06.
 No special actions if energy rises.
 Using DIIS extrapolation, IDIIS=  1040.
 Integral symmetry usage will be decided dynamically.
        33287 words used for storage of precomputed grid.
 Keep R1 ints in memory in canonical form, NReq=3195774.
 IEnd=       55365 IEndB=       55365 NGot=    13107200 MDV=    12892328
 LenX=    12892328 LenY=    12890731
 Symmetry not used in FoFDir.
 MinBra= 0 MaxBra= 2 Meth= 1.
 IRaf=       0 NMat=   1 IRICut=       1 DoRegI=T DoRafI=F ISym2E= 0 JSym2E=0.

 Cycle   1  Pass 1  IDiag  1:
 E= -76.8514336005646    
 DIIS: error= 1.56D-02 at cycle   1 NSaved=   1.
 NSaved= 1 IEnMin= 1 EnMin= -76.8514336005646     IErMin= 1 ErrMin= 1.56D-02
 ErrMax= 1.56D-02 EMaxC= 1.00D-01 BMatC= 8.96D-03 BMatP= 8.96D-03
 IDIUse=3 WtCom= 8.44D-01 WtEn= 1.56D-01
 Coeff-Com:  0.100D+01
 Coeff-En:   0.100D+01
 Coeff:      0.100D+01
 Gap=     0.476 Goal=   None    Shift=    0.000
 GapD=    0.476 DampG=2.000 DampE=0.500 DampFc=1.0000 IDamp=-1.
 RMSDP=2.55D-03 MaxDP=2.96D-02              OVMax= 4.19D-02

 Cycle   2  Pass 1  IDiag  1:
 E= -76.8621679541561     Delta-E=       -0.010734353592 Rises=F Damp=F
 DIIS: error= 1.42D-03 at cycle   2 NSaved=   2.
 NSaved= 2 IEnMin= 2 EnMin= -76.8621679541561     IErMin= 2 ErrMin= 1.42D-03
 ErrMax= 1.42D-03 EMaxC= 1.00D-01 BMatC= 1.01D-04 BMatP= 8.96D-03
 IDIUse=3 WtCom= 9.86D-01 WtEn= 1.42D-02
 Coeff-Com: -0.490D-01 0.105D+01
 Coeff-En:   0.000D+00 0.100D+01
 Coeff:     -0.483D-01 0.105D+01
 Gap=     0.477 Goal=   None    Shift=    0.000
 RMSDP=3.46D-04 MaxDP=4.15D-03 DE=-1.07D-02 OVMax= 5.79D-03

 Cycle   3  Pass 1  IDiag  1:
 E= -76.8621991412233     Delta-E=       -0.000031187067 Rises=F Damp=F
 DIIS: error= 2.03D-03 at cycle   3 NSaved=   3.
 NSaved= 3 IEnMin= 3 EnMin= -76.8621991412233     IErMin= 2 ErrMin= 1.42D-03
 ErrMax= 2.03D-03 EMaxC= 1.00D-01 BMatC= 1.26D-04 BMatP= 1.01D-04
 IDIUse=3 WtCom= 1.82D-01 WtEn= 8.18D-01
 Coeff-Com: -0.367D-01 0.589D+00 0.447D+00
 Coeff-En:   0.000D+00 0.380D+00 0.620D+00
 Coeff:     -0.668D-02 0.418D+00 0.589D+00
 Gap=     0.472 Goal=   None    Shift=    0.000
 RMSDP=2.14D-04 MaxDP=3.48D-03 DE=-3.12D-05 OVMax= 3.38D-03

 Cycle   4  Pass 1  IDiag  1:
 E= -76.8622691335422     Delta-E=       -0.000069992319 Rises=F Damp=F
 DIIS: error= 8.45D-04 at cycle   4 NSaved=   4.
 NSaved= 4 IEnMin= 4 EnMin= -76.8622691335422     IErMin= 4 ErrMin= 8.45D-04
 ErrMax= 8.45D-04 EMaxC= 1.00D-01 BMatC= 2.19D-05 BMatP= 1.01D-04
 IDIUse=3 WtCom= 9.92D-01 WtEn= 8.45D-03
 Coeff-Com:  0.124D-02-0.522D-01 0.283D+00 0.768D+00
 Coeff-En:   0.000D+00 0.000D+00 0.143D+00 0.857D+00
 Coeff:      0.123D-02-0.517D-01 0.282D+00 0.768D+00
 Gap=     0.474 Goal=   None    Shift=    0.000
 RMSDP=6.42D-05 MaxDP=1.03D-03 DE=-7.00D-05 OVMax= 1.01D-03

 Cycle   5  Pass 1  IDiag  1:
 E= -76.8622839094759     Delta-E=       -0.000014775934 Rises=F Damp=F
 DIIS: error= 9.48D-06 at cycle   5 NSaved=   5.
 NSaved= 5 IEnMin= 5 EnMin= -76.8622839094759     IErMin= 5 ErrMin= 9.48D-06
 ErrMax= 9.48D-06 EMaxC= 1.00D-01 BMatC= 3.06D-09 BMatP= 2.19D-05
 IDIUse=1 WtCom= 1.00D+00 WtEn= 0.00D+00
 Coeff-Com:  0.441D-03-0.139D-01 0.555D-01 0.163D+00 0.795D+00
 Coeff:      0.441D-03-0.139D-01 0.555D-01 0.163D+00 0.795D+00
 Gap=     0.474 Goal=   None    Shift=    0.000
 RMSDP=8.75D-07 MaxDP=8.92D-06 DE=-1.48D-05 OVMax= 1.54D-05

 Cycle   6  Pass 1  IDiag  1:
 E= -76.8622839117009     Delta-E=       -0.000000002225 Rises=F Damp=F
 DIIS: error= 4.05D-07 at cycle   6 NSaved=   6.
 NSaved= 6 IEnMin= 6 EnMin= -76.8622839117009     IErMin= 6 ErrMin= 4.05D-07
 ErrMax= 4.05D-07 EMaxC= 1.00D-01 BMatC= 5.88D-12 BMatP= 3.06D-09
 IDIUse=1 WtCom= 1.00D+00 WtEn= 0.00D+00
 Coeff-Com: -0.891D-05 0.367D-03-0.217D-02-0.536D-02-0.165D-02 0.101D+01
 Coeff:     -0.891D-05 0.367D-03-0.217D-02-0.536D-02-0.165D-02 0.101D+01
 Gap=     0.474 Goal=   None    Shift=    0.000
 RMSDP=5.91D-08 MaxDP=5.01D-07 DE=-2.22D-09 OVMax= 7.47D-07

 Cycle   7  Pass 1  IDiag  1:
 E= -76.8622839117057     Delta-E=       -0.000000000005 Rises=F Damp=F
 DIIS: error= 3.95D-08 at cycle   7 NSaved=   7.
 NSaved= 7 IEnMin= 7 EnMin= -76.8622839117057     IErMin= 7 ErrMin= 3.95D-08
 ErrMax= 3.95D-08 EMaxC= 1.00D-01 BMatC= 4.45D-14 BMatP= 5.88D-12
 IDIUse=1 WtCom= 1.00D+00 WtEn= 0.00D+00
 Coeff-Com: -0.140D-05 0.488D-04-0.221D-03-0.649D-03-0.162D-02 0.425D-01
 Coeff-Com:  0.960D+00
 Coeff:     -0.140D-05 0.488D-04-0.221D-03-0.649D-03-0.162D-02 0.425D-01
 Coeff:      0.960D+00
 Gap=     0.474 Goal=   None    Shift=    0.000
 RMSDP=3.37D-09 MaxDP=4.17D-08 DE=-4.80D-12 OVMax= 5.22D-08

 Error on total polarization charges =  0.00971
 SCF Done:  E(RB3LYP) =  -76.8622839117     A.U. after    7 cycles
             Convg  =    0.3370D-08             -V/T =  2.0113
 KE= 7.600031221727D+01 PE=-2.044390885154D+02 EE= 3.761860272473D+01
 SMD-CDS (non-electrostatic) energy             (kcal/mol) =       2.20
 (included in total energy above)
 Leave Link  502 at Tue Sep 17 19:15:52 2024, MaxMem=   13107200 cpu:       5.5
 (Enter /programs/64bit/g09/g09-gfortran/bin/l701.exe)
 Compute integral first derivatives.
 ... and contract with generalized density number  0.
 D1PCM: PCM CHGder 1st derivatives, ID1Alg=3 FixD1E=F DoIter=F DoCFld=F I1PDM=0.
 GePol: Maximum number of non-zero 1st derivatives   =     152
 Leave Link  701 at Tue Sep 17 19:15:52 2024, MaxMem=   13107200 cpu:       0.7
 (Enter /programs/64bit/g09/g09-gfortran/bin/l702.exe)
 L702 exits ... SP integral derivatives will be done elsewhere.
 Leave Link  702 at Tue Sep 17 19:15:52 2024, MaxMem=   13107200 cpu:       0.0
 (Enter /programs/64bit/g09/g09-gfortran/bin/l703.exe)
 Compute integral first derivatives, UseDBF=F ICtDFT=           0.
 Integral derivatives from FoFDir, PRISM(SPDF).
 Calling FoFJK, ICntrl=      2127 FMM=F ISym2X=0 I1Cent= 0 IOpClX= 0 NMat=1 NMatS=1 NMatT=0.
 FoFCou: FMM=F IPFlag=           0 FMFlag=      100000 FMFlg1=         800
         NFxFlg=           0 DoJE=F BraDBF=F KetDBF=F FulRan=T
         Omega=  0.000000  0.000000  1.000000  0.000000  0.000000 ICntrl=    2127 IOpCl=  0
         NMat0=    1 NMatS0=    1 NMatT0=    0 NMatD0=    1 NMtDS0=    0 NMtDT0=    0
         I1Cent=           0 NGrid=           0.
 Symmetry not used in FoFCou.
 Leave Link  703 at Tue Sep 17 19:15:54 2024, MaxMem=   13107200 cpu:       1.9
 (Enter /programs/64bit/g09/g09-gfortran/bin/l716.exe)
 Dipole        = 2.25425982D-03-2.09435781D-04 8.12280727D-01
 ***** Axes restored to original set *****
 -------------------------------------------------------------------
 Center     Atomic                   Forces (Hartrees/Bohr)
 Number     Number              X              Y              Z
 -------------------------------------------------------------------
      1        8          -0.000032477    0.001411483   -0.000876519
      2        1           0.000227508   -0.000664662    0.000333947
      3        1          -0.000214720   -0.000169720    0.000299145
      4        1           0.000019688   -0.000577101    0.000243427
 -------------------------------------------------------------------
 Cartesian Forces:  Max     0.001411483 RMS     0.000571822
 Leave Link  716 at Tue Sep 17 19:15:54 2024, MaxMem=   13107200 cpu:       0.0
 (Enter /programs/64bit/g09/g09-gfortran/bin/l103.exe)

 GradGradGradGradGradGradGradGradGradGradGradGradGradGradGradGradGradGrad
 Berny optimization.
 Using GEDIIS/GDIIS optimizer.
 Internal  Forces:  Max     0.000719516 RMS     0.000431294
 Search for a local minimum.
 Step number   3 out of a maximum of   20
 All quantities printed in internal units (Hartrees-Bohrs-Radians)
 RMS Force = .43129D-03 SwitMx=.10000D-02 MixMth= 2
 Mixed Optimization -- En-DIIS/RFO-DIIS
 Update second derivatives using D2CorX and points    1    2    3
 DE= -7.61D-05 DEPred=-3.26D-05 R= 2.33D+00
 SS=  1.41D+00  RLast= 2.83D-02 DXNew= 5.0454D-01 8.4790D-02
 Trust test= 2.33D+00 RLast= 2.83D-02 DXMaxT set to 3.00D-01
 The second derivative matrix:
                          R1        R2        R3        A1        A2
           R1           0.56448
           R2           0.00437   0.61718
           R3          -0.01551   0.00307   0.55779
           A1           0.02879   0.03465   0.03324   0.13142
           A2           0.03730   0.04299   0.04189  -0.02983   0.12930
           A3           0.02289   0.01794   0.02593  -0.02900  -0.02977
           D1           0.00054   0.01464   0.00202   0.00351   0.00266
                          A3        D1
           A3           0.13654
           D1          -0.00477   0.02836
 Use linear search instead of GDIIS.
     Eigenvalues ---    0.03740   0.15059   0.16284   0.54960   0.57695
     Eigenvalues ---    0.619771000.00000
 RFO step:  Lambda=-2.17009741D-06 EMin= 3.73989485D-02
 Quartic linear search produced a step of  0.10514.
 Iteration  1 RMS(Cart)=  0.00147508 RMS(Int)=  0.00001281
 Iteration  2 RMS(Cart)=  0.00000323 RMS(Int)=  0.00001243
 Iteration  3 RMS(Cart)=  0.00000000 RMS(Int)=  0.00001243
 Variable       Old X    -DE/DX   Delta X   Delta X   Delta X     New X
                                 (Linear)    (Quad)   (Total)
    R1        1.85101   0.00029   0.00036   0.00033   0.00069   1.85170
    R2        1.85208  -0.00026   0.00043  -0.00081  -0.00038   1.85171
    R3        1.85181   0.00039   0.00040   0.00046   0.00086   1.85268
    A1        1.90914  -0.00005  -0.00091   0.00100   0.00007   1.90921
    A2        1.90976  -0.00072  -0.00100  -0.00312  -0.00413   1.90563
    A3        1.90695  -0.00025  -0.00100   0.00012  -0.00089   1.90605
    D1       -2.08980   0.00064   0.00235   0.00060   0.00293  -2.08687
         Item               Value     Threshold  Converged?
 Maximum Force            0.000720     0.000450     NO 
 RMS     Force            0.000431     0.000300     NO 
 Maximum Displacement     0.002381     0.001800     NO 
 RMS     Displacement     0.001477     0.001200     NO 
 Predicted change in Energy=-4.404866D-06
 GradGradGradGradGradGradGradGradGradGradGradGradGradGradGradGradGradGrad

 Leave Link  103 at Tue Sep 17 19:15:54 2024, MaxMem=   13107200 cpu:       0.0
 (Enter /programs/64bit/g09/g09-gfortran/bin/l202.exe)
                          Input orientation:                          
 ---------------------------------------------------------------------
 Center     Atomic      Atomic             Coordinates (Angstroms)
 Number     Number       Type             X           Y           Z
 ---------------------------------------------------------------------
      1          8           0       -0.004261    0.008582   -0.003079
      2          1           0       -0.003633    0.004818    0.976792
      3          1           0        0.919820    0.004922   -0.329003
      4          1           0       -0.464091   -0.793993   -0.328043
 ---------------------------------------------------------------------
                    Distance matrix (angstroms):
                    1          2          3          4
     1  O    0.000000
     2  H    0.979878   0.000000
     3  H    0.979881   1.599333   0.000000
     4  H    0.980393   1.597721   1.597960   0.000000
 Stoichiometry    H3O(1+)
 Framework group  C1[X(H3O)]
 Deg. of freedom     6
 Full point group                 C1      NOp   1
 Largest Abelian subgroup         C1      NOp   1
 Largest concise Abelian subgroup C1      NOp   1
                         Standard orientation:                         
 ---------------------------------------------------------------------
 Center     Atomic      Atomic             Coordinates (Angstroms)
 Number     Number       Type             X           Y           Z
 ---------------------------------------------------------------------
      1          8           0       -0.000048   -0.000312   -0.090015
      2          1           0        0.766162   -0.514098    0.240298
      3          1           0       -0.829395   -0.404274    0.240383
      4          1           0        0.063613    0.920871    0.239439
 ---------------------------------------------------------------------
 Rotational constants (GHZ):    323.3954024    322.7276127    196.2882262
 Leave Link  202 at Tue Sep 17 19:15:54 2024, MaxMem=   13107200 cpu:       0.0
 (Enter /programs/64bit/g09/g09-gfortran/bin/l301.exe)
 Standard basis: 6-31+G(d,p) (6D, 7F)
 Ernie: Thresh=  0.10000D-02 Tol=  0.10000D-05 Strict=F.
 There are    34 symmetry adapted basis functions of A   symmetry.
 Integral buffers will be    131072 words long.
 Raffenetti 2 integral format.
 Two-electron integral symmetry is turned on.
    34 basis functions,    53 primitive gaussians,    34 cartesian basis functions
     5 alpha electrons        5 beta electrons
       nuclear repulsion energy        13.9520119704 Hartrees.
 IExCor=  402 DFT=T Ex+Corr=B3LYP ExCW=0 ScaHFX=  0.200000
 ScaDFX=  0.800000  0.720000  1.000000  0.810000 ScalE2=  1.000000  1.000000
 IRadAn=      0 IRanWt=     -1 IRanGd=            0 ICorTp=0
 NAtoms=    4 NActive=    4 NUniq=    4 SFac= 7.50D-01 NAtFMM=   80 NAOKFM=F Big=F
 ------------------------------------------------------------------------------
 Polarizable Continuum Model (PCM)
 =================================
 Model                : PCM.
 Atomic radii         : SMD-Coulomb.
 Polarization charges : Total charges.
 Charge compensation  : None.
 Solution method      : Matrix inversion.
 Cavity type          : VdW (van der Waals Surface) (Alpha=1.000).
 Cavity algorithm     : GePol (No added spheres)
                        Default sphere list used, NSphG=    4.
                        Lebedev-Laikov grids with approx.  5.0 points / Ang**2.
                        Smoothing algorithm: Karplus/York (Gamma=1.0000).
                        Polarization charges: spherical gaussians, with
                                              point-specific exponents (IZeta= 3).
                        Self-potential: point-specific (ISelfS= 7).
                        Self-field    : sphere-specific E.n sum rule (ISelfD= 2).
 1st derivatives      : Analytical E(r).r(x)/FMM algorithm (CHGder, D1EAlg=3).
                        Cavity 1st derivative terms included.
 Solvent              : Water, Eps=  78.355300 Eps(inf)=   1.777849
 ------------------------------------------------------------------------------
 Spheres list:
 ISph  on   Nord    Re0     Alpha      Xe            Ye            Ze
    1   O      1    1.520   1.000     -0.000048     -0.000312     -0.090015
    2   H      2    1.200   1.000      0.766162     -0.514098      0.240298
    3   H      3    1.200   1.000     -0.829395     -0.404274      0.240383
    4   H      4    1.200   1.000      0.063613      0.920871      0.239439
 ------------------------------------------------------------------------------
 GePol: Number of generator spheres                  =       4
 GePol: Total number of spheres                      =       4
 GePol: Number of exposed spheres                    =       4 (100.00%)
 GePol: Number of points                             =     287
 GePol: Average weight of points                     =       0.14
 GePol: Minimum weight of points                     =   0.91D-09
 GePol: Maximum weight of points                     =    0.21991
 GePol: Number of points with low weight             =      13
 GePol: Fraction of low-weight points (<1% of avg)   =       4.53%
 GePol: Cavity surface area                          =     40.363 Ang**2
 GePol: Cavity volume                                =     21.851 Ang**3
 ------------------------------------------------------------------------------
 Atomic radii for non-electrostatic terms: SMD-CDS.
 ------------------------------------------------------------------------------
 PCM non-electrostatic energy =         0.0035057805 Hartrees.
 Nuclear repulsion after PCM non-electrostatic terms =       13.9555177509 Hartrees.
 Leave Link  301 at Tue Sep 17 19:15:54 2024, MaxMem=   13107200 cpu:       0.1
 (Enter /programs/64bit/g09/g09-gfortran/bin/l302.exe)
 NPDir=0 NMtPBC=     1 NCelOv=     1 NCel=       1 NClECP=     1 NCelD=      1
         NCelK=      1 NCelE2=     1 NClLst=     1 CellRange=     0.0.
 One-electron integrals computed using PRISM.
 NBasis=    34 RedAO= T  NBF=    34
 NBsUse=    34 1.00D-06 NBFU=    34
 Precomputing XC quadrature grid using
 IXCGrd= 2 IRadAn=           0 IRanWt=          -1 IRanGd=           0 AccXCQ= 1.00D-10.
 NRdTot=     249 NPtTot=       31528 NUsed=       33336 NTot=       33368
 NSgBfM=    34    34    34    34    34 NAtAll=     4     4.
 Leave Link  302 at Tue Sep 17 19:15:55 2024, MaxMem=   13107200 cpu:       0.3
 (Enter /programs/64bit/g09/g09-gfortran/bin/l303.exe)
 DipDrv:  MaxL=1.
 Leave Link  303 at Tue Sep 17 19:15:55 2024, MaxMem=   13107200 cpu:       0.0
 (Enter /programs/64bit/g09/g09-gfortran/bin/l401.exe)
 Initial guess read from the read-write file.
 B after Tr=     0.000000    0.000000    0.000000
         Rot=    1.000000    0.000000    0.000000    0.000000 Ang=   0.00 deg.
 Guess basis will be translated and rotated to current coordinates.
 Initial guess orbital symmetries:
       Occupied  (A) (A) (A) (A) (A)
       Virtual   (A) (A) (A) (A) (A) (A) (A) (A) (A) (A) (A) (A)
                 (A) (A) (A) (A) (A) (A) (A) (A) (A) (A) (A) (A)
                 (A) (A) (A) (A) (A)
 The electronic state of the initial guess is 1-A.
 Leave Link  401 at Tue Sep 17 19:15:55 2024, MaxMem=   13107200 cpu:       0.1
 (Enter /programs/64bit/g09/g09-gfortran/bin/l502.exe)
 Closed shell SCF:
 Requested convergence on RMS density matrix=1.00D-08 within 128 cycles.
 Requested convergence on MAX density matrix=1.00D-06.
 Requested convergence on             energy=1.00D-06.
 No special actions if energy rises.
 Using DIIS extrapolation, IDIIS=  1040.
 Integral symmetry usage will be decided dynamically.
        33287 words used for storage of precomputed grid.
 Keep R1 ints in memory in canonical form, NReq=3195774.
 IEnd=       55365 IEndB=       55365 NGot=    13107200 MDV=    12892328
 LenX=    12892328 LenY=    12890731
 Symmetry not used in FoFDir.
 MinBra= 0 MaxBra= 2 Meth= 1.
 IRaf=       0 NMat=   1 IRICut=       1 DoRegI=T DoRafI=F ISym2E= 0 JSym2E=0.

 Cycle   1  Pass 1  IDiag  1:
 E= -75.0224300534457    
 DIIS: error= 1.14D-01 at cycle   1 NSaved=   1.
 NSaved= 1 IEnMin= 1 EnMin= -75.0224300534457     IErMin= 1 ErrMin= 1.14D-01
 ErrMax= 1.14D-01 EMaxC= 1.00D-01 BMatC= 9.98D-01 BMatP= 9.98D-01
 IDIUse=3 WtCom= 0.00D+00 WtEn= 1.00D+00
 Coeff-Com:  0.100D+01
 Coeff-En:   0.100D+01
 Coeff:      0.100D+01
 Gap=     0.366 Goal=   None    Shift=    0.000
 GapD=    0.366 DampG=1.000 DampE=0.250 DampFc=0.2500 IDamp=-1.
 Damping current iteration by 2.50D-01
 RMSDP=4.54D-02 MaxDP=5.13D-01              OVMax= 5.59D-01

 Cycle   2  Pass 1  IDiag  1:
 E= -75.5019833648007     Delta-E=       -0.479553311355 Rises=F Damp=T
 DIIS: error= 7.34D-02 at cycle   2 NSaved=   2.
 NSaved= 2 IEnMin= 2 EnMin= -75.5019833648007     IErMin= 2 ErrMin= 7.34D-02
 ErrMax= 7.34D-02 EMaxC= 1.00D-01 BMatC= 4.32D-01 BMatP= 9.98D-01
 IDIUse=3 WtCom= 2.66D-01 WtEn= 7.34D-01
 Coeff-Com: -0.102D+01 0.202D+01
 Coeff-En:   0.000D+00 0.100D+01
 Coeff:     -0.272D+00 0.127D+01
 Gap=     0.392 Goal=   None    Shift=    0.000
 RMSDP=3.07D-02 MaxDP=3.27D-01 DE=-4.80D-01 OVMax= 2.21D-01

 Cycle   3  Pass 1  IDiag  1:
 E= -76.8327651996052     Delta-E=       -1.330781834804 Rises=F Damp=F
 DIIS: error= 4.19D-02 at cycle   3 NSaved=   3.
 NSaved= 3 IEnMin= 3 EnMin= -76.8327651996052     IErMin= 3 ErrMin= 4.19D-02
 ErrMax= 4.19D-02 EMaxC= 1.00D-01 BMatC= 4.35D-02 BMatP= 4.32D-01
 IDIUse=3 WtCom= 5.81D-01 WtEn= 4.19D-01
 Coeff-Com:  0.464D+00-0.520D+00 0.106D+01
 Coeff-En:   0.000D+00 0.000D+00 0.100D+01
 Coeff:      0.270D+00-0.302D+00 0.103D+01
 Gap=     0.505 Goal=   None    Shift=    0.000
 RMSDP=4.54D-03 MaxDP=8.20D-02 DE=-1.33D+00 OVMax= 8.03D-02

 Cycle   4  Pass 1  IDiag  1:
 E= -76.8521098389409     Delta-E=       -0.019344639336 Rises=F Damp=F
 DIIS: error= 2.11D-02 at cycle   4 NSaved=   4.
 NSaved= 4 IEnMin= 4 EnMin= -76.8521098389409     IErMin= 4 ErrMin= 2.11D-02
 ErrMax= 2.11D-02 EMaxC= 1.00D-01 BMatC= 1.51D-02 BMatP= 4.35D-02
 IDIUse=3 WtCom= 7.89D-01 WtEn= 2.11D-01
 Coeff-Com:  0.892D-02-0.332D-01 0.367D+00 0.657D+00
 Coeff-En:   0.000D+00 0.000D+00 0.252D+00 0.748D+00
 Coeff:      0.703D-02-0.262D-01 0.343D+00 0.676D+00
 Gap=     0.468 Goal=   None    Shift=    0.000
 RMSDP=1.95D-03 MaxDP=2.90D-02 DE=-1.93D-02 OVMax= 3.06D-02

 Cycle   5  Pass 1  IDiag  1:
 E= -76.8620164960074     Delta-E=       -0.009906657066 Rises=F Damp=F
 DIIS: error= 3.60D-03 at cycle   5 NSaved=   5.
 NSaved= 5 IEnMin= 5 EnMin= -76.8620164960074     IErMin= 5 ErrMin= 3.60D-03
 ErrMax= 3.60D-03 EMaxC= 1.00D-01 BMatC= 3.83D-04 BMatP= 1.51D-02
 IDIUse=3 WtCom= 9.64D-01 WtEn= 3.60D-02
 Coeff-Com:  0.448D-02-0.955D-02 0.367D-01 0.182D+00 0.786D+00
 Coeff-En:   0.000D+00 0.000D+00 0.000D+00 0.000D+00 0.100D+01
 Coeff:      0.432D-02-0.921D-02 0.354D-01 0.176D+00 0.794D+00
 Gap=     0.474 Goal=   None    Shift=    0.000
 RMSDP=2.71D-04 MaxDP=4.84D-03 DE=-9.91D-03 OVMax= 4.92D-03

 Cycle   6  Pass 1  IDiag  1:
 E= -76.8622759788695     Delta-E=       -0.000259482862 Rises=F Damp=F
 DIIS: error= 1.34D-04 at cycle   6 NSaved=   6.
 NSaved= 6 IEnMin= 6 EnMin= -76.8622759788695     IErMin= 6 ErrMin= 1.34D-04
 ErrMax= 1.34D-04 EMaxC= 1.00D-01 BMatC= 4.87D-07 BMatP= 3.83D-04
 IDIUse=3 WtCom= 9.99D-01 WtEn= 1.34D-03
 Coeff-Com: -0.231D-05 0.422D-04-0.575D-02 0.362D-02 0.920D-01 0.910D+00
 Coeff-En:   0.000D+00 0.000D+00 0.000D+00 0.000D+00 0.000D+00 0.100D+01
 Coeff:     -0.231D-05 0.421D-04-0.574D-02 0.362D-02 0.918D-01 0.910D+00
 Gap=     0.474 Goal=   None    Shift=    0.000
 RMSDP=1.56D-05 MaxDP=1.00D-04 DE=-2.59D-04 OVMax= 2.15D-04

 Cycle   7  Pass 1  IDiag  1:
 E= -76.8622763946444     Delta-E=       -0.000000415775 Rises=F Damp=F
 DIIS: error= 1.05D-05 at cycle   7 NSaved=   7.
 NSaved= 7 IEnMin= 7 EnMin= -76.8622763946444     IErMin= 7 ErrMin= 1.05D-05
 ErrMax= 1.05D-05 EMaxC= 1.00D-01 BMatC= 4.13D-09 BMatP= 4.87D-07
 IDIUse=1 WtCom= 1.00D+00 WtEn= 0.00D+00
 Coeff-Com:  0.148D-04-0.134D-04 0.864D-05-0.107D-02-0.350D-02-0.130D-01
 Coeff-Com:  0.102D+01
 Coeff:      0.148D-04-0.134D-04 0.864D-05-0.107D-02-0.350D-02-0.130D-01
 Coeff:      0.102D+01
 Gap=     0.474 Goal=   None    Shift=    0.000
 RMSDP=1.37D-06 MaxDP=1.73D-05 DE=-4.16D-07 OVMax= 2.12D-05

 Cycle   8  Pass 1  IDiag  1:
 E= -76.8622763979946     Delta-E=       -0.000000003350 Rises=F Damp=F
 DIIS: error= 7.63D-07 at cycle   8 NSaved=   8.
 NSaved= 8 IEnMin= 8 EnMin= -76.8622763979946     IErMin= 8 ErrMin= 7.63D-07
 ErrMax= 7.63D-07 EMaxC= 1.00D-01 BMatC= 5.67D-12 BMatP= 4.13D-09
 IDIUse=1 WtCom= 1.00D+00 WtEn= 0.00D+00
 Coeff-Com:  0.177D-06-0.727D-06 0.930D-05 0.533D-04-0.459D-04-0.244D-02
 Coeff-Com: -0.528D-01 0.106D+01
 Coeff:      0.177D-06-0.727D-06 0.930D-05 0.533D-04-0.459D-04-0.244D-02
 Coeff:     -0.528D-01 0.106D+01
 Gap=     0.474 Goal=   None    Shift=    0.000
[...]
 Traceless Quadrupole moment (field-independent basis, Debye-Ang):
   XX=              1.1813   YY=              1.1795   ZZ=             -2.3609
   XY=              0.0003   XZ=             -0.0006   YZ=              0.0001
 Octapole moment (field-independent basis, Debye-Ang**2):
  XXX=             -1.6111  YYY=              0.2602  ZZZ=              1.1841  XYY=              1.6189
  XXY=             -0.2707  XXZ=              1.1919  XZZ=              0.0002  YZZ=             -0.0004
  YYZ=              1.1905  XYZ=              0.0005
 Hexadecapole moment (field-independent basis, Debye-Ang**3):
 XXXX=             -3.4781 YYYY=             -3.4773 ZZZZ=             -5.7323 XXXY=              0.0012
 XXXZ=             -0.4627 YYYX=             -0.0021 YYYZ=              0.0762 ZZZX=             -0.0009
 ZZZY=              0.0005 XXYY=             -1.1563 XXZZ=             -1.7084 YYZZ=             -1.7090
 XXYZ=             -0.0768 YYXZ=              0.4625 ZZXY=              0.0006
 N-N= 1.395298280456D+01 E-N=-2.044277765802D+02  KE= 7.599942681443D+01
  Exact polarizability:   6.922  -0.001   6.925   0.001  -0.002   5.403
 Approx polarizability:   7.229  -0.002   7.227   0.002  -0.002   5.348
 No NMR shielding tensors so no spin-rotation constants.
 Leave Link  601 at Tue Sep 17 19:16:33 2024, MaxMem=   13107200 cpu:       0.2
 (Enter /programs/64bit/g09/g09-gfortran/bin/l701.exe)
 Compute integral second derivatives.
 ... and contract with generalized density number  0.
 D2PCM: PCM CHGder 2nd derivatives, FixD1E=F FixD2E=F DoIter=F DoCFld=F I1PDM=0
 GePol: Maximum number of non-zero 2nd derivatives   =     151
 Leave Link  701 at Tue Sep 17 19:16:36 2024, MaxMem=   13107200 cpu:       2.4
 (Enter /programs/64bit/g09/g09-gfortran/bin/l702.exe)
 L702 exits ... SP integral derivatives will be done elsewhere.
 Leave Link  702 at Tue Sep 17 19:16:36 2024, MaxMem=   13107200 cpu:       0.0
 (Enter /programs/64bit/g09/g09-gfortran/bin/l703.exe)
 Compute integral second derivatives, UseDBF=F ICtDFT=           0.
 Integral derivatives from FoFDir, PRISM(SPDF).
 Calling FoFJK, ICntrl=    100127 FMM=F ISym2X=0 I1Cent= 0 IOpClX= 0 NMat=1 NMatS=1 NMatT=0.
 FoFCou: FMM=F IPFlag=           0 FMFlag=      100000 FMFlg1=         800
         NFxFlg=           0 DoJE=F BraDBF=F KetDBF=F FulRan=T
         Omega=  0.000000  0.000000  1.000000  0.000000  0.000000 ICntrl=  100127 IOpCl=  0
         NMat0=    1 NMatS0=    1 NMatT0=    0 NMatD0=    1 NMtDS0=    0 NMtDT0=    0
         I1Cent=           0 NGrid=           0.
 Symmetry not used in FoFCou.
 Leave Link  703 at Tue Sep 17 19:16:44 2024, MaxMem=   13107200 cpu:       7.6
 (Enter /programs/64bit/g09/g09-gfortran/bin/l716.exe)
 Dipole        = 1.60763180D-03-2.25272624D-03 8.27014893D-01
 Polarizability= 6.92209534D+00-9.89306681D-04 6.92514912D+00
                 1.01946391D-03-2.39419608D-03 5.40261084D+00
 Full mass-weighted force constant matrix:
 Low frequencies --- -354.2853    0.0019    0.0026    0.0030  154.5684  178.8024
 Low frequencies --- 1015.3251 1628.3930 1655.5642
 Diagonal vibrational polarizability:
        2.4847314       2.5178348      15.4616768
 Harmonic frequencies (cm**-1), IR intensities (KM/Mole), Raman scattering
 activities (A**4/AMU), depolarization ratios for plane and unpolarized
 incident light, reduced masses (AMU), force constants (mDyne/A),
 and normal coordinates:
                     1                      2                      3
                     A                      A                      A
 Frequencies --  1010.4885              1628.0652              1654.9386
 Red. masses --     1.1633                 1.0615                 1.0624
 Frc consts  --     0.6999                 1.6578                 1.7143
 IR Inten    --   580.5164               145.7584               148.5825
  Atom  AN      X      Y      Z        X      Y      Z        X      Y      Z
     1   8    -0.00   0.00   0.10    -0.01   0.06  -0.00     0.06   0.01   0.00
     2   1     0.11  -0.16  -0.53    -0.36  -0.08   0.21    -0.54  -0.43  -0.11
     3   1    -0.20  -0.02  -0.54     0.03  -0.77  -0.01     0.13  -0.04   0.23
     4   1     0.10   0.17  -0.54     0.43  -0.09  -0.18    -0.54   0.35  -0.13
                     4                      5                      6
                     A                      A                      A
 Frequencies --  3608.9825              3693.7808              3702.1593
 Red. masses --     1.0237                 1.0848                 1.0844
 Frc consts  --     7.8560                 8.7204                 8.7569
 IR Inten    --    80.6781               523.9103               521.8400
  Atom  AN      X      Y      Z        X      Y      Z        X      Y      Z
     1   8     0.00  -0.00   0.03    -0.04   0.06   0.00     0.06   0.04  -0.00
     2   1    -0.33   0.51  -0.19     0.39  -0.61   0.26     0.00   0.02  -0.01
     3   1     0.51   0.03  -0.16     0.40   0.03  -0.14    -0.69  -0.03   0.25
     4   1    -0.24  -0.48  -0.17    -0.21  -0.39  -0.16    -0.28  -0.57  -0.23

 -------------------
 - Thermochemistry -
 -------------------
 Temperature   298.150 Kelvin.  Pressure   1.00000 Atm.
 Atom     1 has atomic number  8 and mass  15.99491
 Atom     2 has atomic number  1 and mass   1.00783
 Atom     3 has atomic number  1 and mass   1.00783
 Atom     4 has atomic number  1 and mass   1.00783
 Molecular mass:    19.01839 amu.
 Principal axes and moments of inertia in atomic units:
                           1         2         3
     Eigenvalues --     5.60043   5.60333   9.16513
           X            1.00000   0.00019  -0.00008
           Y           -0.00019   1.00000   0.00007
           Z            0.00008  -0.00007   1.00000
 This molecule is an asymmetric top.
 Rotational symmetry number  1.
 Rotational temperatures (Kelvin)     15.46555    15.45757     9.45036
 Rotational constants (GHZ):         322.25020   322.08379   196.91379
 Zero-point vibrational energy      91504.8 (Joules/Mol)
                                   21.87018 (Kcal/Mol)
 Vibrational temperatures:   1453.87  2342.42  2381.08  5192.51  5314.52
          (Kelvin)           5326.57
 
 Zero-point correction=                           0.034852 (Hartree/Particle)
 Thermal correction to Energy=                    0.037726
 Thermal correction to Enthalpy=                  0.038670
 Thermal correction to Gibbs Free Energy=         0.015720
 Sum of electronic and zero-point Energies=            -76.827426
 Sum of electronic and thermal Energies=               -76.824553
 Sum of electronic and thermal Enthalpies=             -76.823609
 Sum of electronic and thermal Free Energies=          -76.846558
 
                     E (Thermal)             CV                S
                      KCal/Mol        Cal/Mol-Kelvin    Cal/Mol-Kelvin
 Total                   23.673              6.418             48.301
 Electronic               0.000              0.000              0.000
 Translational            0.889              2.981             34.771
 Rotational               0.889              2.981             13.428
 Vibrational             21.896              0.457              0.103
                       Q            Log10(Q)             Ln(Q)
 Total Bot       0.587720D-07         -7.230830        -16.649601
 Total V=0       0.631111D+09          8.800106         20.262992
 Vib (Bot)       0.939085D-16        -16.027295        -36.904211
 Vib (V=0)       0.100842D+01          0.003640          0.008382
 Electronic      0.100000D+01          0.000000          0.000000
 Translational   0.325999D+07          6.513216         14.997234
 Rotational      0.191977D+03          2.283250          5.257377
 
                                                               h3o+ gas
                                                             IR Spectrum
 
     33  3                                                                  11                    1                                  
     76  6                                                                  66                    0                                  
     09  0                                                                  52                    1                                  
     24  9                                                                  58                    0                                  
 
     XX  X                                                                  XX                    X                                  
     XX  X                                                                  XX                    X                                  
     XX  X                                                                  XX                    X                                  
     XX                                                                     XX                    X                                  
     XX                                                                     XX                    X                                  
     XX                                                                                           X                                  
     XX                                                                                           X                                  
     XX                                                                                           X                                  
     XX                                                                                           X                                  
     XX                                                                                           X                                  
     XX                                                                                           X                                  
     XX                                                                                           X                                  
     XX                                                                                           X                                  
     XX                                                                                           X                                  
     XX                                                                                           X                                  
     XX                                                                                           X                                  
     XX                                                                                           X                                  
     XX                                                                                           X                                  
                                                                                                  X                                  
                                                                                                  X                                  
 
 ***** Axes restored to original set *****
 -------------------------------------------------------------------
 Center     Atomic                   Forces (Hartrees/Bohr)
 Number     Number              X              Y              Z
 -------------------------------------------------------------------
      1        8           0.000348036    0.000290541    0.000416371
      2        1          -0.000267852   -0.000050054   -0.000350919
      3        1           0.000152132   -0.000483012    0.000131854
      4        1          -0.000232316    0.000242525   -0.000197306
 -------------------------------------------------------------------
 Cartesian Forces:  Max     0.000483012 RMS     0.000288942
 Force constants in Cartesian coordinates: 
                1             2             3             4             5 
      1  0.605188D+00
      2  0.188358D+00  0.379603D+00
      3 -0.791943D-01  0.136002D+00  0.657086D+00
      4 -0.579000D-01 -0.214601D-01 -0.175332D-01  0.522639D-01
      5 -0.217871D-01 -0.276704D-01  0.303070D-01  0.169131D-01  0.287116D-01
      6  0.425225D-02 -0.115186D-01 -0.463729D+00 -0.123211D-02  0.585172D-02
      7 -0.423734D+00 -0.177253D-01  0.138870D+00  0.373365D-02  0.296314D-02
      8  0.215239D-01 -0.225655D-01 -0.319500D-01  0.209824D-03 -0.185954D-02
      9  0.117238D+00 -0.174605D-01 -0.956119D-01  0.382704D-01 -0.786197D-03
     10 -0.123554D+00 -0.149173D+00 -0.421423D-01  0.190250D-02  0.191083D-02
     11 -0.188095D+00 -0.329367D+00 -0.134359D+00  0.433713D-02  0.818349D-03
     12 -0.422955D-01 -0.107023D+00 -0.977446D-01 -0.195051D-01 -0.353725D-01
                6             7             8             9            10 
      6  0.481994D+00
      7 -0.994141D-03  0.434482D+00
      8  0.293612D-02  0.105052D-01  0.224436D-01
      9 -0.894845D-02 -0.141359D+00  0.144000D-01  0.968393D-01
     10 -0.202600D-02 -0.144813D-01 -0.322389D-01 -0.141487D-01  0.136133D+00
     11  0.273079D-02  0.425701D-02  0.198146D-02  0.384671D-02  0.179501D+00
     12 -0.931586D-02  0.348358D-02  0.146139D-01  0.772106D-02  0.583170D-01
               11            12 
     11  0.326567D+00
     12  0.127782D+00  0.993394D-01
 Force constants in internal coordinates: 
                1             2             3             4             5 
      1  0.481576D+00
      2  0.204088D-02  0.485520D+00
      3  0.189409D-02  0.200590D-02  0.483966D+00
      4  0.362540D-02  0.515772D-02 -0.555174D-02  0.511976D-01
      5  0.135281D-01 -0.985718D-03  0.153920D-01 -0.400417D-01  0.114767D+00
      6 -0.798698D-03  0.107216D-01  0.115079D-01 -0.380445D-01 -0.228470D-01
      7 -0.117684D-01 -0.118621D-01 -0.891521D-02 -0.164389D-01 -0.513402D-02
                6             7 
      6  0.110360D+00
      7 -0.480404D-02  0.255937D-01
 Leave Link  716 at Tue Sep 17 19:16:44 2024, MaxMem=   13107200 cpu:       0.0
 (Enter /programs/64bit/g09/g09-gfortran/bin/l103.exe)

 GradGradGradGradGradGradGradGradGradGradGradGradGradGradGradGradGradGrad
 Berny optimization.
 Internal  Forces:  Max     0.000332640 RMS     0.000159178
 Search for a local minimum.
 Step number   1 out of a maximum of    2
 All quantities printed in internal units (Hartrees-Bohrs-Radians)
 Second derivative matrix not updated -- analytic derivatives used.
 The second derivative matrix:
                          R1        R2        R3        A1        A2
           R1           0.48158
           R2           0.00204   0.48552
           R3           0.00189   0.00201   0.48397
           A1           0.00363   0.00516  -0.00555   0.05120
           A2           0.01353  -0.00099   0.01539  -0.04004   0.11477
           A3          -0.00080   0.01072   0.01151  -0.03804  -0.02285
           D1          -0.01177  -0.01186  -0.00892  -0.01644  -0.00513
                          A3        D1
           A3           0.11036
           D1          -0.00480   0.02559
     Eigenvalues ---    0.03619   0.12733   0.13563   0.48072   0.48334
     Eigenvalues ---    0.489771000.00000
 Angle between quadratic step and forces=  37.64 degrees.
 Linear search not attempted -- first point.
 Iteration  1 RMS(Cart)=  0.00065118 RMS(Int)=  0.00000040
 Iteration  2 RMS(Cart)=  0.00000036 RMS(Int)=  0.00000009
 Variable       Old X    -DE/DX   Delta X   Delta X   Delta X     New X
                                 (Linear)    (Quad)   (Total)
    R1        1.85380  -0.00033   0.00000  -0.00070  -0.00070   1.85310
    R2        1.85194  -0.00003   0.00000  -0.00008  -0.00008   1.85185
    R3        1.85211   0.00009   0.00000   0.00025   0.00025   1.85236
    A1        1.90148   0.00015   0.00000   0.00142   0.00142   1.90290
    A2        1.90065  -0.00014   0.00000  -0.00086  -0.00086   1.89979
    A3        1.90268  -0.00013   0.00000  -0.00088  -0.00088   1.90180
    D1       -2.07258  -0.00003   0.00000  -0.00070  -0.00070  -2.07328
         Item               Value     Threshold  Converged?
 Maximum Force            0.000333     0.000450     YES
 RMS     Force            0.000159     0.000300     YES
 Maximum Displacement     0.000836     0.001800     YES
 RMS     Displacement     0.000651     0.001200     YES
 Predicted change in Energy=-3.559184D-07
 Optimization completed.
    -- Stationary point found.
                           ----------------------------
                           !   Optimized Parameters   !
                           ! (Angstroms and Degrees)  !
 --------------------------                            --------------------------
 ! Name  Definition              Value          Derivative Info.                !
 --------------------------------------------------------------------------------
 ! R1    R(1,2)                  0.981          -DE/DX =   -0.0003              !
 ! R2    R(1,3)                  0.98           -DE/DX =    0.0                 !
 ! R3    R(1,4)                  0.9801         -DE/DX =    0.0001              !
 ! A1    A(2,1,3)              108.947          -DE/DX =    0.0001              !
 ! A2    A(2,1,4)              108.8993         -DE/DX =   -0.0001              !
 ! A3    A(3,1,4)              109.0155         -DE/DX =   -0.0001              !
 ! D1    D(2,1,4,3)           -118.7502         -DE/DX =    0.0                 !
 --------------------------------------------------------------------------------
 GradGradGradGradGradGradGradGradGradGradGradGradGradGradGradGradGradGrad

 Leave Link  103 at Tue Sep 17 19:16:44 2024, MaxMem=   13107200 cpu:       0.0
 (Enter /programs/64bit/g09/g09-gfortran/bin/l9999.exe)
 1\1\GINC-MOLMOD\Freq\RB3LYP\6-31+G(d,p)\H3O1(1+)\OSPITE\17-Sep-2024\0\
 \#P Geom=AllCheck Guess=TCheck SCRF=Check GenChk RB3LYP/6-31+G(d,p) Fr
 eq\\h3o+ gas\\1,1\O,-0.0062955691,0.0111721038,-0.0050738089\H,-0.0022
 242182,0.0034972385,0.9758761817\H,0.9192287195,0.0037921685,-0.327185
 1061\H,-0.4628746374,-0.7941332627,-0.3269506\\Version=EM64L-G09RevA.0
 2\State=1-A\HF=-76.8622788\RMSD=8.439e-10\RMSF=2.889e-04\ZeroPoint=0.0
 348524\Thermal=0.0377257\Dipole=0.3895089,-0.6746025,0.277769\DipoleDe
 riv=-0.5603018,-0.0484245,0.016424,-0.0436174,-0.5079506,-0.0319176,0.
 0149868,-0.0311519,-0.5731237,0.4449718,-0.0310709,-0.0230906,-0.03176
 38,0.4817623,0.0379563,-0.0176151,0.028668,0.6228627,0.5886427,0.01758
 55,-0.0667491,0.0234437,0.4845453,-0.042174,-0.0706666,-0.0404764,0.47
 72316,0.5266872,0.0619098,0.0734158,0.0519374,0.541643,0.0361353,0.073
 2949,0.0429603,0.4730293\Polar=6.58384,0.5857448,5.9078098,-0.2369828,
 0.4124869,6.7582054\PG=C01 [X(H3O1)]\NImag=0\\0.60518808,0.18835836,0.
 37960289,-0.07919432,0.13600220,0.65708573,-0.05790004,-0.02146006,-0.
 01753317,0.05226388,-0.02178708,-0.02767038,0.03030696,0.01691311,0.02
 871157,0.00425225,-0.01151863,-0.46372930,-0.00123211,0.00585172,0.481
 99361,-0.42373406,-0.01772533,0.13886983,0.00373365,0.00296314,-0.0009
 9414,0.43448175,0.02152385,-0.02256555,-0.03195000,0.00020982,-0.00185
 954,0.00293612,0.01050518,0.02244363,0.11723757,-0.01746054,-0.0956118
 7,0.03827041,-0.00078620,-0.00894845,-0.14135927,0.01440003,0.09683926
 ,-0.12355398,-0.14917297,-0.04214234,0.00190250,0.00191083,-0.00202600
 ,-0.01448133,-0.03223885,-0.01414870,0.13613281,-0.18809513,-0.3293669
 7,-0.13435916,0.00433713,0.00081835,0.00273079,0.00425701,0.00198146,0
 .00384671,0.17950100,0.32656716,-0.04229550,-0.10702303,-0.09774456,-0
 .01950513,-0.03537249,-0.00931586,0.00348358,0.01461386,0.00772106,0.0
 5831705,0.12778166,0.09933935\\-0.00034804,-0.00029054,-0.00041637,0.0
 0026785,0.00005005,0.00035092,-0.00015213,0.00048301,-0.00013185,0.000
 23232,-0.00024252,0.00019731\\\@


 OPTIMIST - A PESSIMIST WHO LACKS EXPERIENCE
 Job cpu time:  0 days  0 hours  0 minutes 28.5 seconds.
 File lengths (MBytes):  RWF=     10 Int=      0 D2E=      0 Chk=      2 Scr=      1
 Normal termination of Gaussian 09 at Tue Sep 17 19:16:44 2024.
