 Entering Gaussian System, Link 0=/programs/64bit/g09/g09-gfortran/bin/g09
 Input=ch4_opt.com
 Output=ch4_opt.log
 Initial command:
 /programs/64bit/g09/g09-gfortran/bin/l1.exe /home/ospite/Desktop/MMfP/Project2/ch4/Gau-8091.inp -scrdir=/home/ospite/Desktop/MMfP/Project2/ch4/
 Entering Link 1 = /programs/64bit/g09/g09-gfortran/bin/l1.exe PID=      8092.
  
 Copyright (c) 1988,1990,1992,1993,1995,1998,2003,2009, Gaussian, Inc.
                  All Rights Reserved.
  
 This is part of the Gaussian(R) 09 program.  It is based on
 the Gaussian(R) 03 system (copyright 2003, Gaussian, Inc.),
 the Gaussian(R) 98 system (copyright 1998, Gaussian, Inc.),
 the Gaussian(R) 94 system (copyright 1995, Gaussian, Inc.),
 the Gaussian 92(TM) system (copyright 1992, Gaussian, Inc.),
 the Gaussian 90(TM) system (copyright 1990, Gaussian, Inc.),
 the Gaussian 88(TM) system (copyright 1988, Gaussian, Inc.),
 the Gaussian 86(TM) system (copyright 1986, Carnegie Mellon
 University), and the Gaussian 82(TM) system (copyright 1983,
 Carnegie Mellon University). Gaussian is a federally registered
 trademark of Gaussian, Inc.
  
 This software contains proprietary and confidential information,
 including trade secrets, belonging to Gaussian, Inc.
  
 This software is provided under written license and may be
 used, copied, transmitted, or stored only in accord with that
 written license.
  
 The following legend is applicable only to US Government
 contracts under FAR:
  
                    RESTRICTED RIGHTS LEGEND
  
 Use, reproduction and disclosure by the US Government is
 subject to restrictions as set forth in subparagraphs (a)
 and (c) of the Commercial Computer Software - Restricted
 Rights clause in FAR 52.227-19.
  
 Gaussian, Inc.
 340 Quinnipiac St., Bldg. 40, Wallingford CT 06492
  
  
 ---------------------------------------------------------------
 Warning -- This program may not be used in any manner that
 competes with the business of Gaussian, Inc. or will provide
 assistance to any competitor of Gaussian, Inc.  The licensee
 of this program is prohibited from giving any competitor of
 Gaussian, Inc. access to this program.  By using this program,
 the user acknowledges that Gaussian, Inc. is engaged in the
 business of creating and licensing software in the field of
 computational chemistry and represents and warrants to the
 licensee that it is not a competitor of Gaussian, Inc. and that
 it will not use this program in any manner prohibited above.
 ---------------------------------------------------------------
  

 Cite this work as:
 Gaussian 09, Revision A.02,
 M. J. Frisch, G. W. Trucks, H. B. Schlegel, G. E. Scuseria, 
 M. A. Robb, J. R. Cheeseman, G. Scalmani, V. Barone, B. Mennucci, 
 G. A. Petersson, H. Nakatsuji, M. Caricato, X. Li, H. P. Hratchian, 
 A. F. Izmaylov, J. Bloino, G. Zheng, J. L. Sonnenberg, M. Hada, 
 M. Ehara, K. Toyota, R. Fukuda, J. Hasegawa, M. Ishida, T. Nakajima, 
 Y. Honda, O. Kitao, H. Nakai, T. Vreven, J. A. Montgomery, Jr., 
 J. E. Peralta, F. Ogliaro, M. Bearpark, J. J. Heyd, E. Brothers, 
 K. N. Kudin, V. N. Staroverov, R. Kobayashi, J. Normand, 
 K. Raghavachari, A. Rendell, J. C. Burant, S. S. Iyengar, J. Tomasi, 
 M. Cossi, N. Rega, J. M. Millam, M. Klene, J. E. Knox, J. B. Cross, 
 V. Bakken, C. Adamo, J. Jaramillo, R. Gomperts, R. E. Stratmann, 
 O. Yazyev, A. J. Austin, R. Cammi, C. Pomelli, J. W. Ochterski, 
 R. L. Martin, K. Morokuma, V. G. Zakrzewski, G. A. Voth, 
 P. Salvador, J. J. Dannenberg, S. Dapprich, A. D. Daniels, 
 O. Farkas, J. B. Foresman, J. V. Ortiz, J. Cioslowski, 
 and D. J. Fox, Gaussian, Inc., Wallingford CT, 2009.
 
 ******************************************
 Gaussian 09:  EM64L-G09RevA.02 11-Jun-2009
                14-Aug-2024 
 ******************************************
 %chk=tmp
 %mem=100MB
 ----------------------------------------------
 #p B3LYP/6-31+g(d,p) opt freq pop=full gfinput
 ----------------------------------------------
 1/14=-1,18=20,19=15,26=3,38=1/1,3;
 2/9=110,12=2,17=6,18=5,40=1/2;
 3/5=1,6=6,7=111,11=2,16=1,24=10,25=1,30=1,71=1,74=-5/1,2,3;
 4//1;
 5/5=2,38=5/2;
 6/7=3,28=1/1;
 7//1,2,3,16;
 1/14=-1,18=20,19=15/3(2);
 2/9=110/2;
 99//99;
 2/9=110/2;
 3/5=1,6=6,7=111,11=2,16=1,25=1,30=1,71=1,74=-5/1,2,3;
 4/5=5,16=3/1;
 5/5=2,38=5/2;
 7//1,2,3,16;
 1/14=-1,18=20,19=15/3(-5);
 2/9=110/2;
 6/7=3,19=2,28=1/1;
 99/9=1/99;
 Leave Link    1 at Wed Aug 14 23:13:15 2024, MaxMem=   13107200 cpu:       0.1
 (Enter /programs/64bit/g09/g09-gfortran/bin/l101.exe)
 -------
 methane
 -------
 Symbolic Z-matrix:
 Charge =  0 Multiplicity = 1
 C1
 H1                   1    d
 H2                   1    d        2    a
 H4                   1    d        2    a        3    t1       0
 H5                   1    d        2    a        3    -t1      0
       Variables:
  d                     1.09                     
  a                   109.5                      
  t1                  120.                       
 
 NAtoms=      5 NQM=      5 NQMF=      0 NMic=      0 NMicF=      0 NTot=      5.
                    Isotopes and Nuclear Properties:
 (Nuclear quadrupole moments (NQMom) in fm**2, nuclear magnetic moments (NMagM)
  in nuclear magnetons)

  Atom         1           2           3           4           5
 IAtWgt=          12           1           1           1           1
 AtmWgt=  12.0000000   1.0078250   1.0078250   1.0078250   1.0078250
 NucSpn=           0           1           1           1           1
 AtZEff=   0.0000000   0.0000000   0.0000000   0.0000000   0.0000000
 NQMom=    0.0000000   0.0000000   0.0000000   0.0000000   0.0000000
 NMagM=    0.0000000   2.7928460   2.7928460   2.7928460   2.7928460
 Leave Link  101 at Wed Aug 14 23:13:16 2024, MaxMem=   13107200 cpu:       0.2
 (Enter /programs/64bit/g09/g09-gfortran/bin/l103.exe)

 GradGradGradGradGradGradGradGradGradGradGradGradGradGradGradGradGradGrad
 Berny optimization.
 Initialization pass.
                           ----------------------------
                           !    Initial Parameters    !
                           ! (Angstroms and Degrees)  !
 --------------------------                            --------------------------
 ! Name  Definition              Value          Derivative Info.                !
 --------------------------------------------------------------------------------
 ! R1    R(1,2)                  1.09           estimate D2E/DX2                !
 ! R2    R(1,3)                  1.09           estimate D2E/DX2                !
 ! R3    R(1,4)                  1.09           estimate D2E/DX2                !
 ! R4    R(1,5)                  1.09           estimate D2E/DX2                !
 ! A1    A(2,1,3)              109.5            estimate D2E/DX2                !
 ! A2    A(2,1,4)              109.5            estimate D2E/DX2                !
 ! A3    A(2,1,5)              109.5            estimate D2E/DX2                !
 ! A4    A(3,1,4)              109.4424         estimate D2E/DX2                !
 ! A5    A(3,1,5)              109.4424         estimate D2E/DX2                !
 ! A6    A(4,1,5)              109.4424         estimate D2E/DX2                !
 ! D1    D(2,1,4,3)           -120.0352         estimate D2E/DX2                !
 ! D2    D(2,1,5,3)            120.0352         estimate D2E/DX2                !
 ! D3    D(2,1,5,4)           -120.0352         estimate D2E/DX2                !
 ! D4    D(3,1,5,4)            119.9295         estimate D2E/DX2                !
 --------------------------------------------------------------------------------
 Trust Radius=3.00D-01 FncErr=1.00D-07 GrdErr=1.00D-06
 Number of steps in this run=  24 maximum allowed number of steps= 100.
 GradGradGradGradGradGradGradGradGradGradGradGradGradGradGradGradGradGrad

 Leave Link  103 at Wed Aug 14 23:13:16 2024, MaxMem=   13107200 cpu:       0.0
 (Enter /programs/64bit/g09/g09-gfortran/bin/l202.exe)
                          Input orientation:                          
 ---------------------------------------------------------------------
 Center     Atomic      Atomic             Coordinates (Angstroms)
 Number     Number       Type             X           Y           Z
 ---------------------------------------------------------------------
      1          6           0        0.000000    0.000000    0.000000
      2          1           0        0.000000    0.000000    1.090000
      3          1           0        1.027479    0.000000   -0.363849
      4          1           0       -0.513740   -0.889823   -0.363849
      5          1           0       -0.513740    0.889823   -0.363849
 ---------------------------------------------------------------------
                    Distance matrix (angstroms):
                    1          2          3          4          5
     1  C    0.000000
     2  H    1.090000   0.000000
     3  H    1.090000   1.780279   0.000000
     4  H    1.090000   1.780279   1.779646   0.000000
     5  H    1.090000   1.780279   1.779646   1.779646   0.000000
 Stoichiometry    CH4
 Framework group  C3V[C3(CH),3SGV(H)]
 Deg. of freedom     3
 Full point group                 C3V     NOp   6
 Largest Abelian subgroup         CS      NOp   2
 Largest concise Abelian subgroup CS      NOp   2
                         Standard orientation:                         
 ---------------------------------------------------------------------
 Center     Atomic      Atomic             Coordinates (Angstroms)
 Number     Number       Type             X           Y           Z
 ---------------------------------------------------------------------
      1          6           0        0.000000    0.000000    0.000155
      2          1           0        0.000000    0.000000    1.090155
      3          1           0        0.000000    1.027479   -0.363695
      4          1           0        0.889823   -0.513740   -0.363695
      5          1           0       -0.889823   -0.513740   -0.363695
 ---------------------------------------------------------------------
 Rotational constants (GHZ):    158.3305422    158.2461595    158.2461595
 Leave Link  202 at Wed Aug 14 23:13:16 2024, MaxMem=   13107200 cpu:       0.0
 (Enter /programs/64bit/g09/g09-gfortran/bin/l301.exe)
 Standard basis: 6-31+G(d,p) (6D, 7F)
 Ernie: Thresh=  0.10000D-02 Tol=  0.10000D-05 Strict=F.
 AO basis set in the form of general basis input (Overlap normalization):
      1 0
 S   6 1.00       0.000000000000
      0.3047524880D+04  0.1834737132D-02
      0.4573695180D+03  0.1403732281D-01
      0.1039486850D+03  0.6884262226D-01
      0.2921015530D+02  0.2321844432D+00
      0.9286662960D+01  0.4679413484D+00
      0.3163926960D+01  0.3623119853D+00
 SP   3 1.00       0.000000000000
      0.7868272350D+01 -0.1193324198D+00  0.6899906659D-01
      0.1881288540D+01 -0.1608541517D+00  0.3164239610D+00
      0.5442492580D+00  0.1143456438D+01  0.7443082909D+00
 SP   1 1.00       0.000000000000
      0.1687144782D+00  0.1000000000D+01  0.1000000000D+01
 SP   1 1.00       0.000000000000
      0.4380000000D-01  0.1000000000D+01  0.1000000000D+01
 D   1 1.00       0.000000000000
      0.8000000000D+00  0.1000000000D+01
 ****
      2 0
 S   3 1.00       0.000000000000
      0.1873113696D+02  0.3349460434D-01
      0.2825394365D+01  0.2347269535D+00
      0.6401216923D+00  0.8137573261D+00
 S   1 1.00       0.000000000000
      0.1612777588D+00  0.1000000000D+01
 P   1 1.00       0.000000000000
      0.1100000000D+01  0.1000000000D+01
 ****
      3 0
 S   3 1.00       0.000000000000
      0.1873113696D+02  0.3349460434D-01
      0.2825394365D+01  0.2347269535D+00
      0.6401216923D+00  0.8137573261D+00
 S   1 1.00       0.000000000000
      0.1612777588D+00  0.1000000000D+01
 P   1 1.00       0.000000000000
      0.1100000000D+01  0.1000000000D+01
 ****
      4 0
 S   3 1.00       0.000000000000
      0.1873113696D+02  0.3349460434D-01
      0.2825394365D+01  0.2347269535D+00
      0.6401216923D+00  0.8137573261D+00
 S   1 1.00       0.000000000000
      0.1612777588D+00  0.1000000000D+01
 P   1 1.00       0.000000000000
      0.1100000000D+01  0.1000000000D+01
 ****
      5 0
 S   3 1.00       0.000000000000
      0.1873113696D+02  0.3349460434D-01
      0.2825394365D+01  0.2347269535D+00
      0.6401216923D+00  0.8137573261D+00
 S   1 1.00       0.000000000000
      0.1612777588D+00  0.1000000000D+01
 P   1 1.00       0.000000000000
      0.1100000000D+01  0.1000000000D+01
 ****

 There are    27 symmetry adapted basis functions of A'  symmetry.
 There are    12 symmetry adapted basis functions of A"  symmetry.
 Integral buffers will be    131072 words long.
 Raffenetti 2 integral format.
 Two-electron integral symmetry is turned on.
    39 basis functions,    60 primitive gaussians,    39 cartesian basis functions
     5 alpha electrons        5 beta electrons
       nuclear repulsion energy        13.4353893923 Hartrees.
 IExCor=  402 DFT=T Ex+Corr=B3LYP ExCW=0 ScaHFX=  0.200000
 ScaDFX=  0.800000  0.720000  1.000000  0.810000 ScalE2=  1.000000  1.000000
 IRadAn=      0 IRanWt=     -1 IRanGd=            0 ICorTp=0
 NAtoms=    5 NActive=    5 NUniq=    3 SFac= 2.08D+00 NAtFMM=   80 NAOKFM=F Big=F
 Leave Link  301 at Wed Aug 14 23:13:16 2024, MaxMem=   13107200 cpu:       0.1
 (Enter /programs/64bit/g09/g09-gfortran/bin/l302.exe)
 NPDir=0 NMtPBC=     1 NCelOv=     1 NCel=       1 NClECP=     1 NCelD=      1
         NCelK=      1 NCelE2=     1 NClLst=     1 CellRange=     0.0.
 One-electron integrals computed using PRISM.
 One-electron integral symmetry used in STVInt
 NBasis=    39 RedAO= T  NBF=    27    12
 NBsUse=    39 1.00D-06 NBFU=    27    12
 Precomputing XC quadrature grid using
 IXCGrd= 2 IRadAn=           0 IRanWt=          -1 IRanGd=           0 AccXCQ= 1.00D-10.
 NRdTot=     319 NPtTot=       40572 NUsed=       42883 NTot=       42915
 NSgBfM=    39    39    39    39    39 NAtAll=     5     5.
 Leave Link  302 at Wed Aug 14 23:13:16 2024, MaxMem=   13107200 cpu:       0.2
 (Enter /programs/64bit/g09/g09-gfortran/bin/l303.exe)
 DipDrv:  MaxL=1.
 Leave Link  303 at Wed Aug 14 23:13:16 2024, MaxMem=   13107200 cpu:       0.1
 (Enter /programs/64bit/g09/g09-gfortran/bin/l401.exe)
 Harris functional with IExCor=  402 diagonalized for initial guess.
 ExpMin= 4.38D-02 ExpMax= 3.05D+03 ExpMxC= 4.57D+02 IAcc=2 IRadAn=         0 AccDes= 0.00D+00
 HarFok:  IExCor=  402 AccDes= 0.00D+00 IRadAn=         0 IDoV= 1
 ScaDFX=  1.000000  1.000000  1.000000  1.000000
 FoFCou: FMM=F IPFlag=           0 FMFlag=      100000 FMFlg1=           0
         NFxFlg=           0 DoJE=T BraDBF=F KetDBF=T FulRan=T
         Omega=  0.000000  0.000000  1.000000  0.000000  0.000000 ICntrl=     500 IOpCl=  0
         NMat0=    1 NMatS0=    1 NMatT0=    0 NMatD0=    1 NMtDS0=    0 NMtDT0=    0
         I1Cent=           4 NGrid=           0.
 Petite list used in FoFCou.
 Harris En= -40.5734784906267    
 Initial guess orbital symmetries:
       Occupied  (A1) (A1) (A1) (E) (E)
       Virtual   (A1) (A1) (E) (E) (E) (E) (A1) (A1) (A1) (E) (E)
                 (E) (E) (A1) (A1) (A1) (E) (E) (E) (E) (A2) (A1)
                 (E) (E) (E) (E) (A1) (E) (E) (A1) (A1) (E) (E)
                 (A1)
 The electronic state of the initial guess is 1-A1.
 Leave Link  401 at Wed Aug 14 23:13:17 2024, MaxMem=   13107200 cpu:       0.6
 (Enter /programs/64bit/g09/g09-gfortran/bin/l502.exe)
 Closed shell SCF:
 Requested convergence on RMS density matrix=1.00D-08 within 128 cycles.
 Requested convergence on MAX density matrix=1.00D-06.
 Requested convergence on             energy=1.00D-06.
 No special actions if energy rises.
 Using DIIS extrapolation, IDIIS=  1040.
 Integral symmetry usage will be decided dynamically.
        42825 words used for storage of precomputed grid.
 Keep R1 ints in memory in canonical form, NReq=1230048.
 IEnd=       66192 IEndB=       66192 NGot=    13107200 MDV=    12754591
 LenX=    12754591 LenY=    12752629
 Symmetry not used in FoFDir.
 MinBra= 0 MaxBra= 2 Meth= 1.
 IRaf=       0 NMat=   1 IRICut=       1 DoRegI=T DoRafI=F ISym2E= 0 JSym2E=0.

 Cycle   1  Pass 1  IDiag  1:
 E= -40.4314910036241    
 DIIS: error= 5.00D-02 at cycle   1 NSaved=   1.
 NSaved= 1 IEnMin= 1 EnMin= -40.4314910036241     IErMin= 1 ErrMin= 5.00D-02
 ErrMax= 5.00D-02 EMaxC= 1.00D-01 BMatC= 8.61D-02 BMatP= 8.61D-02
 IDIUse=3 WtCom= 5.00D-01 WtEn= 5.00D-01
 Coeff-Com:  0.100D+01
 Coeff-En:   0.100D+01
 Coeff:      0.100D+01
 Gap=     0.309 Goal=   None    Shift=    0.000
 GapD=    0.309 DampG=1.000 DampE=0.500 DampFc=0.5000 IDamp=-1.
 Damping current iteration by 5.00D-01
 RMSDP=1.22D-02 MaxDP=1.53D-01              OVMax= 2.07D-01

 Cycle   2  Pass 1  IDiag  1:
 E= -40.4738928463661     Delta-E=       -0.042401842742 Rises=F Damp=T
 DIIS: error= 1.15D-02 at cycle   2 NSaved=   2.
 NSaved= 2 IEnMin= 2 EnMin= -40.4738928463661     IErMin= 2 ErrMin= 1.15D-02
 ErrMax= 1.15D-02 EMaxC= 1.00D-01 BMatC= 1.93D-03 BMatP= 8.61D-02
 IDIUse=3 WtCom= 8.85D-01 WtEn= 1.15D-01
 Coeff-Com:  0.840D-01 0.916D+00
 Coeff-En:   0.140D+00 0.860D+00
 Coeff:      0.904D-01 0.910D+00
 Gap=     0.402 Goal=   None    Shift=    0.000
 RMSDP=1.10D-03 MaxDP=8.32D-03 DE=-4.24D-02 OVMax= 1.10D-01

 Cycle   3  Pass 1  IDiag  1:
 E= -40.5261116022533     Delta-E=       -0.052218755887 Rises=F Damp=F
 DIIS: error= 5.25D-04 at cycle   3 NSaved=   3.
 NSaved= 3 IEnMin= 3 EnMin= -40.5261116022533     IErMin= 3 ErrMin= 5.25D-04
 ErrMax= 5.25D-04 EMaxC= 1.00D-01 BMatC= 1.01D-05 BMatP= 1.93D-03
 IDIUse=3 WtCom= 9.95D-01 WtEn= 5.25D-03
 Coeff-Com:  0.675D-02-0.357D-01 0.103D+01
 Coeff-En:   0.000D+00 0.000D+00 0.100D+01
 Coeff:      0.671D-02-0.355D-01 0.103D+01
 Gap=     0.410 Goal=   None    Shift=    0.000
 RMSDP=5.30D-05 MaxDP=1.01D-03 DE=-5.22D-02 OVMax= 6.38D-04

 Cycle   4  Pass 1  IDiag  1:
 E= -40.5261192420454     Delta-E=       -0.000007639792 Rises=F Damp=F
 DIIS: error= 7.45D-05 at cycle   4 NSaved=   4.
 NSaved= 4 IEnMin= 4 EnMin= -40.5261192420454     IErMin= 4 ErrMin= 7.45D-05
 ErrMax= 7.45D-05 EMaxC= 1.00D-01 BMatC= 1.58D-07 BMatP= 1.01D-05
 IDIUse=1 WtCom= 1.00D+00 WtEn= 0.00D+00
 Coeff-Com:  0.150D-02-0.123D-02 0.345D-01 0.965D+00
 Coeff:      0.150D-02-0.123D-02 0.345D-01 0.965D+00
 Gap=     0.410 Goal=   None    Shift=    0.000
 RMSDP=7.13D-06 MaxDP=8.52D-05 DE=-7.64D-06 OVMax= 1.37D-04

 Cycle   5  Pass 1  IDiag  1:
 E= -40.5261194241292     Delta-E=       -0.000000182084 Rises=F Damp=F
 DIIS: error= 1.56D-06 at cycle   5 NSaved=   5.
 NSaved= 5 IEnMin= 5 EnMin= -40.5261194241292     IErMin= 5 ErrMin= 1.56D-06
 ErrMax= 1.56D-06 EMaxC= 1.00D-01 BMatC= 8.02D-11 BMatP= 1.58D-07
 IDIUse=1 WtCom= 1.00D+00 WtEn= 0.00D+00
 Coeff-Com: -0.186D-04 0.370D-04-0.451D-02 0.425D-02 0.100D+01
 Coeff:     -0.186D-04 0.370D-04-0.451D-02 0.425D-02 0.100D+01
 Gap=     0.410 Goal=   None    Shift=    0.000
 RMSDP=3.95D-07 MaxDP=3.81D-06 DE=-1.82D-07 OVMax= 2.97D-06

 Cycle   6  Pass 1  IDiag  1:
 E= -40.5261194242055     Delta-E=       -0.000000000076 Rises=F Damp=F
 DIIS: error= 2.65D-07 at cycle   6 NSaved=   6.
 NSaved= 6 IEnMin= 6 EnMin= -40.5261194242055     IErMin= 6 ErrMin= 2.65D-07
 ErrMax= 2.65D-07 EMaxC= 1.00D-01 BMatC= 1.82D-12 BMatP= 8.02D-11
 IDIUse=1 WtCom= 1.00D+00 WtEn= 0.00D+00
 Coeff-Com: -0.383D-05 0.262D-05-0.669D-03-0.145D-02 0.136D+00 0.866D+00
 Coeff:     -0.383D-05 0.262D-05-0.669D-03-0.145D-02 0.136D+00 0.866D+00
 Gap=     0.410 Goal=   None    Shift=    0.000
 RMSDP=4.10D-08 MaxDP=4.30D-07 DE=-7.63D-11 OVMax= 7.98D-07

 Cycle   7  Pass 1  IDiag  1:
 E= -40.5261194242074     Delta-E=       -0.000000000002 Rises=F Damp=F
 DIIS: error= 4.88D-08 at cycle   7 NSaved=   7.
 NSaved= 7 IEnMin= 7 EnMin= -40.5261194242074     IErMin= 7 ErrMin= 4.88D-08
 ErrMax= 4.88D-08 EMaxC= 1.00D-01 BMatC= 1.15D-13 BMatP= 1.82D-12
 IDIUse=1 WtCom= 1.00D+00 WtEn= 0.00D+00
 Coeff-Com:  0.490D-06-0.193D-05 0.731D-04-0.502D-03-0.177D-01 0.184D+00
 Coeff-Com:  0.835D+00
 Coeff:      0.490D-06-0.193D-05 0.731D-04-0.502D-03-0.177D-01 0.184D+00
 Coeff:      0.835D+00
 Gap=     0.410 Goal=   None    Shift=    0.000
 RMSDP=8.78D-09 MaxDP=6.65D-08 DE=-1.86D-12 OVMax= 1.38D-07

 SCF Done:  E(RB3LYP) =  -40.5261194242     A.U. after    7 cycles
             Convg  =    0.8776D-08             -V/T =  2.0112
 KE= 4.007912649396D+01 PE=-1.198811313296D+02 EE= 2.584049601906D+01
 Leave Link  502 at Wed Aug 14 23:13:20 2024, MaxMem=   13107200 cpu:       2.8
 (Enter /programs/64bit/g09/g09-gfortran/bin/l601.exe)
 Copying SCF densities to generalized density rwf, IOpCl= 0 IROHF=0.

 **********************************************************************

            Population analysis using the SCF density.

 **********************************************************************

 Orbital symmetries:
       Occupied  (A1) (A1) (A1) (E) (E)
       Virtual   (A1) (A1) (E) (E) (E) (E) (A1) (A1) (A1) (E) (E)
                 (E) (E) (A1) (A1) (A1) (E) (E) (E) (E) (A2) (A1)
                 (E) (E) (E) (E) (A1) (E) (E) (A1) (A1) (E) (E)
                 (A1)
 The electronic state is 1-A1.
 Alpha  occ. eigenvalues --  -10.17141  -0.69675  -0.39434  -0.39420  -0.39420
 Alpha virt. eigenvalues --    0.01613   0.06112   0.06114   0.06114   0.18206
 Alpha virt. eigenvalues --    0.18206   0.18215   0.27844   0.63770   0.63772
 Alpha virt. eigenvalues --    0.63772   0.91106   0.91106   0.91126   1.05306
 Alpha virt. eigenvalues --    1.11513   1.35728   1.35728   2.04351   2.04351
 Alpha virt. eigenvalues --    2.04371   2.08800   2.08847   2.08847   2.62714
 Alpha virt. eigenvalues --    2.62714   2.62815   2.91026   2.91026   3.17285
 Alpha virt. eigenvalues --    3.41844   3.41868   3.41868   4.41911
     Molecular Orbital Coefficients:
                           1         2         3         4         5
                        (A1)--O   (A1)--O   (A1)--O   (E)--O    (E)--O
     Eigenvalues --   -10.17141  -0.69675  -0.39434  -0.39420  -0.39420
   1 1   C  1S          0.99284  -0.19987  -0.00006   0.00000   0.00000
   2        2S          0.04976   0.38607   0.00014   0.00000   0.00000
   3        2PX         0.00000   0.00000   0.00000   0.00000   0.44504
   4        2PY        -0.00000   0.00000  -0.00000   0.44504   0.00000
   5        2PZ        -0.00000  -0.00012   0.44502   0.00000   0.00000
   6        3S         -0.01541   0.35889   0.00015  -0.00000   0.00000
   7        3PX         0.00000   0.00000   0.00000   0.00000   0.19698
   8        3PY         0.00000  -0.00000  -0.00000   0.19698   0.00000
   9        3PZ         0.00000  -0.00006   0.19694   0.00000   0.00000
  10        4S         -0.00063   0.01535   0.00002  -0.00000   0.00000
  11        4PX         0.00000   0.00000   0.00000   0.00000   0.03644
  12        4PY         0.00000   0.00000  -0.00000   0.03644   0.00000
  13        4PZ         0.00000  -0.00001   0.03641   0.00000   0.00000
  14        5XX        -0.00916  -0.00954  -0.01144  -0.01617   0.00000
  15        5YY        -0.00916  -0.00954  -0.01144   0.01617   0.00000
  16        5ZZ        -0.00916  -0.00953   0.02286   0.00000   0.00000
  17        5XY         0.00000   0.00000   0.00000   0.00000  -0.01868
  18        5XZ         0.00000   0.00000   0.00000   0.00000  -0.01324
  19        5YZ        -0.00000  -0.00000   0.00000  -0.01324   0.00000
  20 2   H  1S         -0.00026   0.13862   0.29778   0.00000   0.00000
  21        2S          0.00300   0.03587   0.23700   0.00000   0.00000
  22        3PX         0.00000   0.00000   0.00000   0.00000   0.00861
  23        3PY        -0.00000   0.00000  -0.00000   0.00861   0.00000
  24        3PZ         0.00015  -0.01298  -0.00693  -0.00000   0.00000
  25 3   H  1S         -0.00026   0.13867  -0.09927   0.28073   0.00000
  26        2S          0.00300   0.03587  -0.07899   0.22356   0.00000
  27        3PX         0.00000   0.00000   0.00000   0.00000   0.00861
  28        3PY         0.00014  -0.01224   0.00488  -0.00519   0.00000
  29        3PZ        -0.00005   0.00433   0.00688   0.00488   0.00000
  30 4   H  1S         -0.00026   0.13867  -0.09927  -0.14037   0.24312
  31        2S          0.00300   0.03587  -0.07899  -0.11178   0.19361
  32        3PX         0.00012  -0.01060   0.00423   0.00598  -0.00174
  33        3PY        -0.00007   0.00612  -0.00244   0.00516   0.00598
  34        3PZ        -0.00005   0.00433   0.00688  -0.00244   0.00423
  35 5   H  1S         -0.00026   0.13867  -0.09927  -0.14037  -0.24312
  36        2S          0.00300   0.03587  -0.07899  -0.11178  -0.19361
  37        3PX        -0.00012   0.01060  -0.00423  -0.00598  -0.00174
  38        3PY        -0.00007   0.00612  -0.00244   0.00516  -0.00598
  39        3PZ        -0.00005   0.00433   0.00688  -0.00244  -0.00423
                           6         7         8         9        10
                        (A1)--V   (A1)--V   (E)--V    (E)--V    (E)--V
     Eigenvalues --     0.01613   0.06112   0.06114   0.06114   0.18206
   1 1   C  1S          0.08938   0.00004  -0.00000   0.00000   0.00000
   2        2S         -0.18219  -0.00005  -0.00000   0.00000   0.00000
   3        2PX         0.00000   0.00000   0.00000  -0.17989   0.00000
   4        2PY        -0.00000  -0.00000  -0.17989   0.00000  -0.32175
   5        2PZ         0.00009  -0.17994   0.00000   0.00000  -0.00000
   6        3S         -0.61816  -0.00037   0.00000   0.00000  -0.00000
   7        3PX         0.00000   0.00000   0.00000  -0.17625   0.00000
   8        3PY        -0.00000  -0.00000  -0.17625   0.00000  -1.39570
   9        3PZ        -0.00016  -0.17620   0.00000   0.00000  -0.00000
  10        4S          1.48725   0.00058   0.00000   0.00000  -0.00000
  11        4PX         0.00000   0.00000   0.00000   1.17747   0.00000
  12        4PY        -0.00000   0.00000   1.17747   0.00000  -0.31280
  13        4PZ        -0.00052   1.17748  -0.00000   0.00000  -0.00000
  14        5XX         0.01200   0.00571   0.00806   0.00000  -0.01980
  15        5YY         0.01200   0.00571  -0.00806   0.00000   0.01980
  16        5ZZ         0.01200  -0.01138   0.00000   0.00000   0.00000
  17        5XY         0.00000   0.00000   0.00000   0.00931   0.00000
  18        5XZ         0.00000   0.00000   0.00000   0.00660   0.00000
  19        5YZ         0.00000   0.00000   0.00660   0.00000  -0.01619
  20 2   H  1S          0.01178  -0.05654   0.00000   0.00000   0.00000
  21        2S         -0.09576  -0.24067   0.00000   0.00000   0.00000
  22        3PX         0.00000   0.00000   0.00000   0.00271   0.00000
  23        3PY         0.00000   0.00000   0.00271   0.00000  -0.01355
  24        3PZ         0.01333   0.01040  -0.00000   0.00000   0.00000
  25 3   H  1S          0.01174   0.01884  -0.05335   0.00000   0.16446
  26        2S         -0.09615   0.08023  -0.22697   0.00000   1.87452
  27        3PX         0.00000   0.00000   0.00000   0.00270   0.00000
  28        3PY         0.01258  -0.00242   0.00953   0.00000  -0.00067
  29        3PZ        -0.00445   0.00356  -0.00242   0.00000  -0.00455
  30 4   H  1S          0.01174   0.01884   0.02667  -0.04620  -0.08223
  31        2S         -0.09615   0.08023   0.11348  -0.19656  -0.93726
  32        3PX         0.01089  -0.00209  -0.00296   0.00782  -0.00557
  33        3PY        -0.00629   0.00121   0.00441  -0.00296  -0.01031
  34        3PZ        -0.00445   0.00356   0.00121  -0.00209   0.00228
  35 5   H  1S          0.01174   0.01884   0.02667   0.04620  -0.08223
  36        2S         -0.09615   0.08023   0.11348   0.19656  -0.93726
  37        3PX        -0.01089   0.00209   0.00296   0.00782   0.00557
  38        3PY        -0.00629   0.00121   0.00441   0.00296  -0.01031
  39        3PZ        -0.00445   0.00356   0.00121   0.00209   0.00228
                          11        12        13        14        15
                        (E)--V    (A1)--V   (A1)--V   (A1)--V   (E)--V
     Eigenvalues --     0.18206   0.18215   0.27844   0.63770   0.63772
   1 1   C  1S          0.00000   0.00015  -0.15595   0.00004   0.00000
   2        2S          0.00000  -0.00023   0.19914  -0.00041  -0.00000
   3        2PX        -0.32175   0.00000   0.00000   0.00000   0.00000
   4        2PY         0.00000   0.00000  -0.00000   0.00000  -0.92672
   5        2PZ         0.00000  -0.32167  -0.00047  -0.92674  -0.00000
   6        3S          0.00000  -0.00216   3.16713  -0.00070   0.00000
   7        3PX        -1.39570   0.00000   0.00000   0.00000   0.00000
   8        3PY         0.00000   0.00000  -0.00000  -0.00000   1.66650
   9        3PZ         0.00000  -1.39685  -0.00258   1.66736   0.00000
  10        4S          0.00000  -0.00124   1.85359  -0.00099  -0.00000
  11        4PX        -0.31280   0.00000   0.00000   0.00000   0.00000
  12        4PY         0.00000   0.00000  -0.00000   0.00000  -0.57543
  13        4PZ         0.00000  -0.31345  -0.00101  -0.57523  -0.00000
  14        5XX         0.00000  -0.01399  -0.01164   0.02111   0.02991
  15        5YY         0.00000  -0.01399  -0.01164   0.02111  -0.02991
  16        5ZZ         0.00000   0.02804  -0.01163  -0.04235  -0.00000
  17        5XY        -0.02287   0.00000   0.00000   0.00000   0.00000
  18        5XZ        -0.01619   0.00000   0.00000   0.00000   0.00000
  19        5YZ         0.00000   0.00000  -0.00000  -0.00000   0.02446
  20 2   H  1S          0.00000   0.17448  -0.07140  -0.31690  -0.00000
  21        2S          0.00000   1.99043  -1.61841  -0.18231  -0.00000
  22        3PX        -0.01355   0.00000   0.00000   0.00000   0.00000
  23        3PY         0.00000   0.00000  -0.00000  -0.00000   0.01377
  24        3PZ         0.00000   0.00094  -0.00563   0.07044   0.00000
  25 3   H  1S          0.00000  -0.05799  -0.07148   0.10558  -0.29883
  26        2S          0.00000  -0.66212  -1.62211   0.06173  -0.17146
  27        3PX        -0.01352   0.00000   0.00000   0.00000   0.00000
  28        3PY         0.00000  -0.00455  -0.00531  -0.01782   0.06409
  29        3PZ         0.00000  -0.01193   0.00188   0.02009  -0.01784
  30 4   H  1S          0.14243  -0.05799  -0.07148   0.10558   0.14941
  31        2S          1.62338  -0.66212  -1.62211   0.06173   0.08573
  32        3PX        -0.00388  -0.00394  -0.00460  -0.01543  -0.02181
  33        3PY        -0.00557   0.00227   0.00265   0.00891   0.02632
  34        3PZ        -0.00394  -0.01193   0.00188   0.02009   0.00892
  35 5   H  1S         -0.14243  -0.05799  -0.07148   0.10558   0.14941
  36        2S         -1.62338  -0.66212  -1.62211   0.06173   0.08573
  37        3PX        -0.00388   0.00394   0.00460   0.01543   0.02181
  38        3PY         0.00557   0.00227   0.00265   0.00891   0.02632
  39        3PZ         0.00394  -0.01193   0.00188   0.02009   0.00892
                          16        17        18        19        20
                        (E)--V    (E)--V    (E)--V    (A1)--V   (A1)--V
     Eigenvalues --     0.63772   0.91106   0.91106   0.91126   1.05306
   1 1   C  1S          0.00000  -0.00000   0.00000  -0.00013   0.11069
   2        2S          0.00000   0.00000   0.00000  -0.00016   0.12183
   3        2PX        -0.92672   0.00000   0.56539   0.00000   0.00000
   4        2PY         0.00000   0.56539   0.00000  -0.00000   0.00000
   5        2PZ         0.00000   0.00000   0.00000   0.56536   0.00064
   6        3S          0.00000  -0.00000   0.00000   0.00053  -0.35824
   7        3PX         1.66650   0.00000  -0.97999   0.00000   0.00000
   8        3PY         0.00000  -0.97999   0.00000   0.00000  -0.00000
   9        3PZ         0.00000  -0.00000   0.00000  -0.98019  -0.00041
  10        4S          0.00000  -0.00000   0.00000  -0.00101   0.85894
  11        4PX        -0.57543   0.00000  -0.36265   0.00000   0.00000
  12        4PY         0.00000  -0.36265   0.00000   0.00000  -0.00000
  13        4PZ         0.00000  -0.00000   0.00000  -0.36300  -0.00066
  14        5XX         0.00000   0.19937   0.00000   0.14100   0.08267
  15        5YY         0.00000  -0.19937   0.00000   0.14100   0.08267
  16        5ZZ         0.00000  -0.00000   0.00000  -0.28224   0.08226
  17        5XY         0.03453   0.00000   0.23021   0.00000   0.00000
  18        5XZ         0.02446   0.00000   0.16302   0.00000   0.00000
  19        5YZ         0.00000   0.16302   0.00000  -0.00000   0.00000
  20 2   H  1S          0.00000  -0.00000   0.00000  -0.94935   0.71431
  21        2S          0.00000   0.00000   0.00000   1.99082  -0.62400
  22        3PX         0.01377   0.00000   0.06061   0.00000   0.00000
  23        3PY         0.00000   0.06061   0.00000  -0.00000   0.00000
  24        3PZ         0.00000  -0.00000   0.00000  -0.08860   0.06098
  25 3   H  1S          0.00000  -0.89421   0.00000   0.31536   0.71604
  26        2S          0.00000   1.87618   0.00000  -0.66267  -0.62643
  27        3PX         0.01372   0.00000   0.06061   0.00000   0.00000
  28        3PY         0.00000  -0.07193   0.00000   0.04688   0.05767
  29        3PZ         0.00000   0.04692   0.00000   0.04408  -0.02024
  30 4   H  1S         -0.25879   0.44710  -0.77441   0.31536   0.71604
  31        2S         -0.14849  -0.93809   1.62482  -0.66267  -0.62643
  32        3PX         0.05150   0.05739  -0.03879   0.04060   0.04995
  33        3PY        -0.02181   0.02748   0.05739  -0.02344  -0.02884
  34        3PZ        -0.01545  -0.02346   0.04064   0.04408  -0.02024
  35 5   H  1S          0.25879   0.44710   0.77441   0.31536   0.71604
  36        2S          0.14849  -0.93809  -1.62482  -0.66267  -0.62643
  37        3PX         0.05150  -0.05739  -0.03879  -0.04060  -0.04995
  38        3PY         0.02181   0.02748  -0.05739  -0.02344  -0.02884
  39        3PZ         0.01545  -0.02346  -0.04064   0.04408  -0.02024
                          21        22        23        24        25
                        (A1)--V   (E)--V    (E)--V    (E)--V    (E)--V
     Eigenvalues --     1.11513   1.35728   1.35728   2.04351   2.04351
   1 1   C  1S         -0.06226  -0.00000   0.00000  -0.00000   0.00000
   2        2S         -2.26777  -0.00000   0.00000   0.00000   0.00000
   3        2PX         0.00000   0.00000   0.00006   0.00000   0.00098
   4        2PY         0.00000   0.00006   0.00000   0.00098   0.00000
   5        2PZ         0.00037  -0.00000   0.00000   0.00000   0.00000
   6        3S          6.24004   0.00000   0.00000  -0.00000   0.00000
   7        3PX         0.00000   0.00000  -0.00005   0.00000  -0.00499
   8        3PY        -0.00000  -0.00005   0.00000  -0.00499   0.00000
   9        3PZ        -0.00239   0.00000   0.00000  -0.00000   0.00000
  10        4S          0.65748   0.00000   0.00000  -0.00000   0.00000
  11        4PX         0.00000   0.00000  -0.00002   0.00000   0.00155
  12        4PY        -0.00000  -0.00002   0.00000   0.00155   0.00000
  13        4PZ        -0.00039   0.00000   0.00000  -0.00000   0.00000
  14        5XX        -0.07217  -0.33414   0.00000   0.00380   0.00000
  15        5YY        -0.07217   0.33414   0.00000  -0.00380   0.00000
  16        5ZZ        -0.07206  -0.00000   0.00000  -0.00000   0.00000
  17        5XY         0.00000   0.00000  -0.38583   0.00000   0.00439
  18        5XZ         0.00000   0.00000   0.54501   0.00000   0.00310
  19        5YZ         0.00000   0.54501   0.00000   0.00310   0.00000
  20 2   H  1S          0.03438   0.00000   0.00000  -0.00000   0.00000
  21        2S         -1.63786  -0.00000   0.00000   0.00000   0.00000
  22        3PX         0.00000   0.00000   0.24548   0.00000   0.61853
  23        3PY         0.00000   0.24548   0.00000   0.61853   0.00000
  24        3PZ         0.04576   0.00000   0.00000   0.00000   0.00000
  25 3   H  1S          0.03423   0.00002   0.00000   0.00514   0.00000
  26        2S         -1.63953   0.00010   0.00000  -0.00166   0.00000
  27        3PX         0.00000   0.00000  -0.24581   0.00000  -0.20363
  28        3PY         0.04317   0.08195   0.00000  -0.20339   0.00000
  29        3PZ        -0.01534   0.23139   0.00000  -0.58175   0.00000
  30 4   H  1S          0.03423  -0.00001   0.00002  -0.00257   0.00445
  31        2S         -1.63953  -0.00005   0.00009   0.00083  -0.00143
  32        3PX         0.03738  -0.14193   0.00001  -0.00011  -0.20345
  33        3PY        -0.02158  -0.16387  -0.14193  -0.20357  -0.00011
  34        3PZ        -0.01534  -0.11569   0.20039   0.29087  -0.50381
  35 5   H  1S          0.03423  -0.00001  -0.00002  -0.00257  -0.00445
  36        2S         -1.63953  -0.00005  -0.00009   0.00083   0.00143
  37        3PX        -0.03738   0.14193   0.00001   0.00011  -0.20345
  38        3PY        -0.02158  -0.16387   0.14193  -0.20357   0.00011
  39        3PZ        -0.01534  -0.11569  -0.20039   0.29087   0.50381
                          26        27        28        29        30
                        (A2)--V   (A1)--V   (E)--V    (E)--V    (E)--V
     Eigenvalues --     2.04371   2.08800   2.08847   2.08847   2.62714
   1 1   C  1S          0.00000  -0.00002   0.00000   0.00000   0.00000
   2        2S          0.00000  -0.00043   0.00000   0.00000   0.00000
   3        2PX        -0.00000   0.00000  -0.13671   0.00000   0.00000
   4        2PY         0.00000  -0.00000   0.00000   0.13671   0.16749
   5        2PZ         0.00000   0.13660   0.00000   0.00000  -0.00000
   6        3S          0.00000   0.00151   0.00000  -0.00000  -0.00000
   7        3PX         0.00000   0.00000   0.63370   0.00000   0.00000
   8        3PY         0.00000   0.00000   0.00000  -0.63370   0.65467
   9        3PZ         0.00000  -0.63492   0.00000  -0.00000  -0.00000
  10        4S          0.00000   0.00038   0.00000  -0.00000  -0.00000
  11        4PX        -0.00000   0.00000  -0.20836   0.00000   0.00000
  12        4PY         0.00000  -0.00000   0.00000   0.20836   0.01152
  13        4PZ         0.00000   0.20833   0.00000   0.00000  -0.00000
  14        5XX         0.00000   0.33521   0.00000   0.47396   0.34002
  15        5YY         0.00000   0.33521   0.00000  -0.47396  -0.34002
  16        5ZZ         0.00000  -0.67029   0.00000  -0.00000   0.00000
  17        5XY        -0.00000   0.00000  -0.54729   0.00000   0.00000
  18        5XZ        -0.00000   0.00000  -0.38718   0.00000   0.00000
  19        5YZ         0.00000  -0.00000   0.00000   0.38718   0.27754
  20 2   H  1S          0.00000   0.69371   0.00000   0.00000  -0.00000
  21        2S          0.00000  -0.26100   0.00000  -0.00000   0.00000
  22        3PX        -0.00000   0.00000  -0.24370   0.00000   0.00000
  23        3PY         0.00000  -0.00000   0.00000   0.24370  -0.64970
  24        3PZ         0.00000   0.36210   0.00000   0.00000  -0.00000
  25 3   H  1S          0.00000  -0.23122   0.00000   0.65384   0.06020
  26        2S          0.00000   0.08629   0.00000  -0.24661  -0.51469
  27        3PX         0.58154   0.00000  -0.24975   0.00000   0.00000
  28        3PY         0.00000  -0.03549   0.00000   0.35140   0.08831
  29        3PZ         0.00000   0.26120   0.00000  -0.03122  -0.26098
  30 4   H  1S         -0.00000  -0.23122  -0.56625  -0.32692  -0.03010
  31        2S          0.00000   0.08629   0.21357   0.12331   0.25734
  32        3PX        -0.29077  -0.03074  -0.32599  -0.04401  -0.31939
  33        3PY        -0.50363   0.01775   0.04401   0.27516  -0.46490
  34        3PZ         0.00000   0.26120   0.02704   0.01561   0.13049
  35 5   H  1S          0.00000  -0.23122   0.56625  -0.32692  -0.03010
  36        2S         -0.00000   0.08629  -0.21357   0.12331   0.25734
  37        3PX        -0.29077   0.03074  -0.32599   0.04401   0.31939
  38        3PY         0.50363   0.01775  -0.04401   0.27516  -0.46490
  39        3PZ        -0.00000   0.26120  -0.02704   0.01561   0.13049
                          31        32        33        34        35
                        (E)--V    (A1)--V   (E)--V    (E)--V    (A1)--V
     Eigenvalues --     2.62714   2.62815   2.91026   2.91026   3.17285
   1 1   C  1S          0.00000   0.00003   0.00000  -0.00000  -0.14207
   2        2S          0.00000   0.00082   0.00000   0.00000   0.85017
   3        2PX         0.16749   0.00000   0.00064   0.00000   0.00000
   4        2PY         0.00000   0.00000   0.00000   0.00064   0.00000
   5        2PZ         0.00000   0.16790   0.00000  -0.00000  -0.00087
   6        3S          0.00000  -0.00130   0.00000   0.00000   1.74639
   7        3PX         0.65467   0.00000   0.00026   0.00000   0.00000
   8        3PY         0.00000   0.00000   0.00000   0.00026  -0.00000
   9        3PZ         0.00000   0.65544   0.00000   0.00000  -0.00127
  10        4S          0.00000   0.00004   0.00000   0.00000   0.37676
  11        4PX         0.01152   0.00000   0.00015   0.00000   0.00000
  12        4PY         0.00000   0.00000   0.00000   0.00015  -0.00000
  13        4PZ         0.00000   0.01177   0.00000  -0.00000  -0.00012
  14        5XX         0.00000   0.24066   0.00000  -0.45851  -0.06064
  15        5YY         0.00000   0.24066   0.00000   0.45851  -0.06064
  16        5ZZ         0.00000  -0.48089   0.00000  -0.00000  -0.06006
  17        5XY         0.39263   0.00000  -0.52944   0.00000   0.00000
  18        5XZ         0.27754   0.00000   0.74716   0.00000   0.00000
  19        5YZ         0.00000   0.00000   0.00000   0.74716  -0.00000
  20 2   H  1S          0.00000   0.06389   0.00000   0.00000  -0.22596
  21        2S          0.00000  -0.54696   0.00000  -0.00000  -0.62066
  22        3PX        -0.64970   0.00000  -0.50738   0.00000   0.00000
  23        3PY         0.00000  -0.00000   0.00000  -0.50738   0.00000
  24        3PZ         0.00000   0.18179   0.00000   0.00000   0.66734
  25 3   H  1S          0.00000  -0.02104   0.00000  -0.00012  -0.22633
  26        2S          0.00000   0.18246   0.00000  -0.00074  -0.62171
  27        3PX        -0.64930   0.00000   0.50770   0.00000   0.00000
  28        3PY         0.00000  -0.26102   0.00000  -0.16847   0.62983
  29        3PZ         0.00000  -0.55716   0.00000  -0.47846  -0.22256
  30 4   H  1S          0.05213  -0.02104  -0.00011   0.00006  -0.22633
  31        2S         -0.44573   0.18246  -0.00064   0.00037  -0.62171
  32        3PX        -0.09609  -0.22605   0.00057   0.29279   0.54545
  33        3PY        -0.31939   0.13051   0.29279   0.33866  -0.31492
  34        3PZ        -0.22601  -0.55716  -0.41436   0.23923  -0.22256
  35 5   H  1S         -0.05213  -0.02104   0.00011   0.00006  -0.22633
  36        2S          0.44573   0.18246   0.00064   0.00037  -0.62171
  37        3PX        -0.09609   0.22605   0.00057  -0.29279  -0.54545
  38        3PY         0.31939   0.13051  -0.29279   0.33866  -0.31492
  39        3PZ         0.22601  -0.55716   0.41436   0.23923  -0.22256
                          36        37        38        39
                        (A1)--V   (E)--V    (E)--V    (A1)--V
     Eigenvalues --     3.41844   3.41868   3.41868   4.41911
   1 1   C  1S         -0.00010  -0.00000   0.00000  -0.47940
   2        2S          0.00077   0.00000   0.00000   2.81510
   3        2PX         0.00000   0.00000  -0.92482   0.00000
   4        2PY        -0.00000   0.92482   0.00000  -0.00000
   5        2PZ         0.92517   0.00000   0.00000   0.00019
   6        3S          0.00031   0.00000   0.00000   2.20954
   7        3PX         0.00000   0.00000  -0.53595   0.00000
   8        3PY        -0.00000   0.53595   0.00000  -0.00000
   9        3PZ         0.53585   0.00000   0.00000  -0.00053
  10        4S         -0.00004  -0.00000   0.00000   0.05729
  11        4PX         0.00000   0.00000  -0.00311   0.00000
  12        4PY        -0.00000   0.00311   0.00000  -0.00000
  13        4PZ         0.00319   0.00000   0.00000  -0.00015
  14        5XX        -0.59179  -0.83610   0.00000  -2.04778
  15        5YY        -0.59179   0.83610   0.00000  -2.04778
  16        5ZZ         1.18288   0.00000   0.00000  -2.04855
  17        5XY         0.00000   0.00000   0.96544   0.00000
  18        5XZ         0.00000   0.00000   0.68455   0.00000
  19        5YZ         0.00000  -0.68455   0.00000   0.00000
  20 2   H  1S         -0.82619  -0.00000   0.00000   0.26049
  21        2S         -0.55473  -0.00000   0.00000  -0.42510
  22        3PX         0.00000   0.00000  -0.01687   0.00000
  23        3PY        -0.00000   0.01687   0.00000  -0.00000
  24        3PZ         1.22167   0.00000   0.00000  -0.30427
  25 3   H  1S          0.27526  -0.77899   0.00000   0.26024
  26        2S          0.18484  -0.52301   0.00000  -0.42556
  27        3PX         0.00000   0.00000  -0.01569   0.00000
  28        3PY        -0.37833   1.08750   0.00000  -0.28661
  29        3PZ         0.15066  -0.37917   0.00000   0.10141
  30 4   H  1S          0.27526   0.38949   0.67462   0.26024
  31        2S          0.18484   0.26151   0.45294  -0.42556
  32        3PX        -0.32764  -0.46411  -0.81955  -0.24822
  33        3PY         0.18916   0.28364   0.46411   0.14331
  34        3PZ         0.15066   0.18958   0.32837   0.10141
  35 5   H  1S          0.27526   0.38949  -0.67462   0.26024
  36        2S          0.18484   0.26151  -0.45294  -0.42556
  37        3PX         0.32764   0.46411  -0.81955   0.24822
  38        3PY         0.18916   0.28364  -0.46411   0.14331
  39        3PZ         0.15066   0.18958  -0.32837   0.10141
     Density Matrix:
                           1         2         3         4         5
   1 1   C  1S          2.05136
   2        2S         -0.05552   0.30305
   3        2PX        -0.00000  -0.00000   0.39612
   4        2PY         0.00000   0.00000  -0.00000   0.39612
   5        2PZ        -0.00001   0.00003  -0.00000   0.00000   0.39609
   6        3S         -0.17406   0.27558   0.00000  -0.00000   0.00005
   7        3PX        -0.00000  -0.00000   0.17533  -0.00000   0.00000
   8        3PY         0.00000   0.00000   0.00000   0.17533  -0.00000
   9        3PZ         0.00001   0.00001  -0.00000   0.00000   0.17528
  10        4S         -0.00739   0.01179   0.00000  -0.00000   0.00001
  11        4PX        -0.00000  -0.00000   0.03243   0.00000   0.00000
  12        4PY         0.00000   0.00000  -0.00000   0.03243  -0.00000
  13        4PZ        -0.00000   0.00001   0.00000  -0.00000   0.03240
  14        5XX        -0.01438  -0.00828  -0.00000  -0.01440  -0.01018
  15        5YY        -0.01438  -0.00828   0.00000   0.01440  -0.01018
  16        5ZZ        -0.01438  -0.00826  -0.00000   0.00000   0.02035
  17        5XY         0.00000  -0.00000  -0.01662   0.00000   0.00000
  18        5XZ         0.00000   0.00000  -0.01178   0.00000  -0.00000
  19        5YZ        -0.00000  -0.00000  -0.00000  -0.01178   0.00000
  20 2   H  1S         -0.05597   0.10709   0.00000  -0.00000   0.26501
  21        2S         -0.00841   0.02806  -0.00000   0.00000   0.21093
  22        3PX         0.00000  -0.00000   0.00766  -0.00000  -0.00000
  23        3PY        -0.00000   0.00000   0.00000   0.00766   0.00000
  24        3PZ         0.00548  -0.01001   0.00000  -0.00000  -0.00616
  25 3   H  1S         -0.05594   0.10702   0.00000   0.24987  -0.08838
  26        2S         -0.00836   0.02797   0.00000   0.19898  -0.07032
  27        3PX         0.00000  -0.00000   0.00766  -0.00000   0.00000
  28        3PY         0.00517  -0.00943  -0.00000  -0.00462   0.00435
  29        3PZ        -0.00183   0.00334   0.00000   0.00435   0.00612
  30 4   H  1S         -0.05594   0.10702   0.21640  -0.12494  -0.08838
  31        2S         -0.00836   0.02797   0.17232  -0.09949  -0.07032
  32        3PX         0.00447  -0.00817  -0.00155   0.00532   0.00377
  33        3PY        -0.00258   0.00472   0.00532   0.00459  -0.00217
  34        3PZ        -0.00183   0.00334   0.00376  -0.00217   0.00612
  35 5   H  1S         -0.05594   0.10702  -0.21640  -0.12494  -0.08838
  36        2S         -0.00836   0.02797  -0.17232  -0.09949  -0.07032
  37        3PX        -0.00447   0.00817  -0.00155  -0.00532  -0.00377
  38        3PY        -0.00258   0.00472  -0.00532   0.00459  -0.00217
  39        3PZ        -0.00183   0.00334  -0.00376  -0.00217   0.00612
                           6         7         8         9        10
   6        3S          0.25807
   7        3PX         0.00000   0.07760
   8        3PY        -0.00000  -0.00000   0.07760
   9        3PZ         0.00002   0.00000  -0.00000   0.07757
  10        4S          0.01104   0.00000  -0.00000   0.00000   0.00047
  11        4PX         0.00000   0.01436   0.00000   0.00000   0.00000
  12        4PY        -0.00000   0.00000   0.01436  -0.00000  -0.00000
  13        4PZ         0.00001   0.00000  -0.00000   0.01434   0.00000
  14        5XX        -0.00657  -0.00000  -0.00637  -0.00450  -0.00028
  15        5YY        -0.00657   0.00000   0.00637  -0.00450  -0.00028
  16        5ZZ        -0.00655  -0.00000   0.00000   0.00900  -0.00028
  17        5XY         0.00000  -0.00736   0.00000   0.00000   0.00000
  18        5XZ        -0.00000  -0.00521   0.00000  -0.00000  -0.00000
  19        5YZ         0.00000  -0.00000  -0.00521   0.00000   0.00000
  20 2   H  1S          0.09960   0.00000  -0.00000   0.11727   0.00427
  21        2S          0.02573  -0.00000   0.00000   0.09334   0.00111
  22        3PX         0.00000   0.00339   0.00000  -0.00000   0.00000
  23        3PY        -0.00000   0.00000   0.00339   0.00000  -0.00000
  24        3PZ        -0.00932   0.00000  -0.00000  -0.00273  -0.00040
  25 3   H  1S          0.09951   0.00000   0.11060  -0.03912   0.00425
  26        2S          0.02563   0.00000   0.08807  -0.03112   0.00109
  27        3PX        -0.00000   0.00339  -0.00000   0.00000  -0.00000
  28        3PY        -0.00879  -0.00000  -0.00204   0.00192  -0.00038
  29        3PZ         0.00311   0.00000   0.00192   0.00271   0.00013
  30 4   H  1S          0.09951   0.09578  -0.05530  -0.03912   0.00425
  31        2S          0.02563   0.07627  -0.04404  -0.03112   0.00109
  32        3PX        -0.00761  -0.00069   0.00235   0.00167  -0.00033
  33        3PY         0.00439   0.00235   0.00203  -0.00096   0.00019
  34        3PZ         0.00311   0.00167  -0.00096   0.00271   0.00013
  35 5   H  1S          0.09951  -0.09578  -0.05530  -0.03912   0.00425
  36        2S          0.02563  -0.07627  -0.04404  -0.03112   0.00109
  37        3PX         0.00761  -0.00069  -0.00235  -0.00167   0.00033
  38        3PY         0.00439  -0.00235   0.00203  -0.00096   0.00019
  39        3PZ         0.00311  -0.00167  -0.00096   0.00271   0.00013
                          11        12        13        14        15
  11        4PX         0.00266
  12        4PY         0.00000   0.00266
  13        4PZ         0.00000  -0.00000   0.00265
  14        5XX        -0.00000  -0.00118  -0.00083   0.00113
  15        5YY         0.00000   0.00118  -0.00083   0.00009   0.00113
  16        5ZZ         0.00000  -0.00000   0.00166  -0.00017  -0.00017
  17        5XY        -0.00136   0.00000   0.00000   0.00000   0.00000
  18        5XZ        -0.00096   0.00000  -0.00000   0.00000  -0.00000
  19        5YZ         0.00000  -0.00096   0.00000   0.00043  -0.00043
  20 2   H  1S          0.00000  -0.00000   0.02168  -0.00945  -0.00945
  21        2S         -0.00000   0.00000   0.01726  -0.00616  -0.00616
  22        3PX         0.00063   0.00000   0.00000  -0.00000   0.00000
  23        3PY         0.00000   0.00063  -0.00000  -0.00028   0.00028
  24        3PZ         0.00000  -0.00000  -0.00050   0.00040   0.00040
  25 3   H  1S          0.00000   0.02046  -0.00723  -0.00945   0.00871
  26        2S          0.00000   0.01629  -0.00575  -0.00616   0.00830
  27        3PX         0.00063  -0.00000   0.00000  -0.00000   0.00000
  28        3PY        -0.00000  -0.00038   0.00036   0.00029  -0.00005
  29        3PZ         0.00000   0.00036   0.00050  -0.00040  -0.00008
  30 4   H  1S          0.01772  -0.01023  -0.00723   0.00417  -0.00491
  31        2S          0.01411  -0.00815  -0.00575   0.00468  -0.00255
  32        3PX        -0.00013   0.00044   0.00031  -0.00009   0.00030
  33        3PY         0.00044   0.00038  -0.00018  -0.00023   0.00011
  34        3PZ         0.00031  -0.00018   0.00050  -0.00016  -0.00032
  35 5   H  1S         -0.01772  -0.01023  -0.00723   0.00417  -0.00491
  36        2S         -0.01411  -0.00815  -0.00575   0.00468  -0.00255
  37        3PX        -0.00013  -0.00044  -0.00031   0.00009  -0.00030
  38        3PY        -0.00044   0.00038  -0.00018  -0.00023   0.00011
  39        3PZ        -0.00031  -0.00018   0.00050  -0.00016  -0.00032
                          16        17        18        19        20
  16        5ZZ         0.00139
  17        5XY         0.00000   0.00070
  18        5XZ         0.00000   0.00049   0.00035
  19        5YZ        -0.00000  -0.00000  -0.00000   0.00035
  20 2   H  1S          0.01098   0.00000  -0.00000   0.00000   0.21578
  21        2S          0.01010   0.00000   0.00000  -0.00000   0.15109
  22        3PX        -0.00000  -0.00032  -0.00023   0.00000  -0.00000
  23        3PY         0.00000   0.00000  -0.00000  -0.00023   0.00000
  24        3PZ        -0.00007  -0.00000  -0.00000   0.00000  -0.00772
  25 3   H  1S         -0.00718   0.00000  -0.00000  -0.00743  -0.02068
  26        2S         -0.00435   0.00000  -0.00000  -0.00592  -0.03710
  27        3PX         0.00000  -0.00032  -0.00023   0.00000  -0.00000
  28        3PY         0.00045  -0.00000   0.00000   0.00014  -0.00049
  29        3PZ         0.00023   0.00000  -0.00000  -0.00013   0.00530
  30 4   H  1S         -0.00718  -0.00908  -0.00644   0.00372  -0.02068
  31        2S         -0.00435  -0.00723  -0.00512   0.00296  -0.03710
  32        3PX         0.00039   0.00006   0.00005  -0.00016  -0.00042
  33        3PY        -0.00023  -0.00022  -0.00016  -0.00014   0.00024
  34        3PZ         0.00023  -0.00016  -0.00011   0.00006   0.00530
  35 5   H  1S         -0.00718   0.00908   0.00644   0.00372  -0.02068
  36        2S         -0.00435   0.00723   0.00512   0.00296  -0.03710
  37        3PX        -0.00039   0.00006   0.00005   0.00016   0.00042
  38        3PY        -0.00023   0.00022   0.00016  -0.00014   0.00024
  39        3PZ         0.00023   0.00016   0.00011   0.00006   0.00530
                          21        22        23        24        25
  21        2S          0.11493
  22        3PX        -0.00000   0.00015
  23        3PY         0.00000  -0.00000   0.00015
  24        3PZ        -0.00421   0.00000  -0.00000   0.00043
  25 3   H  1S         -0.03710   0.00000   0.00483  -0.00222   0.21579
  26        2S         -0.03485   0.00000   0.00385   0.00016   0.15115
  27        3PX         0.00000   0.00015  -0.00000   0.00000  -0.00000
  28        3PY         0.00144  -0.00000  -0.00009   0.00025  -0.00728
  29        3PZ         0.00357   0.00000   0.00008  -0.00021   0.00258
  30 4   H  1S         -0.03710   0.00418  -0.00242  -0.00222  -0.02065
  31        2S         -0.03485   0.00333  -0.00192   0.00016  -0.03713
  32        3PX         0.00124  -0.00003   0.00010   0.00022  -0.00042
  33        3PY        -0.00072   0.00010   0.00009  -0.00013   0.00508
  34        3PZ         0.00357   0.00007  -0.00004  -0.00021  -0.00154
  35 5   H  1S         -0.03710  -0.00418  -0.00242  -0.00222  -0.02065
  36        2S         -0.03485  -0.00333  -0.00192   0.00016  -0.03713
  37        3PX        -0.00124  -0.00003  -0.00010  -0.00022   0.00042
  38        3PY        -0.00072  -0.00010   0.00009  -0.00013   0.00508
  39        3PZ         0.00357  -0.00007  -0.00004  -0.00021  -0.00154
                          26        27        28        29        30
  26        2S          0.11503
  27        3PX        -0.00000   0.00015
  28        3PY        -0.00397   0.00000   0.00040
  29        3PZ         0.00141  -0.00000  -0.00009   0.00018
  30 4   H  1S         -0.03713   0.00419  -0.00291  -0.00154   0.21579
  31        2S         -0.03491   0.00333  -0.00049  -0.00187   0.15115
  32        3PX         0.00124  -0.00003   0.00024   0.00002  -0.00630
  33        3PY         0.00313   0.00010  -0.00023   0.00007   0.00364
  34        3PZ        -0.00187   0.00007  -0.00001   0.00011   0.00258
  35 5   H  1S         -0.03713  -0.00419  -0.00291  -0.00154  -0.02065
  36        2S         -0.03491  -0.00333  -0.00049  -0.00187  -0.03713
  37        3PX        -0.00124  -0.00003  -0.00024  -0.00002   0.00461
  38        3PY         0.00313  -0.00010  -0.00023   0.00007  -0.00217
  39        3PZ        -0.00187  -0.00007  -0.00001   0.00011  -0.00154
                          31        32        33        34        35
  31        2S          0.11503
  32        3PX        -0.00344   0.00034
  33        3PY         0.00198  -0.00011   0.00021
  34        3PZ         0.00141  -0.00008   0.00004   0.00018
  35 5   H  1S         -0.03713  -0.00461  -0.00217  -0.00154   0.21579
  36        2S         -0.03491  -0.00209  -0.00264  -0.00187   0.15115
  37        3PX         0.00209  -0.00033   0.00007   0.00005   0.00630
  38        3PY        -0.00264  -0.00007   0.00007  -0.00006   0.00364
  39        3PZ        -0.00187  -0.00005  -0.00006   0.00011   0.00258
                          36        37        38        39
  36        2S          0.11503
  37        3PX         0.00344   0.00034
  38        3PY         0.00198   0.00011   0.00021
  39        3PZ         0.00141   0.00008   0.00004   0.00018
    Full Mulliken population analysis:
                           1         2         3         4         5
   1 1   C  1S          2.05136
   2        2S         -0.01216   0.30305
   3        2PX         0.00000   0.00000   0.39612
   4        2PY         0.00000   0.00000   0.00000   0.39612
   5        2PZ         0.00000   0.00000   0.00000   0.00000   0.39609
   6        3S         -0.03207   0.22384   0.00000   0.00000   0.00000
   7        3PX         0.00000   0.00000   0.09989   0.00000   0.00000
   8        3PY         0.00000   0.00000   0.00000   0.09989   0.00000
   9        3PZ         0.00000   0.00000   0.00000   0.00000   0.09987
  10        4S         -0.00052   0.00474   0.00000   0.00000   0.00000
  11        4PX         0.00000   0.00000   0.00534   0.00000   0.00000
  12        4PY         0.00000   0.00000   0.00000   0.00534   0.00000
  13        4PZ         0.00000   0.00000   0.00000   0.00000   0.00534
  14        5XX        -0.00114  -0.00588   0.00000   0.00000   0.00000
  15        5YY        -0.00114  -0.00588   0.00000   0.00000   0.00000
  16        5ZZ        -0.00114  -0.00587   0.00000   0.00000   0.00000
  17        5XY         0.00000   0.00000   0.00000   0.00000   0.00000
  18        5XZ         0.00000   0.00000   0.00000   0.00000   0.00000
  19        5YZ         0.00000   0.00000   0.00000   0.00000   0.00000
  20 2   H  1S         -0.00183   0.02931   0.00000   0.00000   0.09788
  21        2S         -0.00078   0.01336   0.00000   0.00000   0.05606
  22        3PX         0.00000   0.00000   0.00117  -0.00000   0.00000
  23        3PY         0.00000   0.00000   0.00000   0.00117   0.00000
  24        3PZ        -0.00025   0.00293   0.00000   0.00000   0.00223
  25 3   H  1S         -0.00183   0.02929   0.00000   0.08700   0.01090
  26        2S         -0.00077   0.01332   0.00000   0.04985   0.00624
  27        3PX        -0.00000   0.00000   0.00117   0.00000   0.00000
  28        3PY        -0.00022   0.00260   0.00000   0.00141   0.00070
  29        3PZ        -0.00003   0.00033   0.00000   0.00070   0.00058
  30 4   H  1S         -0.00183   0.02929   0.06525   0.02175   0.01090
  31        2S         -0.00077   0.01332   0.03739   0.01246   0.00624
  32        3PX        -0.00017   0.00195   0.00030   0.00105   0.00053
  33        3PY        -0.00006   0.00065   0.00105   0.00017   0.00018
  34        3PZ        -0.00003   0.00033   0.00053   0.00018   0.00058
  35 5   H  1S         -0.00183   0.02929   0.06525   0.02175   0.01090
  36        2S         -0.00077   0.01332   0.03739   0.01246   0.00624
  37        3PX        -0.00017   0.00195   0.00030   0.00105   0.00053
  38        3PY        -0.00006   0.00065   0.00105   0.00017   0.00018
  39        3PZ        -0.00003   0.00033   0.00053   0.00018   0.00058
                           6         7         8         9        10
   6        3S          0.25807
   7        3PX         0.00000   0.07760
   8        3PY         0.00000   0.00000   0.07760
   9        3PZ         0.00000   0.00000   0.00000   0.07757
  10        4S          0.00803   0.00000   0.00000   0.00000   0.00047
  11        4PX         0.00000   0.00845   0.00000   0.00000   0.00000
  12        4PY         0.00000  -0.00000   0.00845   0.00000   0.00000
  13        4PZ         0.00000   0.00000   0.00000   0.00844   0.00000
  14        5XX        -0.00414   0.00000   0.00000   0.00000  -0.00009
  15        5YY        -0.00414   0.00000   0.00000   0.00000  -0.00009
  16        5ZZ        -0.00413   0.00000   0.00000   0.00000  -0.00009
  17        5XY         0.00000   0.00000   0.00000   0.00000   0.00000
  18        5XZ         0.00000   0.00000   0.00000   0.00000   0.00000
  19        5YZ         0.00000   0.00000   0.00000   0.00000   0.00000
  20 2   H  1S          0.03755   0.00000   0.00000   0.06040   0.00110
  21        2S          0.01813   0.00000   0.00000   0.05439   0.00071
  22        3PX         0.00000   0.00069   0.00000   0.00000   0.00000
  23        3PY         0.00000   0.00000   0.00069   0.00000   0.00000
  24        3PZ         0.00161   0.00000   0.00000   0.00013   0.00001
  25 3   H  1S          0.03752   0.00000   0.05369   0.00672   0.00110
  26        2S          0.01806   0.00000   0.04837   0.00605   0.00070
  27        3PX         0.00000   0.00069   0.00000   0.00000   0.00000
  28        3PY         0.00143   0.00000   0.00004   0.00015   0.00001
  29        3PZ         0.00018   0.00000   0.00015   0.00048   0.00000
  30 4   H  1S          0.03752   0.04027   0.01342   0.00672   0.00110
  31        2S          0.01806   0.03628   0.01209   0.00605   0.00070
  32        3PX         0.00107  -0.00002   0.00023   0.00012   0.00001
  33        3PY         0.00036   0.00023   0.00030   0.00004   0.00000
  34        3PZ         0.00018   0.00012   0.00004   0.00048   0.00000
  35 5   H  1S          0.03752   0.04027   0.01342   0.00672   0.00110
  36        2S          0.01806   0.03628   0.01209   0.00605   0.00070
  37        3PX         0.00107  -0.00002   0.00023   0.00012   0.00001
  38        3PY         0.00036   0.00023   0.00030   0.00004   0.00000
  39        3PZ         0.00018   0.00012   0.00004   0.00048   0.00000
                          11        12        13        14        15
  11        4PX         0.00266
  12        4PY         0.00000   0.00266
  13        4PZ         0.00000   0.00000   0.00265
  14        5XX         0.00000   0.00000   0.00000   0.00113
  15        5YY         0.00000   0.00000   0.00000   0.00003   0.00113
  16        5ZZ         0.00000   0.00000   0.00000  -0.00006  -0.00006
  17        5XY         0.00000   0.00000   0.00000   0.00000   0.00000
  18        5XZ         0.00000   0.00000   0.00000   0.00000   0.00000
  19        5YZ         0.00000   0.00000   0.00000   0.00000   0.00000
  20 2   H  1S          0.00000   0.00000   0.00455  -0.00111  -0.00111
  21        2S          0.00000   0.00000   0.00750  -0.00216  -0.00216
  22        3PX         0.00005   0.00000   0.00000   0.00000   0.00000
  23        3PY         0.00000   0.00005   0.00000   0.00000   0.00000
  24        3PZ         0.00000   0.00000  -0.00002  -0.00005  -0.00005
  25 3   H  1S          0.00000   0.00405   0.00051  -0.00111   0.00364
  26        2S          0.00000   0.00668   0.00083  -0.00217   0.00351
  27        3PX         0.00005   0.00000   0.00000  -0.00000  -0.00000
  28        3PY         0.00000  -0.00002   0.00000  -0.00003   0.00002
  29        3PZ         0.00000   0.00000   0.00004  -0.00002  -0.00002
  30 4   H  1S          0.00304   0.00101   0.00051   0.00143  -0.00095
  31        2S          0.00501   0.00167   0.00083   0.00190  -0.00094
  32        3PX        -0.00001   0.00000   0.00000   0.00002  -0.00006
  33        3PY         0.00000   0.00003   0.00000  -0.00006  -0.00000
  34        3PZ         0.00000   0.00000   0.00004  -0.00003  -0.00003
  35 5   H  1S          0.00304   0.00101   0.00051   0.00143  -0.00095
  36        2S          0.00501   0.00167   0.00083   0.00190  -0.00094
  37        3PX        -0.00001   0.00000   0.00000   0.00002  -0.00006
  38        3PY         0.00000   0.00003   0.00000  -0.00006  -0.00000
  39        3PZ         0.00000   0.00000   0.00004  -0.00003  -0.00003
                          16        17        18        19        20
  16        5ZZ         0.00139
  17        5XY         0.00000   0.00070
  18        5XZ         0.00000   0.00000   0.00035
  19        5YZ         0.00000   0.00000   0.00000   0.00035
  20 2   H  1S          0.00501   0.00000   0.00000   0.00000   0.21578
  21        2S          0.00436   0.00000   0.00000   0.00000   0.09946
  22        3PX         0.00000   0.00000  -0.00007  -0.00000   0.00000
  23        3PY         0.00000   0.00000  -0.00000  -0.00007   0.00000
  24        3PZ         0.00003   0.00000   0.00000   0.00000   0.00000
  25 3   H  1S         -0.00111   0.00000   0.00000   0.00137  -0.00038
  26        2S         -0.00157   0.00000   0.00000   0.00026  -0.00553
  27        3PX        -0.00000  -0.00009   0.00002   0.00000   0.00000
  28        3PY        -0.00008   0.00000   0.00000   0.00003   0.00001
  29        3PZ        -0.00001   0.00000  -0.00000  -0.00002   0.00009
  30 4   H  1S         -0.00111   0.00205   0.00103   0.00034  -0.00038
  31        2S         -0.00157   0.00039   0.00020   0.00007  -0.00553
  32        3PX        -0.00006   0.00001   0.00001   0.00002   0.00000
  33        3PY        -0.00002  -0.00001   0.00002   0.00000   0.00000
  34        3PZ        -0.00001   0.00002  -0.00001  -0.00000   0.00009
  35 5   H  1S         -0.00111   0.00205   0.00103   0.00034  -0.00038
  36        2S         -0.00157   0.00039   0.00020   0.00007  -0.00553
  37        3PX        -0.00006   0.00001   0.00001   0.00002   0.00000
  38        3PY        -0.00002  -0.00001   0.00002   0.00000   0.00000
  39        3PZ        -0.00001   0.00002  -0.00001  -0.00000   0.00009
                          21        22        23        24        25
  21        2S          0.11493
  22        3PX         0.00000   0.00015
  23        3PY         0.00000  -0.00000   0.00015
  24        3PZ         0.00000   0.00000   0.00000   0.00043
  25 3   H  1S         -0.00553   0.00000   0.00006   0.00004   0.21579
  26        2S         -0.01399   0.00000   0.00022  -0.00001   0.09950
  27        3PX        -0.00000   0.00000   0.00000   0.00000   0.00000
  28        3PY        -0.00008   0.00000   0.00000   0.00000   0.00000
  29        3PZ         0.00029   0.00000   0.00000   0.00000   0.00000
  30 4   H  1S         -0.00553   0.00004   0.00001   0.00004  -0.00038
  31        2S         -0.01399   0.00017   0.00006  -0.00001  -0.00554
  32        3PX        -0.00006   0.00000   0.00000   0.00000   0.00000
  33        3PY        -0.00002   0.00000  -0.00000   0.00000   0.00009
  34        3PZ         0.00029   0.00000   0.00000   0.00000   0.00000
  35 5   H  1S         -0.00553   0.00004   0.00001   0.00004  -0.00038
  36        2S         -0.01399   0.00017   0.00006  -0.00001  -0.00554
  37        3PX        -0.00006   0.00000   0.00000   0.00000   0.00000
  38        3PY        -0.00002   0.00000  -0.00000   0.00000   0.00009
  39        3PZ         0.00029   0.00000   0.00000   0.00000   0.00000
                          26        27        28        29        30
  26        2S          0.11503
  27        3PX         0.00000   0.00015
  28        3PY         0.00000   0.00000   0.00040
  29        3PZ         0.00000   0.00000   0.00000   0.00018
  30 4   H  1S         -0.00554   0.00004   0.00005   0.00000   0.21579
  31        2S         -0.01402   0.00017   0.00004   0.00000   0.09950
  32        3PX        -0.00006   0.00000   0.00000   0.00000   0.00000
  33        3PY         0.00027   0.00000   0.00000   0.00000   0.00000
  34        3PZ         0.00000   0.00000   0.00000   0.00000   0.00000
  35 5   H  1S         -0.00554   0.00004   0.00005   0.00000  -0.00038
  36        2S         -0.01402   0.00017   0.00004   0.00000  -0.00554
  37        3PX        -0.00006   0.00000   0.00000   0.00000   0.00010
  38        3PY         0.00027   0.00000   0.00000   0.00000   0.00000
  39        3PZ         0.00000   0.00000   0.00000   0.00000   0.00000
                          31        32        33        34        35
  31        2S          0.11503
  32        3PX         0.00000   0.00034
  33        3PY         0.00000   0.00000   0.00021
  34        3PZ         0.00000   0.00000   0.00000   0.00018
  35 5   H  1S         -0.00554   0.00010   0.00000   0.00000   0.21579
  36        2S         -0.01402   0.00021   0.00000   0.00000   0.09950
  37        3PX         0.00021   0.00001   0.00000   0.00000   0.00000
  38        3PY         0.00000   0.00000   0.00000   0.00000   0.00000
  39        3PZ         0.00000   0.00000   0.00000   0.00000   0.00000
                          36        37        38        39
  36        2S          0.11503
  37        3PX         0.00000   0.00034
  38        3PY         0.00000   0.00000   0.00021
  39        3PZ         0.00000   0.00000   0.00000   0.00018
     Gross orbital populations:
                           1
   1 1   C  1S          1.99177
   2        2S          0.68405
   3        2PX         0.71270
   4        2PY         0.71270
   5        2PZ         0.71272
   6        3S          0.67432
   7        3PX         0.34107
   8        3PY         0.34107
   9        3PZ         0.34101
  10        4S          0.01973
  11        4PX         0.03263
  12        4PY         0.03263
  13        4PZ         0.03260
  14        5XX        -0.01028
  15        5YY        -0.01028
  16        5ZZ        -0.00887
  17        5XY         0.00555
  18        5XZ         0.00278
  19        5YZ         0.00278
  20 2   H  1S          0.52954
  21        2S          0.30584
  22        3PX         0.00241
  23        3PY         0.00241
  24        3PZ         0.00710
  25 3   H  1S          0.52955
  26        2S          0.30586
  27        3PX         0.00241
  28        3PY         0.00658
  29        3PZ         0.00293
  30 4   H  1S          0.52955
  31        2S          0.30586
  32        3PX         0.00554
  33        3PY         0.00345
  34        3PZ         0.00293
  35 5   H  1S          0.52955
  36        2S          0.30586
  37        3PX         0.00554
  38        3PY         0.00345
  39        3PZ         0.00293
          Condensed to atoms (all electrons):
              1          2          3          4          5
     1  C    5.045236   0.391399   0.391352   0.391352   0.391352
     2  H    0.391399   0.530362  -0.024819  -0.024819  -0.024819
     3  H    0.391352  -0.024819   0.530539  -0.024869  -0.024869
     4  H    0.391352  -0.024819  -0.024869   0.530539  -0.024869
     5  H    0.391352  -0.024819  -0.024869  -0.024869   0.530539
 Mulliken atomic charges:
              1
     1  C   -0.610691
     2  H    0.152695
     3  H    0.152665
     4  H    0.152665
     5  H    0.152665
 Sum of Mulliken atomic charges =   0.00000
 Mulliken charges with hydrogens summed into heavy atoms:
              1
     1  C    0.000000
 Sum of Mulliken charges with hydrogens summed into heavy atoms =   0.00000
 Electronic spatial extent (au):  <R**2>=             35.9379
 Charge=              0.0000 electrons
 Dipole moment (field-independent basis, Debye):
    X=             -0.0000    Y=             -0.0000    Z=             -0.0006  Tot=              0.0006
 Quadrupole moment (field-independent basis, Debye-Ang):
   XX=             -8.5047   YY=             -8.5047   ZZ=             -8.5016
   XY=             -0.0000   XZ=              0.0000   YZ=             -0.0000
 Traceless Quadrupole moment (field-independent basis, Debye-Ang):
   XX=             -0.0011   YY=             -0.0011   ZZ=              0.0021
   XY=             -0.0000   XZ=              0.0000   YZ=             -0.0000
 Octapole moment (field-independent basis, Debye-Ang**2):
  XXX=             -0.0000  YYY=              0.5604  ZZZ=              0.7935  XYY=              0.0000
  XXY=             -0.5604  XXZ=             -0.3975  XZZ=              0.0000  YZZ=              0.0000
  YYZ=             -0.3975  XYZ=              0.0000
 Hexadecapole moment (field-independent basis, Debye-Ang**3):
 XXXX=            -16.8218 YYYY=            -16.8218 ZZZZ=            -16.5909 XXXY=              0.0000
 XXXZ=              0.0000 YYYX=              0.0000 YYYZ=             -0.3259 ZZZX=             -0.0000
 ZZZY=             -0.0000 XXYY=             -5.6073 XXZZ=             -5.8371 YYZZ=             -5.8371
 XXYZ=              0.3259 YYXZ=             -0.0000 ZZXY=              0.0000
 N-N= 1.343538939233D+01 E-N=-1.198811321443D+02  KE= 4.007912649396D+01
 Symmetry A'   KE= 3.815882696291D+01
 Symmetry A"   KE= 1.920299531049D+00
 Orbital energies and kinetic energies (alpha):
                                 1                 2
   1         (A1)--O         -10.171405         15.880735
   2         (A1)--O          -0.696753          1.278396
   3         (A1)--O          -0.394343          0.960133
   4         (E)--O           -0.394203          0.960150
   5         (E)--O           -0.394203          0.960150
   6         (A1)--V           0.016134          0.352051
   7         (A1)--V           0.061120          0.231399
   8         (E)--V            0.061142          0.231383
   9         (E)--V            0.061142          0.231383
  10         (E)--V            0.182065          0.807226
  11         (E)--V            0.182065          0.807226
  12         (A1)--V           0.182150          0.807103
  13         (A1)--V           0.278440          1.110330
  14         (A1)--V           0.637699          1.860913
  15         (E)--V            0.637721          1.860874
  16         (E)--V            0.637721          1.860874
  17         (E)--V            0.911060          2.287278
  18         (E)--V            0.911060          2.287278
  19         (A1)--V           0.911261          2.287598
  20         (A1)--V           1.053064          2.408890
  21         (A1)--V           1.115131          2.156913
  22         (E)--V            1.357276          2.346304
  23         (E)--V            1.357276          2.346304
  24         (E)--V            2.043508          2.835679
  25         (E)--V            2.043508          2.835679
  26         (A2)--V           2.043712          2.835859
  27         (A1)--V           2.088003          3.192131
  28         (E)--V            2.088469          3.192697
  29         (E)--V            2.088469          3.192697
  30         (E)--V            2.627141          3.521932
  31         (E)--V            2.627141          3.521932
  32         (A1)--V           2.628154          3.523212
  33         (E)--V            2.910259          3.900679
  34         (E)--V            2.910259          3.900679
  35         (A1)--V           3.172853          4.755456
  36         (A1)--V           3.418444          5.082419
  37         (E)--V            3.418683          5.082332
  38         (E)--V            3.418683          5.082332
  39         (A1)--V           4.419111          9.896290
 Total kinetic energy from orbitals= 4.007912649396D+01
 No NMR shielding tensors so no spin-rotation constants.
 Leave Link  601 at Wed Aug 14 23:13:20 2024, MaxMem=   13107200 cpu:       0.2
 (Enter /programs/64bit/g09/g09-gfortran/bin/l701.exe)
 Compute integral first derivatives.
 ... and contract with generalized density number  0.
 Leave Link  701 at Wed Aug 14 23:13:21 2024, MaxMem=   13107200 cpu:       0.2
 (Enter /programs/64bit/g09/g09-gfortran/bin/l702.exe)
 L702 exits ... SP integral derivatives will be done elsewhere.
 Leave Link  702 at Wed Aug 14 23:13:21 2024, MaxMem=   13107200 cpu:       0.0
 (Enter /programs/64bit/g09/g09-gfortran/bin/l703.exe)
 Compute integral first derivatives, UseDBF=F ICtDFT=           0.
 Integral derivatives from FoFDir, PRISM(SPDF).
 Calling FoFJK, ICntrl=      2127 FMM=F ISym2X=1 I1Cent= 0 IOpClX= 0 NMat=1 NMatS=1 NMatT=0.
 FoFCou: FMM=F IPFlag=           0 FMFlag=      100000 FMFlg1=         800
         NFxFlg=           0 DoJE=F BraDBF=F KetDBF=F FulRan=T
         Omega=  0.000000  0.000000  1.000000  0.000000  0.000000 ICntrl=    2127 IOpCl=  0
         NMat0=    1 NMatS0=    1 NMatT0=    0 NMatD0=    1 NMtDS0=    0 NMtDT0=    0
         I1Cent=           0 NGrid=           0.
 Petite list used in FoFCou.
 Leave Link  703 at Wed Aug 14 23:13:22 2024, MaxMem=   13107200 cpu:       1.2
 (Enter /programs/64bit/g09/g09-gfortran/bin/l716.exe)
 Dipole        = 0.00000000D+00 0.00000000D+00-2.43504485D-04
 ***** Axes restored to original set *****
 -------------------------------------------------------------------
 Center     Atomic                   Forces (Hartrees/Bohr)
 Number     Number              X              Y              Z
 -------------------------------------------------------------------
      1        6          -0.000000000   -0.000000000   -0.000127665
      2        1          -0.000000000    0.000000000    0.001801148
      3        1           0.001752100   -0.000000000   -0.000557827
      4        1          -0.000876050   -0.001517363   -0.000557827
      5        1          -0.000876050    0.001517363   -0.000557827
 -------------------------------------------------------------------
 Cartesian Forces:  Max     0.001801148 RMS     0.000945287
 Leave Link  716 at Wed Aug 14 23:13:22 2024, MaxMem=   13107200 cpu:       0.0
 (Enter /programs/64bit/g09/g09-gfortran/bin/l103.exe)

 GradGradGradGradGradGradGradGradGradGradGradGradGradGradGradGradGradGrad
 Berny optimization.
 Internal  Forces:  Max     0.001837809 RMS     0.000977823
 Search for a local minimum.
 Step number   1 out of a maximum of   24
 All quantities printed in internal units (Hartrees-Bohrs-Radians)
 RMS Force = .97782D-03 SwitMx=.10000D-02 MixMth= 2
 Mixed Optimization -- En-DIIS/RFO-DIIS
 Second derivative matrix not updated -- first step.
 The second derivative matrix:
                          R1        R2        R3        R4        A1
           R1           0.34813
           R2           0.00000   0.34813
           R3           0.00000   0.00000   0.34813
           R4           0.00000   0.00000   0.00000   0.34813
           A1           0.00000   0.00000   0.00000   0.00000   0.16000
           A2           0.00000   0.00000   0.00000   0.00000   0.00000
           A3           0.00000   0.00000   0.00000   0.00000   0.00000
           A4           0.00000   0.00000   0.00000   0.00000   0.00000
           A5           0.00000   0.00000   0.00000   0.00000   0.00000
           A6           0.00000   0.00000   0.00000   0.00000   0.00000
           D1           0.00000   0.00000   0.00000   0.00000   0.00000
           D2           0.00000   0.00000   0.00000   0.00000   0.00000
           D3           0.00000   0.00000   0.00000   0.00000   0.00000
           D4           0.00000   0.00000   0.00000   0.00000   0.00000
                          A2        A3        A4        A5        A6
           A2           0.16000
           A3           0.00000   0.16000
           A4           0.00000   0.00000   0.16000
           A5           0.00000   0.00000   0.00000   0.16000
[...]
     5   1    -0.34  -0.18  -0.14    -0.57  -0.34  -0.24     0.24   0.14   0.08

 -------------------
 - Thermochemistry -
 -------------------
 Temperature   298.150 Kelvin.  Pressure   1.00000 Atm.
 Atom     1 has atomic number  6 and mass  12.00000
 Atom     2 has atomic number  1 and mass   1.00783
 Atom     3 has atomic number  1 and mass   1.00783
 Atom     4 has atomic number  1 and mass   1.00783
 Atom     5 has atomic number  1 and mass   1.00783
 Molecular mass:    16.03130 amu.
 Principal axes and moments of inertia in atomic units:
                           1         2         3
     Eigenvalues --    11.46005  11.46124  11.46124
           X            0.00000  -0.13952   0.99022
           Y            0.00000   0.99022   0.13952
           Z            1.00000  -0.00000  -0.00000
 This molecule is a prolate symmetric top.
 Rotational symmetry number  3.
 Rotational temperatures (Kelvin)      7.55789     7.55710     7.55710
 Rotational constants (GHZ):         157.48105   157.46467   157.46467
 Zero-point vibrational energy     117575.4 (Joules/Mol)
                                   28.10120 (Kcal/Mol)
 Vibrational temperatures:   1938.56  1938.56  1939.03  2249.91  2249.91
          (Kelvin)           4369.79  4531.91  4531.91  4532.55
 
 Zero-point correction=                           0.044782 (Hartree/Particle)
 Thermal correction to Energy=                    0.047650
 Thermal correction to Enthalpy=                  0.048594
 Thermal correction to Gibbs Free Energy=         0.026151
 Sum of electronic and zero-point Energies=            -40.481356
 Sum of electronic and thermal Energies=               -40.478488
 Sum of electronic and thermal Enthalpies=             -40.477544
 Sum of electronic and thermal Free Energies=          -40.499988
 
                     E (Thermal)             CV                S
                      KCal/Mol        Cal/Mol-Kelvin    Cal/Mol-Kelvin
 Total                   29.901              6.461             47.236
 Electronic               0.000              0.000              0.000
 Translational            0.889              2.981             34.261
 Rotational               0.889              2.981             12.890
 Vibrational             28.123              0.499              0.085
                       Q            Log10(Q)             Ln(Q)
 Total Bot       0.936648D-12        -12.028424        -27.696469
 Total V=0       0.371427D+09          8.569873         19.732863
 Vib (Bot)       0.253582D-20        -20.595882        -47.423771
 Vib (V=0)       0.100558D+01          0.002415          0.005560
 Electronic      0.100000D+01          0.000000          0.000000
 Translational   0.252295D+07          6.401908         14.740939
 Rotational      0.146403D+03          2.165550          4.986364
 
                                                               methane
                                                             IR Spectrum
 
      3   3                                                          1        1                                                      
      1   0                                                          5        3                                                      
      5   3                                                          6        4                                                      
      0   7                                                          4        7                                                      
 
      X                                                                       X                                                      
      X                                                                       X                                                      
      X                                                                       X                                                      
      X                                                                       X                                                      
      X                                                                       X                                                      
      X                                                                       X                                                      
      X                                                                       X                                                      
      X                                                                       X                                                      
      X                                                                       X                                                      
      X                                                                       X                                                      
      X                                                                       X                                                      
      X                                                                       X                                                      
      X                                                                       X                                                      
      X                                                                       X                                                      
      X                                                                       X                                                      
      X                                                                                                                              
      X                                                                                                                              
      X                                                                                                                              
      X                                                                                                                              
      X                                                                                                                              
 
 ***** Axes restored to original set *****
 -------------------------------------------------------------------
 Center     Atomic                   Forces (Hartrees/Bohr)
 Number     Number              X              Y              Z
 -------------------------------------------------------------------
      1        6          -0.000000000    0.000000000   -0.000064787
      2        1           0.000000000   -0.000000000   -0.000014458
      3        1          -0.000033125    0.000000000    0.000026415
      4        1           0.000016562    0.000028687    0.000026415
      5        1           0.000016562   -0.000028687    0.000026415
 -------------------------------------------------------------------
 Cartesian Forces:  Max     0.000064787 RMS     0.000025549
 Force constants in Cartesian coordinates: 
                1             2             3             4             5 
      1  0.548630D+00
      2  0.000000D+00  0.548633D+00
      3  0.000000D+00  0.000000D+00  0.548933D+00
      4 -0.459010D-01  0.000000D+00  0.000000D+00  0.450129D-01
      5  0.000000D+00 -0.459025D-01  0.000000D+00  0.000000D+00  0.450125D-01
      6 -0.200614D-05  0.000000D+00 -0.319794D+00  0.000000D+00  0.000000D+00
      7 -0.289233D+00  0.000000D+00  0.860582D-01  0.219240D-02  0.000000D+00
      8  0.000000D+00 -0.459197D-01  0.000000D+00  0.000000D+00 -0.160047D-02
      9  0.860621D-01  0.000000D+00 -0.763800D-01  0.316293D-01  0.000000D+00
     10 -0.106748D+00 -0.105358D+00 -0.430293D-01 -0.652208D-03  0.164272D-02
     11 -0.105358D+00 -0.228405D+00 -0.745285D-01  0.164238D-02  0.124471D-02
     12 -0.430307D-01 -0.745314D-01 -0.763796D-01 -0.158147D-01 -0.273914D-01
     13 -0.106748D+00  0.105358D+00 -0.430293D-01 -0.652208D-03 -0.164272D-02
     14  0.105358D+00 -0.228405D+00  0.745285D-01 -0.164238D-02  0.124471D-02
     15 -0.430307D-01  0.745314D-01 -0.763796D-01 -0.158147D-01  0.273914D-01
                6             7             8             9            10 
      6  0.345799D+00
      7 -0.912989D-03  0.312265D+00
      8  0.000000D+00  0.000000D+00  0.450417D-01
      9 -0.866840D-02 -0.945116D-01  0.000000D+00  0.784754D-01
     10  0.457089D-03 -0.126123D-01 -0.252815D-01 -0.115898D-01  0.111847D+00
     11  0.790946D-03  0.128972D-02  0.123933D-02  0.128358D-02  0.115711D+00
     12 -0.866828D-02  0.468327D-02  0.106788D-01  0.328652D-02  0.472558D-01
     13  0.457089D-03 -0.126123D-01  0.252815D-01 -0.115898D-01  0.816514D-02
     14 -0.790946D-03 -0.128972D-02  0.123933D-02 -0.128358D-02  0.132856D-01
     15 -0.866828D-02  0.468327D-02 -0.106788D-01  0.328652D-02  0.690650D-02
               11            12            13            14            15 
     11  0.245459D+00
     12  0.818494D-01  0.784754D-01
     13 -0.132856D-01  0.690650D-02  0.111847D+00
     14 -0.195381D-01  0.939525D-02 -0.115711D+00  0.245459D+00
     15 -0.939525D-02  0.328652D-02  0.472558D-01 -0.818494D-01  0.784754D-01
 Force constants in internal coordinates: 
                1             2             3             4             5 
      1  0.345799D+00
      2  0.203001D-02  0.345693D+00
      3  0.202926D-02  0.203296D-02  0.345692D+00
      4  0.202926D-02  0.203296D-02  0.203306D-02  0.345692D+00
      5  0.193069D-02  0.193098D-02 -0.121237D-02 -0.264936D-02  0.196642D-01
      6  0.302544D-02 -0.780570D-03  0.336777D-02 -0.561310D-02 -0.871155D-02
      7  0.591214D-02 -0.474614D-02 -0.525337D-02  0.408673D-02 -0.130203D-01
      8 -0.782385D-03  0.302567D-02  0.336741D-02 -0.561087D-02 -0.870964D-02
      9 -0.474628D-02  0.591327D-02 -0.525231D-02  0.408545D-02 -0.130320D-01
     10 -0.534270D-02 -0.534218D-02  0.498374D-02  0.570234D-02  0.238099D-01
     11 -0.373822D-02 -0.374050D-02 -0.264031D-02  0.101195D-01 -0.134145D-01
     12  0.307786D-02  0.308086D-02 -0.791952D-02  0.176042D-02  0.812803D-02
     13 -0.405337D-02  0.713508D-02 -0.396061D-02  0.879104D-03  0.405823D-02
     14 -0.713122D-02  0.405422D-02  0.395891D-02 -0.881320D-03 -0.406980D-02
                6             7             8             9            10 
      6  0.370892D-01
      7 -0.225202D-01  0.724569D-01
      8 -0.203699D-02  0.246751D-01  0.370758D-01
      9  0.246794D-01 -0.351167D-01 -0.225231D-01  0.724623D-01
     10 -0.285015D-01 -0.264852D-01 -0.284851D-01 -0.264632D-01  0.861341D-01
     11 -0.107958D-01  0.146234D-01 -0.107967D-01  0.146450D-01  0.574127D-02
     12 -0.934335D-02  0.691377D-02 -0.935367D-02  0.692153D-02 -0.326793D-02
     13 -0.141762D-01 -0.565665D-03  0.483315D-02  0.748886D-02 -0.163530D-02
     14 -0.483289D-02 -0.747943D-02  0.141868D-01  0.567329D-03  0.163263D-02
               11            12            13            14 
     11  0.296552D-01
     12  0.149648D-02  0.184292D-01
     13  0.750341D-03  0.921162D-02  0.187113D-01
     14 -0.746136D-03 -0.921759D-02  0.949964D-02  0.187172D-01
 Leave Link  716 at Wed Aug 14 23:13:51 2024, MaxMem=   13107200 cpu:       0.1
 (Enter /programs/64bit/g09/g09-gfortran/bin/l103.exe)

 GradGradGradGradGradGradGradGradGradGradGradGradGradGradGradGradGradGrad
 Berny optimization.
 Internal  Forces:  Max     0.000040037 RMS     0.000019868
 Search for a local minimum.
 Step number   1 out of a maximum of    2
 All quantities printed in internal units (Hartrees-Bohrs-Radians)
 Second derivative matrix not updated -- analytic derivatives used.
 The second derivative matrix:
                          R1        R2        R3        R4        A1
           R1           0.34580
           R2           0.00203   0.34569
           R3           0.00203   0.00203   0.34569
           R4           0.00203   0.00203   0.00203   0.34569
           A1           0.00193   0.00193  -0.00121  -0.00265   0.01966
           A2           0.00303  -0.00078   0.00337  -0.00561  -0.00871
           A3           0.00591  -0.00475  -0.00525   0.00409  -0.01302
           A4          -0.00078   0.00303   0.00337  -0.00561  -0.00871
           A5          -0.00475   0.00591  -0.00525   0.00409  -0.01303
           A6          -0.00534  -0.00534   0.00498   0.00570   0.02381
           D1          -0.00374  -0.00374  -0.00264   0.01012  -0.01341
           D2           0.00308   0.00308  -0.00792   0.00176   0.00813
           D3          -0.00405   0.00714  -0.00396   0.00088   0.00406
           D4          -0.00713   0.00405   0.00396  -0.00088  -0.00407
                          A2        A3        A4        A5        A6
           A2           0.03709
           A3          -0.02252   0.07246
           A4          -0.00204   0.02468   0.03708
           A5           0.02468  -0.03512  -0.02252   0.07246
           A6          -0.02850  -0.02649  -0.02849  -0.02646   0.08613
           D1          -0.01080   0.01462  -0.01080   0.01465   0.00574
           D2          -0.00934   0.00691  -0.00935   0.00692  -0.00327
           D3          -0.01418  -0.00057   0.00483   0.00749  -0.00164
           D4          -0.00483  -0.00748   0.01419   0.00057   0.00163
                          D1        D2        D3        D4
           D1           0.02966
           D2           0.00150   0.01843
           D3           0.00075   0.00921   0.01871
           D4          -0.00075  -0.00922   0.00950   0.01872
     Eigenvalues ---    0.03778   0.04258   0.06469   0.13091   0.13141
     Eigenvalues ---    0.34457   0.34465   0.34486   0.351811000.00000
     Eigenvalues --- 1000.000001000.000001000.000001000.00000
 Angle between quadratic step and forces=  51.01 degrees.
 Linear search not attempted -- first point.
 Iteration  1 RMS(Cart)=  0.00008604 RMS(Int)=  0.00000002
 Iteration  2 RMS(Cart)=  0.00000001 RMS(Int)=  0.00000001
 ClnCor:  largest displacement from symmetrization is 5.66D-09 for atom     5.
 Variable       Old X    -DE/DX   Delta X   Delta X   Delta X     New X
                                 (Linear)    (Quad)   (Total)
    R1        2.06497  -0.00001   0.00000  -0.00002  -0.00002   2.06495
    R2        2.06508  -0.00004   0.00000  -0.00012  -0.00012   2.06496
    R3        2.06508  -0.00004   0.00000  -0.00012  -0.00012   2.06496
    R4        2.06508  -0.00004   0.00000  -0.00012  -0.00012   2.06496
    A1        1.91077  -0.00000   0.00000  -0.00012  -0.00012   1.91064
    A2        1.91077  -0.00000   0.00000  -0.00012  -0.00012   1.91064
    A3        1.91077  -0.00001   0.00000  -0.00012  -0.00012   1.91064
    A4        1.91050   0.00000   0.00000   0.00012   0.00012   1.91062
    A5        1.91050   0.00001   0.00000   0.00012   0.00012   1.91062
    A6        1.91050   0.00001   0.00000   0.00012   0.00012   1.91062
    D1       -2.09456   0.00001   0.00000   0.00015   0.00015  -2.09441
    D2        2.09456  -0.00001   0.00000  -0.00015  -0.00015   2.09441
    D3       -2.09456   0.00001   0.00000   0.00015   0.00015  -2.09441
    D4        2.09407   0.00001   0.00000   0.00030   0.00030   2.09437
         Item               Value     Threshold  Converged?
 Maximum Force            0.000040     0.000450     YES
 RMS     Force            0.000020     0.000300     YES
 Maximum Displacement     0.000184     0.001800     YES
 RMS     Displacement     0.000086     0.001200     YES
 Predicted change in Energy=-1.266482D-08
 Optimization completed.
    -- Stationary point found.
                           ----------------------------
                           !   Optimized Parameters   !
                           ! (Angstroms and Degrees)  !
 --------------------------                            --------------------------
 ! Name  Definition              Value          Derivative Info.                !
 --------------------------------------------------------------------------------
 ! R1    R(1,2)                  1.0927         -DE/DX =    0.0                 !
 ! R2    R(1,3)                  1.0928         -DE/DX =    0.0                 !
 ! R3    R(1,4)                  1.0928         -DE/DX =    0.0                 !
 ! R4    R(1,5)                  1.0928         -DE/DX =    0.0                 !
 ! A1    A(2,1,3)              109.4789         -DE/DX =    0.0                 !
 ! A2    A(2,1,4)              109.4789         -DE/DX =    0.0                 !
 ! A3    A(2,1,5)              109.4789         -DE/DX =    0.0                 !
 ! A4    A(3,1,4)              109.4635         -DE/DX =    0.0                 !
 ! A5    A(3,1,5)              109.4635         -DE/DX =    0.0                 !
 ! A6    A(4,1,5)              109.4635         -DE/DX =    0.0                 !
 ! D1    D(2,1,4,3)           -120.0094         -DE/DX =    0.0                 !
 ! D2    D(2,1,5,3)            120.0094         -DE/DX =    0.0                 !
 ! D3    D(2,1,5,4)           -120.0094         -DE/DX =    0.0                 !
 ! D4    D(3,1,5,4)            119.9812         -DE/DX =    0.0                 !
 --------------------------------------------------------------------------------
 GradGradGradGradGradGradGradGradGradGradGradGradGradGradGradGradGradGrad

 Leave Link  103 at Wed Aug 14 23:13:51 2024, MaxMem=   13107200 cpu:       0.0
 (Enter /programs/64bit/g09/g09-gfortran/bin/l9999.exe)
 1\1\GINC-MOLMOD\Freq\RB3LYP\6-31+G(d,p)\C1H4\OSPITE\14-Aug-2024\0\\#P 
 Geom=AllCheck Guess=TCheck SCRF=Check GenChk RB3LYP/6-31+G(d,p) Freq\\
 methane\\0,1\C,0.,0.,-0.0002166706\H,0.,0.,1.0925209004\H,1.0302467385
 ,0.,-0.3646195039\H,-0.5151233692,-0.8922198477,-0.3646195039\H,-0.515
 1233692,0.8922198477,-0.3646195039\\Version=EM64L-G09RevA.02\State=1-A
 1\HF=-40.5261383\RMSD=2.074e-10\RMSF=2.555e-05\ZeroPoint=0.0447821\The
 rmal=0.0476499\Dipole=0.,0.,-0.0000506\DipoleDeriv=-0.0237592,0.,-0.00
 00261,0.,-0.0237406,0.,0.0000029,0.,-0.0237304,0.081919,0.,0.0000011,0
 .,0.081924,0.,-0.0000097,0.,-0.1459404,-0.1207331,0.,0.0716475,0.,0.08
 19578,0.,0.0716714,0.,0.0565544,0.0312859,-0.0877665,-0.0358175,-0.087
 7633,-0.0700655,-0.0620431,-0.035834,-0.0620746,0.0565563,0.0312859,0.
 0877665,-0.0358175,0.0877633,-0.0700655,0.0620431,-0.035834,0.0620746,
 0.0565563\Polar=13.7081419,0.,13.7082216,0.0000951,0.,13.7079464\PG=C0
 3V [C3(C1H1),3SGV(H1)]\NImag=0\\0.54863050,0.,0.54863281,0.00000055,0.
 ,0.54893274,-0.04590096,0.,0.00000038,0.04501290,0.,-0.04590253,0.,0.,
 0.04501251,-0.00000201,0.,-0.31979430,-0.00000037,0.,0.34579903,-0.289
 23277,0.,0.08605822,0.00219240,0.,-0.00091299,0.31226476,0.,-0.0459196
 8,0.,0.,-0.00160047,0.,0.,0.04504172,0.08606210,0.,-0.07638004,0.03162
 933,0.,-0.00866840,-0.09451160,0.,0.07847540,-0.10674817,-0.10535808,-
 0.04302934,-0.00065221,0.00164272,0.00045709,-0.01261231,-0.02528145,-
 0.01158977,0.11184748,-0.10535778,-0.22840490,-0.07452851,0.00164238,0
 .00124471,0.00079095,0.00128972,0.00123933,0.00128358,0.11571097,0.245
 45900,-0.04303068,-0.07453143,-0.07637962,-0.01581467,-0.02739145,-0.0
 0866828,0.00468327,0.01067883,0.00328652,0.04725580,0.08184945,0.07847
 540,-0.10674817,0.10535808,-0.04302934,-0.00065221,-0.00164272,0.00045
 709,-0.01261231,0.02528145,-0.01158977,0.00816514,-0.01328559,0.006906
 50,0.11184748,0.10535778,-0.22840490,0.07452851,-0.00164238,0.00124471
 ,-0.00079095,-0.00128972,0.00123933,-0.00128358,0.01328559,-0.01953812
 ,0.00939525,-0.11571097,0.24545900,-0.04303068,0.07453143,-0.07637962,
 -0.01581467,0.02739145,-0.00866828,0.00468327,-0.01067883,0.00328652,0
 .00690650,-0.00939525,0.00328652,0.04725580,-0.08184945,0.07847540\\0.
 ,0.,0.00006479,0.,0.,0.00001446,0.00003312,0.,-0.00002642,-0.00001656,
 -0.00002869,-0.00002642,-0.00001656,0.00002869,-0.00002642\\\@


 DEPRESSION IS WAITING FOR YOUR SHIP TO COME IN,
 AND FINDING OUT IT'S THE TITANIC.
 Job cpu time:  0 days  0 hours  0 minutes 22.6 seconds.
 File lengths (MBytes):  RWF=      5 Int=      0 D2E=      0 Chk=      1 Scr=      1
 Normal termination of Gaussian 09 at Wed Aug 14 23:13:51 2024.
