 Entering Gaussian System, Link 0=/programs/64bit/g09/g09-gfortran/bin/g09
 Input=H2.com
 Output=H2.log
 Initial command:
 /programs/64bit/g09/g09-gfortran/bin/l1.exe /home/ospite/Desktop/MMfP/Project8/gaussian_simulations/round3/Gau-12681.inp -scrdir=/home/ospite/Desktop/MMfP/Project8/gaussian_simulations/round3/
 Entering Link 1 = /programs/64bit/g09/g09-gfortran/bin/l1.exe PID=     12682.
  
 Copyright (c) 1988,1990,1992,1993,1995,1998,2003,2009, Gaussian, Inc.
                  All Rights Reserved.
  
 This is part of the Gaussian(R) 09 program.  It is based on
 the Gaussian(R) 03 system (copyright 2003, Gaussian, Inc.),
 the Gaussian(R) 98 system (copyright 1998, Gaussian, Inc.),
 the Gaussian(R) 94 system (copyright 1995, Gaussian, Inc.),
 the Gaussian 92(TM) system (copyright 1992, Gaussian, Inc.),
 the Gaussian 90(TM) system (copyright 1990, Gaussian, Inc.),
 the Gaussian 88(TM) system (copyright 1988, Gaussian, Inc.),
 the Gaussian 86(TM) system (copyright 1986, Carnegie Mellon
 University), and the Gaussian 82(TM) system (copyright 1983,
 Carnegie Mellon University). Gaussian is a federally registered
 trademark of Gaussian, Inc.
  
 This software contains proprietary and confidential information,
 including trade secrets, belonging to Gaussian, Inc.
  
 This software is provided under written license and may be
 used, copied, transmitted, or stored only in accord with that
 written license.
  
 The following legend is applicable only to US Government
 contracts under FAR:
  
                    RESTRICTED RIGHTS LEGEND
  
 Use, reproduction and disclosure by the US Government is
 subject to restrictions as set forth in subparagraphs (a)
 and (c) of the Commercial Computer Software - Restricted
 Rights clause in FAR 52.227-19.
  
 Gaussian, Inc.
 340 Quinnipiac St., Bldg. 40, Wallingford CT 06492
  
  
 ---------------------------------------------------------------
 Warning -- This program may not be used in any manner that
 competes with the business of Gaussian, Inc. or will provide
 assistance to any competitor of Gaussian, Inc.  The licensee
 of this program is prohibited from giving any competitor of
 Gaussian, Inc. access to this program.  By using this program,
 the user acknowledges that Gaussian, Inc. is engaged in the
 business of creating and licensing software in the field of
 computational chemistry and represents and warrants to the
 licensee that it is not a competitor of Gaussian, Inc. and that
 it will not use this program in any manner prohibited above.
 ---------------------------------------------------------------
  

 Cite this work as:
 Gaussian 09, Revision A.02,
 M. J. Frisch, G. W. Trucks, H. B. Schlegel, G. E. Scuseria, 
 M. A. Robb, J. R. Cheeseman, G. Scalmani, V. Barone, B. Mennucci, 
 G. A. Petersson, H. Nakatsuji, M. Caricato, X. Li, H. P. Hratchian, 
 A. F. Izmaylov, J. Bloino, G. Zheng, J. L. Sonnenberg, M. Hada, 
 M. Ehara, K. Toyota, R. Fukuda, J. Hasegawa, M. Ishida, T. Nakajima, 
 Y. Honda, O. Kitao, H. Nakai, T. Vreven, J. A. Montgomery, Jr., 
 J. E. Peralta, F. Ogliaro, M. Bearpark, J. J. Heyd, E. Brothers, 
 K. N. Kudin, V. N. Staroverov, R. Kobayashi, J. Normand, 
 K. Raghavachari, A. Rendell, J. C. Burant, S. S. Iyengar, J. Tomasi, 
 M. Cossi, N. Rega, J. M. Millam, M. Klene, J. E. Knox, J. B. Cross, 
 V. Bakken, C. Adamo, J. Jaramillo, R. Gomperts, R. E. Stratmann, 
 O. Yazyev, A. J. Austin, R. Cammi, C. Pomelli, J. W. Ochterski, 
 R. L. Martin, K. Morokuma, V. G. Zakrzewski, G. A. Voth, 
 P. Salvador, J. J. Dannenberg, S. Dapprich, A. D. Daniels, 
 O. Farkas, J. B. Foresman, J. V. Ortiz, J. Cioslowski, 
 and D. J. Fox, Gaussian, Inc., Wallingford CT, 2009.
 
 ******************************************
 Gaussian 09:  EM64L-G09RevA.02 11-Jun-2009
                21-Aug-2024 
 ******************************************
 %mem=100MB
 %chk=h2
 ---------------------------------------------
 #p B3LYP/6-31g(d,p) opt freq pop=full gfinput
 ---------------------------------------------
 1/14=-1,18=20,19=15,26=3,38=1/1,3;
 2/9=110,12=2,17=6,18=5,40=1/2;
 3/5=1,6=6,7=101,11=2,16=1,24=10,25=1,30=1,71=1,74=-5/1,2,3;
 4//1;
 5/5=2,38=5/2;
 6/7=3,28=1/1;
 7//1,2,3,16;
 1/14=-1,18=20,19=15/3(2);
 2/9=110/2;
 99//99;
 2/9=110/2;
 3/5=1,6=6,7=101,11=2,16=1,25=1,30=1,71=1,74=-5/1,2,3;
 4/5=5,16=3/1;
 5/5=2,38=5/2;
 7//1,2,3,16;
 1/14=-1,18=20,19=15/3(-5);
 2/9=110/2;
 6/7=3,19=2,28=1/1;
 99/9=1/99;
 Leave Link    1 at Wed Aug 21 02:33:58 2024, MaxMem=   13107200 cpu:       0.1
 (Enter /programs/64bit/g09/g09-gfortran/bin/l101.exe)
 --
 H2
 --
 Symbolic Z-matrix:
 Charge =  0 Multiplicity = 1
 h
 h                    1    hh2
       Variables:
  hh2                   0.64                     
 
 NAtoms=      2 NQM=      2 NQMF=      0 NMic=      0 NMicF=      0 NTot=      2.
                    Isotopes and Nuclear Properties:
 (Nuclear quadrupole moments (NQMom) in fm**2, nuclear magnetic moments (NMagM)
  in nuclear magnetons)

  Atom         1           2
 IAtWgt=           1           1
 AtmWgt=   1.0078250   1.0078250
 NucSpn=           1           1
 AtZEff=   0.0000000   0.0000000
 NQMom=    0.0000000   0.0000000
 NMagM=    2.7928460   2.7928460
 Leave Link  101 at Wed Aug 21 02:33:58 2024, MaxMem=   13107200 cpu:       0.1
 (Enter /programs/64bit/g09/g09-gfortran/bin/l103.exe)

 GradGradGradGradGradGradGradGradGradGradGradGradGradGradGradGradGradGrad
 Berny optimization.
 Initialization pass.
                           ----------------------------
                           !    Initial Parameters    !
                           ! (Angstroms and Degrees)  !
 --------------------------                            --------------------------
 ! Name  Definition              Value          Derivative Info.                !
 --------------------------------------------------------------------------------
 ! R1    R(1,2)                  0.64           estimate D2E/DX2                !
 --------------------------------------------------------------------------------
 Trust Radius=3.00D-01 FncErr=1.00D-07 GrdErr=1.00D-06
 Number of steps in this run=  20 maximum allowed number of steps= 100.
 GradGradGradGradGradGradGradGradGradGradGradGradGradGradGradGradGradGrad

 Leave Link  103 at Wed Aug 21 02:33:58 2024, MaxMem=   13107200 cpu:       0.0
 (Enter /programs/64bit/g09/g09-gfortran/bin/l202.exe)
                          Input orientation:                          
 ---------------------------------------------------------------------
 Center     Atomic      Atomic             Coordinates (Angstroms)
 Number     Number       Type             X           Y           Z
 ---------------------------------------------------------------------
      1          1           0        0.000000    0.000000    0.000000
      2          1           0        0.000000    0.000000    0.640000
 ---------------------------------------------------------------------
 Stoichiometry    H2
 Framework group  D*H[C*(H.H)]
 Deg. of freedom     1
 Full point group                 D*H     NOp   8
 Largest Abelian subgroup         D2H     NOp   8
 Largest concise Abelian subgroup C2      NOp   2
                         Standard orientation:                         
 ---------------------------------------------------------------------
 Center     Atomic      Atomic             Coordinates (Angstroms)
 Number     Number       Type             X           Y           Z
 ---------------------------------------------------------------------
      1          1           0        0.000000    0.000000    0.320000
      2          1           0        0.000000    0.000000   -0.320000
 ---------------------------------------------------------------------
 Rotational constants (GHZ):      0.0000000   2448.5112318   2448.5112318
 Leave Link  202 at Wed Aug 21 02:33:58 2024, MaxMem=   13107200 cpu:       0.0
 (Enter /programs/64bit/g09/g09-gfortran/bin/l301.exe)
 Standard basis: 6-31G(d,p) (6D, 7F)
 Ernie: Thresh=  0.10000D-02 Tol=  0.10000D-05 Strict=F.
 AO basis set in the form of general basis input (Overlap normalization):
      1 0
 S   3 1.00       0.000000000000
      0.1873113696D+02  0.3349460434D-01
      0.2825394365D+01  0.2347269535D+00
      0.6401216923D+00  0.8137573261D+00
 S   1 1.00       0.000000000000
      0.1612777588D+00  0.1000000000D+01
 P   1 1.00       0.000000000000
      0.1100000000D+01  0.1000000000D+01
 ****
      2 0
 S   3 1.00       0.000000000000
      0.1873113696D+02  0.3349460434D-01
      0.2825394365D+01  0.2347269535D+00
      0.6401216923D+00  0.8137573261D+00
 S   1 1.00       0.000000000000
      0.1612777588D+00  0.1000000000D+01
 P   1 1.00       0.000000000000
      0.1100000000D+01  0.1000000000D+01
 ****

 There are     3 symmetry adapted basis functions of AG  symmetry.
 There are     0 symmetry adapted basis functions of B1G symmetry.
 There are     1 symmetry adapted basis functions of B2G symmetry.
 There are     1 symmetry adapted basis functions of B3G symmetry.
 There are     0 symmetry adapted basis functions of AU  symmetry.
 There are     3 symmetry adapted basis functions of B1U symmetry.
 There are     1 symmetry adapted basis functions of B2U symmetry.
 There are     1 symmetry adapted basis functions of B3U symmetry.
 Integral buffers will be    131072 words long.
 Raffenetti 2 integral format.
 Two-electron integral symmetry is turned on.
    10 basis functions,    14 primitive gaussians,    10 cartesian basis functions
     1 alpha electrons        1 beta electrons
       nuclear repulsion energy         0.8268393884 Hartrees.
 IExCor=  402 DFT=T Ex+Corr=B3LYP ExCW=0 ScaHFX=  0.200000
 ScaDFX=  0.800000  0.720000  1.000000  0.810000 ScalE2=  1.000000  1.000000
 IRadAn=      0 IRanWt=     -1 IRanGd=            0 ICorTp=0
 NAtoms=    2 NActive=    2 NUniq=    1 SFac= 3.00D+00 NAtFMM=   80 NAOKFM=F Big=F
 Leave Link  301 at Wed Aug 21 02:33:58 2024, MaxMem=   13107200 cpu:       0.1
 (Enter /programs/64bit/g09/g09-gfortran/bin/l302.exe)
 NPDir=0 NMtPBC=     1 NCelOv=     1 NCel=       1 NClECP=     1 NCelD=      1
         NCelK=      1 NCelE2=     1 NClLst=     1 CellRange=     0.0.
 One-electron integrals computed using PRISM.
 One-electron integral symmetry used in STVInt
 NBasis=    10 RedAO= T  NBF=     3     0     1     1     0     3     1     1
 NBsUse=    10 1.00D-06 NBFU=     3     0     1     1     0     3     1     1
 Precomputing XC quadrature grid using
 IXCGrd= 2 IRadAn=           0 IRanWt=          -1 IRanGd=           0 AccXCQ= 1.00D-10.
 NRdTot=     122 NPtTot=       15168 NUsed=       16061 NTot=       16093
 NSgBfM=    10    10    10    10    10 NAtAll=     2     2.
 Leave Link  302 at Wed Aug 21 02:33:58 2024, MaxMem=   13107200 cpu:       0.2
 (Enter /programs/64bit/g09/g09-gfortran/bin/l303.exe)
 DipDrv:  MaxL=1.
 Leave Link  303 at Wed Aug 21 02:33:58 2024, MaxMem=   13107200 cpu:       0.0
 (Enter /programs/64bit/g09/g09-gfortran/bin/l401.exe)
 Harris functional with IExCor=  402 diagonalized for initial guess.
 ExpMin= 1.61D-01 ExpMax= 1.87D+01 ExpMxC= 1.87D+01 IAcc=1 IRadAn=         1 AccDes= 0.00D+00
 HarFok:  IExCor=  402 AccDes= 0.00D+00 IRadAn=         1 IDoV= 1
 ScaDFX=  1.000000  1.000000  1.000000  1.000000
 FoFCou: FMM=F IPFlag=           0 FMFlag=      100000 FMFlg1=           0
         NFxFlg=           0 DoJE=T BraDBF=F KetDBF=T FulRan=T
         Omega=  0.000000  0.000000  1.000000  0.000000  0.000000 ICntrl=     500 IOpCl=  0
         NMat0=    1 NMatS0=    1 NMatT0=    0 NMatD0=    1 NMtDS0=    0 NMtDT0=    0
         I1Cent=           4 NGrid=           0.
 Petite list used in FoFCou.
 Harris En= -1.18395751666995    
 Initial guess orbital symmetries:
       Occupied  (SGG)
       Virtual   (SGU) (SGG) (SGU) (PIU) (PIU) (SGG) (PIG) (PIG)
                 (SGU)
 The electronic state of the initial guess is 1-SGG.
 Leave Link  401 at Wed Aug 21 02:33:58 2024, MaxMem=   13107200 cpu:       0.2
 (Enter /programs/64bit/g09/g09-gfortran/bin/l502.exe)
 Closed shell SCF:
 Requested convergence on RMS density matrix=1.00D-08 within 128 cycles.
 Requested convergence on MAX density matrix=1.00D-06.
 Requested convergence on             energy=1.00D-06.
 No special actions if energy rises.
 Using DIIS extrapolation, IDIIS=  1040.
 Integral symmetry usage will be decided dynamically.
        16030 words used for storage of precomputed grid.
 Keep R1 ints in memory in canonical form, NReq=894727.
 IEnd=       35823 IEndB=       35823 NGot=    13107200 MDV=    13086912
 LenX=    13086912 LenY=    13086030
 Symmetry not used in FoFDir.
 MinBra= 0 MaxBra= 1 Meth= 1.
 IRaf=       0 NMat=   1 IRICut=       1 DoRegI=T DoRafI=F ISym2E= 0 JSym2E=0.
 Integral accuracy reduced to 1.0D-05 until final iterations.

 Cycle   1  Pass 0  IDiag  1:
 E= -1.16152027726519    
 DIIS: error= 2.75D-02 at cycle   1 NSaved=   1.
 NSaved= 1 IEnMin= 1 EnMin= -1.16152027726519     IErMin= 1 ErrMin= 2.75D-02
 ErrMax= 2.75D-02 EMaxC= 1.00D-01 BMatC= 4.95D-03 BMatP= 4.95D-03
 IDIUse=3 WtCom= 7.25D-01 WtEn= 2.75D-01
 Coeff-Com:  0.100D+01
 Coeff-En:   0.100D+01
 Coeff:      0.100D+01
 Gap=     0.565 Goal=   None    Shift=    0.000
 GapD=    0.565 DampG=2.000 DampE=0.500 DampFc=1.0000 IDamp=-1.
 RMSDP=7.94D-03 MaxDP=3.23D-02              OVMax= 6.91D-02

 Cycle   2  Pass 0  IDiag  1:
 E= -1.16913784685581     Delta-E=       -0.007617569591 Rises=F Damp=F
 DIIS: error= 6.66D-03 at cycle   2 NSaved=   2.
 NSaved= 2 IEnMin= 2 EnMin= -1.16913784685581     IErMin= 2 ErrMin= 6.66D-03
 ErrMax= 6.66D-03 EMaxC= 1.00D-01 BMatC= 2.39D-04 BMatP= 4.95D-03
 IDIUse=3 WtCom= 9.33D-01 WtEn= 6.66D-02
 Coeff-Com:  0.179D+00 0.821D+00
 Coeff-En:   0.000D+00 0.100D+01
 Coeff:      0.167D+00 0.833D+00
 Gap=     0.584 Goal=   None    Shift=    0.000
 RMSDP=1.31D-03 MaxDP=5.15D-03 DE=-7.62D-03 OVMax= 1.18D-02

 Cycle   3  Pass 0  IDiag  1:
 E= -1.16949121504301     Delta-E=       -0.000353368187 Rises=F Damp=F
 DIIS: error= 6.94D-05 at cycle   3 NSaved=   3.
 NSaved= 3 IEnMin= 3 EnMin= -1.16949121504301     IErMin= 3 ErrMin= 6.94D-05
 ErrMax= 6.94D-05 EMaxC= 1.00D-01 BMatC= 2.15D-08 BMatP= 2.39D-04
 IDIUse=1 WtCom= 1.00D+00 WtEn= 0.00D+00
 Coeff-Com: -0.103D-01-0.392D-01 0.105D+01
 Coeff:     -0.103D-01-0.392D-01 0.105D+01
 Gap=     0.584 Goal=   None    Shift=    0.000
 RMSDP=1.51D-05 MaxDP=6.21D-05 DE=-3.53D-04 OVMax= 1.18D-04

 Cycle   4  Pass 0  IDiag  1:
 E= -1.16949125004320     Delta-E=       -0.000000035000 Rises=F Damp=F
 DIIS: error= 7.74D-07 at cycle   4 NSaved=   4.
 NSaved= 4 IEnMin= 4 EnMin= -1.16949125004320     IErMin= 4 ErrMin= 7.74D-07
 ErrMax= 7.74D-07 EMaxC= 1.00D-01 BMatC= 2.42D-12 BMatP= 2.15D-08
 IDIUse=1 WtCom= 1.00D+00 WtEn= 0.00D+00
 Coeff-Com: -0.704D-05 0.116D-03 0.878D-02 0.991D+00
 Coeff:     -0.704D-05 0.116D-03 0.878D-02 0.991D+00
 Gap=     0.584 Goal=   None    Shift=    0.000
 RMSDP=7.25D-08 MaxDP=2.32D-07 DE=-3.50D-08 OVMax= 7.21D-07

 Initial convergence to 1.0D-05 achieved.  Increase integral accuracy.
 Cycle   5  Pass 1  IDiag  1:
 E= -1.16949081216881     Delta-E=        0.000000437874 Rises=F Damp=F
 DIIS: error= 5.76D-07 at cycle   1 NSaved=   1.
 NSaved= 1 IEnMin= 1 EnMin= -1.16949081216881     IErMin= 1 ErrMin= 5.76D-07
 ErrMax= 5.76D-07 EMaxC= 1.00D-01 BMatC= 2.58D-12 BMatP= 2.58D-12
 IDIUse=1 WtCom= 1.00D+00 WtEn= 0.00D+00
 Coeff-Com:  0.100D+01
 Coeff:      0.100D+01
 Gap=     0.584 Goal=   None    Shift=    0.000
 RMSDP=7.25D-08 MaxDP=2.32D-07 DE= 4.38D-07 OVMax= 1.60D-06

 Cycle   6  Pass 1  IDiag  1:
 E= -1.16949081217290     Delta-E=       -0.000000000004 Rises=F Damp=F
 DIIS: error= 1.56D-07 at cycle   2 NSaved=   2.
 NSaved= 2 IEnMin= 2 EnMin= -1.16949081217290     IErMin= 2 ErrMin= 1.56D-07
 ErrMax= 1.56D-07 EMaxC= 1.00D-01 BMatC= 1.26D-13 BMatP= 2.58D-12
 IDIUse=1 WtCom= 1.00D+00 WtEn= 0.00D+00
 Coeff-Com:  0.176D+00 0.824D+00
 Coeff:      0.176D+00 0.824D+00
 Gap=     0.584 Goal=   None    Shift=    0.000
 RMSDP=2.92D-08 MaxDP=1.15D-07 DE=-4.10D-12 OVMax= 2.65D-07

 Cycle   7  Pass 1  IDiag  1:
 E= -1.16949081217309     Delta-E=       -0.000000000000 Rises=F Damp=F
 DIIS: error= 2.07D-09 at cycle   3 NSaved=   3.
 NSaved= 3 IEnMin= 3 EnMin= -1.16949081217309     IErMin= 3 ErrMin= 2.07D-09
 ErrMax= 2.07D-09 EMaxC= 1.00D-01 BMatC= 2.41D-17 BMatP= 1.26D-13
 IDIUse=1 WtCom= 1.00D+00 WtEn= 0.00D+00
 Coeff-Com: -0.880D-02-0.450D-01 0.105D+01
 Coeff:     -0.880D-02-0.450D-01 0.105D+01
 Gap=     0.584 Goal=   None    Shift=    0.000
 RMSDP=1.61D-10 MaxDP=3.92D-10 DE=-1.83D-13 OVMax= 1.40D-10

 SCF Done:  E(RB3LYP) =  -1.16949081217     A.U. after    7 cycles
             Convg  =    0.1607D-09             -V/T =  1.9369
 KE= 1.248239857916D+00 PE=-3.895741329102D+00 EE= 6.511712705916D-01
 Leave Link  502 at Wed Aug 21 02:33:59 2024, MaxMem=   13107200 cpu:       0.2
 (Enter /programs/64bit/g09/g09-gfortran/bin/l601.exe)
 Copying SCF densities to generalized density rwf, IOpCl= 0 IROHF=0.

 **********************************************************************

            Population analysis using the SCF density.

 **********************************************************************

 Orbital symmetries:
       Occupied  (SGG)
       Virtual   (SGU) (SGG) (SGU) (PIU) (PIU) (SGG) (PIG) (PIG)
                 (SGU)
 The electronic state is 1-SGG.
 Alpha  occ. eigenvalues --   -0.45437
 Alpha virt. eigenvalues --    0.12957   0.53934   1.13238   1.67367   1.67367
 Alpha virt. eigenvalues --    2.56780   2.73245   2.73245   4.85210
     Molecular Orbital Coefficients:
                           1         2         3         4         5
                       (SGG)--O  (SGU)--V  (SGG)--V  (SGU)--V  (PIU)--V
     Eigenvalues --    -0.45437   0.12957   0.53934   1.13238   1.67367
   1 1   H  1S          0.33722   0.14507   0.70861  -0.80322   0.00000
   2        2S          0.24790   1.93764  -0.67533   1.55980   0.00000
   3        3PX         0.00000   0.00000   0.00000   0.00000   0.00000
   4        3PY         0.00000   0.00000   0.00000   0.00000   0.58776
   5        3PZ        -0.01587   0.01119  -0.01951  -0.35388   0.00000
   6 2   H  1S          0.33722  -0.14507   0.70861   0.80322   0.00000
   7        2S          0.24790  -1.93764  -0.67533  -1.55980   0.00000
   8        3PX         0.00000   0.00000   0.00000   0.00000   0.00000
   9        3PY         0.00000   0.00000   0.00000   0.00000   0.58776
  10        3PZ         0.01587   0.01119   0.01951  -0.35388   0.00000
                           6         7         8         9        10
                       (PIU)--V  (SGG)--V  (PIG)--V  (PIG)--V  (SGU)--V
     Eigenvalues --     1.67367   2.56780   2.73245   2.73245   4.85210
   1 1   H  1S          0.00000   0.40667   0.00000   0.00000   2.34691
   2        2S          0.00000  -0.20122   0.00000   0.00000   0.01479
   3        3PX         0.58776   0.00000   0.95114   0.00000   0.00000
   4        3PY         0.00000   0.00000   0.00000   0.95114   0.00000
   5        3PZ         0.00000   0.69641   0.00000   0.00000  -1.91568
   6 2   H  1S          0.00000   0.40667   0.00000   0.00000  -2.34691
   7        2S          0.00000  -0.20122   0.00000   0.00000  -0.01479
   8        3PX         0.58776   0.00000  -0.95114   0.00000   0.00000
   9        3PY         0.00000   0.00000   0.00000  -0.95114   0.00000
  10        3PZ         0.00000  -0.69641   0.00000   0.00000  -1.91568
     Density Matrix:
                           1         2         3         4         5
   1 1   H  1S          0.22743
   2        2S          0.16719   0.12291
   3        3PX        -0.00000  -0.00000   0.00000
   4        3PY        -0.00000  -0.00000   0.00000   0.00000
   5        3PZ        -0.01070  -0.00787   0.00000   0.00000   0.00050
   6 2   H  1S          0.22743   0.16719  -0.00000  -0.00000  -0.01070
   7        2S          0.16719   0.12291  -0.00000  -0.00000  -0.00787
   8        3PX         0.00000   0.00000  -0.00000  -0.00000  -0.00000
   9        3PY         0.00000   0.00000  -0.00000  -0.00000  -0.00000
  10        3PZ         0.01070   0.00787  -0.00000  -0.00000  -0.00050
                           6         7         8         9        10
   6 2   H  1S          0.22743
   7        2S          0.16719   0.12291
   8        3PX         0.00000   0.00000   0.00000
   9        3PY         0.00000   0.00000   0.00000   0.00000
  10        3PZ         0.01070   0.00787   0.00000   0.00000   0.00050
    Full Mulliken population analysis:
                           1         2         3         4         5
   1 1   H  1S          0.22743
   2        2S          0.11006   0.12291
   3        3PX         0.00000   0.00000   0.00000
   4        3PY         0.00000   0.00000   0.00000   0.00000
   5        3PZ         0.00000   0.00000   0.00000   0.00000   0.00050
   6 2   H  1S          0.12470   0.09081   0.00000   0.00000   0.00554
   7        2S          0.09081   0.10923   0.00000   0.00000   0.00113
   8        3PX         0.00000   0.00000  -0.00000   0.00000   0.00000
   9        3PY         0.00000   0.00000   0.00000  -0.00000   0.00000
  10        3PZ         0.00554   0.00113   0.00000   0.00000   0.00014
                           6         7         8         9        10
   6 2   H  1S          0.22743
   7        2S          0.11006   0.12291
   8        3PX         0.00000   0.00000   0.00000
   9        3PY         0.00000   0.00000   0.00000   0.00000
  10        3PZ         0.00000   0.00000   0.00000   0.00000   0.00050
     Gross orbital populations:
                           1
   1 1   H  1S          0.55854
   2        2S          0.43414
   3        3PX         0.00000
   4        3PY         0.00000
   5        3PZ         0.00732
   6 2   H  1S          0.55854
   7        2S          0.43414
   8        3PX         0.00000
   9        3PY         0.00000
  10        3PZ         0.00732
          Condensed to atoms (all electrons):
              1          2
     1  H    0.570961   0.429039
     2  H    0.429039   0.570961
 Mulliken atomic charges:
              1
     1  H    0.000000
     2  H    0.000000
 Sum of Mulliken atomic charges =   0.00000
 Mulliken charges with hydrogens summed into heavy atoms:
              1
 Sum of Mulliken charges with hydrogens summed into heavy atoms =   0.00000
 Electronic spatial extent (au):  <R**2>=              4.6447
 Charge=              0.0000 electrons
 Dipole moment (field-independent basis, Debye):
    X=              0.0000    Y=              0.0000    Z=              0.0000  Tot=              0.0000
 Quadrupole moment (field-independent basis, Debye-Ang):
   XX=             -1.8921   YY=             -1.8921   ZZ=             -1.4794
   XY=             -0.0000   XZ=             -0.0000   YZ=              0.0000
 Traceless Quadrupole moment (field-independent basis, Debye-Ang):
   XX=             -0.1376   YY=             -0.1376   ZZ=              0.2752
   XY=             -0.0000   XZ=             -0.0000   YZ=              0.0000
 Octapole moment (field-independent basis, Debye-Ang**2):
  XXX=             -0.0000  YYY=              0.0000  ZZZ=             -0.0000  XYY=             -0.0000
  XXY=             -0.0000  XXZ=             -0.0000  XZZ=             -0.0000  YZZ=              0.0000
  YYZ=             -0.0000  XYZ=              0.0000
 Hexadecapole moment (field-independent basis, Debye-Ang**3):
 XXXX=             -1.6689 YYYY=             -1.6689 ZZZZ=             -2.2772 XXXY=             -0.0000
 XXXZ=              0.0000 YYYX=             -0.0000 YYYZ=              0.0000 ZZZX=              0.0000
 ZZZY=              0.0000 XXYY=             -0.5563 XXZZ=             -0.6665 YYZZ=             -0.6665
 XXYZ=              0.0000 YYXZ=              0.0000 ZZXY=             -0.0000
 N-N= 8.268393884219D-01 E-N=-3.895741329577D+00  KE= 1.248239857916D+00
 Symmetry AG   KE= 1.248239857916D+00
 Symmetry B1G  KE= 0.000000000000D+00
 Symmetry B2G  KE= 3.157738350703D-34
 Symmetry B3G  KE= 3.157738350703D-34
 Symmetry AU   KE= 0.000000000000D+00
 Symmetry B1U  KE= 3.121992757362D-31
 Symmetry B2U  KE= 7.100911847819D-35
 Symmetry B3U  KE= 7.100911847819D-35
 Orbital energies and kinetic energies (alpha):
                                 1                 2
   1         (SGG)--O         -0.454367          0.624120
   2         (SGU)--V          0.129569          0.469048
   3         (SGG)--V          0.539345          1.353649
   4         (SGU)--V          1.132381          2.332712
   5         (PIU)--V          1.673665          2.476496
   6         (PIU)--V          1.673665          2.476496
   7         (SGG)--V          2.567803          3.465047
   8         (PIG)--V          2.732447          3.466228
   9         (PIG)--V          2.732447          3.466228
  10         (SGU)--V          4.852097          6.452089
 Total kinetic energy from orbitals= 1.248239857916D+00
 No NMR shielding tensors so no spin-rotation constants.
 Leave Link  601 at Wed Aug 21 02:33:59 2024, MaxMem=   13107200 cpu:       0.1
 (Enter /programs/64bit/g09/g09-gfortran/bin/l701.exe)
 Compute integral first derivatives.
 ... and contract with generalized density number  0.
 Leave Link  701 at Wed Aug 21 02:33:59 2024, MaxMem=   13107200 cpu:       0.1
 (Enter /programs/64bit/g09/g09-gfortran/bin/l702.exe)
 L702 exits ... SP integral derivatives will be done elsewhere.
 Leave Link  702 at Wed Aug 21 02:33:59 2024, MaxMem=   13107200 cpu:       0.0
 (Enter /programs/64bit/g09/g09-gfortran/bin/l703.exe)
 Compute integral first derivatives, UseDBF=F ICtDFT=           0.
 Integral derivatives from FoFDir, PRISM(SPDF).
 Calling FoFJK, ICntrl=      2127 FMM=F ISym2X=1 I1Cent= 0 IOpClX= 0 NMat=1 NMatS=1 NMatT=0.
 FoFCou: FMM=F IPFlag=           0 FMFlag=      100000 FMFlg1=         800
         NFxFlg=           0 DoJE=F BraDBF=F KetDBF=F FulRan=T
         Omega=  0.000000  0.000000  1.000000  0.000000  0.000000 ICntrl=    2127 IOpCl=  0
         NMat0=    1 NMatS0=    1 NMatT0=    0 NMatD0=    1 NMtDS0=    0 NMtDT0=    0
         I1Cent=           0 NGrid=           0.
 Petite list used in FoFCou.
 Leave Link  703 at Wed Aug 21 02:33:59 2024, MaxMem=   13107200 cpu:       0.1
 (Enter /programs/64bit/g09/g09-gfortran/bin/l716.exe)
 Dipole        = 6.16297582D-32 0.00000000D+00 0.00000000D+00
 ***** Axes restored to original set *****
 -------------------------------------------------------------------
 Center     Atomic                   Forces (Hartrees/Bohr)
 Number     Number              X              Y              Z
 -------------------------------------------------------------------
      1        1           0.000000000    0.000000000   -0.104611300
      2        1          -0.000000000   -0.000000000    0.104611300
 -------------------------------------------------------------------
 Cartesian Forces:  Max     0.104611300 RMS     0.060397362
 Leave Link  716 at Wed Aug 21 02:33:59 2024, MaxMem=   13107200 cpu:       0.1
 (Enter /programs/64bit/g09/g09-gfortran/bin/l103.exe)

 GradGradGradGradGradGradGradGradGradGradGradGradGradGradGradGradGradGrad
 Berny optimization.
 Internal  Forces:  Max     0.104611300 RMS     0.104611300
 Search for a local minimum.
 Step number   1 out of a maximum of   20
 All quantities printed in internal units (Hartrees-Bohrs-Radians)
 RMS Force = .10461D+00 SwitMx=.10000D-02 MixMth= 1
 Mixed Optimization -- RFO/linear search
 Second derivative matrix not updated -- first step.
 The second derivative matrix:
                          R1
           R1           0.56477
     Eigenvalues ---    0.56477
 RFO step:  Lambda=-1.87541973D-02 EMin= 5.64769794D-01
 Linear search not attempted -- first point.
 Iteration  1 RMS(Cart)=  0.12676661 RMS(Int)=  0.00000000
 Iteration  2 RMS(Cart)=  0.00000000 RMS(Int)=  0.00000000
 ClnCor:  largest displacement from symmetrization is 5.49D-18 for atom     2.
 Variable       Old X    -DE/DX   Delta X   Delta X   Delta X     New X
                                 (Linear)    (Quad)   (Total)
    R1        1.20942   0.10461   0.00000   0.17928   0.17928   1.38870
         Item               Value     Threshold  Converged?
 Maximum Force            0.104611     0.000450     NO 
 RMS     Force            0.104611     0.000300     NO 
 Maximum Displacement     0.089638     0.001800     NO 
 RMS     Displacement     0.126767     0.001200     NO 
 Predicted change in Energy=-9.678474D-03
 GradGradGradGradGradGradGradGradGradGradGradGradGradGradGradGradGradGrad

 Leave Link  103 at Wed Aug 21 02:33:59 2024, MaxMem=   13107200 cpu:       0.0
 (Enter /programs/64bit/g09/g09-gfortran/bin/l202.exe)
                          Input orientation:                          
 ---------------------------------------------------------------------
 Center     Atomic      Atomic             Coordinates (Angstroms)
 Number     Number       Type             X           Y           Z
 ---------------------------------------------------------------------
      1          1           0        0.000000    0.000000   -0.047434
      2          1           0        0.000000    0.000000    0.687434
 ---------------------------------------------------------------------
 Stoichiometry    H2
 Framework group  D*H[C*(H.H)]
 Deg. of freedom     1
 Full point group                 D*H     NOp   8
 Largest Abelian subgroup         D2H     NOp   8
 Largest concise Abelian subgroup C2      NOp   2
                         Standard orientation:                         
 ---------------------------------------------------------------------
 Center     Atomic      Atomic             Coordinates (Angstroms)
 Number     Number       Type             X           Y           Z
 ---------------------------------------------------------------------
      1          1           0        0.000000    0.000000    0.367434
      2          1           0        0.000000    0.000000   -0.367434
 ---------------------------------------------------------------------
 Rotational constants (GHZ):      0.0000000   1857.1331767   1857.1331767
 Leave Link  202 at Wed Aug 21 02:33:59 2024, MaxMem=   13107200 cpu:       0.0
 (Enter /programs/64bit/g09/g09-gfortran/bin/l301.exe)
 Standard basis: 6-31G(d,p) (6D, 7F)
 Ernie: Thresh=  0.10000D-02 Tol=  0.10000D-05 Strict=F.
 There are     3 symmetry adapted basis functions of AG  symmetry.
 There are     0 symmetry adapted basis functions of B1G symmetry.
 There are     1 symmetry adapted basis functions of B2G symmetry.
 There are     1 symmetry adapted basis functions of B3G symmetry.
 There are     0 symmetry adapted basis functions of AU  symmetry.
 There are     3 symmetry adapted basis functions of B1U symmetry.
 There are     1 symmetry adapted basis functions of B2U symmetry.
 There are     1 symmetry adapted basis functions of B3U symmetry.
 Integral buffers will be    131072 words long.
 Raffenetti 2 integral format.
 Two-electron integral symmetry is turned on.
    10 basis functions,    14 primitive gaussians,    10 cartesian basis functions
     1 alpha electrons        1 beta electrons
       nuclear repulsion energy         0.7200980437 Hartrees.
 IExCor=  402 DFT=T Ex+Corr=B3LYP ExCW=0 ScaHFX=  0.200000
 ScaDFX=  0.800000  0.720000  1.000000  0.810000 ScalE2=  1.000000  1.000000
 IRadAn=      0 IRanWt=     -1 IRanGd=            0 ICorTp=0
 NAtoms=    2 NActive=    2 NUniq=    1 SFac= 3.00D+00 NAtFMM=   80 NAOKFM=F Big=F
 Leave Link  301 at Wed Aug 21 02:33:59 2024, MaxMem=   13107200 cpu:       0.1
 (Enter /programs/64bit/g09/g09-gfortran/bin/l302.exe)
 NPDir=0 NMtPBC=     1 NCelOv=     1 NCel=       1 NClECP=     1 NCelD=      1
         NCelK=      1 NCelE2=     1 NClLst=     1 CellRange=     0.0.
 One-electron integrals computed using PRISM.
 One-electron integral symmetry used in STVInt
 NBasis=    10 RedAO= T  NBF=     3     0     1     1     0     3     1     1
 NBsUse=    10 1.00D-06 NBFU=     3     0     1     1     0     3     1     1
 Precomputing XC quadrature grid using
 IXCGrd= 2 IRadAn=           0 IRanWt=          -1 IRanGd=           0 AccXCQ= 1.00D-10.
 NRdTot=     122 NPtTot=       15168 NUsed=       16061 NTot=       16093
 NSgBfM=    10    10    10    10    10 NAtAll=     2     2.
 Leave Link  302 at Wed Aug 21 02:33:59 2024, MaxMem=   13107200 cpu:       0.2
 (Enter /programs/64bit/g09/g09-gfortran/bin/l303.exe)
 DipDrv:  MaxL=1.
 Leave Link  303 at Wed Aug 21 02:34:00 2024, MaxMem=   13107200 cpu:       0.0
 (Enter /programs/64bit/g09/g09-gfortran/bin/l401.exe)
 Initial guess read from the read-write file.
 B after Tr=     0.000000    0.000000    0.000000
         Rot=    1.000000    0.000000    0.000000    0.000000 Ang=   0.00 deg.
 Guess basis will be translated and rotated to current coordinates.
 Initial guess orbital symmetries:
       Occupied  (SGG)
       Virtual   (SGU) (SGG) (SGU) (PIU) (PIU) (SGG) (PIG) (PIG)
                 (SGU)
 The electronic state of the initial guess is 1-SGG.
 Generating alternative initial guess.
 Harris functional with IExCor=  402 diagonalized for initial guess.
 ExpMin= 1.61D-01 ExpMax= 1.87D+01 ExpMxC= 1.87D+01 IAcc=1 IRadAn=         1 AccDes= 0.00D+00
 HarFok:  IExCor=  402 AccDes= 0.00D+00 IRadAn=         1 IDoV= 1
 ScaDFX=  1.000000  1.000000  1.000000  1.000000
 FoFCou: FMM=F IPFlag=           0 FMFlag=      100000 FMFlg1=           0
         NFxFlg=           0 DoJE=T BraDBF=F KetDBF=T FulRan=T
         Omega=  0.000000  0.000000  1.000000  0.000000  0.000000 ICntrl=     500 IOpCl=  0
         NMat0=    1 NMatS0=    1 NMatT0=    0 NMatD0=    1 NMtDS0=    0 NMtDT0=    0
         I1Cent=           4 NGrid=           0.
 Petite list used in FoFCou.
 Harris En= -1.18548675158797    
 Leave Link  401 at Wed Aug 21 02:34:00 2024, MaxMem=   13107200 cpu:       0.3
 (Enter /programs/64bit/g09/g09-gfortran/bin/l502.exe)
 Closed shell SCF:
 Requested convergence on RMS density matrix=1.00D-08 within 128 cycles.
 Requested convergence on MAX density matrix=1.00D-06.
 Requested convergence on             energy=1.00D-06.
 No special actions if energy rises.
 Using DIIS extrapolation, IDIIS=  1040.
 Integral symmetry usage will be decided dynamically.
        16030 words used for storage of precomputed grid.
 Keep R1 ints in memory in canonical form, NReq=894727.
 IEnd=       35823 IEndB=       35823 NGot=    13107200 MDV=    13086912
 LenX=    13086912 LenY=    13086030
 Symmetry not used in FoFDir.
 MinBra= 0 MaxBra= 1 Meth= 1.
 IRaf=       0 NMat=   1 IRICut=       1 DoRegI=T DoRafI=F ISym2E= 0 JSym2E=0.
 Integral accuracy reduced to 1.0D-05 until final iterations.

 Cycle   1  Pass 0  IDiag  1:
 E= -1.17713758651074    
 DIIS: error= 1.15D-02 at cycle   1 NSaved=   1.
 NSaved= 1 IEnMin= 1 EnMin= -1.17713758651074     IErMin= 1 ErrMin= 1.15D-02
 ErrMax= 1.15D-02 EMaxC= 1.00D-01 BMatC= 8.08D-04 BMatP= 8.08D-04
 IDIUse=3 WtCom= 8.85D-01 WtEn= 1.15D-01
 Coeff-Com:  0.100D+01
 Coeff-En:   0.100D+01
 Coeff:      0.100D+01
 Recover alternate guess density for next cycle.
 RMSDP=2.79D-03 MaxDP=1.13D-02              OVMax= 0.00D+00

 Cycle   2  Pass 0  IDiag  1:
 E= -1.17304624261591     Delta-E=        0.004091343895 Rises=F Damp=F
 Switch densities from cycles 1 and 2 for lowest energy.
 DIIS: error= 2.04D-02 at cycle   2 NSaved=   2.
 NSaved= 2 IEnMin= 1 EnMin= -1.17713758651074     IErMin= 1 ErrMin= 1.15D-02
 ErrMax= 2.04D-02 EMaxC= 1.00D+00 BMatC= 3.33D-03 BMatP= 8.08D-04
 IDIUse=1 WtCom= 1.00D+00 WtEn= 0.00D+00
 Coeff-Com:  0.190D+01-0.905D+00
 Coeff:      0.190D+01-0.905D+00
 Gap=     0.597 Goal=   None    Shift=    0.000
 RMSDP=2.95D-03 MaxDP=1.19D-02 DE= 4.09D-03 OVMax= 2.41D-02

 Cycle   3  Pass 0  IDiag  1:
 E= -1.17849813950325     Delta-E=       -0.005451896887 Rises=F Damp=F
 DIIS: error= 2.74D-04 at cycle   3 NSaved=   3.
 NSaved= 3 IEnMin= 3 EnMin= -1.17849813950325     IErMin= 3 ErrMin= 2.74D-04
 ErrMax= 2.74D-04 EMaxC= 1.00D+00 BMatC= 3.06D-07 BMatP= 8.08D-04
 IDIUse=1 WtCom= 1.00D+00 WtEn= 0.00D+00
 Coeff-Com: -0.104D+00 0.567D-01 0.105D+01
 Coeff:     -0.104D+00 0.567D-01 0.105D+01
 Gap=     0.536 Goal=   None    Shift=    0.000
 RMSDP=1.97D-05 MaxDP=4.82D-05 DE=-5.45D-03 OVMax= 1.82D-04

 Cycle   4  Pass 0  IDiag  1:
 E= -1.17849840392337     Delta-E=       -0.000000264420 Rises=F Damp=F
 DIIS: error= 2.15D-06 at cycle   4 NSaved=   4.
 NSaved= 4 IEnMin= 4 EnMin= -1.17849840392337     IErMin= 4 ErrMin= 2.15D-06
 ErrMax= 2.15D-06 EMaxC= 1.00D+00 BMatC= 1.92D-11 BMatP= 3.06D-07
 IDIUse=1 WtCom= 1.00D+00 WtEn= 0.00D+00
 Coeff-Com:  0.588D-04-0.558D-05-0.657D-02 0.101D+01
 Coeff:      0.588D-04-0.558D-05-0.657D-02 0.101D+01
 Gap=     0.536 Goal=   None    Shift=    0.000
 RMSDP=2.46D-07 MaxDP=8.40D-07 DE=-2.64D-07 OVMax= 2.34D-06

 Initial convergence to 1.0D-05 achieved.  Increase integral accuracy.
 Cycle   5  Pass 1  IDiag  1:
 E= -1.17849595933556     Delta-E=        0.000002444588 Rises=F Damp=F
 DIIS: error= 1.08D-06 at cycle   1 NSaved=   1.
 NSaved= 1 IEnMin= 1 EnMin= -1.17849595933556     IErMin= 1 ErrMin= 1.08D-06
 ErrMax= 1.08D-06 EMaxC= 1.00D+00 BMatC= 8.25D-12 BMatP= 8.25D-12
 IDIUse=1 WtCom= 1.00D+00 WtEn= 0.00D+00
 Coeff-Com:  0.100D+01
 Coeff:      0.100D+01
 Gap=     0.536 Goal=   None    Shift=    0.000
 RMSDP=2.46D-07 MaxDP=8.40D-07 DE= 2.44D-06 OVMax= 2.72D-06

 Cycle   6  Pass 1  IDiag  1:
 E= -1.17849595934804     Delta-E=       -0.000000000012 Rises=F Damp=F
 DIIS: error= 2.33D-07 at cycle   2 NSaved=   2.
 NSaved= 2 IEnMin= 2 EnMin= -1.17849595934804     IErMin= 2 ErrMin= 2.33D-07
 ErrMax= 2.33D-07 EMaxC= 1.00D+00 BMatC= 3.25D-13 BMatP= 8.25D-12
 IDIUse=1 WtCom= 1.00D+00 WtEn= 0.00D+00
 Coeff-Com:  0.165D+00 0.835D+00
 Coeff:      0.165D+00 0.835D+00
 Gap=     0.536 Goal=   None    Shift=    0.000
 RMSDP=4.95D-08 MaxDP=1.92D-07 DE=-1.25D-11 OVMax= 4.34D-07

 Cycle   7  Pass 1  IDiag  1:
 E= -1.17849595934852     Delta-E=       -0.000000000000 Rises=F Damp=F
 DIIS: error= 1.68D-09 at cycle   3 NSaved=   3.
 NSaved= 3 IEnMin= 3 EnMin= -1.17849595934852     IErMin= 3 ErrMin= 1.68D-09
 ErrMax= 1.68D-09 EMaxC= 1.00D+00 BMatC= 1.17D-17 BMatP= 3.25D-13
 IDIUse=1 WtCom= 1.00D+00 WtEn= 0.00D+00
 Coeff-Com: -0.814D-02-0.453D-01 0.105D+01
 Coeff:     -0.814D-02-0.453D-01 0.105D+01
 Gap=     0.536 Goal=   None    Shift=    0.000
 RMSDP=1.12D-10 MaxDP=2.56D-10 DE=-4.85D-13 OVMax= 9.86D-10

 SCF Done:  E(RB3LYP) =  -1.17849595935     A.U. after    7 cycles
             Convg  =    0.1122D-09             -V/T =  2.0248
 KE= 1.150027001382D+00 PE=-3.663270633414D+00 EE= 6.146496290110D-01
 Leave Link  502 at Wed Aug 21 02:34:00 2024, MaxMem=   13107200 cpu:       0.1
 (Enter /programs/64bit/g09/g09-gfortran/bin/l701.exe)
 Compute integral first derivatives.
 ... and contract with generalized density number  0.
 Leave Link  701 at Wed Aug 21 02:34:00 2024, MaxMem=   13107200 cpu:       0.1
 (Enter /programs/64bit/g09/g09-gfortran/bin/l702.exe)
 L702 exits ... SP integral derivatives will be done elsewhere.
 Leave Link  702 at Wed Aug 21 02:34:00 2024, MaxMem=   13107200 cpu:       0.0
 (Enter /programs/64bit/g09/g09-gfortran/bin/l703.exe)
 Compute integral first derivatives, UseDBF=F ICtDFT=           0.
 Integral derivatives from FoFDir, PRISM(SPDF).
 Calling FoFJK, ICntrl=      2127 FMM=F ISym2X=1 I1Cent= 0 IOpClX= 0 NMat=1 NMatS=1 NMatT=0.
 FoFCou: FMM=F IPFlag=           0 FMFlag=      100000 FMFlg1=         800
         NFxFlg=           0 DoJE=F BraDBF=F KetDBF=F FulRan=T
         Omega=  0.000000  0.000000  1.000000  0.000000  0.000000 ICntrl=    2127 IOpCl=  0
         NMat0=    1 NMatS0=    1 NMatT0=    0 NMatD0=    1 NMtDS0=    0 NMtDT0=    0
         I1Cent=           0 NGrid=           0.
 Petite list used in FoFCou.
 Leave Link  703 at Wed Aug 21 02:34:00 2024, MaxMem=   13107200 cpu:       0.1
 (Enter /programs/64bit/g09/g09-gfortran/bin/l716.exe)
 Dipole        =-1.23259516D-32 2.40741243D-35-1.11022302D-16
 ***** Axes restored to original set *****
 -------------------------------------------------------------------
 Center     Atomic                   Forces (Hartrees/Bohr)
 Number     Number              X              Y              Z
 -------------------------------------------------------------------
      1        1           0.000000000    0.000000000   -0.005842281
      2        1          -0.000000000   -0.000000000    0.005842281
 -------------------------------------------------------------------
 Cartesian Forces:  Max     0.005842281 RMS     0.003373043
 Leave Link  716 at Wed Aug 21 02:34:00 2024, MaxMem=   13107200 cpu:       0.0
 (Enter /programs/64bit/g09/g09-gfortran/bin/l103.exe)

 GradGradGradGradGradGradGradGradGradGradGradGradGradGradGradGradGradGrad
 Berny optimization.
 Using GEDIIS/GDIIS optimizer.
 Internal  Forces:  Max     0.005842281 RMS     0.005842281
 Search for a local minimum.
 Step number   2 out of a maximum of   20
 All quantities printed in internal units (Hartrees-Bohrs-Radians)
 RMS Force = .58423D-02 SwitMx=.10000D-02 MixMth= 1
 Mixed Optimization -- RFO/linear search
 Update second derivatives using D2CorX and points    1    2
 DE= -9.01D-03 DEPred=-9.68D-03 R= 9.30D-01
 SS=  1.41D+00  RLast= 1.79D-01 DXNew= 5.0454D-01 5.3783D-01
 Trust test= 9.30D-01 RLast= 1.79D-01 DXMaxT set to 5.05D-01
 The second derivative matrix:
                          R1
           R1           0.55094
 Use linear search instead of GDIIS.
     Eigenvalues ---    0.55094
 RFO step:  Lambda= 0.00000000D+00 EMin= 5.50935627D-01
 Quartic linear search produced a step of  0.08570.
 Iteration  1 RMS(Cart)=  0.01086443 RMS(Int)=  0.00000000
 Iteration  2 RMS(Cart)=  0.00000000 RMS(Int)=  0.00000000
 ClnCor:  largest displacement from symmetrization is 4.70D-19 for atom     2.
 Variable       Old X    -DE/DX   Delta X   Delta X   Delta X     New X
                                 (Linear)    (Quad)   (Total)
    R1        1.38870   0.00584   0.01536   0.00000   0.01536   1.40406
         Item               Value     Threshold  Converged?
 Maximum Force            0.005842     0.000450     NO 
 RMS     Force            0.005842     0.000300     NO 
 Maximum Displacement     0.007682     0.001800     NO 
 RMS     Displacement     0.010864     0.001200     NO 
 Predicted change in Energy=-2.473431D-05
 GradGradGradGradGradGradGradGradGradGradGradGradGradGradGradGradGradGrad

 Leave Link  103 at Wed Aug 21 02:34:00 2024, MaxMem=   13107200 cpu:       0.0
 (Enter /programs/64bit/g09/g09-gfortran/bin/l202.exe)
                          Input orientation:                          
 ---------------------------------------------------------------------
 Center     Atomic      Atomic             Coordinates (Angstroms)
 Number     Number       Type             X           Y           Z
 ---------------------------------------------------------------------
      1          1           0        0.000000    0.000000   -0.051499
      2          1           0        0.000000    0.000000    0.691499
 ---------------------------------------------------------------------
 Stoichiometry    H2
 Framework group  D*H[C*(H.H)]
 Deg. of freedom     1
 Full point group                 D*H     NOp   8
 Largest Abelian subgroup         D2H     NOp   8
 Largest concise Abelian subgroup C2      NOp   2
                         Standard orientation:                         
 ---------------------------------------------------------------------
 Center     Atomic      Atomic             Coordinates (Angstroms)
 Number     Number       Type             X           Y           Z
 ---------------------------------------------------------------------
      1          1           0        0.000000    0.000000    0.371499
      2          1           0        0.000000    0.000000   -0.371499
 ---------------------------------------------------------------------
 Rotational constants (GHZ):      0.0000000   1816.7104942   1816.7104942
 Leave Link  202 at Wed Aug 21 02:34:00 2024, MaxMem=   13107200 cpu:       0.0
 (Enter /programs/64bit/g09/g09-gfortran/bin/l301.exe)
 Standard basis: 6-31G(d,p) (6D, 7F)
 Ernie: Thresh=  0.10000D-02 Tol=  0.10000D-05 Strict=F.
 There are     3 symmetry adapted basis functions of AG  symmetry.
 There are     0 symmetry adapted basis functions of B1G symmetry.
 There are     1 symmetry adapted basis functions of B2G symmetry.
 There are     1 symmetry adapted basis functions of B3G symmetry.
 There are     0 symmetry adapted basis functions of AU  symmetry.
 There are     3 symmetry adapted basis functions of B1U symmetry.
 There are     1 symmetry adapted basis functions of B2U symmetry.
 There are     1 symmetry adapted basis functions of B3U symmetry.
 Integral buffers will be    131072 words long.
 Raffenetti 2 integral format.
 Two-electron integral symmetry is turned on.
    10 basis functions,    14 primitive gaussians,    10 cartesian basis functions
     1 alpha electrons        1 beta electrons
       nuclear repulsion energy         0.7122180390 Hartrees.
 IExCor=  402 DFT=T Ex+Corr=B3LYP ExCW=0 ScaHFX=  0.200000
 ScaDFX=  0.800000  0.720000  1.000000  0.810000 ScalE2=  1.000000  1.000000
 IRadAn=      0 IRanWt=     -1 IRanGd=            0 ICorTp=0
 NAtoms=    2 NActive=    2 NUniq=    1 SFac= 3.00D+00 NAtFMM=   80 NAOKFM=F Big=F
 Leave Link  301 at Wed Aug 21 02:34:01 2024, MaxMem=   13107200 cpu:       0.1
 (Enter /programs/64bit/g09/g09-gfortran/bin/l302.exe)
 NPDir=0 NMtPBC=     1 NCelOv=     1 NCel=       1 NClECP=     1 NCelD=      1
         NCelK=      1 NCelE2=     1 NClLst=     1 CellRange=     0.0.
 One-electron integrals computed using PRISM.
 One-electron integral symmetry used in STVInt
 NBasis=    10 RedAO= T  NBF=     3     0     1     1     0     3     1     1
 NBsUse=    10 1.00D-06 NBFU=     3     0     1     1     0     3     1     1
 Precomputing XC quadrature grid using
 IXCGrd= 2 IRadAn=           0 IRanWt=          -1 IRanGd=           0 AccXCQ= 1.00D-10.
 NRdTot=     122 NPtTot=       15168 NUsed=       16061 NTot=       16093
 NSgBfM=    10    10    10    10    10 NAtAll=     2     2.
 Leave Link  302 at Wed Aug 21 02:34:01 2024, MaxMem=   13107200 cpu:       0.2
 (Enter /programs/64bit/g09/g09-gfortran/bin/l303.exe)
 DipDrv:  MaxL=1.
 Leave Link  303 at Wed Aug 21 02:34:01 2024, MaxMem=   13107200 cpu:       0.0
 (Enter /programs/64bit/g09/g09-gfortran/bin/l401.exe)
 Initial guess read from the read-write file.
 B after Tr=     0.000000    0.000000    0.000000
         Rot=    1.000000    0.000000    0.000000    0.000000 Ang=   0.00 deg.
 Guess basis will be translated and rotated to current coordinates.
 Initial guess orbital symmetries:
       Occupied  (SGG)
       Virtual   (SGU) (SGG) (SGU) (PIU) (PIU) (SGG) (PIG) (PIG)
                 (SGU)
 The electronic state of the initial guess is 1-SGG.
 Leave Link  401 at Wed Aug 21 02:34:01 2024, MaxMem=   13107200 cpu:       0.1
 (Enter /programs/64bit/g09/g09-gfortran/bin/l502.exe)
 Closed shell SCF:
 Requested convergence on RMS density matrix=1.00D-08 within 128 cycles.
 Requested convergence on MAX density matrix=1.00D-06.
 Requested convergence on             energy=1.00D-06.
 No special actions if energy rises.
 Using DIIS extrapolation, IDIIS=  1040.
 Integral symmetry usage will be decided dynamically.
        16030 words used for storage of precomputed grid.
 Keep R1 ints in memory in canonical form, NReq=894727.
 IEnd=       35823 IEndB=       35823 NGot=    13107200 MDV=    13086912
 LenX=    13086912 LenY=    13086030
 Symmetry not used in FoFDir.
 MinBra= 0 MaxBra= 1 Meth= 1.
 IRaf=       0 NMat=   1 IRICut=       1 DoRegI=T DoRafI=F ISym2E= 0 JSym2E=0.

 Cycle   1  Pass 1  IDiag  1:
 E= -1.17853054775932    
 DIIS: error= 9.48D-04 at cycle   1 NSaved=   1.
 NSaved= 1 IEnMin= 1 EnMin= -1.17853054775932     IErMin= 1 ErrMin= 9.48D-04
 ErrMax= 9.48D-04 EMaxC= 1.00D-01 BMatC= 5.20D-06 BMatP= 5.20D-06
 IDIUse=3 WtCom= 9.91D-01 WtEn= 9.48D-03
 Coeff-Com:  0.100D+01
 Coeff-En:   0.100D+01
 Coeff:      0.100D+01
 Gap=     0.532 Goal=   None    Shift=    0.000
 RMSDP=2.74D-04 MaxDP=1.09D-03              OVMax= 2.26D-03

 Cycle   2  Pass 1  IDiag  1:
 E= -1.17853900254611     Delta-E=       -0.000008454787 Rises=F Damp=F
 DIIS: error= 1.95D-04 at cycle   2 NSaved=   2.
 NSaved= 2 IEnMin= 2 EnMin= -1.17853900254611     IErMin= 2 ErrMin= 1.95D-04
 ErrMax= 1.95D-04 EMaxC= 1.00D-01 BMatC= 2.11D-07 BMatP= 5.20D-06
 IDIUse=3 WtCom= 9.98D-01 WtEn= 1.95D-03
 Coeff-Com:  0.158D+00 0.842D+00
 Coeff-En:   0.000D+00 0.100D+01
 Coeff:      0.158D+00 0.842D+00
 Gap=     0.532 Goal=   None    Shift=    0.000
 RMSDP=3.88D-05 MaxDP=1.49D-04 DE=-8.45D-06 OVMax= 3.42D-04

 Cycle   3  Pass 1  IDiag  1:
 E= -1.17853930735928     Delta-E=       -0.000000304813 Rises=F Damp=F
 DIIS: error= 3.12D-06 at cycle   3 NSaved=   3.
 NSaved= 3 IEnMin= 3 EnMin= -1.17853930735928     IErMin= 3 ErrMin= 3.12D-06
 ErrMax= 3.12D-06 EMaxC= 1.00D-01 BMatC= 5.99D-11 BMatP= 2.11D-07
 IDIUse=1 WtCom= 1.00D+00 WtEn= 0.00D+00
 Coeff-Com: -0.807D-02-0.375D-01 0.105D+01
 Coeff:     -0.807D-02-0.375D-01 0.105D+01
 Gap=     0.532 Goal=   None    Shift=    0.000
 RMSDP=5.09D-07 MaxDP=1.98D-06 DE=-3.05D-07 OVMax= 2.68D-06

 Cycle   4  Pass 1  IDiag  1:
 E= -1.17853930741408     Delta-E=       -0.000000000055 Rises=F Damp=F
 DIIS: error= 4.10D-10 at cycle   4 NSaved=   4.
 NSaved= 4 IEnMin= 4 EnMin= -1.17853930741408     IErMin= 4 ErrMin= 4.10D-10
 ErrMax= 4.10D-10 EMaxC= 1.00D-01 BMatC= 1.02D-18 BMatP= 5.99D-11
 IDIUse=1 WtCom= 1.00D+00 WtEn= 0.00D+00
 Coeff-Com: -0.243D-06 0.107D-05 0.226D-04 0.100D+01
 Coeff:     -0.243D-06 0.107D-05 0.226D-04 0.100D+01
 Gap=     0.532 Goal=   None    Shift=    0.000
 RMSDP=8.83D-11 MaxDP=3.41D-10 DE=-5.48D-11 OVMax= 7.71D-10

 SCF Done:  E(RB3LYP) =  -1.17853930741     A.U. after    4 cycles
             Convg  =    0.8829D-10             -V/T =  2.0315
 KE= 1.142524785387D+00 PE=-3.644990994149D+00 EE= 6.117088623683D-01
 Leave Link  502 at Wed Aug 21 02:34:01 2024, MaxMem=   13107200 cpu:       0.1
 (Enter /programs/64bit/g09/g09-gfortran/bin/l701.exe)
 Compute integral first derivatives.
 ... and contract with generalized density number  0.
 Leave Link  701 at Wed Aug 21 02:34:01 2024, MaxMem=   13107200 cpu:       0.1
 (Enter /programs/64bit/g09/g09-gfortran/bin/l702.exe)
 L702 exits ... SP integral derivatives will be done elsewhere.
 Leave Link  702 at Wed Aug 21 02:34:01 2024, MaxMem=   13107200 cpu:       0.0
 (Enter /programs/64bit/g09/g09-gfortran/bin/l703.exe)
 Compute integral first derivatives, UseDBF=F ICtDFT=           0.
 Integral derivatives from FoFDir, PRISM(SPDF).
 Calling FoFJK, ICntrl=      2127 FMM=F ISym2X=1 I1Cent= 0 IOpClX= 0 NMat=1 NMatS=1 NMatT=0.
 FoFCou: FMM=F IPFlag=           0 FMFlag=      100000 FMFlg1=         800
         NFxFlg=           0 DoJE=F BraDBF=F KetDBF=F FulRan=T
         Omega=  0.000000  0.000000  1.000000  0.000000  0.000000 ICntrl=    2127 IOpCl=  0
         NMat0=    1 NMatS0=    1 NMatT0=    0 NMatD0=    1 NMtDS0=    0 NMtDT0=    0
         I1Cent=           0 NGrid=           0.
 Petite list used in FoFCou.
 Leave Link  703 at Wed Aug 21 02:34:01 2024, MaxMem=   13107200 cpu:       0.1
 (Enter /programs/64bit/g09/g09-gfortran/bin/l716.exe)
 Dipole        = 0.00000000D+00 0.00000000D+00-1.11022302D-16
 ***** Axes restored to original set *****
 -------------------------------------------------------------------
 Center     Atomic                   Forces (Hartrees/Bohr)
 Number     Number              X              Y              Z
 -------------------------------------------------------------------
      1        1           0.000000000    0.000000000    0.000147717
      2        1          -0.000000000   -0.000000000   -0.000147717
 -------------------------------------------------------------------
 Cartesian Forces:  Max     0.000147717 RMS     0.000085284
 Leave Link  716 at Wed Aug 21 02:34:02 2024, MaxMem=   13107200 cpu:       0.0
 (Enter /programs/64bit/g09/g09-gfortran/bin/l103.exe)

 GradGradGradGradGradGradGradGradGradGradGradGradGradGradGradGradGradGrad
 Berny optimization.
 Using GEDIIS/GDIIS optimizer.
 Internal  Forces:  Max     0.000147717 RMS     0.000147717
 Search for a local minimum.
 Step number   3 out of a maximum of   20
 All quantities printed in internal units (Hartrees-Bohrs-Radians)
 RMS Force = .14772D-03 SwitMx=.10000D-02 MixMth= 2
 Mixed Optimization -- En-DIIS/RFO-DIIS
 Update second derivatives using D2CorX and points    2    3
 DE= -4.33D-05 DEPred=-2.47D-05 R= 1.75D+00
 SS=  1.41D+00  RLast= 1.54D-02 DXNew= 8.4853D-01 4.6094D-02
 Trust test= 1.75D+00 RLast= 1.54D-02 DXMaxT set to 5.05D-01
 The second derivative matrix:
                          R1
           R1           0.38986
 Use linear search instead of GDIIS.
     Eigenvalues ---    0.38986
 RFO step:  Lambda= 0.00000000D+00 EMin= 3.89856522D-01
 Quartic linear search produced a step of -0.02530.
 Iteration  1 RMS(Cart)=  0.00027487 RMS(Int)=  0.00000000
 Iteration  2 RMS(Cart)=  0.00000000 RMS(Int)=  0.00000000
 ClnCor:  largest displacement from symmetrization is 1.19D-20 for atom     1.
 Variable       Old X    -DE/DX   Delta X   Delta X   Delta X     New X
                                 (Linear)    (Quad)   (Total)
    R1        1.40406  -0.00015  -0.00039   0.00000  -0.00039   1.40368
         Item               Value     Threshold  Converged?
 Maximum Force            0.000148     0.000450     YES
 RMS     Force            0.000148     0.000300     YES
 Maximum Displacement     0.000194     0.001800     YES
 RMS     Displacement     0.000275     0.001200     YES
 Predicted change in Energy=-2.796620D-08
 Optimization completed.
    -- Stationary point found.
                           ----------------------------
                           !   Optimized Parameters   !
                           ! (Angstroms and Degrees)  !
 --------------------------                            --------------------------
 ! Name  Definition              Value          Derivative Info.                !
 --------------------------------------------------------------------------------
 ! R1    R(1,2)                  0.743          -DE/DX =   -0.0001              !
 --------------------------------------------------------------------------------
 GradGradGradGradGradGradGradGradGradGradGradGradGradGradGradGradGradGrad

 Largest change from initial coordinates is atom    2       0.051 Angstoms.
 Leave Link  103 at Wed Aug 21 02:34:02 2024, MaxMem=   13107200 cpu:       0.0
 (Enter /programs/64bit/g09/g09-gfortran/bin/l202.exe)
                          Input orientation:                          
 ---------------------------------------------------------------------
 Center     Atomic      Atomic             Coordinates (Angstroms)
 Number     Number       Type             X           Y           Z
 ---------------------------------------------------------------------
      1          1           0        0.000000    0.000000   -0.051499
      2          1           0        0.000000    0.000000    0.691499
 ---------------------------------------------------------------------
 Stoichiometry    H2
 Framework group  D*H[C*(H.H)]
 Deg. of freedom     1
 Full point group                 D*H     NOp   8
 Largest Abelian subgroup         D2H     NOp   8
 Largest concise Abelian subgroup C2      NOp   2
                         Standard orientation:                         
 ---------------------------------------------------------------------
 Center     Atomic      Atomic             Coordinates (Angstroms)
 Number     Number       Type             X           Y           Z
 ---------------------------------------------------------------------
      1          1           0        0.000000    0.000000    0.371499
      2          1           0        0.000000    0.000000   -0.371499
 ---------------------------------------------------------------------
 Rotational constants (GHZ):      0.0000000   1816.7104942   1816.7104942
 Leave Link  202 at Wed Aug 21 02:34:02 2024, MaxMem=   13107200 cpu:       0.0
 (Enter /programs/64bit/g09/g09-gfortran/bin/l601.exe)
 Copying SCF densities to generalized density rwf, IOpCl= 0 IROHF=0.

 **********************************************************************

            Population analysis using the SCF density.

 **********************************************************************

 Orbital symmetries:
       Occupied  (SGG)
       Virtual   (SGU) (SGG) (SGU) (PIU) (PIU) (SGG) (PIG) (PIG)
                 (SGU)
 The electronic state is 1-SGG.
 Alpha  occ. eigenvalues --   -0.43153
 Alpha virt. eigenvalues --    0.10091   0.57708   1.03592   1.67473   1.67473
 Alpha virt. eigenvalues --    2.37849   2.61544   2.61544   4.15186
     Molecular Orbital Coefficients:
                           1         2         3         4         5
                       (SGG)--O  (SGU)--V  (SGG)--V  (SGU)--V  (PIU)--V
     Eigenvalues --    -0.43153   0.10091   0.57708   1.03592   1.67473
   1 1   H  1S          0.32473   0.17239   0.74189  -0.90230   0.00000
   2        2S          0.27053   1.63304  -0.67788   1.48113   0.00000
   3        3PX         0.00000   0.00000   0.00000   0.00000   0.00000
   4        3PY         0.00000   0.00000   0.00000   0.00000   0.61127
   5        3PZ        -0.01536   0.01056  -0.04077  -0.24958   0.00000
   6 2   H  1S          0.32473  -0.17239   0.74189   0.90230   0.00000
   7        2S          0.27053  -1.63304  -0.67788  -1.48113   0.00000
   8        3PX         0.00000   0.00000   0.00000   0.00000   0.00000
   9        3PY         0.00000   0.00000   0.00000   0.00000   0.61127
  10        3PZ         0.01536   0.01056   0.04077  -0.24958   0.00000
                           6         7         8         9        10
                       (PIU)--V  (SGG)--V  (PIG)--V  (PIG)--V  (SGU)--V
     Eigenvalues --     1.67473   2.37849   2.61544   2.61544   4.15186
   1 1   H  1S          0.00000   0.38953   0.00000   0.00000  -1.41331
   2        2S          0.00000  -0.19259   0.00000   0.00000  -0.19001
   3        3PX         0.61127   0.00000   0.86917   0.00000   0.00000
   4        3PY         0.00000   0.00000   0.00000   0.86917   0.00000
   5        3PZ         0.00000   0.64651   0.00000   0.00000   1.57524
   6 2   H  1S          0.00000   0.38953   0.00000   0.00000   1.41331
   7        2S          0.00000  -0.19259   0.00000   0.00000   0.19001
   8        3PX         0.61127   0.00000  -0.86917   0.00000   0.00000
   9        3PY         0.00000   0.00000   0.00000  -0.86917   0.00000
  10        3PZ         0.00000  -0.64651   0.00000   0.00000   1.57524
     Density Matrix:
                           1         2         3         4         5
   1 1   H  1S          0.21089
   2        2S          0.17569   0.14637
   3        3PX        -0.00000  -0.00000   0.00000
   4        3PY        -0.00000  -0.00000   0.00000   0.00000
   5        3PZ        -0.00998  -0.00831   0.00000   0.00000   0.00047
   6 2   H  1S          0.21089   0.17569  -0.00000  -0.00000  -0.00998
   7        2S          0.17569   0.14637  -0.00000  -0.00000  -0.00831
   8        3PX         0.00000   0.00000  -0.00000  -0.00000  -0.00000
   9        3PY         0.00000   0.00000  -0.00000  -0.00000  -0.00000
  10        3PZ         0.00998   0.00831  -0.00000  -0.00000  -0.00047
                           6         7         8         9        10
   6 2   H  1S          0.21089
   7        2S          0.17569   0.14637
   8        3PX         0.00000   0.00000   0.00000
   9        3PY         0.00000   0.00000   0.00000   0.00000
  10        3PZ         0.00998   0.00831   0.00000   0.00000   0.00047
    Full Mulliken population analysis:
                           1         2         3         4         5
   1 1   H  1S          0.21089
   2        2S          0.11566   0.14637
   3        3PX         0.00000   0.00000   0.00000
   4        3PY         0.00000   0.00000   0.00000   0.00000
   5        3PZ         0.00000   0.00000   0.00000   0.00000   0.00047
   6 2   H  1S          0.09545   0.08925   0.00000   0.00000   0.00468
   7        2S          0.08925   0.12486   0.00000   0.00000   0.00129
   8        3PX         0.00000   0.00000  -0.00000   0.00000   0.00000
   9        3PY         0.00000   0.00000   0.00000  -0.00000   0.00000
  10        3PZ         0.00468   0.00129   0.00000   0.00000   0.00019
                           6         7         8         9        10
   6 2   H  1S          0.21089
   7        2S          0.11566   0.14637
   8        3PX         0.00000   0.00000   0.00000
   9        3PY         0.00000   0.00000   0.00000   0.00000
  10        3PZ         0.00000   0.00000   0.00000   0.00000   0.00047
     Gross orbital populations:
                           1
   1 1   H  1S          0.51593
   2        2S          0.47744
   3        3PX         0.00000
   4        3PY         0.00000
   5        3PZ         0.00663
   6 2   H  1S          0.51593
   7        2S          0.47744
   8        3PX         0.00000
   9        3PY         0.00000
  10        3PZ         0.00663
          Condensed to atoms (all electrons):
              1          2
     1  H    0.589054   0.410946
     2  H    0.410946   0.589054
 Mulliken atomic charges:
              1
     1  H    0.000000
     2  H    0.000000
 Sum of Mulliken atomic charges =   0.00000
 Mulliken charges with hydrogens summed into heavy atoms:
              1
 Sum of Mulliken charges with hydrogens summed into heavy atoms =   0.00000
 Electronic spatial extent (au):  <R**2>=              5.1242
 Charge=              0.0000 electrons
 Dipole moment (field-independent basis, Debye):
    X=              0.0000    Y=              0.0000    Z=             -0.0000  Tot=              0.0000
 Quadrupole moment (field-independent basis, Debye-Ang):
   XX=             -2.0294   YY=             -2.0294   ZZ=             -1.5077
   XY=             -0.0000   XZ=             -0.0000   YZ=              0.0000
 Traceless Quadrupole moment (field-independent basis, Debye-Ang):
   XX=             -0.1739   YY=             -0.1739   ZZ=              0.3478
   XY=             -0.0000   XZ=             -0.0000   YZ=              0.0000
 Octapole moment (field-independent basis, Debye-Ang**2):
  XXX=             -0.0000  YYY=              0.0000  ZZZ=              0.0000  XYY=             -0.0000
  XXY=             -0.0000  XXZ=              0.0000  XZZ=             -0.0000  YZZ=             -0.0000
  YYZ=              0.0000  XYZ=              0.0000
 Hexadecapole moment (field-independent basis, Debye-Ang**3):
 XXXX=             -1.8763 YYYY=             -1.8763 ZZZZ=             -2.7690 XXXY=             -0.0000
 XXXZ=              0.0000 YYYX=             -0.0000 YYYZ=              0.0000 ZZZX=              0.0000
 ZZZY=              0.0000 XXYY=             -0.6254 XXZZ=             -0.7891 YYZZ=             -0.7891
 XXYZ=              0.0000 YYXZ=              0.0000 ZZXY=             -0.0000
 N-N= 7.122180389800D-01 E-N=-3.644990993611D+00  KE= 1.142524785387D+00
 Symmetry AG   KE= 1.142524785387D+00
 Symmetry B1G  KE= 0.000000000000D+00
 Symmetry B2G  KE= 2.249713984678D-34
 Symmetry B3G  KE= 2.249713984678D-34
 Symmetry AU   KE= 0.000000000000D+00
 Symmetry B1U  KE= 3.745573061275D-32
 Symmetry B2U  KE= 6.478567940370D-35
 Symmetry B3U  KE= 6.478567940370D-35
 Orbital energies and kinetic energies (alpha):
                                 1                 2
   1         (SGG)--O         -0.431534          0.571262
   2         (SGU)--V          0.100908          0.493412
   3         (SGG)--V          0.577079          1.407684
   4         (SGU)--V          1.035924          2.257642
   5         (PIU)--V          1.674729          2.448607
   6         (PIU)--V          1.674729          2.448607
   7         (SGG)--V          2.378486          3.274700
   8         (PIG)--V          2.615436          3.359365
   9         (PIG)--V          2.615436          3.359365
  10         (SGU)--V          4.151856          5.415041
 Total kinetic energy from orbitals= 1.142524785387D+00
 No NMR shielding tensors so no spin-rotation constants.
 Leave Link  601 at Wed Aug 21 02:34:02 2024, MaxMem=   13107200 cpu:       0.1
 (Enter /programs/64bit/g09/g09-gfortran/bin/l9999.exe)
 B after Tr=     0.000000    0.000000    0.604712
         Rot=    0.000000   -0.000000    1.000000   -0.000000 Ang= 180.00 deg.
 Final structure in terms of initial Z-matrix:
 H
 H,1,hh2
      Variables:
 hh2=0.74299888
 1\1\GINC-MOLMOD\FOpt\RB3LYP\6-31G(d,p)\H2\OSPITE\21-Aug-2024\0\\#p B3L
 YP/6-31g(d,p) opt freq pop=full gfinput\\H2\\0,1\H,0.,0.,-0.0514994423
 \H,0.,0.,0.6914994423\\Version=EM64L-G09RevA.02\State=1-SGG\HF=-1.1785
 393\RMSD=8.829e-11\RMSF=8.528e-05\Dipole=0.,0.,0.\Quadrupole=-0.129291
 3,-0.1292913,0.2585825,0.,0.,0.\PG=D*H [C*(H1.H1)]\\@


 GOORD'S AXIOM:  A MEETING IS AN EVENT AT WHICH
 THE MINUTES ARE KEPT AND THE HOURS ARE LOST.
 Leave Link 9999 at Wed Aug 21 02:34:02 2024, MaxMem=   13107200 cpu:       0.1
 Job cpu time:  0 days  0 hours  0 minutes  4.1 seconds.
 File lengths (MBytes):  RWF=      5 Int=      0 D2E=      0 Chk=      1 Scr=      1
 Normal termination of Gaussian 09 at Wed Aug 21 02:34:02 2024.
 (Enter /programs/64bit/g09/g09-gfortran/bin/l1.exe)
 Link1:  Proceeding to internal job step number  2.
 ----------------------------------------------------------------------
 #P Geom=AllCheck Guess=TCheck SCRF=Check GenChk RB3LYP/6-31G(d,p) Freq
 ----------------------------------------------------------------------
 1/10=4,29=7,30=1,38=1,40=1/1,3;
 2/12=2,40=1/2;
 3/5=1,6=6,7=101,11=2,14=-4,16=1,24=10,25=1,30=1,70=2,71=2,74=-5,116=1/1,2,3;
 4/5=101/1;
 5/5=2,98=1/2;
 8/6=4,10=90,11=11/1;
 11/6=1,8=1,9=11,15=111,16=1/1,2,10;
 10/6=1/2;
 6/7=3,18=1,28=1/1;
 7/8=1,10=1,25=1/1,2,3,16;
 1/10=4,30=1/3;
 99//99;
 Leave Link    1 at Wed Aug 21 02:34:02 2024, MaxMem=   13107200 cpu:       0.1
 (Enter /programs/64bit/g09/g09-gfortran/bin/l101.exe)
 --
 H2
 --
 Redundant internal coordinates taken from checkpoint file:
 h2.chk
 Charge =  0 Multiplicity = 1
 H,0,0.,0.,-0.0514994423
 H,0,0.,0.,0.6914994423
 Recover connectivity data from disk.
                    Isotopes and Nuclear Properties:
 (Nuclear quadrupole moments (NQMom) in fm**2, nuclear magnetic moments (NMagM)
  in nuclear magnetons)

  Atom         1           2
 IAtWgt=           1           1
 AtmWgt=   1.0078250   1.0078250
 NucSpn=           1           1
 AtZEff=  -1.0000000  -1.0000000
 NQMom=    0.0000000   0.0000000
 NMagM=    2.7928460   2.7928460
 Leave Link  101 at Wed Aug 21 02:34:02 2024, MaxMem=   13107200 cpu:       0.2
 (Enter /programs/64bit/g09/g09-gfortran/bin/l103.exe)

 GradGradGradGradGradGradGradGradGradGradGradGradGradGradGradGradGradGrad
 Berny optimization.
 Initialization pass.
                           ----------------------------
                           !    Initial Parameters    !
                           ! (Angstroms and Degrees)  !
 --------------------------                            --------------------------
 ! Name  Definition              Value          Derivative Info.                !
 --------------------------------------------------------------------------------
 ! R1    R(1,2)                  0.743          calculate D2E/DX2 analytically  !
 --------------------------------------------------------------------------------
 Trust Radius=3.00D-01 FncErr=1.00D-07 GrdErr=1.00D-07
 Number of steps in this run=   2 maximum allowed number of steps=   2.
 GradGradGradGradGradGradGradGradGradGradGradGradGradGradGradGradGradGrad

 Leave Link  103 at Wed Aug 21 02:34:02 2024, MaxMem=   13107200 cpu:       0.0
 (Enter /programs/64bit/g09/g09-gfortran/bin/l202.exe)
                          Input orientation:                          
 ---------------------------------------------------------------------
 Center     Atomic      Atomic             Coordinates (Angstroms)
 Number     Number       Type             X           Y           Z
 ---------------------------------------------------------------------
      1          1           0        0.000000    0.000000   -0.051499
      2          1           0        0.000000    0.000000    0.691499
 ---------------------------------------------------------------------
 Stoichiometry    H2
 Framework group  D*H[C*(H.H)]
 Deg. of freedom     1
 Full point group                 D*H     NOp   8
 Largest Abelian subgroup         D2H     NOp   8
 Largest concise Abelian subgroup C2      NOp   2
                         Standard orientation:                         
 ---------------------------------------------------------------------
 Center     Atomic      Atomic             Coordinates (Angstroms)
 Number     Number       Type             X           Y           Z
 ---------------------------------------------------------------------
      1          1           0        0.000000    0.000000    0.371499
      2          1           0        0.000000    0.000000   -0.371499
 ---------------------------------------------------------------------
 Rotational constants (GHZ):      0.0000000   1816.7104942   1816.7104942
 Leave Link  202 at Wed Aug 21 02:34:02 2024, MaxMem=   13107200 cpu:       0.0
 (Enter /programs/64bit/g09/g09-gfortran/bin/l301.exe)
 Standard basis: 6-31G(d,p) (6D, 7F)
 Ernie: Thresh=  0.10000D-02 Tol=  0.10000D-05 Strict=F.
 AO basis set in the form of general basis input (Overlap normalization):
      1 0
 S   3 1.00       0.000000000000
      0.1873113696D+02  0.3349460434D-01
      0.2825394365D+01  0.2347269535D+00
      0.6401216923D+00  0.8137573261D+00
 S   1 1.00       0.000000000000
      0.1612777588D+00  0.1000000000D+01
 P   1 1.00       0.000000000000
      0.1100000000D+01  0.1000000000D+01
 ****
      2 0
 S   3 1.00       0.000000000000
      0.1873113696D+02  0.3349460434D-01
      0.2825394365D+01  0.2347269535D+00
      0.6401216923D+00  0.8137573261D+00
 S   1 1.00       0.000000000000
      0.1612777588D+00  0.1000000000D+01
 P   1 1.00       0.000000000000
      0.1100000000D+01  0.1000000000D+01
 ****

 There are     3 symmetry adapted basis functions of AG  symmetry.
 There are     0 symmetry adapted basis functions of B1G symmetry.
 There are     1 symmetry adapted basis functions of B2G symmetry.
 There are     1 symmetry adapted basis functions of B3G symmetry.
 There are     0 symmetry adapted basis functions of AU  symmetry.
 There are     3 symmetry adapted basis functions of B1U symmetry.
 There are     1 symmetry adapted basis functions of B2U symmetry.
 There are     1 symmetry adapted basis functions of B3U symmetry.
 Integral buffers will be    131072 words long.
 Raffenetti 2 integral format.
 Two-electron integral symmetry is turned on.
    10 basis functions,    14 primitive gaussians,    10 cartesian basis functions
     1 alpha electrons        1 beta electrons
       nuclear repulsion energy         0.7122180390 Hartrees.
 IExCor=  402 DFT=T Ex+Corr=B3LYP ExCW=0 ScaHFX=  0.200000
 ScaDFX=  0.800000  0.720000  1.000000  0.810000 ScalE2=  1.000000  1.000000
 IRadAn=      0 IRanWt=     -1 IRanGd=            0 ICorTp=0
 NAtoms=    2 NActive=    2 NUniq=    1 SFac= 3.00D+00 NAtFMM=   80 NAOKFM=F Big=F
 Leave Link  301 at Wed Aug 21 02:34:02 2024, MaxMem=   13107200 cpu:       0.1
 (Enter /programs/64bit/g09/g09-gfortran/bin/l302.exe)
 NPDir=0 NMtPBC=     1 NCelOv=     1 NCel=       1 NClECP=     1 NCelD=      1
         NCelK=      1 NCelE2=     1 NClLst=     1 CellRange=     0.0.
 One-electron integrals computed using PRISM.
 One-electron integral symmetry used in STVInt
 NBasis=    10 RedAO= T  NBF=     3     0     1     1     0     3     1     1
 NBsUse=    10 1.00D-06 NBFU=     3     0     1     1     0     3     1     1
 Precomputing XC quadrature grid using
 IXCGrd= 2 IRadAn=           0 IRanWt=          -1 IRanGd=           0 AccXCQ= 1.00D-10.
 NRdTot=     122 NPtTot=       15168 NUsed=       16061 NTot=       16093
 NSgBfM=    10    10    10    10    10 NAtAll=     2     2.
 Leave Link  302 at Wed Aug 21 02:34:02 2024, MaxMem=   13107200 cpu:       0.2
 (Enter /programs/64bit/g09/g09-gfortran/bin/l303.exe)
 DipDrv:  MaxL=1.
 Leave Link  303 at Wed Aug 21 02:34:02 2024, MaxMem=   13107200 cpu:       0.1
 (Enter /programs/64bit/g09/g09-gfortran/bin/l401.exe)
 Initial guess read from the checkpoint file:  h2.chk
 B after Tr=     0.000000    0.000000    0.000000
         Rot=    1.000000    0.000000    0.000000    0.000000 Ang=   0.00 deg.
 Guess basis will be translated and rotated to current coordinates.
 Initial guess orbital symmetries:
       Occupied  (SGG)
       Virtual   (SGU) (SGG) (SGU) (PIU) (PIU) (SGG) (PIG) (PIG)
                 (SGU)
 The electronic state of the initial guess is 1-SGG.
 Leave Link  401 at Wed Aug 21 02:34:03 2024, MaxMem=   13107200 cpu:       0.2
 (Enter /programs/64bit/g09/g09-gfortran/bin/l502.exe)
 Closed shell SCF:
 Requested convergence on RMS density matrix=1.00D-08 within 128 cycles.
 Requested convergence on MAX density matrix=1.00D-06.
 Requested convergence on             energy=1.00D-06.
 No special actions if energy rises.
 Using DIIS extrapolation, IDIIS=  1040.
 Integral symmetry usage will be decided dynamically.
        16030 words used for storage of precomputed grid.
 Keep R1 ints in memory in canonical form, NReq=894727.
 IEnd=       35823 IEndB=       35823 NGot=    13107200 MDV=    13086912
 LenX=    13086912 LenY=    13086030
 Symmetry not used in FoFDir.
 MinBra= 0 MaxBra= 1 Meth= 1.
 IRaf=       0 NMat=   1 IRICut=       1 DoRegI=T DoRafI=F ISym2E= 0 JSym2E=0.

 Cycle   1  Pass 1  IDiag  1:
 E= -1.17853930741408    
 DIIS: error= 6.74D-15 at cycle   1 NSaved=   1.
 NSaved= 1 IEnMin= 1 EnMin= -1.17853930741408     IErMin= 1 ErrMin= 6.74D-15
 ErrMax= 6.74D-15 EMaxC= 1.00D-01 BMatC= 1.85D-28 BMatP= 1.85D-28
 IDIUse=1 WtCom= 1.00D+00 WtEn= 0.00D+00
 Coeff-Com:  0.100D+01
 Coeff:      0.100D+01
 Gap=     0.532 Goal=   None    Shift=    0.000
 RMSDP=1.57D-15 MaxDP=6.34D-15              OVMax= 1.19D-14

 SCF Done:  E(RB3LYP) =  -1.17853930741     A.U. after    1 cycles
             Convg  =    0.1572D-14             -V/T =  2.0315
 KE= 1.142524785387D+00 PE=-3.644990993611D+00 EE= 6.117088618298D-01
 Leave Link  502 at Wed Aug 21 02:34:03 2024, MaxMem=   13107200 cpu:       0.1
 (Enter /programs/64bit/g09/g09-gfortran/bin/l801.exe)
 Range of M.O.s used for correlation:     1    10
 NBasis=    10 NAE=     1 NBE=     1 NFC=     0 NFV=     0
 NROrb=     10 NOA=     1 NOB=     1 NVA=     9 NVB=     9
 Leave Link  801 at Wed Aug 21 02:34:03 2024, MaxMem=   13107200 cpu:       0.0
 (Enter /programs/64bit/g09/g09-gfortran/bin/l1101.exe)
 Using compressed storage, NAtomX=     2.
 Will process   3 centers per pass.
 Leave Link 1101 at Wed Aug 21 02:34:03 2024, MaxMem=   13107200 cpu:       0.1
 (Enter /programs/64bit/g09/g09-gfortran/bin/l1102.exe)
 Symmetrizing basis deriv contribution to polar:
 IMax=3 JMax=2 DiffMx= 0.00D+00
 Leave Link 1102 at Wed Aug 21 02:34:03 2024, MaxMem=   13107200 cpu:       0.0
 (Enter /programs/64bit/g09/g09-gfortran/bin/l1110.exe)
 Forming Gx(P) for the SCF density, NAtomX=     2.
 Integral derivatives from FoFDir/FoFCou, PRISM(SPDF).
 Do as many integral derivatives as possible in FoFDir.
 G2DrvN: MDV=      13107080.
 G2DrvN: will do     3 centers at a time, making    1 passes doing MaxLOS=1.
 Calling FoFCou, ICntrl=  3107 FMM=F I1Cent=   0 AccDes= 0.00D+00.
 FoFCou: FMM=F IPFlag=           0 FMFlag=      100000 FMFlg1=           0
         NFxFlg=           0 DoJE=F BraDBF=F KetDBF=F FulRan=T
         Omega=  0.000000  0.000000  1.000000  0.000000  0.000000 ICntrl=    3107 IOpCl=  0
         NMat0=    1 NMatS0=    1 NMatT0=    0 NMatD0=    1 NMtDS0=    0 NMtDT0=    0
         I1Cent=           0 NGrid=           0.
 Petite list used in FoFCou.
 FoFDir/FoFCou used for L=0 through L=1.
 End of G2Drv Frequency-dependent properties file   721 does not exist.
 End of G2Drv Frequency-dependent properties file   722 does not exist.
 Leave Link 1110 at Wed Aug 21 02:34:03 2024, MaxMem=   13107200 cpu:       0.1
 (Enter /programs/64bit/g09/g09-gfortran/bin/l1002.exe)
 Minotr:  Closed shell wavefunction.
          IDoAtm=11
          Direct CPHF calculation.
          Differentiating once with respect to electric field.
                with respect to dipole field.
          Differentiating once with respect to nuclear coordinates.
          Using symmetry in CPHF.
          Requested convergence is 1.0D-08 RMS, and 1.0D-07 maximum.
          Secondary convergence is 1.0D-12 RMS, and 1.0D-12 maximum.
          NewPWx=T KeepS1=F KeepF1=F KeepIn=T MapXYZ=F SortEE=F KeepMc=T.
          MDV=      13107176 using IRadAn=       2.
 Generate precomputed XC quadrature information.
          Keep R1 ints in memory in canonical form, NReq=802444.
 Symmetry not used in FoFDir.
 MinBra= 0 MaxBra= 1 Meth= 1.
 IRaf=       0 NMat=   1 IRICut=       1 DoRegI=T DoRafI=F ISym2E= 0 JSym2E=0.
          Solving linear equations simultaneously, MaxMat=       0.
          There are     6 degrees of freedom in the 1st order CPHF.  IDoFFX=4.
      6 vectors produced by pass  0 Test12= 1.50D-16 1.67D-08 XBig12= 3.63D+00 1.90D+00.
 AX will form     6 AO Fock derivatives at one time.
      2 vectors produced by pass  1 Test12= 1.50D-16 1.67D-08 XBig12= 4.66D-02 2.15D-01.
      1 vectors produced by pass  2 Test12= 1.50D-16 1.67D-08 XBig12= 1.15D-06 1.07D-03.
 Inverted reduced A of dimension     9 with in-core refinement.
 FullF1:  Do perturbations    1 to     6.
 Isotropic polarizability for W=    0.000000        2.51 Bohr**3.
 End of Minotr Frequency-dependent properties file   721 does not exist.
 End of Minotr Frequency-dependent properties file   722 does not exist.
 Leave Link 1002 at Wed Aug 21 02:34:03 2024, MaxMem=   13107200 cpu:       0.2
 (Enter /programs/64bit/g09/g09-gfortran/bin/l601.exe)
 Copying SCF densities to generalized density rwf, IOpCl= 0 IROHF=0.

 **********************************************************************

            Population analysis using the SCF density.

 **********************************************************************

 Orbital symmetries:
       Occupied  (SGG)
       Virtual   (SGU) (SGG) (SGU) (PIU) (PIU) (SGG) (PIG) (PIG)
                 (SGU)
 The electronic state is 1-SGG.
 Alpha  occ. eigenvalues --   -0.43153
 Alpha virt. eigenvalues --    0.10091   0.57708   1.03592   1.67473   1.67473
 Alpha virt. eigenvalues --    2.37849   2.61544   2.61544   4.15186
     Molecular Orbital Coefficients:
                           1         2         3         4         5
                       (SGG)--O  (SGU)--V  (SGG)--V  (SGU)--V  (PIU)--V
     Eigenvalues --    -0.43153   0.10091   0.57708   1.03592   1.67473
   1 1   H  1S          0.32473   0.17239   0.74189  -0.90230   0.00000
   2        2S          0.27053   1.63304  -0.67788   1.48113   0.00000
   3        3PX         0.00000   0.00000   0.00000   0.00000   0.00000
   4        3PY         0.00000   0.00000   0.00000   0.00000   0.61127
   5        3PZ        -0.01536   0.01056  -0.04077  -0.24958   0.00000
   6 2   H  1S          0.32473  -0.17239   0.74189   0.90230   0.00000
   7        2S          0.27053  -1.63304  -0.67788  -1.48113   0.00000
   8        3PX         0.00000   0.00000   0.00000   0.00000   0.00000
   9        3PY         0.00000   0.00000   0.00000   0.00000   0.61127
  10        3PZ         0.01536   0.01056   0.04077  -0.24958   0.00000
                           6         7         8         9        10
                       (PIU)--V  (SGG)--V  (PIG)--V  (PIG)--V  (SGU)--V
     Eigenvalues --     1.67473   2.37849   2.61544   2.61544   4.15186
   1 1   H  1S          0.00000   0.38953   0.00000   0.00000  -1.41331
   2        2S          0.00000  -0.19259   0.00000   0.00000  -0.19001
   3        3PX         0.61127   0.00000   0.86917   0.00000   0.00000
   4        3PY         0.00000   0.00000   0.00000   0.86917   0.00000
   5        3PZ         0.00000   0.64651   0.00000   0.00000   1.57524
   6 2   H  1S          0.00000   0.38953   0.00000   0.00000   1.41331
   7        2S          0.00000  -0.19259   0.00000   0.00000   0.19001
   8        3PX         0.61127   0.00000  -0.86917   0.00000   0.00000
   9        3PY         0.00000   0.00000   0.00000  -0.86917   0.00000
  10        3PZ         0.00000  -0.64651   0.00000   0.00000   1.57524
     Density Matrix:
                           1         2         3         4         5
   1 1   H  1S          0.21089
   2        2S          0.17569   0.14637
   3        3PX        -0.00000  -0.00000   0.00000
   4        3PY        -0.00000  -0.00000   0.00000   0.00000
   5        3PZ        -0.00998  -0.00831   0.00000   0.00000   0.00047
   6 2   H  1S          0.21089   0.17569  -0.00000  -0.00000  -0.00998
   7        2S          0.17569   0.14637  -0.00000  -0.00000  -0.00831
   8        3PX         0.00000   0.00000  -0.00000  -0.00000  -0.00000
   9        3PY         0.00000   0.00000  -0.00000  -0.00000  -0.00000
  10        3PZ         0.00998   0.00831  -0.00000  -0.00000  -0.00047
                           6         7         8         9        10
   6 2   H  1S          0.21089
   7        2S          0.17569   0.14637
   8        3PX         0.00000   0.00000   0.00000
   9        3PY         0.00000   0.00000   0.00000   0.00000
  10        3PZ         0.00998   0.00831   0.00000   0.00000   0.00047
    Full Mulliken population analysis:
                           1         2         3         4         5
   1 1   H  1S          0.21089
   2        2S          0.11566   0.14637
   3        3PX         0.00000   0.00000   0.00000
   4        3PY         0.00000   0.00000   0.00000   0.00000
   5        3PZ         0.00000   0.00000   0.00000   0.00000   0.00047
   6 2   H  1S          0.09545   0.08925   0.00000   0.00000   0.00468
   7        2S          0.08925   0.12486   0.00000   0.00000   0.00129
   8        3PX         0.00000   0.00000  -0.00000   0.00000   0.00000
   9        3PY         0.00000   0.00000   0.00000  -0.00000   0.00000
  10        3PZ         0.00468   0.00129   0.00000   0.00000   0.00019
                           6         7         8         9        10
   6 2   H  1S          0.21089
   7        2S          0.11566   0.14637
   8        3PX         0.00000   0.00000   0.00000
   9        3PY         0.00000   0.00000   0.00000   0.00000
  10        3PZ         0.00000   0.00000   0.00000   0.00000   0.00047
     Gross orbital populations:
                           1
   1 1   H  1S          0.51593
   2        2S          0.47744
   3        3PX         0.00000
   4        3PY         0.00000
   5        3PZ         0.00663
   6 2   H  1S          0.51593
   7        2S          0.47744
   8        3PX         0.00000
   9        3PY         0.00000
  10        3PZ         0.00663
          Condensed to atoms (all electrons):
              1          2
     1  H    0.589054   0.410946
     2  H    0.410946   0.589054
 Mulliken atomic charges:
              1
     1  H   -0.000000
     2  H   -0.000000
 Sum of Mulliken atomic charges =  -0.00000
 Mulliken charges with hydrogens summed into heavy atoms:
              1
 Sum of Mulliken charges with hydrogens summed into heavy atoms =  -0.00000
 APT atomic charges:
              1
     1  H   -0.000000
     2  H   -0.000000
 Sum of APT charges=  -0.00000
 APT Atomic charges with hydrogens summed into heavy atoms:
              1
     1  H   -0.000000
     2  H   -0.000000
 Sum of APT charges=  -0.00000
 Electronic spatial extent (au):  <R**2>=              5.1242
 Charge=             -0.0000 electrons
 Dipole moment (field-independent basis, Debye):
    X=             -0.0000    Y=              0.0000    Z=             -0.0000  Tot=              0.0000
 Quadrupole moment (field-independent basis, Debye-Ang):
   XX=             -2.0294   YY=             -2.0294   ZZ=             -1.5077
   XY=             -0.0000   XZ=             -0.0000   YZ=              0.0000
 Traceless Quadrupole moment (field-independent basis, Debye-Ang):
   XX=             -0.1739   YY=             -0.1739   ZZ=              0.3478
   XY=             -0.0000   XZ=             -0.0000   YZ=              0.0000
 Octapole moment (field-independent basis, Debye-Ang**2):
  XXX=             -0.0000  YYY=              0.0000  ZZZ=              0.0000  XYY=             -0.0000
  XXY=              0.0000  XXZ=             -0.0000  XZZ=             -0.0000  YZZ=              0.0000
  YYZ=             -0.0000  XYZ=              0.0000
 Hexadecapole moment (field-independent basis, Debye-Ang**3):
 XXXX=             -1.8763 YYYY=             -1.8763 ZZZZ=             -2.7690 XXXY=             -0.0000
 XXXZ=              0.0000 YYYX=             -0.0000 YYYZ=              0.0000 ZZZX=              0.0000
 ZZZY=              0.0000 XXYY=             -0.6254 XXZZ=             -0.7891 YYZZ=             -0.7891
 XXYZ=              0.0000 YYXZ=              0.0000 ZZXY=             -0.0000
 N-N= 7.122180389800D-01 E-N=-3.644990993611D+00  KE= 1.142524785387D+00
 Symmetry AG   KE= 1.142524785387D+00
 Symmetry B1G  KE= 0.000000000000D+00
 Symmetry B2G  KE= 2.249713984678D-34
 Symmetry B3G  KE= 2.249713984678D-34
 Symmetry AU   KE= 0.000000000000D+00
 Symmetry B1U  KE= 4.067963578290D-32
 Symmetry B2U  KE= 6.478567940370D-35
 Symmetry B3U  KE= 6.478567940370D-35
 Orbital energies and kinetic energies (alpha):
                                 1                 2
   1         (SGG)--O         -0.431534          0.571262
   2         (SGU)--V          0.100908          0.493412
   3         (SGG)--V          0.577079          1.407684
   4         (SGU)--V          1.035924          2.257642
   5         (PIU)--V          1.674729          2.448607
   6         (PIU)--V          1.674729          2.448607
   7         (SGG)--V          2.378486          3.274700
   8         (PIG)--V          2.615436          3.359365
   9         (PIG)--V          2.615436          3.359365
  10         (SGU)--V          4.151856          5.415041
 Total kinetic energy from orbitals= 1.142524785387D+00
  Exact polarizability:   0.582  -0.000   0.582   0.000  -0.000   6.368
 Approx polarizability:   0.599  -0.000   0.599  -0.000  -0.000   7.768
 No NMR shielding tensors so no spin-rotation constants.
 Leave Link  601 at Wed Aug 21 02:34:03 2024, MaxMem=   13107200 cpu:       0.1
 (Enter /programs/64bit/g09/g09-gfortran/bin/l701.exe)
 Compute integral second derivatives.
 ... and contract with generalized density number  0.
 Leave Link  701 at Wed Aug 21 02:34:04 2024, MaxMem=   13107200 cpu:       0.1
 (Enter /programs/64bit/g09/g09-gfortran/bin/l702.exe)
 L702 exits ... SP integral derivatives will be done elsewhere.
 Leave Link  702 at Wed Aug 21 02:34:04 2024, MaxMem=   13107200 cpu:       0.0
 (Enter /programs/64bit/g09/g09-gfortran/bin/l703.exe)
 Compute integral second derivatives, UseDBF=F ICtDFT=           0.
 Integral derivatives from FoFDir, PRISM(SPDF).
 Calling FoFJK, ICntrl=    100127 FMM=F ISym2X=1 I1Cent= 0 IOpClX= 0 NMat=1 NMatS=1 NMatT=0.
 FoFCou: FMM=F IPFlag=           0 FMFlag=      100000 FMFlg1=         800
         NFxFlg=           0 DoJE=F BraDBF=F KetDBF=F FulRan=T
         Omega=  0.000000  0.000000  1.000000  0.000000  0.000000 ICntrl=  100127 IOpCl=  0
         NMat0=    1 NMatS0=    1 NMatT0=    0 NMatD0=    1 NMtDS0=    0 NMtDT0=    0
         I1Cent=           0 NGrid=           0.
 Petite list used in FoFCou.
 Leave Link  703 at Wed Aug 21 02:34:04 2024, MaxMem=   13107200 cpu:       0.2
 (Enter /programs/64bit/g09/g09-gfortran/bin/l716.exe)
 Dipole        =-4.93038066D-32-2.40741243D-35-3.95191692D-17
 Polarizability= 5.81955212D-01-2.50597858D-24 5.81955212D-01
                 3.86916668D-12-4.53421421D-13 6.36796138D+00
 Full mass-weighted force constant matrix:
 Low frequencies ---   -0.0001   -0.0001    0.0001   73.4169   73.4169 4462.7116
 Diagonal vibrational polarizability:
        0.0000000       0.0000000       0.0000000
 Harmonic frequencies (cm**-1), IR intensities (KM/Mole), Raman scattering
 activities (A**4/AMU), depolarization ratios for plane and unpolarized
 incident light, reduced masses (AMU), force constants (mDyne/A),
 and normal coordinates:
                     1
                    SGG
 Frequencies --  4462.7116
 Red. masses --     1.0078
 Frc consts  --    11.8259
 IR Inten    --     0.0000
  Atom  AN      X      Y      Z
     1   1    -0.00   0.00   0.71
     2   1     0.00   0.00  -0.71

 -------------------
 - Thermochemistry -
 -------------------
 Temperature   298.150 Kelvin.  Pressure   1.00000 Atm.
 Atom     1 has atomic number  1 and mass   1.00783
 Atom     2 has atomic number  1 and mass   1.00783
 Molecular mass:     2.01565 amu.
 Principal axes and moments of inertia in atomic units:
                           1         2         3
     Eigenvalues --     0.00000   0.99341   0.99341
           X           -0.00000   1.00000  -0.00000
           Y            0.00000   0.00000   1.00000
           Z            1.00000   0.00000  -0.00000
 This molecule is a prolate symmetric top.
 Rotational symmetry number  2.
 Rotational temperature (Kelvin)     87.18825
 Rotational constant (GHZ):        1816.710494
 Zero-point vibrational energy      26692.9 (Joules/Mol)
                                    6.37977 (Kcal/Mol)
 Vibrational temperatures:   6420.84
          (Kelvin)
 
 Zero-point correction=                           0.010167 (Hartree/Particle)
 Thermal correction to Energy=                    0.012527
 Thermal correction to Enthalpy=                  0.013471
 Thermal correction to Gibbs Free Energy=        -0.001321
 Sum of electronic and zero-point Energies=             -1.168373
 Sum of electronic and thermal Energies=                -1.166012
 Sum of electronic and thermal Enthalpies=              -1.165068
 Sum of electronic and thermal Free Energies=           -1.179860
 
                     E (Thermal)             CV                S
                      KCal/Mol        Cal/Mol-Kelvin    Cal/Mol-Kelvin
 Total                    7.861              4.968             31.133
 Electronic               0.000              0.000              0.000
 Translational            0.889              2.981             28.080
 Rotational               0.592              1.987              3.053
 Vibrational              6.380              0.000              0.000
                       Q            Log10(Q)             Ln(Q)
 Total Bot       0.405162D+01          0.607629          1.399118
 Total V=0       0.192320D+06          5.284025         12.166917
 Vib (Bot)       0.210671D-04         -4.676396        -10.767799
 Vib (V=0)       0.100000D+01          0.000000          0.000000
 Electronic      0.100000D+01          0.000000          0.000000
 Translational   0.112481D+06          5.051078         11.630537
 Rotational      0.170981D+01          0.232947          0.536380
 ***** Axes restored to original set *****
 -------------------------------------------------------------------
 Center     Atomic                   Forces (Hartrees/Bohr)
 Number     Number              X              Y              Z
 -------------------------------------------------------------------
      1        1           0.000000000   -0.000000000    0.000147717
      2        1          -0.000000000    0.000000000   -0.000147717
 -------------------------------------------------------------------
 Cartesian Forces:  Max     0.000147717 RMS     0.000085284
 Force constants in Cartesian coordinates: 
                1             2             3             4             5 
      1  0.102787D-03
      2  0.000000D+00  0.102787D-03
      3  0.000000D+00  0.000000D+00  0.379791D+00
      4 -0.102787D-03  0.000000D+00  0.000000D+00  0.102787D-03
      5  0.000000D+00 -0.102787D-03  0.000000D+00  0.000000D+00  0.102787D-03
      6  0.000000D+00  0.000000D+00 -0.379791D+00  0.000000D+00  0.000000D+00
                6 
      6  0.379791D+00
 Force constants in internal coordinates: 
                1 
      1  0.379791D+00
 Leave Link  716 at Wed Aug 21 02:34:04 2024, MaxMem=   13107200 cpu:       0.1
 (Enter /programs/64bit/g09/g09-gfortran/bin/l103.exe)

 GradGradGradGradGradGradGradGradGradGradGradGradGradGradGradGradGradGrad
 Berny optimization.
 Internal  Forces:  Max     0.000147717 RMS     0.000147717
 Search for a local minimum.
 Step number   1 out of a maximum of    2
 All quantities printed in internal units (Hartrees-Bohrs-Radians)
 Second derivative matrix not updated -- analytic derivatives used.
 The second derivative matrix:
                          R1
           R1           0.37979
     Eigenvalues ---    0.37979
 Angle between quadratic step and forces=   0.00 degrees.
 Linear search not attempted -- first point.
 Iteration  1 RMS(Cart)=  0.00027502 RMS(Int)=  0.00000000
 Iteration  2 RMS(Cart)=  0.00000000 RMS(Int)=  0.00000000
 ClnCor:  largest displacement from symmetrization is 2.22D-16 for atom     2.
 Variable       Old X    -DE/DX   Delta X   Delta X   Delta X     New X
                                 (Linear)    (Quad)   (Total)
    R1        1.40406  -0.00015   0.00000  -0.00039  -0.00039   1.40368
         Item               Value     Threshold  Converged?
 Maximum Force            0.000148     0.000450     YES
 RMS     Force            0.000148     0.000300     YES
 Maximum Displacement     0.000194     0.001800     YES
 RMS     Displacement     0.000275     0.001200     YES
 Predicted change in Energy=-2.872672D-08
 Optimization completed.
    -- Stationary point found.
                           ----------------------------
                           !   Optimized Parameters   !
                           ! (Angstroms and Degrees)  !
 --------------------------                            --------------------------
 ! Name  Definition              Value          Derivative Info.                !
 --------------------------------------------------------------------------------
 ! R1    R(1,2)                  0.743          -DE/DX =   -0.0001              !
 --------------------------------------------------------------------------------
 GradGradGradGradGradGradGradGradGradGradGradGradGradGradGradGradGradGrad

 Leave Link  103 at Wed Aug 21 02:34:04 2024, MaxMem=   13107200 cpu:       0.0
 (Enter /programs/64bit/g09/g09-gfortran/bin/l9999.exe)
 1\1\GINC-MOLMOD\Freq\RB3LYP\6-31G(d,p)\H2\OSPITE\21-Aug-2024\0\\#P Geo
 m=AllCheck Guess=TCheck SCRF=Check GenChk RB3LYP/6-31G(d,p) Freq\\H2\\
 0,1\H,0.,0.,-0.0514994423\H,0.,0.,0.6914994423\\Version=EM64L-G09RevA.
 02\State=1-SGG\HF=-1.1785393\RMSD=1.572e-15\RMSF=8.528e-05\ZeroPoint=0
 .0101668\Thermal=0.0125273\Dipole=0.,0.,0.\DipoleDeriv=0.,0.,0.,0.,0.,
 0.,0.,0.,0.,0.,0.,0.,0.,0.,0.,0.,0.,0.\Polar=0.5819552,0.,0.5819552,0.
 ,0.,6.3679614\PG=D*H [C*(H1.H1)]\NImag=0\\0.00010279,0.,0.00010279,0.,
 0.,0.37979063,-0.00010279,0.,0.,0.00010279,0.,-0.00010279,0.,0.,0.0001
 0279,0.,0.,-0.37979063,0.,0.,0.37979063\\0.,0.,-0.00014772,0.,0.,0.000
 14772\\\@


 IN THE UNIVERSE THE DIFFICULT THINGS ARE DONE AS IF THEY WERE EASY.

                                                          -- LAO-TSU
 Job cpu time:  0 days  0 hours  0 minutes  2.2 seconds.
 File lengths (MBytes):  RWF=      5 Int=      0 D2E=      0 Chk=      1 Scr=      1
 Normal termination of Gaussian 09 at Wed Aug 21 02:34:04 2024.
