 Entering Gaussian System, Link 0=/programs/64bit/g09/g09-gfortran/bin/g09
 Input=HF.com
 Output=HF.log
 Initial command:
 /programs/64bit/g09/g09-gfortran/bin/l1.exe /home/ospite/Desktop/MMfP/Project8/gaussian_simulations/round3/Gau-12697.inp -scrdir=/home/ospite/Desktop/MMfP/Project8/gaussian_simulations/round3/
 Entering Link 1 = /programs/64bit/g09/g09-gfortran/bin/l1.exe PID=     12698.
  
 Copyright (c) 1988,1990,1992,1993,1995,1998,2003,2009, Gaussian, Inc.
                  All Rights Reserved.
  
 This is part of the Gaussian(R) 09 program.  It is based on
 the Gaussian(R) 03 system (copyright 2003, Gaussian, Inc.),
 the Gaussian(R) 98 system (copyright 1998, Gaussian, Inc.),
 the Gaussian(R) 94 system (copyright 1995, Gaussian, Inc.),
 the Gaussian 92(TM) system (copyright 1992, Gaussian, Inc.),
 the Gaussian 90(TM) system (copyright 1990, Gaussian, Inc.),
 the Gaussian 88(TM) system (copyright 1988, Gaussian, Inc.),
 the Gaussian 86(TM) system (copyright 1986, Carnegie Mellon
 University), and the Gaussian 82(TM) system (copyright 1983,
 Carnegie Mellon University). Gaussian is a federally registered
 trademark of Gaussian, Inc.
  
 This software contains proprietary and confidential information,
 including trade secrets, belonging to Gaussian, Inc.
  
 This software is provided under written license and may be
 used, copied, transmitted, or stored only in accord with that
 written license.
  
 The following legend is applicable only to US Government
 contracts under FAR:
  
                    RESTRICTED RIGHTS LEGEND
  
 Use, reproduction and disclosure by the US Government is
 subject to restrictions as set forth in subparagraphs (a)
 and (c) of the Commercial Computer Software - Restricted
 Rights clause in FAR 52.227-19.
  
 Gaussian, Inc.
 340 Quinnipiac St., Bldg. 40, Wallingford CT 06492
  
  
 ---------------------------------------------------------------
 Warning -- This program may not be used in any manner that
 competes with the business of Gaussian, Inc. or will provide
 assistance to any competitor of Gaussian, Inc.  The licensee
 of this program is prohibited from giving any competitor of
 Gaussian, Inc. access to this program.  By using this program,
 the user acknowledges that Gaussian, Inc. is engaged in the
 business of creating and licensing software in the field of
 computational chemistry and represents and warrants to the
 licensee that it is not a competitor of Gaussian, Inc. and that
 it will not use this program in any manner prohibited above.
 ---------------------------------------------------------------
  

 Cite this work as:
 Gaussian 09, Revision A.02,
 M. J. Frisch, G. W. Trucks, H. B. Schlegel, G. E. Scuseria, 
 M. A. Robb, J. R. Cheeseman, G. Scalmani, V. Barone, B. Mennucci, 
 G. A. Petersson, H. Nakatsuji, M. Caricato, X. Li, H. P. Hratchian, 
 A. F. Izmaylov, J. Bloino, G. Zheng, J. L. Sonnenberg, M. Hada, 
 M. Ehara, K. Toyota, R. Fukuda, J. Hasegawa, M. Ishida, T. Nakajima, 
 Y. Honda, O. Kitao, H. Nakai, T. Vreven, J. A. Montgomery, Jr., 
 J. E. Peralta, F. Ogliaro, M. Bearpark, J. J. Heyd, E. Brothers, 
 K. N. Kudin, V. N. Staroverov, R. Kobayashi, J. Normand, 
 K. Raghavachari, A. Rendell, J. C. Burant, S. S. Iyengar, J. Tomasi, 
 M. Cossi, N. Rega, J. M. Millam, M. Klene, J. E. Knox, J. B. Cross, 
 V. Bakken, C. Adamo, J. Jaramillo, R. Gomperts, R. E. Stratmann, 
 O. Yazyev, A. J. Austin, R. Cammi, C. Pomelli, J. W. Ochterski, 
 R. L. Martin, K. Morokuma, V. G. Zakrzewski, G. A. Voth, 
 P. Salvador, J. J. Dannenberg, S. Dapprich, A. D. Daniels, 
 O. Farkas, J. B. Foresman, J. V. Ortiz, J. Cioslowski, 
 and D. J. Fox, Gaussian, Inc., Wallingford CT, 2009.
 
 ******************************************
 Gaussian 09:  EM64L-G09RevA.02 11-Jun-2009
                21-Aug-2024 
 ******************************************
 %mem=100MB
 %chk=hf
 ---------------------------------------------
 #p B3LYP/6-31g(d,p) opt freq pop=full gfinput
 ---------------------------------------------
 1/14=-1,18=20,19=15,26=3,38=1/1,3;
 2/9=110,12=2,17=6,18=5,40=1/2;
 3/5=1,6=6,7=101,11=2,16=1,24=10,25=1,30=1,71=1,74=-5/1,2,3;
 4//1;
 5/5=2,38=5/2;
 6/7=3,28=1/1;
 7//1,2,3,16;
 1/14=-1,18=20,19=15/3(2);
 2/9=110/2;
 99//99;
 2/9=110/2;
 3/5=1,6=6,7=101,11=2,16=1,25=1,30=1,71=1,74=-5/1,2,3;
 4/5=5,16=3/1;
 5/5=2,38=5/2;
 7//1,2,3,16;
 1/14=-1,18=20,19=15/3(-5);
 2/9=110/2;
 6/7=3,19=2,28=1/1;
 99/9=1/99;
 Leave Link    1 at Wed Aug 21 02:34:36 2024, MaxMem=   13107200 cpu:       0.1
 (Enter /programs/64bit/g09/g09-gfortran/bin/l101.exe)
 --
 HF
 --
 Symbolic Z-matrix:
 Charge =  0 Multiplicity = 1
 f
 h                    1    hf2
       Variables:
  hf2                   0.96                     
 
 NAtoms=      2 NQM=      2 NQMF=      0 NMic=      0 NMicF=      0 NTot=      2.
                    Isotopes and Nuclear Properties:
 (Nuclear quadrupole moments (NQMom) in fm**2, nuclear magnetic moments (NMagM)
  in nuclear magnetons)

  Atom         1           2
 IAtWgt=          19           1
 AtmWgt=  18.9984032   1.0078250
 NucSpn=           1           1
 AtZEff=   0.0000000   0.0000000
 NQMom=    0.0000000   0.0000000
 NMagM=    2.6288670   2.7928460
 Leave Link  101 at Wed Aug 21 02:34:36 2024, MaxMem=   13107200 cpu:       0.1
 (Enter /programs/64bit/g09/g09-gfortran/bin/l103.exe)

 GradGradGradGradGradGradGradGradGradGradGradGradGradGradGradGradGradGrad
 Berny optimization.
 Initialization pass.
                           ----------------------------
                           !    Initial Parameters    !
                           ! (Angstroms and Degrees)  !
 --------------------------                            --------------------------
 ! Name  Definition              Value          Derivative Info.                !
 --------------------------------------------------------------------------------
 ! R1    R(1,2)                  0.96           estimate D2E/DX2                !
 --------------------------------------------------------------------------------
 Trust Radius=3.00D-01 FncErr=1.00D-07 GrdErr=1.00D-06
 Number of steps in this run=  20 maximum allowed number of steps= 100.
 GradGradGradGradGradGradGradGradGradGradGradGradGradGradGradGradGradGrad

 Leave Link  103 at Wed Aug 21 02:34:36 2024, MaxMem=   13107200 cpu:       0.0
 (Enter /programs/64bit/g09/g09-gfortran/bin/l202.exe)
                          Input orientation:                          
 ---------------------------------------------------------------------
 Center     Atomic      Atomic             Coordinates (Angstroms)
 Number     Number       Type             X           Y           Z
 ---------------------------------------------------------------------
      1          9           0        0.000000    0.000000    0.000000
      2          1           0        0.000000    0.000000    0.960000
 ---------------------------------------------------------------------
 Stoichiometry    FH
 Framework group  C*V[C*(HF)]
 Deg. of freedom     1
 Full point group                 C*V     NOp   4
 Largest Abelian subgroup         C2V     NOp   4
 Largest concise Abelian subgroup C1      NOp   1
                         Standard orientation:                         
 ---------------------------------------------------------------------
 Center     Atomic      Atomic             Coordinates (Angstroms)
 Number     Number       Type             X           Y           Z
 ---------------------------------------------------------------------
      1          9           0        0.000000    0.000000    0.096000
      2          1           0        0.000000    0.000000   -0.864000
 ---------------------------------------------------------------------
 Rotational constants (GHZ):      0.0000000    572.9776810    572.9776810
 Leave Link  202 at Wed Aug 21 02:34:36 2024, MaxMem=   13107200 cpu:       0.0
 (Enter /programs/64bit/g09/g09-gfortran/bin/l301.exe)
 Standard basis: 6-31G(d,p) (6D, 7F)
 Ernie: Thresh=  0.10000D-02 Tol=  0.10000D-05 Strict=F.
 AO basis set in the form of general basis input (Overlap normalization):
      1 0
 S   6 1.00       0.000000000000
      0.7001713090D+04  0.1819616901D-02
      0.1051366090D+04  0.1391607961D-01
      0.2392856900D+03  0.6840532453D-01
      0.6739744530D+02  0.2331857601D+00
      0.2151995730D+02  0.4712674392D+00
      0.7403101300D+01  0.3566185462D+00
 SP   3 1.00       0.000000000000
      0.2084795280D+02 -0.1085069751D+00  0.7162872424D-01
      0.4808308340D+01 -0.1464516581D+00  0.3459121027D+00
      0.1344069860D+01  0.1128688581D+01  0.7224699564D+00
 SP   1 1.00       0.000000000000
      0.3581513930D+00  0.1000000000D+01  0.1000000000D+01
 D   1 1.00       0.000000000000
      0.8000000000D+00  0.1000000000D+01
 ****
      2 0
 S   3 1.00       0.000000000000
      0.1873113696D+02  0.3349460434D-01
      0.2825394365D+01  0.2347269535D+00
      0.6401216923D+00  0.8137573261D+00
 S   1 1.00       0.000000000000
      0.1612777588D+00  0.1000000000D+01
 P   1 1.00       0.000000000000
      0.1100000000D+01  0.1000000000D+01
 ****

 There are    11 symmetry adapted basis functions of A1  symmetry.
 There are     1 symmetry adapted basis functions of A2  symmetry.
 There are     4 symmetry adapted basis functions of B1  symmetry.
 There are     4 symmetry adapted basis functions of B2  symmetry.
 Integral buffers will be    131072 words long.
 Raffenetti 2 integral format.
 Two-electron integral symmetry is turned on.
    20 basis functions,    35 primitive gaussians,    20 cartesian basis functions
     5 alpha electrons        5 beta electrons
       nuclear repulsion energy         4.9610363305 Hartrees.
 IExCor=  402 DFT=T Ex+Corr=B3LYP ExCW=0 ScaHFX=  0.200000
 ScaDFX=  0.800000  0.720000  1.000000  0.810000 ScalE2=  1.000000  1.000000
 IRadAn=      0 IRanWt=     -1 IRanGd=            0 ICorTp=0
 NAtoms=    2 NActive=    2 NUniq=    2 SFac= 7.50D-01 NAtFMM=   80 NAOKFM=F Big=F
 Leave Link  301 at Wed Aug 21 02:34:36 2024, MaxMem=   13107200 cpu:       0.1
 (Enter /programs/64bit/g09/g09-gfortran/bin/l302.exe)
 NPDir=0 NMtPBC=     1 NCelOv=     1 NCel=       1 NClECP=     1 NCelD=      1
         NCelK=      1 NCelE2=     1 NClLst=     1 CellRange=     0.0.
 One-electron integrals computed using PRISM.
 NBasis=    20 RedAO= T  NBF=    11     1     4     4
 NBsUse=    20 1.00D-06 NBFU=    11     1     4     4
 Precomputing XC quadrature grid using
 IXCGrd= 2 IRadAn=           0 IRanWt=          -1 IRanGd=           0 AccXCQ= 1.00D-10.
 NRdTot=     122 NPtTot=       15338 NUsed=       16231 NTot=       16263
 NSgBfM=    20    20    20    20    20 NAtAll=     2     2.
 Leave Link  302 at Wed Aug 21 02:34:36 2024, MaxMem=   13107200 cpu:       0.2
 (Enter /programs/64bit/g09/g09-gfortran/bin/l303.exe)
 DipDrv:  MaxL=1.
 Leave Link  303 at Wed Aug 21 02:34:37 2024, MaxMem=   13107200 cpu:       0.0
 (Enter /programs/64bit/g09/g09-gfortran/bin/l401.exe)
 Harris functional with IExCor=  402 diagonalized for initial guess.
 ExpMin= 1.61D-01 ExpMax= 7.00D+03 ExpMxC= 1.05D+03 IAcc=1 IRadAn=         1 AccDes= 0.00D+00
 HarFok:  IExCor=  402 AccDes= 0.00D+00 IRadAn=         1 IDoV= 1
 ScaDFX=  1.000000  1.000000  1.000000  1.000000
 FoFCou: FMM=F IPFlag=           0 FMFlag=      100000 FMFlg1=           0
         NFxFlg=           0 DoJE=T BraDBF=F KetDBF=T FulRan=T
         Omega=  0.000000  0.000000  1.000000  0.000000  0.000000 ICntrl=     500 IOpCl=  0
         NMat0=    1 NMatS0=    1 NMatT0=    0 NMatD0=    1 NMtDS0=    0 NMtDT0=    0
         I1Cent=           4 NGrid=           0.
 Petite list used in FoFCou.
 Harris En= -100.447659073925    
 Initial guess orbital symmetries:
       Occupied  (SG) (SG) (SG) (PI) (PI)
       Virtual   (SG) (SG) (SG) (PI) (PI) (SG) (PI) (PI) (DLTA)
                 (DLTA) (SG) (PI) (PI) (SG) (SG)
 The electronic state of the initial guess is 1-SG.
 Leave Link  401 at Wed Aug 21 02:34:37 2024, MaxMem=   13107200 cpu:       0.2
 (Enter /programs/64bit/g09/g09-gfortran/bin/l502.exe)
 Closed shell SCF:
 Requested convergence on RMS density matrix=1.00D-08 within 128 cycles.
 Requested convergence on MAX density matrix=1.00D-06.
 Requested convergence on             energy=1.00D-06.
 No special actions if energy rises.
 Using DIIS extrapolation, IDIIS=  1040.
 Integral symmetry usage will be decided dynamically.
        16200 words used for storage of precomputed grid.
 Keep R1 ints in memory in canonical form, NReq=916086.
 IEnd=       35973 IEndB=       35973 NGot=    13107200 MDV=    13066147
 LenX=    13066147 LenY=    13065265
 Symmetry not used in FoFDir.
 MinBra= 0 MaxBra= 2 Meth= 1.
 IRaf=       0 NMat=   1 IRICut=       1 DoRegI=T DoRafI=F ISym2E= 0 JSym2E=0.
 Integral accuracy reduced to 1.0D-05 until final iterations.

 Cycle   1  Pass 0  IDiag  1:
 E= -100.390579553870    
 DIIS: error= 4.43D-02 at cycle   1 NSaved=   1.
 NSaved= 1 IEnMin= 1 EnMin= -100.390579553870     IErMin= 1 ErrMin= 4.43D-02
 ErrMax= 4.43D-02 EMaxC= 1.00D-01 BMatC= 5.43D-02 BMatP= 5.43D-02
 IDIUse=3 WtCom= 5.57D-01 WtEn= 4.43D-01
 Coeff-Com:  0.100D+01
 Coeff-En:   0.100D+01
 Coeff:      0.100D+01
 Gap=     0.318 Goal=   None    Shift=    0.000
 GapD=    0.318 DampG=1.000 DampE=0.500 DampFc=0.5000 IDamp=-1.
 Damping current iteration by 5.00D-01
 RMSDP=1.70D-02 MaxDP=1.54D-01              OVMax= 1.60D-01

 Cycle   2  Pass 0  IDiag  1:
 E= -100.404393287322     Delta-E=       -0.013813733452 Rises=F Damp=T
 DIIS: error= 8.78D-03 at cycle   2 NSaved=   2.
 NSaved= 2 IEnMin= 2 EnMin= -100.404393287322     IErMin= 2 ErrMin= 8.78D-03
 ErrMax= 8.78D-03 EMaxC= 1.00D-01 BMatC= 2.57D-03 BMatP= 5.43D-02
 IDIUse=3 WtCom= 9.12D-01 WtEn= 8.78D-02
 Coeff-Com:  0.155D+00 0.845D+00
 Coeff-En:   0.240D+00 0.760D+00
 Coeff:      0.163D+00 0.837D+00
 Gap=     0.420 Goal=   None    Shift=    0.000
 RMSDP=1.32D-03 MaxDP=1.04D-02 DE=-1.38D-02 OVMax= 8.35D-02

 Cycle   3  Pass 0  IDiag  1:
 E= -100.426241708830     Delta-E=       -0.021848421508 Rises=F Damp=F
 DIIS: error= 1.45D-03 at cycle   3 NSaved=   3.
 NSaved= 3 IEnMin= 3 EnMin= -100.426241708830     IErMin= 3 ErrMin= 1.45D-03
 ErrMax= 1.45D-03 EMaxC= 1.00D-01 BMatC= 4.00D-05 BMatP= 2.57D-03
 IDIUse=3 WtCom= 9.85D-01 WtEn= 1.45D-02
 Coeff-Com:  0.262D-01 0.258D-01 0.948D+00
 Coeff-En:   0.000D+00 0.000D+00 0.100D+01
 Coeff:      0.258D-01 0.254D-01 0.949D+00
 Gap=     0.429 Goal=   None    Shift=    0.000
 RMSDP=2.32D-04 MaxDP=2.25D-03 DE=-2.18D-02 OVMax= 2.23D-03

 Cycle   4  Pass 0  IDiag  1:
 E= -100.426269103205     Delta-E=       -0.000027394375 Rises=F Damp=F
 DIIS: error= 2.67D-04 at cycle   4 NSaved=   4.
 NSaved= 4 IEnMin= 4 EnMin= -100.426269103205     IErMin= 4 ErrMin= 2.67D-04
 ErrMax= 2.67D-04 EMaxC= 1.00D-01 BMatC= 1.28D-06 BMatP= 4.00D-05
 IDIUse=3 WtCom= 9.97D-01 WtEn= 2.67D-03
 Coeff-Com:  0.392D-02-0.102D-01 0.216D+00 0.790D+00
 Coeff-En:   0.000D+00 0.000D+00 0.000D+00 0.100D+01
 Coeff:      0.391D-02-0.102D-01 0.215D+00 0.791D+00
 Gap=     0.429 Goal=   None    Shift=    0.000
 RMSDP=3.15D-05 MaxDP=1.84D-04 DE=-2.74D-05 OVMax= 2.71D-04

 Cycle   5  Pass 0  IDiag  1:
 E= -100.426270001389     Delta-E=       -0.000000898183 Rises=F Damp=F
 DIIS: error= 1.30D-05 at cycle   5 NSaved=   5.
 NSaved= 5 IEnMin= 5 EnMin= -100.426270001389     IErMin= 5 ErrMin= 1.30D-05
 ErrMax= 1.30D-05 EMaxC= 1.00D-01 BMatC= 4.83D-09 BMatP= 1.28D-06
 IDIUse=1 WtCom= 1.00D+00 WtEn= 0.00D+00
 Coeff-Com:  0.131D-03-0.406D-03-0.357D-02 0.468D-02 0.999D+00
 Coeff:      0.131D-03-0.406D-03-0.357D-02 0.468D-02 0.999D+00
 Gap=     0.429 Goal=   None    Shift=    0.000
 RMSDP=2.20D-06 MaxDP=2.47D-05 DE=-8.98D-07 OVMax= 1.23D-05

 Initial convergence to 1.0D-05 achieved.  Increase integral accuracy.
 Cycle   6  Pass 1  IDiag  1:
 E= -100.426271931952     Delta-E=       -0.000001930563 Rises=F Damp=F
 DIIS: error= 1.69D-06 at cycle   1 NSaved=   1.
 NSaved= 1 IEnMin= 1 EnMin= -100.426271931952     IErMin= 1 ErrMin= 1.69D-06
 ErrMax= 1.69D-06 EMaxC= 1.00D-01 BMatC= 9.98D-11 BMatP= 9.98D-11
 IDIUse=1 WtCom= 1.00D+00 WtEn= 0.00D+00
 Coeff-Com:  0.100D+01
 Coeff:      0.100D+01
 Gap=     0.429 Goal=   None    Shift=    0.000
 RMSDP=2.20D-06 MaxDP=2.47D-05 DE=-1.93D-06 OVMax= 4.55D-06

 Cycle   7  Pass 1  IDiag  1:
 E= -100.426271932008     Delta-E=       -0.000000000056 Rises=F Damp=F
 DIIS: error= 1.56D-06 at cycle   2 NSaved=   2.
 NSaved= 2 IEnMin= 2 EnMin= -100.426271932008     IErMin= 2 ErrMin= 1.56D-06
 ErrMax= 1.56D-06 EMaxC= 1.00D-01 BMatC= 6.22D-11 BMatP= 9.98D-11
 IDIUse=1 WtCom= 1.00D+00 WtEn= 0.00D+00
 Coeff-Com:  0.431D+00 0.569D+00
 Coeff:      0.431D+00 0.569D+00
 Gap=     0.429 Goal=   None    Shift=    0.000
 RMSDP=2.96D-07 MaxDP=2.38D-06 DE=-5.58D-11 OVMax= 2.71D-06

 Cycle   8  Pass 1  IDiag  1:
 E= -100.426271932041     Delta-E=       -0.000000000033 Rises=F Damp=F
 DIIS: error= 4.41D-07 at cycle   3 NSaved=   3.
 NSaved= 3 IEnMin= 3 EnMin= -100.426271932041     IErMin= 3 ErrMin= 4.41D-07
 ErrMax= 4.41D-07 EMaxC= 1.00D-01 BMatC= 6.16D-12 BMatP= 6.22D-11
 IDIUse=1 WtCom= 1.00D+00 WtEn= 0.00D+00
 Coeff-Com: -0.211D-01 0.229D+00 0.792D+00
 Coeff:     -0.211D-01 0.229D+00 0.792D+00
 Gap=     0.429 Goal=   None    Shift=    0.000
 RMSDP=6.41D-08 MaxDP=5.19D-07 DE=-3.31D-11 OVMax= 5.39D-07

 Cycle   9  Pass 1  IDiag  1:
 E= -100.426271932044     Delta-E=       -0.000000000004 Rises=F Damp=F
 DIIS: error= 6.75D-09 at cycle   4 NSaved=   4.
 NSaved= 4 IEnMin= 4 EnMin= -100.426271932044     IErMin= 4 ErrMin= 6.75D-09
 ErrMax= 6.75D-09 EMaxC= 1.00D-01 BMatC= 9.93D-16 BMatP= 6.16D-12
 IDIUse=1 WtCom= 1.00D+00 WtEn= 0.00D+00
 Coeff-Com: -0.287D-04-0.797D-02-0.138D-01 0.102D+01
 Coeff:     -0.287D-04-0.797D-02-0.138D-01 0.102D+01
 Gap=     0.429 Goal=   None    Shift=    0.000
 RMSDP=1.28D-09 MaxDP=1.14D-08 DE=-3.55D-12 OVMax= 1.64D-08

 SCF Done:  E(RB3LYP) =  -100.426271932     A.U. after    9 cycles
             Convg  =    0.1285D-08             -V/T =  2.0065
 KE= 9.978125159318D+01 PE=-2.501095390462D+02 EE= 4.494097919045D+01
 Leave Link  502 at Wed Aug 21 02:34:37 2024, MaxMem=   13107200 cpu:       0.5
 (Enter /programs/64bit/g09/g09-gfortran/bin/l601.exe)
 Copying SCF densities to generalized density rwf, IOpCl= 0 IROHF=0.

 **********************************************************************

            Population analysis using the SCF density.

 **********************************************************************

 Orbital symmetries:
       Occupied  (SG) (SG) (SG) (PI) (PI)
       Virtual   (SG) (SG) (SG) (PI) (PI) (SG) (PI) (PI) (DLTA)
                 (DLTA) (SG) (PI) (PI) (SG) (SG)
 The electronic state is 1-SG.
 Alpha  occ. eigenvalues --  -24.66397  -1.15835  -0.51086  -0.37407  -0.37407
 Alpha virt. eigenvalues --    0.05463   0.74094   1.07985   1.17439   1.17439
 Alpha virt. eigenvalues --    1.42561   1.61658   1.61658   1.87281   1.87281
 Alpha virt. eigenvalues --    2.42334   2.67385   2.67385   3.59080   3.68997
     Molecular Orbital Coefficients:
                           1         2         3         4         5
                           O         O         O         O         O
     Eigenvalues --   -24.66397  -1.15835  -0.51086  -0.37407  -0.37407
   1 1   F  1S          0.99304  -0.22654  -0.07202   0.00000   0.00000
   2        2S          0.01966   0.50917   0.11134   0.00000   0.00000
   3        2PX         0.00000   0.00000   0.00000   0.00000   0.66321
   4        2PY         0.00000   0.00000   0.00000   0.66321   0.00000
   5        2PZ        -0.00081  -0.09070   0.55026   0.00000   0.00000
   6        3S          0.01485   0.46049   0.35819   0.00000   0.00000
   7        3PX         0.00000   0.00000   0.00000   0.00000   0.48110
   8        3PY         0.00000   0.00000   0.00000   0.48110   0.00000
   9        3PZ         0.00021  -0.02871   0.32403   0.00000   0.00000
  10        4XX        -0.00789   0.01021  -0.01561   0.00000   0.00000
  11        4YY        -0.00789   0.01021  -0.01561   0.00000   0.00000
  12        4ZZ        -0.00807   0.01785  -0.04445   0.00000   0.00000
  13        4XY         0.00000   0.00000   0.00000   0.00000   0.00000
  14        4XZ         0.00000   0.00000   0.00000   0.00000  -0.02245
  15        4YZ         0.00000   0.00000   0.00000  -0.02245   0.00000
  16 2   H  1S          0.00057   0.13614  -0.27616   0.00000   0.00000
  17        2S         -0.00089   0.02563  -0.17183   0.00000   0.00000
  18        3PX         0.00000   0.00000   0.00000   0.00000   0.02083
  19        3PY         0.00000   0.00000   0.00000   0.02083   0.00000
  20        3PZ        -0.00008   0.02774  -0.01876   0.00000   0.00000
                           6         7         8         9        10
                           V         V         V         V         V
     Eigenvalues --     0.05463   0.74094   1.07985   1.17439   1.17439
   1 1   F  1S          0.07680  -0.02188  -0.08302   0.00000   0.00000
   2        2S         -0.05288   0.03849  -1.65394   0.00000   0.00000
   3        2PX         0.00000   0.00000   0.00000  -0.93676   0.00000
   4        2PY         0.00000   0.00000   0.00000   0.00000  -0.93676
   5        2PZ         0.33414  -0.41789  -0.44618   0.00000   0.00000
   6        3S         -0.82063  -0.14967   3.27300   0.00000   0.00000
   7        3PX         0.00000   0.00000   0.00000   1.00888   0.00000
   8        3PY         0.00000   0.00000   0.00000   0.00000   1.00888
   9        3PZ         0.44214   0.17929   0.59702   0.00000   0.00000
  10        4XX         0.05965   0.06495  -0.76138   0.00000   0.00000
  11        4YY         0.05965   0.06495  -0.76138   0.00000   0.00000
  12        4ZZ         0.04338  -0.31752  -0.77052   0.00000   0.00000
  13        4XY         0.00000   0.00000   0.00000   0.00000   0.00000
  14        4XZ         0.00000   0.00000   0.00000  -0.06151   0.00000
  15        4YZ         0.00000   0.00000   0.00000   0.00000  -0.06151
  16 2   H  1S          0.18180  -0.98317   0.38752   0.00000   0.00000
  17        2S          1.25512   1.01879  -0.54399   0.00000   0.00000
  18        3PX         0.00000   0.00000   0.00000   0.08887   0.00000
  19        3PY         0.00000   0.00000   0.00000   0.00000   0.08887
  20        3PZ        -0.00815   0.23382   0.11365   0.00000   0.00000
                          11        12        13        14        15
                           V         V         V         V         V
     Eigenvalues --     1.42561   1.61658   1.61658   1.87281   1.87281
   1 1   F  1S         -0.08392   0.00000   0.00000   0.00000  -0.00000
   2        2S         -1.34292   0.00000   0.00000   0.00000   0.00000
   3        2PX         0.00000   0.00000  -0.11249   0.00000   0.00000
   4        2PY         0.00000  -0.11249   0.00000   0.00000   0.00000
   5        2PZ         0.63220   0.00000   0.00000   0.00000  -0.00000
   6        3S          3.03030   0.00000   0.00000   0.00000  -0.00000
   7        3PX         0.00000   0.00000   0.29133   0.00000   0.00000
   8        3PY         0.00000   0.29133   0.00000   0.00000   0.00000
   9        3PZ        -1.32453   0.00000   0.00000   0.00000   0.00000
  10        4XX        -0.41252   0.00000   0.00000   0.00000   0.86603
  11        4YY        -0.41252   0.00000   0.00000   0.00000  -0.86603
  12        4ZZ        -0.72883   0.00000   0.00000   0.00000   0.00000
  13        4XY         0.00000   0.00000   0.00000   1.00000   0.00000
  14        4XZ         0.00000   0.00000   0.70528   0.00000   0.00000
  15        4YZ         0.00000   0.70528   0.00000   0.00000   0.00000
  16 2   H  1S         -0.46076   0.00000   0.00000   0.00000  -0.00000
  17        2S         -0.81106   0.00000   0.00000   0.00000   0.00000
  18        3PX         0.00000   0.00000  -0.48464   0.00000   0.00000
  19        3PY         0.00000  -0.48464   0.00000   0.00000   0.00000
  20        3PZ        -0.16406   0.00000   0.00000   0.00000  -0.00000
                          16        17        18        19        20
                           V         V         V         V         V
     Eigenvalues --     2.42334   2.67385   2.67385   3.59080   3.68997
   1 1   F  1S         -0.01834   0.00000   0.00000  -0.34768  -0.44374
   2        2S         -0.47120   0.00000   0.00000  -0.88409  -0.64639
   3        2PX         0.00000   0.00000   0.07147   0.00000   0.00000
   4        2PY         0.00000   0.07147   0.00000   0.00000   0.00000
   5        2PZ         0.40632   0.00000   0.00000  -0.20373   0.30305
   6        3S          0.76719   0.00000   0.00000   4.56841   3.87505
   7        3PX         0.00000   0.00000  -0.34719   0.00000   0.00000
   8        3PY         0.00000  -0.34719   0.00000   0.00000   0.00000
   9        3PZ        -0.52653   0.00000   0.00000  -1.37340   0.54647
  10        4XX        -0.55838   0.00000   0.00000  -1.71006  -1.52367
  11        4YY        -0.55838   0.00000   0.00000  -1.71006  -1.52367
  12        4ZZ         0.58960   0.00000   0.00000   0.01640  -2.58275
  13        4XY         0.00000   0.00000   0.00000   0.00000   0.00000
  14        4XZ         0.00000   0.00000   0.83947   0.00000   0.00000
  15        4YZ         0.00000   0.83947   0.00000   0.00000   0.00000
  16 2   H  1S         -0.73368   0.00000   0.00000  -1.51487   1.09828
  17        2S          0.18611   0.00000   0.00000  -0.74296  -0.23030
  18        3PX         0.00000   0.00000   1.03446   0.00000   0.00000
  19        3PY         0.00000   1.03446   0.00000   0.00000   0.00000
  20        3PZ         0.55757   0.00000   0.00000  -1.28265   0.91155
     Density Matrix:
                           1         2         3         4         5
   1 1   F  1S          2.08527
   2        2S         -0.20768   0.54407
   3        2PX         0.00000   0.00000   0.87969
   4        2PY         0.00000   0.00000   0.00000   0.87969
   5        2PZ        -0.03976   0.03014   0.00000   0.00000   0.62202
   6        3S         -0.23074   0.54928   0.00000   0.00000   0.31064
   7        3PX         0.00000   0.00000   0.63813   0.00000   0.00000
   8        3PY         0.00000   0.00000   0.00000   0.63813   0.00000
   9        3PZ        -0.03324   0.04293   0.00000   0.00000   0.36181
  10        4XX        -0.01805   0.00661   0.00000   0.00000  -0.01902
  11        4YY        -0.01805   0.00661   0.00000   0.00000  -0.01902
  12        4ZZ        -0.01770   0.00796   0.00000   0.00000  -0.05214
  13        4XY         0.00000   0.00000   0.00000   0.00000   0.00000
  14        4XZ         0.00000   0.00000  -0.02977   0.00000   0.00000
  15        4YZ         0.00000   0.00000   0.00000  -0.02977   0.00000
  16 2   H  1S         -0.02077   0.07716   0.00000   0.00000  -0.32861
  17        2S          0.01137  -0.01219   0.00000   0.00000  -0.19375
  18        3PX         0.00000   0.00000   0.02763   0.00000   0.00000
  19        3PY         0.00000   0.00000   0.00000   0.02763   0.00000
  20        3PZ        -0.01002   0.02406   0.00000   0.00000  -0.02567
                           6         7         8         9        10
   6        3S          0.68115
   7        3PX         0.00000   0.46291
   8        3PY         0.00000   0.00000   0.46291
   9        3PZ         0.20569   0.00000   0.00000   0.21164
  10        4XX        -0.00201   0.00000   0.00000  -0.01071   0.00082
  11        4YY        -0.00201   0.00000   0.00000  -0.01071   0.00082
  12        4ZZ        -0.01565   0.00000   0.00000  -0.02983   0.00188
  13        4XY         0.00000   0.00000   0.00000   0.00000   0.00000
  14        4XZ         0.00000  -0.02160   0.00000   0.00000   0.00000
  15        4YZ         0.00000   0.00000  -0.02160   0.00000   0.00000
  16 2   H  1S         -0.07244   0.00000   0.00000  -0.18678   0.01140
  17        2S         -0.09952   0.00000   0.00000  -0.11283   0.00590
  18        3PX         0.00000   0.02004   0.00000   0.00000   0.00000
  19        3PY         0.00000   0.00000   0.02004   0.00000   0.00000
  20        3PZ         0.01210   0.00000   0.00000  -0.01375   0.00115
                          11        12        13        14        15
  11        4YY         0.00082
  12        4ZZ         0.00188   0.00472
  13        4XY         0.00000   0.00000   0.00000
  14        4XZ         0.00000   0.00000   0.00000   0.00101
  15        4YZ         0.00000   0.00000   0.00000   0.00000   0.00101
  16 2   H  1S          0.01140   0.02940   0.00000   0.00000   0.00000
  17        2S          0.00590   0.01620   0.00000   0.00000   0.00000
  18        3PX         0.00000   0.00000   0.00000  -0.00094   0.00000
  19        3PY         0.00000   0.00000   0.00000   0.00000  -0.00094
  20        3PZ         0.00115   0.00266   0.00000   0.00000   0.00000
                          16        17        18        19        20
  16 2   H  1S          0.18959
  17        2S          0.10188   0.06037
  18        3PX         0.00000   0.00000   0.00087
  19        3PY         0.00000   0.00000   0.00000   0.00087
  20        3PZ         0.01791   0.00787   0.00000   0.00000   0.00224
    Full Mulliken population analysis:
                           1         2         3         4         5
   1 1   F  1S          2.08527
   2        2S         -0.05074   0.54407
   3        2PX         0.00000   0.00000   0.87969
   4        2PY         0.00000   0.00000   0.00000   0.87969
   5        2PZ         0.00000   0.00000   0.00000   0.00000   0.62202
   6        3S         -0.03960   0.41938   0.00000   0.00000   0.00000
   7        3PX         0.00000   0.00000   0.31876   0.00000   0.00000
   8        3PY         0.00000   0.00000   0.00000   0.31876   0.00000
   9        3PZ         0.00000   0.00000   0.00000   0.00000   0.18073
  10        4XX        -0.00042   0.00296   0.00000   0.00000   0.00000
  11        4YY        -0.00042   0.00296   0.00000   0.00000   0.00000
  12        4ZZ        -0.00041   0.00356   0.00000   0.00000   0.00000
  13        4XY         0.00000   0.00000   0.00000   0.00000   0.00000
  14        4XZ         0.00000   0.00000   0.00000   0.00000   0.00000
  15        4YZ         0.00000   0.00000   0.00000   0.00000   0.00000
  16 2   H  1S         -0.00059   0.01539   0.00000   0.00000   0.07165
  17        2S          0.00065  -0.00389   0.00000   0.00000   0.02137
  18        3PX         0.00000   0.00000   0.00297   0.00000   0.00000
  19        3PY         0.00000   0.00000   0.00000   0.00297   0.00000
  20        3PZ        -0.00047   0.00722   0.00000   0.00000   0.00872
                           6         7         8         9        10
   6        3S          0.68115
   7        3PX         0.00000   0.46291
   8        3PY         0.00000   0.00000   0.46291
   9        3PZ         0.00000   0.00000   0.00000   0.21164
  10        4XX        -0.00143   0.00000   0.00000   0.00000   0.00082
  11        4YY        -0.00143   0.00000   0.00000   0.00000   0.00027
  12        4ZZ        -0.01109   0.00000   0.00000   0.00000   0.00063
  13        4XY         0.00000   0.00000   0.00000   0.00000   0.00000
  14        4XZ         0.00000   0.00000   0.00000   0.00000   0.00000
  15        4YZ         0.00000   0.00000   0.00000   0.00000   0.00000
  16 2   H  1S         -0.02912   0.00000   0.00000   0.10888   0.00190
  17        2S         -0.06144   0.00000   0.00000   0.04696   0.00236
  18        3PX         0.00000   0.00567   0.00000   0.00000   0.00000
  19        3PY         0.00000   0.00000   0.00567   0.00000   0.00000
  20        3PZ         0.00371   0.00000   0.00000   0.00302   0.00019
                          11        12        13        14        15
  11        4YY         0.00082
  12        4ZZ         0.00063   0.00472
  13        4XY         0.00000   0.00000   0.00000
  14        4XZ         0.00000   0.00000   0.00000   0.00101
  15        4YZ         0.00000   0.00000   0.00000   0.00000   0.00101
  16 2   H  1S          0.00190   0.01631   0.00000   0.00000   0.00000
  17        2S          0.00236   0.00762   0.00000   0.00000   0.00000
  18        3PX         0.00000   0.00000   0.00000   0.00037   0.00000
  19        3PY         0.00000   0.00000   0.00000   0.00000   0.00037
  20        3PZ         0.00019   0.00108   0.00000   0.00000   0.00000
                          16        17        18        19        20
  16 2   H  1S          0.18959
  17        2S          0.06707   0.06037
  18        3PX         0.00000   0.00000   0.00087
  19        3PY         0.00000   0.00000   0.00000   0.00087
  20        3PZ         0.00000   0.00000   0.00000   0.00000   0.00224
     Gross orbital populations:
                           1
   1 1   F  1S          1.99328
   2        2S          0.94093
   3        2PX         1.20142
   4        2PY         1.20142
   5        2PZ         0.90449
   6        3S          0.96014
   7        3PX         0.78733
   8        3PY         0.78733
   9        3PZ         0.55124
  10        4XX         0.00728
  11        4YY         0.00728
  12        4ZZ         0.02304
  13        4XY         0.00000
  14        4XZ         0.00138
  15        4YZ         0.00138
  16 2   H  1S          0.44297
  17        2S          0.14343
  18        3PX         0.00987
  19        3PY         0.00987
  20        3PZ         0.02593
          Condensed to atoms (all electrons):
              1          2
     1  F    9.123936   0.243995
     2  H    0.243995   0.388074
 Mulliken atomic charges:
              1
     1  F   -0.367931
     2  H    0.367931
 Sum of Mulliken atomic charges =  -0.00000
 Mulliken charges with hydrogens summed into heavy atoms:
              1
     1  F   -0.000000
 Sum of Mulliken charges with hydrogens summed into heavy atoms =  -0.00000
 Electronic spatial extent (au):  <R**2>=             13.4994
 Charge=             -0.0000 electrons
 Dipole moment (field-independent basis, Debye):
    X=              0.0000    Y=              0.0000    Z=             -1.8676  Tot=              1.8676
 Quadrupole moment (field-independent basis, Debye-Ang):
   XX=             -5.4013   YY=             -5.4013   ZZ=             -3.3705
   XY=              0.0000   XZ=              0.0000   YZ=              0.0000
 Traceless Quadrupole moment (field-independent basis, Debye-Ang):
   XX=             -0.6769   YY=             -0.6769   ZZ=              1.3539
   XY=              0.0000   XZ=              0.0000   YZ=              0.0000
 Octapole moment (field-independent basis, Debye-Ang**2):
  XXX=              0.0000  YYY=              0.0000  ZZZ=             -1.7404  XYY=              0.0000
  XXY=              0.0000  XXZ=             -0.0942  XZZ=              0.0000  YZZ=              0.0000
  YYZ=             -0.0942  XYZ=              0.0000
 Hexadecapole moment (field-independent basis, Debye-Ang**3):
 XXXX=             -2.9270 YYYY=             -2.9270 ZZZZ=             -3.1117 XXXY=              0.0000
 XXXZ=              0.0000 YYYX=              0.0000 YYYZ=              0.0000 ZZZX=              0.0000
 ZZZY=              0.0000 XXYY=             -0.9757 XXZZ=             -1.2761 YYZZ=             -1.2761
 XXYZ=              0.0000 YYXZ=              0.0000 ZZXY=              0.0000
 N-N= 4.961036330531D+00 E-N=-2.501095388414D+02  KE= 9.978125159318D+01
 Symmetry A1   KE= 8.701603210303D+01
 Symmetry A2   KE= 2.751681265405D-51
 Symmetry B1   KE= 6.382609745077D+00
 Symmetry B2   KE= 6.382609745077D+00
 Orbital energies and kinetic energies (alpha):
                                 1                 2
   1         O               -24.663970         37.085451
   2         O                -1.158347          3.695785
   3         O                -0.510855          2.726780
   4         O                -0.374073          3.191305
   5         O                -0.374073          3.191305
   6         V                 0.054628          1.442895
   7         V                 0.740941          2.661769
   8         V                 1.079854          2.833559
   9         V                 1.174393          4.633533
  10         V                 1.174393          4.633533
  11         V                 1.425606          3.454078
  12         V                 1.616580          2.571715
  13         V                 1.616580          2.571715
  14         V                 1.872811          2.800000
  15         V                 1.872811          2.800000
  16         V                 2.423338          4.023537
  17         V                 2.673850          3.588007
  18         V                 2.673850          3.588007
  19         V                 3.590801          6.955808
  20         V                 3.689966          9.212182
 Total kinetic energy from orbitals= 9.978125159318D+01
 No NMR shielding tensors so no spin-rotation constants.
 Leave Link  601 at Wed Aug 21 02:34:37 2024, MaxMem=   13107200 cpu:       0.1
 (Enter /programs/64bit/g09/g09-gfortran/bin/l701.exe)
 Compute integral first derivatives.
 ... and contract with generalized density number  0.
 Leave Link  701 at Wed Aug 21 02:34:38 2024, MaxMem=   13107200 cpu:       0.2
 (Enter /programs/64bit/g09/g09-gfortran/bin/l702.exe)
 L702 exits ... SP integral derivatives will be done elsewhere.
 Leave Link  702 at Wed Aug 21 02:34:38 2024, MaxMem=   13107200 cpu:       0.0
 (Enter /programs/64bit/g09/g09-gfortran/bin/l703.exe)
 Compute integral first derivatives, UseDBF=F ICtDFT=           0.
 Integral derivatives from FoFDir, PRISM(SPDF).
 Calling FoFJK, ICntrl=      2127 FMM=F ISym2X=1 I1Cent= 0 IOpClX= 0 NMat=1 NMatS=1 NMatT=0.
 FoFCou: FMM=F IPFlag=           0 FMFlag=      100000 FMFlg1=         800
         NFxFlg=           0 DoJE=F BraDBF=F KetDBF=F FulRan=T
         Omega=  0.000000  0.000000  1.000000  0.000000  0.000000 ICntrl=    2127 IOpCl=  0
         NMat0=    1 NMatS0=    1 NMatT0=    0 NMatD0=    1 NMtDS0=    0 NMtDT0=    0
         I1Cent=           0 NGrid=           0.
 Petite list used in FoFCou.
 Leave Link  703 at Wed Aug 21 02:34:38 2024, MaxMem=   13107200 cpu:       0.4
 (Enter /programs/64bit/g09/g09-gfortran/bin/l716.exe)
 Dipole        = 0.00000000D+00 0.00000000D+00-7.34781839D-01
 ***** Axes restored to original set *****
 -------------------------------------------------------------------
 Center     Atomic                   Forces (Hartrees/Bohr)
 Number     Number              X              Y              Z
 -------------------------------------------------------------------
      1        9          -0.000000000   -0.000000000    0.034878961
      2        1          -0.000000000   -0.000000000   -0.034878961
 -------------------------------------------------------------------
 Cartesian Forces:  Max     0.034878961 RMS     0.020137378
 Leave Link  716 at Wed Aug 21 02:34:38 2024, MaxMem=   13107200 cpu:       0.1
 (Enter /programs/64bit/g09/g09-gfortran/bin/l103.exe)

 GradGradGradGradGradGradGradGradGradGradGradGradGradGradGradGradGradGrad
 Berny optimization.
 Internal  Forces:  Max     0.034878961 RMS     0.034878961
 Search for a local minimum.
 Step number   1 out of a maximum of   20
 All quantities printed in internal units (Hartrees-Bohrs-Radians)
 RMS Force = .34879D-01 SwitMx=.10000D-02 MixMth= 1
 Mixed Optimization -- RFO/linear search
 Second derivative matrix not updated -- first step.
 The second derivative matrix:
                          R1
           R1           0.55473
     Eigenvalues ---    0.55473
 RFO step:  Lambda=-2.18441666D-03 EMin= 5.54734036D-01
 Linear search not attempted -- first point.
 Iteration  1 RMS(Cart)=  0.04428503 RMS(Int)=  0.00000000
 Iteration  2 RMS(Cart)=  0.00000000 RMS(Int)=  0.00000000
 ClnCor:  largest displacement from symmetrization is 6.94D-18 for atom     1.
 Variable       Old X    -DE/DX   Delta X   Delta X   Delta X     New X
                                 (Linear)    (Quad)   (Total)
    R1        1.81414  -0.03488   0.00000  -0.06263  -0.06263   1.75151
         Item               Value     Threshold  Converged?
 Maximum Force            0.034879     0.000450     NO 
 RMS     Force            0.034879     0.000300     NO 
 Maximum Displacement     0.031314     0.001800     NO 
 RMS     Displacement     0.044285     0.001200     NO 
 Predicted change in Energy=-1.096492D-03
 GradGradGradGradGradGradGradGradGradGradGradGradGradGradGradGradGradGrad

 Leave Link  103 at Wed Aug 21 02:34:38 2024, MaxMem=   13107200 cpu:       0.0
 (Enter /programs/64bit/g09/g09-gfortran/bin/l202.exe)
                          Input orientation:                          
 ---------------------------------------------------------------------
 Center     Atomic      Atomic             Coordinates (Angstroms)
 Number     Number       Type             X           Y           Z
 ---------------------------------------------------------------------
      1          9           0        0.000000    0.000000    0.016571
      2          1           0        0.000000    0.000000    0.943429
 ---------------------------------------------------------------------
 Stoichiometry    FH
 Framework group  C*V[C*(HF)]
 Deg. of freedom     1
 Full point group                 C*V     NOp   4
 Largest Abelian subgroup         C2V     NOp   4
 Largest concise Abelian subgroup C1      NOp   1
                         Standard orientation:                         
 ---------------------------------------------------------------------
 Center     Atomic      Atomic             Coordinates (Angstroms)
 Number     Number       Type             X           Y           Z
 ---------------------------------------------------------------------
      1          9           0        0.000000    0.000000    0.092686
      2          1           0        0.000000    0.000000   -0.834173
 ---------------------------------------------------------------------
 Rotational constants (GHZ):      0.0000000    614.6860570    614.6860570
 Leave Link  202 at Wed Aug 21 02:34:38 2024, MaxMem=   13107200 cpu:       0.0
 (Enter /programs/64bit/g09/g09-gfortran/bin/l301.exe)
 Standard basis: 6-31G(d,p) (6D, 7F)
 Ernie: Thresh=  0.10000D-02 Tol=  0.10000D-05 Strict=F.
 There are    11 symmetry adapted basis functions of A1  symmetry.
 There are     1 symmetry adapted basis functions of A2  symmetry.
 There are     4 symmetry adapted basis functions of B1  symmetry.
 There are     4 symmetry adapted basis functions of B2  symmetry.
 Integral buffers will be    131072 words long.
 Raffenetti 2 integral format.
 Two-electron integral symmetry is turned on.
    20 basis functions,    35 primitive gaussians,    20 cartesian basis functions
     5 alpha electrons        5 beta electrons
       nuclear repulsion energy         5.1384275298 Hartrees.
 IExCor=  402 DFT=T Ex+Corr=B3LYP ExCW=0 ScaHFX=  0.200000
 ScaDFX=  0.800000  0.720000  1.000000  0.810000 ScalE2=  1.000000  1.000000
 IRadAn=      0 IRanWt=     -1 IRanGd=            0 ICorTp=0
 NAtoms=    2 NActive=    2 NUniq=    2 SFac= 7.50D-01 NAtFMM=   80 NAOKFM=F Big=F
 Leave Link  301 at Wed Aug 21 02:34:38 2024, MaxMem=   13107200 cpu:       0.1
 (Enter /programs/64bit/g09/g09-gfortran/bin/l302.exe)
 NPDir=0 NMtPBC=     1 NCelOv=     1 NCel=       1 NClECP=     1 NCelD=      1
         NCelK=      1 NCelE2=     1 NClLst=     1 CellRange=     0.0.
 One-electron integrals computed using PRISM.
 NBasis=    20 RedAO= T  NBF=    11     1     4     4
 NBsUse=    20 1.00D-06 NBFU=    11     1     4     4
 Precomputing XC quadrature grid using
 IXCGrd= 2 IRadAn=           0 IRanWt=          -1 IRanGd=           0 AccXCQ= 1.00D-10.
 NRdTot=     122 NPtTot=       15338 NUsed=       16231 NTot=       16263
 NSgBfM=    20    20    20    20    20 NAtAll=     2     2.
 Leave Link  302 at Wed Aug 21 02:34:39 2024, MaxMem=   13107200 cpu:       0.2
 (Enter /programs/64bit/g09/g09-gfortran/bin/l303.exe)
 DipDrv:  MaxL=1.
 Leave Link  303 at Wed Aug 21 02:34:39 2024, MaxMem=   13107200 cpu:       0.0
 (Enter /programs/64bit/g09/g09-gfortran/bin/l401.exe)
 Initial guess read from the read-write file.
 B after Tr=     0.000000    0.000000    0.000000
         Rot=    1.000000    0.000000    0.000000    0.000000 Ang=   0.00 deg.
 Guess basis will be translated and rotated to current coordinates.
 Initial guess orbital symmetries:
       Occupied  (SG) (SG) (SG) (PI) (PI)
       Virtual   (SG) (SG) (SG) (PI) (PI) (SG) (PI) (PI) (DLTA)
                 (DLTA) (SG) (PI) (PI) (SG) (SG)
 The electronic state of the initial guess is 1-SG.
 Generating alternative initial guess.
 Harris functional with IExCor=  402 diagonalized for initial guess.
 ExpMin= 1.61D-01 ExpMax= 7.00D+03 ExpMxC= 1.05D+03 IAcc=1 IRadAn=         1 AccDes= 0.00D+00
 HarFok:  IExCor=  402 AccDes= 0.00D+00 IRadAn=         1 IDoV= 1
 ScaDFX=  1.000000  1.000000  1.000000  1.000000
 FoFCou: FMM=F IPFlag=           0 FMFlag=      100000 FMFlg1=           0
         NFxFlg=           0 DoJE=T BraDBF=F KetDBF=T FulRan=T
         Omega=  0.000000  0.000000  1.000000  0.000000  0.000000 ICntrl=     500 IOpCl=  0
         NMat0=    1 NMatS0=    1 NMatT0=    0 NMatD0=    1 NMtDS0=    0 NMtDT0=    0
         I1Cent=           4 NGrid=           0.
 Petite list used in FoFCou.
 Harris En= -100.448260576459    
 Leave Link  401 at Wed Aug 21 02:34:39 2024, MaxMem=   13107200 cpu:       0.3
 (Enter /programs/64bit/g09/g09-gfortran/bin/l502.exe)
 Closed shell SCF:
 Requested convergence on RMS density matrix=1.00D-08 within 128 cycles.
 Requested convergence on MAX density matrix=1.00D-06.
 Requested convergence on             energy=1.00D-06.
 No special actions if energy rises.
 Using DIIS extrapolation, IDIIS=  1040.
 Integral symmetry usage will be decided dynamically.
        16200 words used for storage of precomputed grid.
 Keep R1 ints in memory in canonical form, NReq=916086.
 IEnd=       35973 IEndB=       35973 NGot=    13107200 MDV=    13066147
 LenX=    13066147 LenY=    13065265
 Symmetry not used in FoFDir.
 MinBra= 0 MaxBra= 2 Meth= 1.
 IRaf=       0 NMat=   1 IRICut=       1 DoRegI=T DoRafI=F ISym2E= 0 JSym2E=0.
 Integral accuracy reduced to 1.0D-05 until final iterations.

 Cycle   1  Pass 0  IDiag  1:
 E= -100.427098216613    
 DIIS: error= 5.36D-03 at cycle   1 NSaved=   1.
 NSaved= 1 IEnMin= 1 EnMin= -100.427098216613     IErMin= 1 ErrMin= 5.36D-03
 ErrMax= 5.36D-03 EMaxC= 1.00D-01 BMatC= 3.92D-04 BMatP= 3.92D-04
 IDIUse=3 WtCom= 9.46D-01 WtEn= 5.36D-02
 Coeff-Com:  0.100D+01
 Coeff-En:   0.100D+01
 Coeff:      0.100D+01
 Gap=     0.455 Goal=   None    Shift=    0.000
 GapD=    0.455 DampG=2.000 DampE=1.000 DampFc=2.0000 IDamp=-1.
 RMSDP=1.07D-03 MaxDP=6.10D-03              OVMax= 1.05D-02

 Cycle   2  Pass 0  IDiag  1:
 E= -100.427414710919     Delta-E=       -0.000316494305 Rises=F Damp=F
 DIIS: error= 1.48D-03 at cycle   2 NSaved=   2.
 NSaved= 2 IEnMin= 2 EnMin= -100.427414710919     IErMin= 2 ErrMin= 1.48D-03
 ErrMax= 1.48D-03 EMaxC= 1.00D-01 BMatC= 6.89D-05 BMatP= 3.92D-04
 IDIUse=3 WtCom= 9.85D-01 WtEn= 1.48D-02
 Coeff-Com:  0.201D+00 0.799D+00
 Coeff-En:   0.000D+00 0.100D+01
 Coeff:      0.198D+00 0.802D+00
 Gap=     0.441 Goal=   None    Shift=    0.000
 RMSDP=3.85D-04 MaxDP=2.90D-03 DE=-3.16D-04 OVMax= 2.61D-03

 Cycle   3  Pass 0  IDiag  1:
 E= -100.427430585014     Delta-E=       -0.000015874096 Rises=F Damp=F
 DIIS: error= 1.17D-03 at cycle   3 NSaved=   3.
 NSaved= 3 IEnMin= 3 EnMin= -100.427430585014     IErMin= 3 ErrMin= 1.17D-03
 ErrMax= 1.17D-03 EMaxC= 1.00D-01 BMatC= 4.04D-05 BMatP= 6.89D-05
 IDIUse=3 WtCom= 9.88D-01 WtEn= 1.17D-02
 Coeff-Com:  0.138D-03 0.432D+00 0.567D+00
 Coeff-En:   0.000D+00 0.379D+00 0.621D+00
 Coeff:      0.136D-03 0.432D+00 0.568D+00
 Gap=     0.443 Goal=   None    Shift=    0.000
 RMSDP=1.83D-04 MaxDP=1.44D-03 DE=-1.59D-05 OVMax= 1.71D-03

 Cycle   4  Pass 0  IDiag  1:
 E= -100.427453932125     Delta-E=       -0.000023347111 Rises=F Damp=F
 DIIS: error= 1.11D-04 at cycle   4 NSaved=   4.
 NSaved= 4 IEnMin= 4 EnMin= -100.427453932125     IErMin= 4 ErrMin= 1.11D-04
 ErrMax= 1.11D-04 EMaxC= 1.00D-01 BMatC= 2.01D-07 BMatP= 4.04D-05
 IDIUse=3 WtCom= 9.99D-01 WtEn= 1.11D-03
 Coeff-Com: -0.557D-02 0.874D-01 0.152D+00 0.766D+00
 Coeff-En:   0.000D+00 0.000D+00 0.000D+00 0.100D+01
 Coeff:     -0.556D-02 0.873D-01 0.152D+00 0.766D+00
 Gap=     0.443 Goal=   None    Shift=    0.000
 RMSDP=1.55D-05 MaxDP=1.62D-04 DE=-2.33D-05 OVMax= 1.37D-04

 Cycle   5  Pass 0  IDiag  1:
 E= -100.427454070513     Delta-E=       -0.000000138388 Rises=F Damp=F
 DIIS: error= 4.68D-06 at cycle   5 NSaved=   5.
 NSaved= 5 IEnMin= 5 EnMin= -100.427454070513     IErMin= 5 ErrMin= 4.68D-06
 ErrMax= 4.68D-06 EMaxC= 1.00D-01 BMatC= 3.45D-10 BMatP= 2.01D-07
 IDIUse=1 WtCom= 1.00D+00 WtEn= 0.00D+00
 Coeff-Com: -0.874D-04-0.468D-02-0.519D-02 0.244D-01 0.986D+00
 Coeff:     -0.874D-04-0.468D-02-0.519D-02 0.244D-01 0.986D+00
 Gap=     0.443 Goal=   None    Shift=    0.000
 RMSDP=8.46D-07 MaxDP=6.26D-06 DE=-1.38D-07 OVMax= 9.09D-06

 Initial convergence to 1.0D-05 achieved.  Increase integral accuracy.
 Cycle   6  Pass 1  IDiag  1:
 E= -100.427459253852     Delta-E=       -0.000005183339 Rises=F Damp=F
 DIIS: error= 1.80D-06 at cycle   1 NSaved=   1.
 NSaved= 1 IEnMin= 1 EnMin= -100.427459253852     IErMin= 1 ErrMin= 1.80D-06
 ErrMax= 1.80D-06 EMaxC= 1.00D-01 BMatC= 7.56D-11 BMatP= 7.56D-11
 IDIUse=1 WtCom= 1.00D+00 WtEn= 0.00D+00
 Coeff-Com:  0.100D+01
 Coeff:      0.100D+01
 Gap=     0.443 Goal=   None    Shift=    0.000
 RMSDP=8.46D-07 MaxDP=6.26D-06 DE=-5.18D-06 OVMax= 4.84D-06

 Cycle   7  Pass 1  IDiag  1:
 E= -100.427459253929     Delta-E=       -0.000000000076 Rises=F Damp=F
 DIIS: error= 7.29D-07 at cycle   2 NSaved=   2.
 NSaved= 2 IEnMin= 2 EnMin= -100.427459253929     IErMin= 2 ErrMin= 7.29D-07
 ErrMax= 7.29D-07 EMaxC= 1.00D-01 BMatC= 1.20D-11 BMatP= 7.56D-11
 IDIUse=1 WtCom= 1.00D+00 WtEn= 0.00D+00
 Coeff-Com:  0.210D+00 0.790D+00
 Coeff:      0.210D+00 0.790D+00
 Gap=     0.443 Goal=   None    Shift=    0.000
 RMSDP=1.71D-07 MaxDP=1.31D-06 DE=-7.61D-11 OVMax= 1.40D-06

 Cycle   8  Pass 1  IDiag  1:
 E= -100.427459253931     Delta-E=       -0.000000000003 Rises=F Damp=F
 DIIS: error= 4.47D-07 at cycle   3 NSaved=   3.
 NSaved= 3 IEnMin= 3 EnMin= -100.427459253931     IErMin= 3 ErrMin= 4.47D-07
 ErrMax= 4.47D-07 EMaxC= 1.00D-01 BMatC= 6.69D-12 BMatP= 1.20D-11
 IDIUse=1 WtCom= 1.00D+00 WtEn= 0.00D+00
 Coeff-Com: -0.124D-01 0.424D+00 0.588D+00
 Coeff:     -0.124D-01 0.424D+00 0.588D+00
 Gap=     0.443 Goal=   None    Shift=    0.000
 RMSDP=7.13D-08 MaxDP=5.67D-07 DE=-2.90D-12 OVMax= 6.12D-07

 Cycle   9  Pass 1  IDiag  1:
 E= -100.427459253935     Delta-E=       -0.000000000004 Rises=F Damp=F
 DIIS: error= 3.79D-08 at cycle   4 NSaved=   4.
 NSaved= 4 IEnMin= 4 EnMin= -100.427459253935     IErMin= 4 ErrMin= 3.79D-08
 ErrMax= 3.79D-08 EMaxC= 1.00D-01 BMatC= 2.67D-14 BMatP= 6.69D-12
 IDIUse=1 WtCom= 1.00D+00 WtEn= 0.00D+00
 Coeff-Com: -0.382D-02 0.760D-01 0.142D+00 0.786D+00
 Coeff:     -0.382D-02 0.760D-01 0.142D+00 0.786D+00
 Gap=     0.443 Goal=   None    Shift=    0.000
 RMSDP=6.21D-09 MaxDP=5.96D-08 DE=-3.94D-12 OVMax= 6.36D-08

 SCF Done:  E(RB3LYP) =  -100.427459254     A.U. after    9 cycles
             Convg  =    0.6207D-08             -V/T =  2.0059
 KE= 9.983979189265D+01 PE=-2.504736298029D+02 EE= 4.506795112651D+01
 Leave Link  502 at Wed Aug 21 02:34:39 2024, MaxMem=   13107200 cpu:       0.5
 (Enter /programs/64bit/g09/g09-gfortran/bin/l701.exe)
 Compute integral first derivatives.
 ... and contract with generalized density number  0.
 Leave Link  701 at Wed Aug 21 02:34:40 2024, MaxMem=   13107200 cpu:       0.2
 (Enter /programs/64bit/g09/g09-gfortran/bin/l702.exe)
 L702 exits ... SP integral derivatives will be done elsewhere.
 Leave Link  702 at Wed Aug 21 02:34:40 2024, MaxMem=   13107200 cpu:       0.0
 (Enter /programs/64bit/g09/g09-gfortran/bin/l703.exe)
 Compute integral first derivatives, UseDBF=F ICtDFT=           0.
 Integral derivatives from FoFDir, PRISM(SPDF).
 Calling FoFJK, ICntrl=      2127 FMM=F ISym2X=1 I1Cent= 0 IOpClX= 0 NMat=1 NMatS=1 NMatT=0.
 FoFCou: FMM=F IPFlag=           0 FMFlag=      100000 FMFlg1=         800
         NFxFlg=           0 DoJE=F BraDBF=F KetDBF=F FulRan=T
         Omega=  0.000000  0.000000  1.000000  0.000000  0.000000 ICntrl=    2127 IOpCl=  0
         NMat0=    1 NMatS0=    1 NMatT0=    0 NMatD0=    1 NMtDS0=    0 NMtDT0=    0
         I1Cent=           0 NGrid=           0.
 Petite list used in FoFCou.
 Leave Link  703 at Wed Aug 21 02:34:40 2024, MaxMem=   13107200 cpu:       0.4
 (Enter /programs/64bit/g09/g09-gfortran/bin/l716.exe)
 Dipole        = 0.00000000D+00 0.00000000D+00-7.19744838D-01
 ***** Axes restored to original set *****
 -------------------------------------------------------------------
 Center     Atomic                   Forces (Hartrees/Bohr)
 Number     Number              X              Y              Z
 -------------------------------------------------------------------
      1        9          -0.000000000   -0.000000000    0.001677957
      2        1          -0.000000000   -0.000000000   -0.001677957
 -------------------------------------------------------------------
 Cartesian Forces:  Max     0.001677957 RMS     0.000968769
 Leave Link  716 at Wed Aug 21 02:34:40 2024, MaxMem=   13107200 cpu:       0.0
 (Enter /programs/64bit/g09/g09-gfortran/bin/l103.exe)

 GradGradGradGradGradGradGradGradGradGradGradGradGradGradGradGradGradGrad
 Berny optimization.
 Using GEDIIS/GDIIS optimizer.
 Internal  Forces:  Max     0.001677957 RMS     0.001677957
 Search for a local minimum.
 Step number   2 out of a maximum of   20
 All quantities printed in internal units (Hartrees-Bohrs-Radians)
 RMS Force = .16780D-02 SwitMx=.10000D-02 MixMth= 1
 Mixed Optimization -- RFO/linear search
 Update second derivatives using D2CorX and points    1    2
 DE= -1.19D-03 DEPred=-1.10D-03 R= 1.08D+00
 SS=  1.41D+00  RLast= 6.26D-02 DXNew= 5.0454D-01 1.8789D-01
 Trust test= 1.08D+00 RLast= 6.26D-02 DXMaxT set to 3.00D-01
 The second derivative matrix:
                          R1
           R1           0.53013
 Use linear search instead of GDIIS.
     Eigenvalues ---    0.53013
 RFO step:  Lambda= 0.00000000D+00 EMin= 5.30126227D-01
 Quartic linear search produced a step of  0.04468.
 Iteration  1 RMS(Cart)=  0.00197857 RMS(Int)=  0.00000000
 Iteration  2 RMS(Cart)=  0.00000000 RMS(Int)=  0.00000000
 ClnCor:  largest displacement from symmetrization is 0.00D+00 for atom     0.
 Variable       Old X    -DE/DX   Delta X   Delta X   Delta X     New X
                                 (Linear)    (Quad)   (Total)
    R1        1.75151  -0.00168  -0.00280   0.00000  -0.00280   1.74871
         Item               Value     Threshold  Converged?
 Maximum Force            0.001678     0.000450     NO 
 RMS     Force            0.001678     0.000300     NO 
 Maximum Displacement     0.001399     0.001800     YES
 RMS     Displacement     0.001979     0.001200     NO 
 Predicted change in Energy=-2.619818D-06
 GradGradGradGradGradGradGradGradGradGradGradGradGradGradGradGradGradGrad

 Leave Link  103 at Wed Aug 21 02:34:40 2024, MaxMem=   13107200 cpu:       0.0
 (Enter /programs/64bit/g09/g09-gfortran/bin/l202.exe)
                          Input orientation:                          
 ---------------------------------------------------------------------
 Center     Atomic      Atomic             Coordinates (Angstroms)
 Number     Number       Type             X           Y           Z
 ---------------------------------------------------------------------
      1          9           0        0.000000    0.000000    0.017311
      2          1           0        0.000000    0.000000    0.942689
 ---------------------------------------------------------------------
 Stoichiometry    FH
 Framework group  C*V[C*(HF)]
 Deg. of freedom     1
 Full point group                 C*V     NOp   4
 Largest Abelian subgroup         C2V     NOp   4
 Largest concise Abelian subgroup C1      NOp   1
                         Standard orientation:                         
 ---------------------------------------------------------------------
 Center     Atomic      Atomic             Coordinates (Angstroms)
 Number     Number       Type             X           Y           Z
 ---------------------------------------------------------------------
      1          9           0        0.000000    0.000000    0.092538
      2          1           0        0.000000    0.000000   -0.832840
 ---------------------------------------------------------------------
 Rotational constants (GHZ):      0.0000000    616.6547525    616.6547525
 Leave Link  202 at Wed Aug 21 02:34:40 2024, MaxMem=   13107200 cpu:       0.0
 (Enter /programs/64bit/g09/g09-gfortran/bin/l301.exe)
 Standard basis: 6-31G(d,p) (6D, 7F)
 Ernie: Thresh=  0.10000D-02 Tol=  0.10000D-05 Strict=F.
 There are    11 symmetry adapted basis functions of A1  symmetry.
 There are     1 symmetry adapted basis functions of A2  symmetry.
 There are     4 symmetry adapted basis functions of B1  symmetry.
 There are     4 symmetry adapted basis functions of B2  symmetry.
 Integral buffers will be    131072 words long.
 Raffenetti 2 integral format.
 Two-electron integral symmetry is turned on.
    20 basis functions,    35 primitive gaussians,    20 cartesian basis functions
     5 alpha electrons        5 beta electrons
       nuclear repulsion energy         5.1466495420 Hartrees.
 IExCor=  402 DFT=T Ex+Corr=B3LYP ExCW=0 ScaHFX=  0.200000
 ScaDFX=  0.800000  0.720000  1.000000  0.810000 ScalE2=  1.000000  1.000000
 IRadAn=      0 IRanWt=     -1 IRanGd=            0 ICorTp=0
 NAtoms=    2 NActive=    2 NUniq=    2 SFac= 7.50D-01 NAtFMM=   80 NAOKFM=F Big=F
 Leave Link  301 at Wed Aug 21 02:34:40 2024, MaxMem=   13107200 cpu:       0.1
 (Enter /programs/64bit/g09/g09-gfortran/bin/l302.exe)
 NPDir=0 NMtPBC=     1 NCelOv=     1 NCel=       1 NClECP=     1 NCelD=      1
         NCelK=      1 NCelE2=     1 NClLst=     1 CellRange=     0.0.
 One-electron integrals computed using PRISM.
 NBasis=    20 RedAO= T  NBF=    11     1     4     4
 NBsUse=    20 1.00D-06 NBFU=    11     1     4     4
 Precomputing XC quadrature grid using
 IXCGrd= 2 IRadAn=           0 IRanWt=          -1 IRanGd=           0 AccXCQ= 1.00D-10.
 NRdTot=     122 NPtTot=       15338 NUsed=       16231 NTot=       16263
 NSgBfM=    20    20    20    20    20 NAtAll=     2     2.
 Leave Link  302 at Wed Aug 21 02:34:40 2024, MaxMem=   13107200 cpu:       0.2
 (Enter /programs/64bit/g09/g09-gfortran/bin/l303.exe)
 DipDrv:  MaxL=1.
 Leave Link  303 at Wed Aug 21 02:34:41 2024, MaxMem=   13107200 cpu:       0.0
 (Enter /programs/64bit/g09/g09-gfortran/bin/l401.exe)
 Initial guess read from the read-write file.
 B after Tr=     0.000000    0.000000    0.000000
         Rot=    1.000000    0.000000    0.000000    0.000000 Ang=   0.00 deg.
 Guess basis will be translated and rotated to current coordinates.
 Initial guess orbital symmetries:
       Occupied  (SG) (SG) (SG) (PI) (PI)
       Virtual   (SG) (SG) (SG) (PI) (PI) (SG) (PI) (PI) (DLTA)
                 (DLTA) (SG) (PI) (PI) (SG) (SG)
 The electronic state of the initial guess is 1-SG.
 Leave Link  401 at Wed Aug 21 02:34:41 2024, MaxMem=   13107200 cpu:       0.1
 (Enter /programs/64bit/g09/g09-gfortran/bin/l502.exe)
 Closed shell SCF:
 Requested convergence on RMS density matrix=1.00D-08 within 128 cycles.
 Requested convergence on MAX density matrix=1.00D-06.
 Requested convergence on             energy=1.00D-06.
 No special actions if energy rises.
 Using DIIS extrapolation, IDIIS=  1040.
 Integral symmetry usage will be decided dynamically.
        16200 words used for storage of precomputed grid.
 Keep R1 ints in memory in canonical form, NReq=916086.
 IEnd=       35973 IEndB=       35973 NGot=    13107200 MDV=    13066147
 LenX=    13066147 LenY=    13065265
 Symmetry not used in FoFDir.
 MinBra= 0 MaxBra= 2 Meth= 1.
 IRaf=       0 NMat=   1 IRICut=       1 DoRegI=T DoRafI=F ISym2E= 0 JSym2E=0.

 Cycle   1  Pass 1  IDiag  1:
 E= -100.427460845340    
 DIIS: error= 2.48D-04 at cycle   1 NSaved=   1.
 NSaved= 1 IEnMin= 1 EnMin= -100.427460845340     IErMin= 1 ErrMin= 2.48D-04
 ErrMax= 2.48D-04 EMaxC= 1.00D-01 BMatC= 8.40D-07 BMatP= 8.40D-07
 IDIUse=3 WtCom= 9.98D-01 WtEn= 2.48D-03
 Coeff-Com:  0.100D+01
 Coeff-En:   0.100D+01
 Coeff:      0.100D+01
 Gap=     0.444 Goal=   None    Shift=    0.000
 RMSDP=4.94D-05 MaxDP=2.86D-04              OVMax= 4.73D-04

 Cycle   2  Pass 1  IDiag  1:
 E= -100.427461521642     Delta-E=       -0.000000676302 Rises=F Damp=F
 DIIS: error= 6.61D-05 at cycle   2 NSaved=   2.
 NSaved= 2 IEnMin= 2 EnMin= -100.427461521642     IErMin= 2 ErrMin= 6.61D-05
 ErrMax= 6.61D-05 EMaxC= 1.00D-01 BMatC= 1.37D-07 BMatP= 8.40D-07
 IDIUse=1 WtCom= 1.00D+00 WtEn= 0.00D+00
 Coeff-Com:  0.191D+00 0.809D+00
 Coeff:      0.191D+00 0.809D+00
 Gap=     0.444 Goal=   None    Shift=    0.000
 RMSDP=1.73D-05 MaxDP=1.29D-04 DE=-6.76D-07 OVMax= 1.16D-04

 Cycle   3  Pass 1  IDiag  1:
 E= -100.427461551951     Delta-E=       -0.000000030309 Rises=F Damp=F
 DIIS: error= 5.30D-05 at cycle   3 NSaved=   3.
 NSaved= 3 IEnMin= 3 EnMin= -100.427461551951     IErMin= 3 ErrMin= 5.30D-05
 ErrMax= 5.30D-05 EMaxC= 1.00D-01 BMatC= 8.28D-08 BMatP= 1.37D-07
 IDIUse=1 WtCom= 1.00D+00 WtEn= 0.00D+00
 Coeff-Com: -0.262D-03 0.436D+00 0.564D+00
 Coeff:     -0.262D-03 0.436D+00 0.564D+00
 Gap=     0.444 Goal=   None    Shift=    0.000
 RMSDP=8.28D-06 MaxDP=6.50D-05 DE=-3.03D-08 OVMax= 7.68D-05

 Cycle   4  Pass 1  IDiag  1:
 E= -100.427461599801     Delta-E=       -0.000000047850 Rises=F Damp=F
 DIIS: error= 4.99D-06 at cycle   4 NSaved=   4.
 NSaved= 4 IEnMin= 4 EnMin= -100.427461599801     IErMin= 4 ErrMin= 4.99D-06
 ErrMax= 4.99D-06 EMaxC= 1.00D-01 BMatC= 4.06D-10 BMatP= 8.28D-08
 IDIUse=1 WtCom= 1.00D+00 WtEn= 0.00D+00
 Coeff-Com: -0.548D-02 0.883D-01 0.151D+00 0.766D+00
 Coeff:     -0.548D-02 0.883D-01 0.151D+00 0.766D+00
 Gap=     0.444 Goal=   None    Shift=    0.000
 RMSDP=6.96D-07 MaxDP=7.25D-06 DE=-4.79D-08 OVMax= 6.15D-06

 Cycle   5  Pass 1  IDiag  1:
 E= -100.427461600082     Delta-E=       -0.000000000281 Rises=F Damp=F
 DIIS: error= 2.11D-07 at cycle   5 NSaved=   5.
 NSaved= 5 IEnMin= 5 EnMin= -100.427461600082     IErMin= 5 ErrMin= 2.11D-07
 ErrMax= 2.11D-07 EMaxC= 1.00D-01 BMatC= 7.32D-13 BMatP= 4.06D-10
 IDIUse=1 WtCom= 1.00D+00 WtEn= 0.00D+00
 Coeff-Com: -0.105D-03-0.458D-02-0.457D-02 0.267D-01 0.983D+00
 Coeff:     -0.105D-03-0.458D-02-0.457D-02 0.267D-01 0.983D+00
 Gap=     0.444 Goal=   None    Shift=    0.000
 RMSDP=3.78D-08 MaxDP=2.68D-07 DE=-2.81D-10 OVMax= 3.94D-07

 Cycle   6  Pass 1  IDiag  1:
 E= -100.427461600082     Delta-E=       -0.000000000001 Rises=F Damp=F
 DIIS: error= 5.68D-09 at cycle   6 NSaved=   6.
 NSaved= 6 IEnMin= 6 EnMin= -100.427461600082     IErMin= 6 ErrMin= 5.68D-09
 ErrMax= 5.68D-09 EMaxC= 1.00D-01 BMatC= 1.09D-15 BMatP= 7.32D-13
 IDIUse=1 WtCom= 1.00D+00 WtEn= 0.00D+00
 Coeff-Com:  0.148D-04-0.370D-03-0.514D-03-0.138D-02 0.287D-01 0.974D+00
 Coeff:      0.148D-04-0.370D-03-0.514D-03-0.138D-02 0.287D-01 0.974D+00
 Gap=     0.444 Goal=   None    Shift=    0.000
 RMSDP=1.68D-09 MaxDP=9.95D-09 DE=-7.11D-13 OVMax= 1.75D-08

 SCF Done:  E(RB3LYP) =  -100.427461600     A.U. after    6 cycles
             Convg  =    0.1681D-08             -V/T =  2.0059
 KE= 9.984258689595D+01 PE=-2.504904805750D+02 EE= 4.507378253688D+01
 Leave Link  502 at Wed Aug 21 02:34:41 2024, MaxMem=   13107200 cpu:       0.5
 (Enter /programs/64bit/g09/g09-gfortran/bin/l701.exe)
 Compute integral first derivatives.
 ... and contract with generalized density number  0.
 Leave Link  701 at Wed Aug 21 02:34:41 2024, MaxMem=   13107200 cpu:       0.1
 (Enter /programs/64bit/g09/g09-gfortran/bin/l702.exe)
 L702 exits ... SP integral derivatives will be done elsewhere.
 Leave Link  702 at Wed Aug 21 02:34:41 2024, MaxMem=   13107200 cpu:       0.0
 (Enter /programs/64bit/g09/g09-gfortran/bin/l703.exe)
 Compute integral first derivatives, UseDBF=F ICtDFT=           0.
 Integral derivatives from FoFDir, PRISM(SPDF).
 Calling FoFJK, ICntrl=      2127 FMM=F ISym2X=1 I1Cent= 0 IOpClX= 0 NMat=1 NMatS=1 NMatT=0.
 FoFCou: FMM=F IPFlag=           0 FMFlag=      100000 FMFlg1=         800
         NFxFlg=           0 DoJE=F BraDBF=F KetDBF=F FulRan=T
         Omega=  0.000000  0.000000  1.000000  0.000000  0.000000 ICntrl=    2127 IOpCl=  0
         NMat0=    1 NMatS0=    1 NMatT0=    0 NMatD0=    1 NMtDS0=    0 NMtDT0=    0
         I1Cent=           0 NGrid=           0.
 Petite list used in FoFCou.
 Leave Link  703 at Wed Aug 21 02:34:42 2024, MaxMem=   13107200 cpu:       0.4
 (Enter /programs/64bit/g09/g09-gfortran/bin/l716.exe)
 Dipole        = 0.00000000D+00 0.00000000D+00-7.19060397D-01
 ***** Axes restored to original set *****
 -------------------------------------------------------------------
 Center     Atomic                   Forces (Hartrees/Bohr)
 Number     Number              X              Y              Z
 -------------------------------------------------------------------
      1        9          -0.000000000   -0.000000000   -0.000004084
      2        1          -0.000000000   -0.000000000    0.000004084
 -------------------------------------------------------------------
 Cartesian Forces:  Max     0.000004084 RMS     0.000002358
 Leave Link  716 at Wed Aug 21 02:34:42 2024, MaxMem=   13107200 cpu:       0.0
 (Enter /programs/64bit/g09/g09-gfortran/bin/l103.exe)

 GradGradGradGradGradGradGradGradGradGradGradGradGradGradGradGradGradGrad
 Berny optimization.
 Using GEDIIS/GDIIS optimizer.
 Internal  Forces:  Max     0.000004084 RMS     0.000004084
 Search for a local minimum.
 Step number   3 out of a maximum of   20
 All quantities printed in internal units (Hartrees-Bohrs-Radians)
 RMS Force = .40840D-05 SwitMx=.10000D-02 MixMth= 2
 Mixed Optimization -- En-DIIS/RFO-DIIS
 Update second derivatives using D2CorX and points    2    3
 DE= -2.35D-06 DEPred=-2.62D-06 R= 8.96D-01
 SS=  1.41D+00  RLast= 2.80D-03 DXNew= 5.0454D-01 8.3943D-03
 Trust test= 8.96D-01 RLast= 2.80D-03 DXMaxT set to 3.00D-01
 The second derivative matrix:
                          R1
           R1           0.60113
 Use linear search instead of GDIIS.
     Eigenvalues ---    0.60113
 RFO step:  Lambda= 0.00000000D+00 EMin= 6.01133151D-01
 Quartic linear search produced a step of -0.00241.
 Iteration  1 RMS(Cart)=  0.00000478 RMS(Int)=  0.00000000
 Iteration  2 RMS(Cart)=  0.00000000 RMS(Int)=  0.00000000
 ClnCor:  largest displacement from symmetrization is 0.00D+00 for atom     0.
 Variable       Old X    -DE/DX   Delta X   Delta X   Delta X     New X
                                 (Linear)    (Quad)   (Total)
    R1        1.74871   0.00000   0.00001   0.00000   0.00001   1.74872
         Item               Value     Threshold  Converged?
 Maximum Force            0.000004     0.000450     YES
 RMS     Force            0.000004     0.000300     YES
 Maximum Displacement     0.000003     0.001800     YES
 RMS     Displacement     0.000005     0.001200     YES
 Predicted change in Energy=-1.387241D-11
 Optimization completed.
    -- Stationary point found.
                           ----------------------------
                           !   Optimized Parameters   !
                           ! (Angstroms and Degrees)  !
 --------------------------                            --------------------------
 ! Name  Definition              Value          Derivative Info.                !
 --------------------------------------------------------------------------------
 ! R1    R(1,2)                  0.9254         -DE/DX =    0.0                 !
 --------------------------------------------------------------------------------
 GradGradGradGradGradGradGradGradGradGradGradGradGradGradGradGradGradGrad

 Largest change from initial coordinates is atom    2       0.031 Angstoms.
 Leave Link  103 at Wed Aug 21 02:34:42 2024, MaxMem=   13107200 cpu:       0.0
 (Enter /programs/64bit/g09/g09-gfortran/bin/l202.exe)
                          Input orientation:                          
 ---------------------------------------------------------------------
 Center     Atomic      Atomic             Coordinates (Angstroms)
 Number     Number       Type             X           Y           Z
 ---------------------------------------------------------------------
      1          9           0        0.000000    0.000000    0.017311
      2          1           0        0.000000    0.000000    0.942689
 ---------------------------------------------------------------------
 Stoichiometry    FH
 Framework group  C*V[C*(HF)]
 Deg. of freedom     1
 Full point group                 C*V     NOp   4
 Largest Abelian subgroup         C2V     NOp   4
 Largest concise Abelian subgroup C1      NOp   1
                         Standard orientation:                         
 ---------------------------------------------------------------------
 Center     Atomic      Atomic             Coordinates (Angstroms)
 Number     Number       Type             X           Y           Z
 ---------------------------------------------------------------------
      1          9           0        0.000000    0.000000    0.092538
      2          1           0        0.000000    0.000000   -0.832840
 ---------------------------------------------------------------------
 Rotational constants (GHZ):      0.0000000    616.6547525    616.6547525
 Leave Link  202 at Wed Aug 21 02:34:42 2024, MaxMem=   13107200 cpu:       0.0
 (Enter /programs/64bit/g09/g09-gfortran/bin/l601.exe)
 Copying SCF densities to generalized density rwf, IOpCl= 0 IROHF=0.

 **********************************************************************

            Population analysis using the SCF density.

 **********************************************************************

 Orbital symmetries:
       Occupied  (SG) (SG) (SG) (PI) (PI)
       Virtual   (SG) (SG) (SG) (PI) (PI) (SG) (PI) (PI) (DLTA)
                 (DLTA) (SG) (PI) (PI) (SG) (SG)
 The electronic state is 1-SG.
 Alpha  occ. eigenvalues --  -24.66310  -1.16884  -0.51803  -0.37691  -0.37691
 Alpha virt. eigenvalues --    0.06686   0.76451   1.08387   1.17509   1.17509
 Alpha virt. eigenvalues --    1.42688   1.61934   1.61934   1.86997   1.86997
 Alpha virt. eigenvalues --    2.49923   2.71684   2.71684   3.62867   3.71523
     Molecular Orbital Coefficients:
                           1         2         3         4         5
                           O         O         O         O         O
     Eigenvalues --   -24.66310  -1.16884  -0.51803  -0.37691  -0.37691
   1 1   F  1S          0.99303  -0.22541  -0.07483   0.00000   0.00000
   2        2S          0.01965   0.50674   0.11721   0.00000   0.00000
   3        2PX         0.00000   0.00000   0.00000   0.00000   0.66285
   4        2PY         0.00000   0.00000   0.00000   0.66285   0.00000
   5        2PZ        -0.00089  -0.09773   0.55279   0.00000   0.00000
   6        3S          0.01509   0.44835   0.37198   0.00000   0.00000
   7        3PX         0.00000   0.00000   0.00000   0.00000   0.48068
   8        3PY         0.00000   0.00000   0.00000   0.48068   0.00000
   9        3PZ         0.00006  -0.02639   0.32039   0.00000   0.00000
  10        4XX        -0.00795   0.01099  -0.01553   0.00000   0.00000
  11        4YY        -0.00795   0.01099  -0.01553   0.00000   0.00000
  12        4ZZ        -0.00795   0.01652  -0.04458   0.00000   0.00000
  13        4XY         0.00000   0.00000   0.00000   0.00000   0.00000
  14        4XZ         0.00000   0.00000   0.00000   0.00000  -0.02324
  15        4YZ         0.00000   0.00000   0.00000  -0.02324   0.00000
  16 2   H  1S          0.00039   0.15035  -0.27803   0.00000   0.00000
  17        2S         -0.00100   0.02573  -0.16058   0.00000   0.00000
  18        3PX         0.00000   0.00000   0.00000   0.00000   0.02160
  19        3PY         0.00000   0.00000   0.00000   0.02160   0.00000
  20        3PZ        -0.00030   0.03077  -0.01862   0.00000   0.00000
                           6         7         8         9        10
                           V         V         V         V         V
     Eigenvalues --     0.06686   0.76451   1.08387   1.17509   1.17509
   1 1   F  1S          0.07936  -0.02675  -0.07996   0.00000   0.00000
   2        2S         -0.04896   0.01591  -1.61325   0.00000   0.00000
   3        2PX         0.00000   0.00000   0.00000   0.00000  -0.93999
   4        2PY         0.00000   0.00000   0.00000  -0.93999   0.00000
   5        2PZ         0.31911  -0.43431  -0.45502   0.00000   0.00000
   6        3S         -0.87836  -0.08373   3.16755   0.00000   0.00000
   7        3PX         0.00000   0.00000   0.00000   0.00000   1.01553
   8        3PY         0.00000   0.00000   0.00000   1.01553   0.00000
   9        3PZ         0.44113   0.18439   0.65839   0.00000   0.00000
  10        4XX         0.06466   0.05790  -0.74537   0.00000   0.00000
  11        4YY         0.06466   0.05790  -0.74537   0.00000   0.00000
  12        4ZZ         0.04470  -0.35395  -0.74931   0.00000   0.00000
  13        4XY         0.00000   0.00000   0.00000   0.00000   0.00000
  14        4XZ         0.00000   0.00000   0.00000   0.00000  -0.05767
  15        4YZ         0.00000   0.00000   0.00000  -0.05767   0.00000
  16 2   H  1S          0.16512  -0.94299   0.44861   0.00000   0.00000
  17        2S          1.30832   0.96919  -0.54462   0.00000   0.00000
  18        3PX         0.00000   0.00000   0.00000   0.00000   0.07126
  19        3PY         0.00000   0.00000   0.00000   0.07126   0.00000
  20        3PZ        -0.00560   0.26073   0.11524   0.00000   0.00000
                          11        12        13        14        15
                           V         V         V         V         V
     Eigenvalues --     1.42688   1.61934   1.61934   1.86997   1.86997
   1 1   F  1S         -0.08756   0.00000   0.00000   0.00000  -0.00000
   2        2S         -1.41423   0.00000   0.00000   0.00000   0.00000
   3        2PX         0.00000   0.00000  -0.09140   0.00000   0.00000
   4        2PY         0.00000  -0.09140   0.00000   0.00000   0.00000
   5        2PZ         0.59096   0.00000   0.00000   0.00000  -0.00000
   6        3S          3.23040   0.00000   0.00000   0.00000  -0.00000
   7        3PX         0.00000   0.00000   0.27968   0.00000   0.00000
   8        3PY         0.00000   0.27968   0.00000   0.00000   0.00000
   9        3PZ        -1.33583   0.00000   0.00000   0.00000   0.00000
  10        4XX        -0.44278   0.00000   0.00000   0.00000   0.86603
  11        4YY        -0.44278   0.00000   0.00000   0.00000  -0.86603
  12        4ZZ        -0.73529   0.00000   0.00000   0.00000   0.00000
  13        4XY         0.00000   0.00000   0.00000   1.00000   0.00000
  14        4XZ         0.00000   0.00000   0.70418   0.00000   0.00000
  15        4YZ         0.00000   0.70418   0.00000   0.00000   0.00000
  16 2   H  1S         -0.48894   0.00000   0.00000   0.00000  -0.00000
  17        2S         -0.88306   0.00000   0.00000   0.00000   0.00000
  18        3PX         0.00000   0.00000  -0.47630   0.00000   0.00000
  19        3PY         0.00000  -0.47630   0.00000   0.00000   0.00000
  20        3PZ        -0.17865   0.00000   0.00000   0.00000  -0.00000
                          16        17        18        19        20
                           V         V         V         V         V
     Eigenvalues --     2.49923   2.71684   2.71684   3.62867   3.71523
   1 1   F  1S         -0.02636   0.00000   0.00000  -0.39845  -0.40543
   2        2S         -0.54120   0.00000   0.00000  -0.89555  -0.63817
   3        2PX         0.00000   0.00000   0.05278   0.00000   0.00000
   4        2PY         0.00000   0.05278   0.00000   0.00000   0.00000
   5        2PZ         0.41516   0.00000   0.00000  -0.23942   0.40466
   6        3S          0.93494   0.00000   0.00000   5.05988   3.38177
   7        3PX         0.00000   0.00000  -0.36209   0.00000   0.00000
   8        3PY         0.00000  -0.36209   0.00000   0.00000   0.00000
   9        3PZ        -0.60771   0.00000   0.00000  -1.32836   0.73224
  10        4XX        -0.59999   0.00000   0.00000  -1.87540  -1.33525
  11        4YY        -0.59999   0.00000   0.00000  -1.87540  -1.33525
  12        4ZZ         0.60840   0.00000   0.00000  -0.27488  -2.63603
  13        4XY         0.00000   0.00000   0.00000   0.00000   0.00000
  14        4XZ         0.00000   0.00000   0.86571   0.00000   0.00000
  15        4YZ         0.00000   0.86571   0.00000   0.00000   0.00000
  16 2   H  1S         -0.80529   0.00000   0.00000  -1.49484   1.41898
  17        2S          0.14588   0.00000   0.00000  -0.78983  -0.17049
  18        3PX         0.00000   0.00000   1.06892   0.00000   0.00000
  19        3PY         0.00000   1.06892   0.00000   0.00000   0.00000
  20        3PZ         0.55383   0.00000   0.00000  -1.17722   1.08834
     Density Matrix:
                           1         2         3         4         5
   1 1   F  1S          2.08502
   2        2S         -0.20696   0.54182
   3        2PX         0.00000   0.00000   0.87875
   4        2PY         0.00000   0.00000   0.00000   0.87875
   5        2PZ        -0.04044   0.03050   0.00000   0.00000   0.63025
   6        3S         -0.22782   0.54218   0.00000   0.00000   0.32359
   7        3PX         0.00000   0.00000   0.63725   0.00000   0.00000
   8        3PY         0.00000   0.00000   0.00000   0.63725   0.00000
   9        3PZ        -0.03593   0.04836   0.00000   0.00000   0.35937
  10        4XX        -0.01842   0.00718   0.00000   0.00000  -0.01930
  11        4YY        -0.01842   0.00718   0.00000   0.00000  -0.01930
  12        4ZZ        -0.01656   0.00598   0.00000   0.00000  -0.05251
  13        4XY         0.00000   0.00000   0.00000   0.00000   0.00000
  14        4XZ         0.00000   0.00000  -0.03081   0.00000   0.00000
  15        4YZ         0.00000   0.00000   0.00000  -0.03081   0.00000
  16 2   H  1S         -0.02540   0.08721   0.00000   0.00000  -0.33677
  17        2S          0.01046  -0.01160   0.00000   0.00000  -0.18257
  18        3PX         0.00000   0.00000   0.02864   0.00000   0.00000
  19        3PY         0.00000   0.00000   0.00000   0.02864   0.00000
  20        3PZ        -0.01168   0.02681   0.00000   0.00000  -0.02660
                           6         7         8         9        10
   6        3S          0.67922
   7        3PX         0.00000   0.46211
   8        3PY         0.00000   0.00000   0.46211
   9        3PZ         0.21469   0.00000   0.00000   0.20669
  10        4XX        -0.00194   0.00000   0.00000  -0.01053   0.00085
  11        4YY        -0.00194   0.00000   0.00000  -0.01053   0.00085
  12        4ZZ        -0.01859   0.00000   0.00000  -0.02944   0.00187
  13        4XY         0.00000   0.00000   0.00000   0.00000   0.00000
  14        4XZ         0.00000  -0.02234   0.00000   0.00000   0.00000
  15        4YZ         0.00000   0.00000  -0.02234   0.00000   0.00000
  16 2   H  1S         -0.07202   0.00000   0.00000  -0.18609   0.01193
  17        2S         -0.09642   0.00000   0.00000  -0.10426   0.00557
  18        3PX         0.00000   0.02077   0.00000   0.00000   0.00000
  19        3PY         0.00000   0.00000   0.02077   0.00000   0.00000
  20        3PZ         0.01373   0.00000   0.00000  -0.01356   0.00126
                          11        12        13        14        15
  11        4YY         0.00085
  12        4ZZ         0.00187   0.00465
  13        4XY         0.00000   0.00000  -0.00000
  14        4XZ         0.00000   0.00000   0.00000   0.00108
  15        4YZ         0.00000   0.00000   0.00000   0.00000   0.00108
  16 2   H  1S          0.01193   0.02975   0.00000   0.00000   0.00000
  17        2S          0.00557   0.01518   0.00000   0.00000   0.00000
[...]
  11        4YY        -0.01842   0.00718   0.00000   0.00000  -0.01930
  12        4ZZ        -0.01656   0.00598   0.00000   0.00000  -0.05251
  13        4XY         0.00000   0.00000   0.00000   0.00000   0.00000
  14        4XZ         0.00000   0.00000  -0.03081   0.00000   0.00000
  15        4YZ         0.00000   0.00000   0.00000  -0.03081   0.00000
  16 2   H  1S         -0.02540   0.08721   0.00000   0.00000  -0.33677
  17        2S          0.01046  -0.01160   0.00000   0.00000  -0.18257
  18        3PX         0.00000   0.00000   0.02864   0.00000   0.00000
  19        3PY         0.00000   0.00000   0.00000   0.02864   0.00000
  20        3PZ        -0.01168   0.02681   0.00000   0.00000  -0.02660
                           6         7         8         9        10
   6        3S          0.67922
   7        3PX         0.00000   0.46211
   8        3PY         0.00000   0.00000   0.46211
   9        3PZ         0.21469   0.00000   0.00000   0.20669
  10        4XX        -0.00194   0.00000   0.00000  -0.01053   0.00085
  11        4YY        -0.00194   0.00000   0.00000  -0.01053   0.00085
  12        4ZZ        -0.01859   0.00000   0.00000  -0.02944   0.00187
  13        4XY         0.00000   0.00000   0.00000   0.00000   0.00000
  14        4XZ         0.00000  -0.02234   0.00000   0.00000   0.00000
  15        4YZ         0.00000   0.00000  -0.02234   0.00000   0.00000
  16 2   H  1S         -0.07202   0.00000   0.00000  -0.18609   0.01193
  17        2S         -0.09642   0.00000   0.00000  -0.10426   0.00557
  18        3PX         0.00000   0.02077   0.00000   0.00000   0.00000
  19        3PY         0.00000   0.00000   0.02077   0.00000   0.00000
  20        3PZ         0.01373   0.00000   0.00000  -0.01356   0.00126
                          11        12        13        14        15
  11        4YY         0.00085
  12        4ZZ         0.00187   0.00465
  13        4XY         0.00000   0.00000  -0.00000
  14        4XZ         0.00000   0.00000   0.00000   0.00108
  15        4YZ         0.00000   0.00000   0.00000   0.00000   0.00108
  16 2   H  1S          0.01193   0.02975   0.00000   0.00000   0.00000
  17        2S          0.00557   0.01518   0.00000   0.00000   0.00000
  18        3PX         0.00000   0.00000   0.00000  -0.00100   0.00000
  19        3PY         0.00000   0.00000   0.00000   0.00000  -0.00100
  20        3PZ         0.00126   0.00268   0.00000   0.00000   0.00000
                          16        17        18        19        20
  16 2   H  1S          0.19981
  17        2S          0.09703   0.05290
  18        3PX         0.00000   0.00000   0.00093
  19        3PY         0.00000   0.00000   0.00000   0.00093
  20        3PZ         0.01961   0.00756   0.00000   0.00000   0.00259
    Full Mulliken population analysis:
                           1         2         3         4         5
   1 1   F  1S          2.08502
   2        2S         -0.05056   0.54182
   3        2PX         0.00000   0.00000   0.87875
   4        2PY         0.00000   0.00000   0.00000   0.87875
   5        2PZ         0.00000   0.00000   0.00000   0.00000   0.63025
   6        3S         -0.03910   0.41396   0.00000   0.00000   0.00000
   7        3PX         0.00000   0.00000   0.31831   0.00000   0.00000
   8        3PY         0.00000   0.00000   0.00000   0.31831   0.00000
   9        3PZ         0.00000   0.00000   0.00000   0.00000   0.17951
  10        4XX        -0.00043   0.00321   0.00000   0.00000   0.00000
  11        4YY        -0.00043   0.00321   0.00000   0.00000   0.00000
  12        4ZZ        -0.00038   0.00268   0.00000   0.00000   0.00000
  13        4XY         0.00000   0.00000   0.00000   0.00000   0.00000
  14        4XZ         0.00000   0.00000   0.00000   0.00000   0.00000
  15        4YZ         0.00000   0.00000   0.00000   0.00000   0.00000
  16 2   H  1S         -0.00084   0.01935   0.00000   0.00000   0.07961
  17        2S          0.00062  -0.00382   0.00000   0.00000   0.02008
  18        3PX         0.00000   0.00000   0.00357   0.00000   0.00000
  19        3PY         0.00000   0.00000   0.00000   0.00357   0.00000
  20        3PZ        -0.00066   0.00889   0.00000   0.00000   0.00954
                           6         7         8         9        10
   6        3S          0.67922
   7        3PX         0.00000   0.46211
   8        3PY         0.00000   0.00000   0.46211
   9        3PZ         0.00000   0.00000   0.00000   0.20669
  10        4XX        -0.00138   0.00000   0.00000   0.00000   0.00085
  11        4YY        -0.00138   0.00000   0.00000   0.00000   0.00028
  12        4ZZ        -0.01318   0.00000   0.00000   0.00000   0.00062
  13        4XY         0.00000   0.00000   0.00000   0.00000   0.00000
  14        4XZ         0.00000   0.00000   0.00000   0.00000   0.00000
  15        4YZ         0.00000   0.00000   0.00000   0.00000   0.00000
  16 2   H  1S         -0.03061   0.00000   0.00000   0.11065   0.00216
  17        2S         -0.06109   0.00000   0.00000   0.04293   0.00229
  18        3PX         0.00000   0.00625   0.00000   0.00000   0.00000
  19        3PY         0.00000   0.00000   0.00625   0.00000   0.00000
  20        3PZ         0.00433   0.00000   0.00000   0.00266   0.00023
                          11        12        13        14        15
  11        4YY         0.00085
  12        4ZZ         0.00062   0.00465
  13        4XY         0.00000   0.00000  -0.00000
  14        4XZ         0.00000   0.00000   0.00000   0.00108
  15        4YZ         0.00000   0.00000   0.00000   0.00000   0.00108
  16 2   H  1S          0.00216   0.01723   0.00000   0.00000   0.00000
  17        2S          0.00229   0.00729   0.00000   0.00000   0.00000
  18        3PX         0.00000   0.00000   0.00000   0.00043   0.00000
  19        3PY         0.00000   0.00000   0.00000   0.00000   0.00043
  20        3PZ         0.00023   0.00103   0.00000   0.00000   0.00000
                          16        17        18        19        20
  16 2   H  1S          0.19981
  17        2S          0.06387   0.05290
  18        3PX         0.00000   0.00000   0.00093
  19        3PY         0.00000   0.00000   0.00000   0.00093
  20        3PZ         0.00000   0.00000   0.00000   0.00000   0.00259
     Gross orbital populations:
                           1
   1 1   F  1S          1.99324
   2        2S          0.93873
   3        2PX         1.20063
   4        2PY         1.20063
   5        2PZ         0.91898
   6        3S          0.95078
   7        3PX         0.78668
   8        3PY         0.78668
   9        3PZ         0.54244
  10        4XX         0.00785
  11        4YY         0.00785
  12        4ZZ         0.02056
  13        4XY        -0.00000
  14        4XZ         0.00151
  15        4YZ         0.00151
  16 2   H  1S          0.46339
  17        2S          0.12736
  18        3PX         0.01118
  19        3PY         0.01118
  20        3PZ         0.02881
          Condensed to atoms (all electrons):
              1          2
     1  F    9.101060   0.257012
     2  H    0.257012   0.384915
 Mulliken atomic charges:
              1
     1  F   -0.358072
     2  H    0.358072
 Sum of Mulliken atomic charges =   0.00000
 Mulliken charges with hydrogens summed into heavy atoms:
              1
     1  F    0.000000
 Sum of Mulliken charges with hydrogens summed into heavy atoms =   0.00000
 APT atomic charges:
              1
     1  F   -0.355729
     2  H    0.355729
 Sum of APT charges=   0.00000
 APT Atomic charges with hydrogens summed into heavy atoms:
              1
     1  F    0.000000
     2  H    0.000000
 Sum of APT charges=   0.00000
 Electronic spatial extent (au):  <R**2>=             13.3044
 Charge=              0.0000 electrons
 Dipole moment (field-independent basis, Debye):
    X=              0.0000    Y=              0.0000    Z=             -1.8277  Tot=              1.8277
 Quadrupole moment (field-independent basis, Debye-Ang):
   XX=             -5.3698   YY=             -5.3698   ZZ=             -3.4534
   XY=              0.0000   XZ=              0.0000   YZ=              0.0000
 Traceless Quadrupole moment (field-independent basis, Debye-Ang):
   XX=             -0.6388   YY=             -0.6388   ZZ=              1.2776
   XY=              0.0000   XZ=              0.0000   YZ=              0.0000
 Octapole moment (field-independent basis, Debye-Ang**2):
  XXX=              0.0000  YYY=              0.0000  ZZZ=             -1.6350  XYY=              0.0000
  XXY=              0.0000  XXZ=             -0.1121  XZZ=              0.0000  YZZ=              0.0000
  YYZ=             -0.1121  XYZ=              0.0000
 Hexadecapole moment (field-independent basis, Debye-Ang**3):
 XXXX=             -2.8918 YYYY=             -2.8918 ZZZZ=             -3.0573 XXXY=              0.0000
 XXXZ=              0.0000 YYYX=              0.0000 YYYZ=              0.0000 ZZZX=              0.0000
 ZZZY=              0.0000 XXYY=             -0.9639 XXZZ=             -1.2268 YYZZ=             -1.2268
 XXYZ=              0.0000 YYXZ=              0.0000 ZZXY=              0.0000
 N-N= 5.146649542048D+00 E-N=-2.504904804120D+02  KE= 9.984258680904D+01
 Symmetry A1   KE= 8.708411216367D+01
 Symmetry A2   KE=-2.751681265405D-51
 Symmetry B1   KE= 6.379237322685D+00
 Symmetry B2   KE= 6.379237322685D+00
 Orbital energies and kinetic energies (alpha):
                                 1                 2
   1         O               -24.663102         37.084618
   2         O                -1.168836          3.678480
   3         O                -0.518034          2.778958
   4         O                -0.376914          3.189619
   5         O                -0.376914          3.189619
   6         V                 0.066858          1.382176
   7         V                 0.764509          2.764904
   8         V                 1.083873          2.853127
   9         V                 1.175088          4.649099
  10         V                 1.175088          4.649099
  11         V                 1.426882          3.343460
  12         V                 1.619340          2.578977
  13         V                 1.619340          2.578977
  14         V                 1.869968          2.800000
  15         V                 1.869968          2.800000
  16         V                 2.499231          4.107775
  17         V                 2.716843          3.624100
  18         V                 2.716843          3.624100
  19         V                 3.628668          7.842933
  20         V                 3.715226          8.660266
 Total kinetic energy from orbitals= 9.984258680904D+01
  Exact polarizability:   2.016  -0.000   2.016  -0.000   0.000   4.645
 Approx polarizability:   2.263  -0.000   2.263  -0.000  -0.000   5.958
 No NMR shielding tensors so no spin-rotation constants.
 Leave Link  601 at Wed Aug 21 02:34:45 2024, MaxMem=   13107200 cpu:       0.1
 (Enter /programs/64bit/g09/g09-gfortran/bin/l701.exe)
 Compute integral second derivatives.
 ... and contract with generalized density number  0.
 Leave Link  701 at Wed Aug 21 02:34:45 2024, MaxMem=   13107200 cpu:       0.2
 (Enter /programs/64bit/g09/g09-gfortran/bin/l702.exe)
 L702 exits ... SP integral derivatives will be done elsewhere.
 Leave Link  702 at Wed Aug 21 02:34:46 2024, MaxMem=   13107200 cpu:       0.0
 (Enter /programs/64bit/g09/g09-gfortran/bin/l703.exe)
 Compute integral second derivatives, UseDBF=F ICtDFT=           0.
 Integral derivatives from FoFDir, PRISM(SPDF).
 Calling FoFJK, ICntrl=    100127 FMM=F ISym2X=1 I1Cent= 0 IOpClX= 0 NMat=1 NMatS=1 NMatT=0.
 FoFCou: FMM=F IPFlag=           0 FMFlag=      100000 FMFlg1=         800
         NFxFlg=           0 DoJE=F BraDBF=F KetDBF=F FulRan=T
         Omega=  0.000000  0.000000  1.000000  0.000000  0.000000 ICntrl=  100127 IOpCl=  0
         NMat0=    1 NMatS0=    1 NMatT0=    0 NMatD0=    1 NMtDS0=    0 NMtDT0=    0
         I1Cent=           0 NGrid=           0.
 Petite list used in FoFCou.
 Leave Link  703 at Wed Aug 21 02:34:47 2024, MaxMem=   13107200 cpu:       1.4
 (Enter /programs/64bit/g09/g09-gfortran/bin/l716.exe)
 Dipole        = 0.00000000D+00 0.00000000D+00-7.19060381D-01
 Polarizability= 2.01644162D+00-6.60277644D-13 2.01644162D+00
                -1.33754127D-11 6.13332216D-12 4.64467945D+00
 Full mass-weighted force constant matrix:
 Low frequencies ---   -0.0020   -0.0020   -0.0008   41.1487   41.1487 4085.1720
 Diagonal vibrational polarizability:
        0.0000000       0.0000000       0.0984575
 Harmonic frequencies (cm**-1), IR intensities (KM/Mole), Raman scattering
 activities (A**4/AMU), depolarization ratios for plane and unpolarized
 incident light, reduced masses (AMU), force constants (mDyne/A),
 and normal coordinates:
                     1
                    SG
 Frequencies --  4085.1720
 Red. masses --     1.0583
 Frc consts  --    10.4060
 IR Inten    --    61.0572
  Atom  AN      X      Y      Z
     1   9     0.00   0.00   0.05
     2   1     0.00   0.00  -1.00

 -------------------
 - Thermochemistry -
 -------------------
 Temperature   298.150 Kelvin.  Pressure   1.00000 Atm.
 Atom     1 has atomic number  9 and mass  18.99840
 Atom     2 has atomic number  1 and mass   1.00783
 Molecular mass:    20.00623 amu.
 Principal axes and moments of inertia in atomic units:
                           1         2         3
     Eigenvalues --     0.00000   2.92666   2.92666
           X            0.00000  -0.00000   1.00000
           Y            0.00000   1.00000   0.00000
           Z            1.00000   0.00000   0.00000
 This molecule is a prolate symmetric top.
 Rotational symmetry number  1.
 Rotational temperature (Kelvin)     29.59473
 Rotational constant (GHZ):         616.654753
 Zero-point vibrational energy      24434.8 (Joules/Mol)
                                    5.84005 (Kcal/Mol)
 Vibrational temperatures:   5877.64
          (Kelvin)
 
 Zero-point correction=                           0.009307 (Hartree/Particle)
 Thermal correction to Energy=                    0.011667
 Thermal correction to Enthalpy=                  0.012611
 Thermal correction to Gibbs Free Energy=        -0.007106
 Sum of electronic and zero-point Energies=           -100.418155
 Sum of electronic and thermal Energies=              -100.415794
 Sum of electronic and thermal Enthalpies=            -100.414850
 Sum of electronic and thermal Free Energies=         -100.434568
 
                     E (Thermal)             CV                S
                      KCal/Mol        Cal/Mol-Kelvin    Cal/Mol-Kelvin
 Total                    7.321              4.968             41.499
 Electronic               0.000              0.000              0.000
 Translational            0.889              2.981             34.922
 Rotational               0.592              1.987              6.578
 Vibrational              5.840              0.000              0.000
                       Q            Log10(Q)             Ln(Q)
 Total Bot       0.185629D+04          3.268645          7.526333
 Total V=0       0.354343D+08          7.549424         17.383190
 Vib (Bot)       0.523867D-04         -4.280779         -9.856857
 Vib (V=0)       0.100000D+01          0.000000          0.000000
 Electronic      0.100000D+01          0.000000          0.000000
 Translational   0.351725D+07          6.546203         15.073190
 Rotational      0.100744D+02          1.003221          2.310001
 ***** Axes restored to original set *****
 -------------------------------------------------------------------
 Center     Atomic                   Forces (Hartrees/Bohr)
 Number     Number              X              Y              Z
 -------------------------------------------------------------------
      1        9          -0.000000000   -0.000000000   -0.000004084
      2        1          -0.000000000   -0.000000000    0.000004084
 -------------------------------------------------------------------
 Cartesian Forces:  Max     0.000004084 RMS     0.000002358
 Force constants in Cartesian coordinates: 
                1             2             3             4             5 
      1  0.613255D-04
      2  0.000000D+00  0.613254D-04
      3  0.000000D+00  0.000000D+00  0.604434D+00
      4 -0.613255D-04  0.000000D+00  0.000000D+00  0.613255D-04
      5  0.000000D+00 -0.613255D-04  0.000000D+00  0.000000D+00  0.613255D-04
      6  0.000000D+00  0.000000D+00 -0.604434D+00  0.000000D+00  0.000000D+00
                6 
      6  0.604434D+00
 Force constants in internal coordinates: 
                1 
      1  0.604434D+00
 Leave Link  716 at Wed Aug 21 02:34:47 2024, MaxMem=   13107200 cpu:       0.0
 (Enter /programs/64bit/g09/g09-gfortran/bin/l103.exe)

 GradGradGradGradGradGradGradGradGradGradGradGradGradGradGradGradGradGrad
 Berny optimization.
 Internal  Forces:  Max     0.000004084 RMS     0.000004084
 Search for a local minimum.
 Step number   1 out of a maximum of    2
 All quantities printed in internal units (Hartrees-Bohrs-Radians)
 Second derivative matrix not updated -- analytic derivatives used.
 The second derivative matrix:
                          R1
           R1           0.60443
     Eigenvalues ---    0.60443
 Angle between quadratic step and forces=   0.00 degrees.
 Linear search not attempted -- first point.
 Iteration  1 RMS(Cart)=  0.00000478 RMS(Int)=  0.00000000
 Iteration  2 RMS(Cart)=  0.00000000 RMS(Int)=  0.00000000
 ClnCor:  largest displacement from symmetrization is 0.00D+00 for atom     0.
 Variable       Old X    -DE/DX   Delta X   Delta X   Delta X     New X
                                 (Linear)    (Quad)   (Total)
    R1        1.74871   0.00000   0.00000   0.00001   0.00001   1.74872
         Item               Value     Threshold  Converged?
 Maximum Force            0.000004     0.000450     YES
 RMS     Force            0.000004     0.000300     YES
 Maximum Displacement     0.000003     0.001800     YES
 RMS     Displacement     0.000005     0.001200     YES
 Predicted change in Energy=-1.379626D-11
 Optimization completed.
    -- Stationary point found.
                           ----------------------------
                           !   Optimized Parameters   !
                           ! (Angstroms and Degrees)  !
 --------------------------                            --------------------------
 ! Name  Definition              Value          Derivative Info.                !
 --------------------------------------------------------------------------------
 ! R1    R(1,2)                  0.9254         -DE/DX =    0.0                 !
 --------------------------------------------------------------------------------
 GradGradGradGradGradGradGradGradGradGradGradGradGradGradGradGradGradGrad

 Leave Link  103 at Wed Aug 21 02:34:47 2024, MaxMem=   13107200 cpu:       0.0
 (Enter /programs/64bit/g09/g09-gfortran/bin/l9999.exe)
 1\1\GINC-MOLMOD\Freq\RB3LYP\6-31G(d,p)\F1H1\OSPITE\21-Aug-2024\0\\#P G
 eom=AllCheck Guess=TCheck SCRF=Check GenChk RB3LYP/6-31G(d,p) Freq\\HF
 \\0,1\F,0.,0.,0.0173111343\H,0.,0.,0.9426888657\\Version=EM64L-G09RevA
 .02\State=1-SG\HF=-100.4274616\RMSD=4.197e-10\RMSF=2.358e-06\ZeroPoint
 =0.0093067\Thermal=0.0116672\Dipole=0.,0.,0.7190604\DipoleDeriv=-0.411
 1798,0.,0.,0.,-0.4111798,0.,0.,0.,-0.244828,0.4111798,0.,0.,0.,0.41117
 98,0.,0.,0.,0.244828\Polar=2.0164416,0.,2.0164416,0.,0.,4.6446794\PG=C
 *V [C*(H1F1)]\NImag=0\\0.00006133,0.,0.00006133,0.,0.,0.60443440,-0.00
 006133,0.,0.,0.00006133,0.,-0.00006133,0.,0.,0.00006133,0.,0.,-0.60443
 440,0.,0.,0.60443440\\0.,0.,0.00000408,0.,0.,-0.00000408\\\@


 SI MONUMENTUM REQUIRIS, CIRCUMSPICE
     -- FROM SIR CHRISTOPHER WREN'S TOMBSTONE
 Job cpu time:  0 days  0 hours  0 minutes  4.8 seconds.
 File lengths (MBytes):  RWF=      5 Int=      0 D2E=      0 Chk=      1 Scr=      1
 Normal termination of Gaussian 09 at Wed Aug 21 02:34:47 2024.
