 HF                                                      
GAUSSIAN              5 MOL ORBITALS     35 PRIMITIVES        2 NUCLEI
  F    1    (CENTRE  1)   0.00000000  0.00000000  0.17487105  CHARGE =  9.0
  H    2    (CENTRE  2)   0.00000000  0.00000000 -1.57383943  CHARGE =  1.0
CENTRE ASSIGNMENTS    1  1  1  1  1  1  1  1  1  1  1  1  1  1  1  1  1  1  1  1
CENTRE ASSIGNMENTS    1  1  1  1  1  1  1  1  2  2  2  2  2  2  2
TYPE ASSIGNMENTS      1  1  1  1  1  1  1  1  1  2  2  2  3  3  3  4  4  4  1  2
TYPE ASSIGNMENTS      3  4  5  6  7  8  9 10  1  1  1  1  2  3  4
EXPONENTS  0.7001713D+04 0.1051366D+04 0.2392857D+03 0.6739745D+02 0.2151996D+02
EXPONENTS  0.7403101D+01 0.2084795D+02 0.4808308D+01 0.1344070D+01 0.2084795D+02
EXPONENTS  0.4808308D+01 0.1344070D+01 0.2084795D+02 0.4808308D+01 0.1344070D+01
EXPONENTS  0.2084795D+02 0.4808308D+01 0.1344070D+01 0.3581514D+00 0.3581514D+00
EXPONENTS  0.3581514D+00 0.3581514D+00 0.8000000D+00 0.8000000D+00 0.8000000D+00
EXPONENTS  0.8000000D+00 0.8000000D+00 0.8000000D+00 0.1873114D+02 0.2825394D+01
EXPONENTS  0.6401217D+00 0.1612778D+00 0.1100000D+01 0.1100000D+01 0.1100000D+01
MO    1     MO 0.0        OCC NO =    2.0000000  ORB. ENERGY =  -24.663102
  0.98572037D+00  0.18184565D+01  0.29454251D+01  0.38819965D+01  0.33324913D+01
  0.11327517D+01 -0.14826197D-01 -0.66598291D-02  0.19731726D-01  0.00000000D+00
  0.00000000D+00  0.00000000D+00  0.00000000D+00  0.00000000D+00  0.00000000D+00
 -0.40430713D-02 -0.31206931D-02 -0.13247747D-02  0.49795769D-02  0.00000000D+00
  0.00000000D+00  0.24798937D-04 -0.88575153D-02 -0.88575153D-02 -0.88520171D-02
  0.00000000D+00  0.00000000D+00  0.00000000D+00  0.83146557D-04  0.14103230D-03
  0.16056029D-03 -0.18052298D-03  0.00000000D+00  0.00000000D+00 -0.48290936D-03
MO    2     MO 0.0        OCC NO =    2.0000000  ORB. ENERGY =   -1.168836
 -0.22374895D+00 -0.41277196D+00 -0.66858289D+00 -0.88117549D+00 -0.75644315D+00
 -0.25712363D+00 -0.38234013D+00 -0.17174464D+00  0.50884461D+00  0.00000000D+00
  0.00000000D+00  0.00000000D+00  0.00000000D+00  0.00000000D+00  0.00000000D+00
 -0.44450884D+00 -0.34309948D+00 -0.14565018D+00  0.14793628D+00  0.00000000D+00
  0.00000000D+00 -0.10423363D-01  0.12237374D-01  0.12237374D-01  0.18405767D-01
  0.00000000D+00  0.00000000D+00  0.00000000D+00  0.32314722D-01  0.54811885D-01
  0.62401394D-01  0.46673278D-02  0.00000000D+00  0.00000000D+00  0.49416077D-01
MO    3     MO 0.0        OCC NO =    2.0000000  ORB. ENERGY =   -0.518034
 -0.74283278D-01 -0.13703776D+00 -0.22196542D+00 -0.29254486D+00 -0.25113449D+00
 -0.85363470D-01 -0.88436748D-01 -0.39725198D-01  0.11769772D+00  0.00000000D+00
  0.00000000D+00  0.00000000D+00  0.00000000D+00  0.00000000D+00  0.00000000D+00
  0.25142880D+01  0.19406834D+01  0.82384524D+00  0.12273702D+00  0.00000000D+00
  0.00000000D+00  0.12653202D+00 -0.17297699D-01 -0.17297699D-01 -0.49657039D-01
  0.00000000D+00  0.00000000D+00  0.00000000D+00 -0.59758654D-01 -0.10136199D+00
 -0.11539704D+00 -0.29126769D-01  0.00000000D+00  0.00000000D+00 -0.29899048D-01
MO    4     MO 0.0        OCC NO =    2.0000000  ORB. ENERGY =   -0.376914
  0.00000000D+00  0.00000000D+00  0.00000000D+00  0.00000000D+00  0.00000000D+00
  0.00000000D+00 -0.00000000D+00 -0.00000000D+00  0.00000000D+00  0.00000000D+00
  0.00000000D+00  0.00000000D+00  0.30149098D+01  0.23270943D+01  0.98788167D+00
  0.00000000D+00  0.00000000D+00  0.00000000D+00  0.00000000D+00  0.00000000D+00
  0.18983768D+00  0.00000000D+00  0.00000000D+00  0.00000000D+00  0.00000000D+00
  0.00000000D+00  0.00000000D+00 -0.44837055D-01  0.00000000D+00  0.00000000D+00
  0.00000000D+00  0.00000000D+00  0.00000000D+00  0.34692282D-01  0.00000000D+00
MO    5     MO 0.0        OCC NO =    2.0000000  ORB. ENERGY =   -0.376914
  0.00000000D+00  0.00000000D+00  0.00000000D+00  0.00000000D+00  0.00000000D+00
  0.00000000D+00 -0.00000000D+00 -0.00000000D+00  0.00000000D+00  0.30149098D+01
  0.23270943D+01  0.98788167D+00  0.00000000D+00  0.00000000D+00  0.00000000D+00
  0.00000000D+00  0.00000000D+00  0.00000000D+00  0.00000000D+00  0.18983768D+00
  0.00000000D+00  0.00000000D+00  0.00000000D+00  0.00000000D+00  0.00000000D+00
  0.00000000D+00 -0.44837055D-01  0.00000000D+00  0.00000000D+00  0.00000000D+00
  0.00000000D+00  0.00000000D+00  0.34692282D-01  0.00000000D+00  0.00000000D+00
END DATA
 THE  HF ENERGY =   -100.427461600082 THE VIRIAL(-V/T)=   2.00585797
