 H2                                                      
GAUSSIAN              6 MOL ORBITALS     56 PRIMITIVES        2 NUCLEI
  Li   1    (CENTRE  1)   0.00000000  0.00000000 -2.19877264  CHARGE =  3.0
  F    2    (CENTRE  2)   0.00000000  0.00000000  0.73292421  CHARGE =  9.0
CENTRE ASSIGNMENTS    1  1  1  1  1  1  1  1  1  1  1  1  1  1  1  1  1  1  1  1
CENTRE ASSIGNMENTS    1  1  1  1  1  1  1  1  2  2  2  2  2  2  2  2  2  2  2  2
CENTRE ASSIGNMENTS    2  2  2  2  2  2  2  2  2  2  2  2  2  2  2  2
TYPE ASSIGNMENTS      1  1  1  1  1  1  1  1  1  2  2  2  3  3  3  4  4  4  1  2
TYPE ASSIGNMENTS      3  4  5  6  7  8  9 10  1  1  1  1  1  1  1  1  1  2  2  2
TYPE ASSIGNMENTS      3  3  3  4  4  4  1  2  3  4  5  6  7  8  9 10
EXPONENTS  0.6424189D+03 0.9679852D+02 0.2209112D+02 0.6201070D+01 0.1935118D+01
EXPONENTS  0.6367358D+00 0.2324918D+01 0.6324304D+00 0.7905343D-01 0.2324918D+01
EXPONENTS  0.6324304D+00 0.7905343D-01 0.2324918D+01 0.6324304D+00 0.7905343D-01
EXPONENTS  0.2324918D+01 0.6324304D+00 0.7905343D-01 0.3596197D-01 0.3596197D-01
EXPONENTS  0.3596197D-01 0.3596197D-01 0.2000000D+00 0.2000000D+00 0.2000000D+00
EXPONENTS  0.2000000D+00 0.2000000D+00 0.2000000D+00 0.7001713D+04 0.1051366D+04
EXPONENTS  0.2392857D+03 0.6739745D+02 0.2151996D+02 0.7403101D+01 0.2084795D+02
EXPONENTS  0.4808308D+01 0.1344070D+01 0.2084795D+02 0.4808308D+01 0.1344070D+01
EXPONENTS  0.2084795D+02 0.4808308D+01 0.1344070D+01 0.2084795D+02 0.4808308D+01
EXPONENTS  0.1344070D+01 0.3581514D+00 0.3581514D+00 0.3581514D+00 0.3581514D+00
EXPONENTS  0.8000000D+00 0.8000000D+00 0.8000000D+00 0.8000000D+00 0.8000000D+00
EXPONENTS  0.8000000D+00
MO    1     MO 0.0        OCC NO =    2.0000000  ORB. ENERGY =  -24.531602
 -0.54822225D-04 -0.10030083D-03 -0.15797215D-03 -0.19366782D-03 -0.15468679D-03
 -0.49377726D-04  0.65525902D-04  0.13450061D-03 -0.16027552D-03  0.00000000D+00
  0.00000000D+00  0.00000000D+00  0.00000000D+00  0.00000000D+00  0.00000000D+00
 -0.34897365D-04 -0.10811510D-03 -0.53873113D-04  0.96658515D-05  0.00000000D+00
  0.00000000D+00  0.11456086D-05  0.25863036D-04  0.25863036D-04 -0.44871698D-05
  0.00000000D+00  0.00000000D+00  0.00000000D+00  0.98559897D+00  0.18182325D+01
  0.29450624D+01  0.38815184D+01  0.33320809D+01  0.11326122D+01 -0.14228114D-01
 -0.63911742D-02  0.18935756D-01  0.00000000D+00  0.00000000D+00  0.00000000D+00
  0.00000000D+00  0.00000000D+00  0.00000000D+00 -0.80974022D-03 -0.62500771D-03
 -0.26532387D-03  0.57088984D-02  0.00000000D+00  0.00000000D+00 -0.11192122D-03
 -0.95196993D-02 -0.95196993D-02 -0.94398388D-02  0.00000000D+00  0.00000000D+00
  0.00000000D+00
MO    2     MO 0.0        OCC NO =    2.0000000  ORB. ENERGY =   -1.985313
  0.19395454D+00  0.35485246D+00  0.55888675D+00  0.68517379D+00  0.54726355D+00
  0.17469254D+00 -0.29002753D-02 -0.59531999D-02  0.70940363D-02  0.00000000D+00
  0.00000000D+00  0.00000000D+00  0.00000000D+00  0.00000000D+00  0.00000000D+00
 -0.55460505D-03 -0.17182152D-02 -0.85617641D-03 -0.15925178D-02  0.00000000D+00
  0.00000000D+00  0.20647460D-03 -0.78698193D-03 -0.78698193D-03 -0.12106269D-02
  0.00000000D+00  0.00000000D+00  0.00000000D+00 -0.58132483D-02 -0.10724278D-01
 -0.17370532D-01 -0.22893926D-01 -0.19653240D-01 -0.66803601D-02 -0.70382541D-02
 -0.31615369D-02  0.93669939D-02  0.00000000D+00  0.00000000D+00  0.00000000D+00
  0.00000000D+00  0.00000000D+00  0.00000000D+00 -0.40330632D-01 -0.31129682D-01
 -0.13214953D-01  0.54154416D-02  0.00000000D+00  0.00000000D+00 -0.30065088D-02
 -0.15162386D-02 -0.15162386D-02  0.22727543D-02  0.00000000D+00  0.00000000D+00
  0.00000000D+00
MO    3     MO 0.0        OCC NO =    2.0000000  ORB. ENERGY =   -0.984677
 -0.15210405D-01 -0.27828426D-01 -0.43829311D-01 -0.53733060D-01 -0.42917790D-01
 -0.13699831D-01 -0.11603841D-02 -0.23818424D-02  0.28382847D-02  0.00000000D+00
  0.00000000D+00  0.00000000D+00  0.00000000D+00  0.00000000D+00  0.00000000D+00
  0.13312902D-02  0.41244540D-02  0.20551909D-02  0.35377557D-03  0.00000000D+00
  0.00000000D+00 -0.15156495D-03 -0.41467496D-03 -0.41467496D-03 -0.14988908D-05
  0.00000000D+00  0.00000000D+00  0.00000000D+00 -0.23410579D+00 -0.43187825D+00
 -0.69953011D+00 -0.92196314D+00 -0.79145722D+00 -0.26902532D+00 -0.38876593D+00
 -0.17463107D+00  0.51739651D+00  0.00000000D+00  0.00000000D+00  0.00000000D+00
  0.00000000D+00  0.00000000D+00  0.00000000D+00 -0.12530083D+00 -0.96714946D-01
 -0.41056748D-01  0.17480774D+00  0.00000000D+00  0.00000000D+00 -0.12000852D-01
  0.71051796D-02  0.71051796D-02  0.20477301D-01  0.00000000D+00  0.00000000D+00
  0.00000000D+00
MO    4     MO 0.0        OCC NO =    2.0000000  ORB. ENERGY =   -0.277458
  0.21682997D-01  0.39670455D-01  0.62480310D-01  0.76598472D-01  0.61180903D-01
  0.19529617D-01  0.80133799D-02  0.16448526D-01 -0.19600625D-01  0.00000000D+00
  0.00000000D+00  0.00000000D+00  0.00000000D+00  0.00000000D+00  0.00000000D+00
 -0.63060853D-02 -0.19536806D-01 -0.97350743D-02  0.56709211D-02  0.00000000D+00
  0.00000000D+00  0.34032137D-02 -0.81479194D-03 -0.81479194D-03  0.23075637D-02
  0.00000000D+00  0.00000000D+00  0.00000000D+00 -0.20713896D-01 -0.38212986D-01
 -0.61895069D-01 -0.81576150D-01 -0.70028865D-01 -0.23803608D-01 -0.21403764D-01
 -0.96144280D-02  0.28485604D-01  0.00000000D+00  0.00000000D+00  0.00000000D+00
  0.00000000D+00  0.00000000D+00  0.00000000D+00  0.28788041D+01  0.22220395D+01
  0.94328454D+00  0.36570752D-01  0.00000000D+00  0.00000000D+00  0.18820207D+00
 -0.43784769D-02 -0.43784769D-02 -0.36800954D-01  0.00000000D+00  0.00000000D+00
  0.00000000D+00
MO    5     MO 0.0        OCC NO =    2.0000000  ORB. ENERGY =   -0.264014
  0.00000000D+00  0.00000000D+00  0.00000000D+00  0.00000000D+00  0.00000000D+00
  0.00000000D+00 -0.00000000D+00 -0.00000000D+00  0.00000000D+00  0.00000000D+00
  0.00000000D+00  0.00000000D+00  0.70601342D-02  0.21872916D-01  0.10899144D-01
  0.00000000D+00  0.00000000D+00  0.00000000D+00  0.00000000D+00  0.00000000D+00
 -0.28113682D-03  0.00000000D+00  0.00000000D+00  0.00000000D+00  0.00000000D+00
  0.00000000D+00  0.00000000D+00  0.92994121D-02  0.00000000D+00  0.00000000D+00
  0.00000000D+00  0.00000000D+00  0.00000000D+00  0.00000000D+00 -0.00000000D+00
 -0.00000000D+00  0.00000000D+00  0.00000000D+00  0.00000000D+00  0.00000000D+00
  0.28534119D+01  0.22024402D+01  0.93496440D+00  0.00000000D+00  0.00000000D+00
  0.00000000D+00  0.00000000D+00  0.00000000D+00  0.17443758D+00  0.00000000D+00
  0.00000000D+00  0.00000000D+00  0.00000000D+00  0.00000000D+00  0.00000000D+00
 -0.20511473D-01
MO    6     MO 0.0        OCC NO =    2.0000000  ORB. ENERGY =   -0.264014
  0.00000000D+00  0.00000000D+00  0.00000000D+00  0.00000000D+00  0.00000000D+00
  0.00000000D+00 -0.00000000D+00 -0.00000000D+00  0.00000000D+00  0.70601342D-02
  0.21872916D-01  0.10899144D-01  0.00000000D+00  0.00000000D+00  0.00000000D+00
  0.00000000D+00  0.00000000D+00  0.00000000D+00  0.00000000D+00 -0.28113682D-03
  0.00000000D+00  0.00000000D+00  0.00000000D+00  0.00000000D+00  0.00000000D+00
  0.00000000D+00  0.92994121D-02  0.00000000D+00  0.00000000D+00  0.00000000D+00
  0.00000000D+00  0.00000000D+00  0.00000000D+00  0.00000000D+00 -0.00000000D+00
 -0.00000000D+00  0.00000000D+00  0.28534119D+01  0.22024402D+01  0.93496440D+00
  0.00000000D+00  0.00000000D+00  0.00000000D+00  0.00000000D+00  0.00000000D+00
  0.00000000D+00  0.00000000D+00  0.17443758D+00  0.00000000D+00  0.00000000D+00
  0.00000000D+00  0.00000000D+00  0.00000000D+00  0.00000000D+00 -0.20511473D-01
  0.00000000D+00
END DATA
 THE  HF ENERGY =   -107.417599821198 THE VIRIAL(-V/T)=   2.00706763
