 Entering Gaussian System, Link 0=/programs/64bit/g09/g09-gfortran/bin/g09
 Input=LiF.com
 Output=LiF.log
 Initial command:
 /programs/64bit/g09/g09-gfortran/bin/l1.exe /home/ospite/Desktop/MMfP/Project8/gaussian_simulations/Gau-6489.inp -scrdir=/home/ospite/Desktop/MMfP/Project8/gaussian_simulations/
 Entering Link 1 = /programs/64bit/g09/g09-gfortran/bin/l1.exe PID=      6490.
  
 Copyright (c) 1988,1990,1992,1993,1995,1998,2003,2009, Gaussian, Inc.
                  All Rights Reserved.
  
 This is part of the Gaussian(R) 09 program.  It is based on
 the Gaussian(R) 03 system (copyright 2003, Gaussian, Inc.),
 the Gaussian(R) 98 system (copyright 1998, Gaussian, Inc.),
 the Gaussian(R) 94 system (copyright 1995, Gaussian, Inc.),
 the Gaussian 92(TM) system (copyright 1992, Gaussian, Inc.),
 the Gaussian 90(TM) system (copyright 1990, Gaussian, Inc.),
 the Gaussian 88(TM) system (copyright 1988, Gaussian, Inc.),
 the Gaussian 86(TM) system (copyright 1986, Carnegie Mellon
 University), and the Gaussian 82(TM) system (copyright 1983,
 Carnegie Mellon University). Gaussian is a federally registered
 trademark of Gaussian, Inc.
  
 This software contains proprietary and confidential information,
 including trade secrets, belonging to Gaussian, Inc.
  
 This software is provided under written license and may be
 used, copied, transmitted, or stored only in accord with that
 written license.
  
 The following legend is applicable only to US Government
 contracts under FAR:
  
                    RESTRICTED RIGHTS LEGEND
  
 Use, reproduction and disclosure by the US Government is
 subject to restrictions as set forth in subparagraphs (a)
 and (c) of the Commercial Computer Software - Restricted
 Rights clause in FAR 52.227-19.
  
 Gaussian, Inc.
 340 Quinnipiac St., Bldg. 40, Wallingford CT 06492
  
  
 ---------------------------------------------------------------
 Warning -- This program may not be used in any manner that
 competes with the business of Gaussian, Inc. or will provide
 assistance to any competitor of Gaussian, Inc.  The licensee
 of this program is prohibited from giving any competitor of
 Gaussian, Inc. access to this program.  By using this program,
 the user acknowledges that Gaussian, Inc. is engaged in the
 business of creating and licensing software in the field of
 computational chemistry and represents and warrants to the
 licensee that it is not a competitor of Gaussian, Inc. and that
 it will not use this program in any manner prohibited above.
 ---------------------------------------------------------------
  

 Cite this work as:
 Gaussian 09, Revision A.02,
 M. J. Frisch, G. W. Trucks, H. B. Schlegel, G. E. Scuseria, 
 M. A. Robb, J. R. Cheeseman, G. Scalmani, V. Barone, B. Mennucci, 
 G. A. Petersson, H. Nakatsuji, M. Caricato, X. Li, H. P. Hratchian, 
 A. F. Izmaylov, J. Bloino, G. Zheng, J. L. Sonnenberg, M. Hada, 
 M. Ehara, K. Toyota, R. Fukuda, J. Hasegawa, M. Ishida, T. Nakajima, 
 Y. Honda, O. Kitao, H. Nakai, T. Vreven, J. A. Montgomery, Jr., 
 J. E. Peralta, F. Ogliaro, M. Bearpark, J. J. Heyd, E. Brothers, 
 K. N. Kudin, V. N. Staroverov, R. Kobayashi, J. Normand, 
 K. Raghavachari, A. Rendell, J. C. Burant, S. S. Iyengar, J. Tomasi, 
 M. Cossi, N. Rega, J. M. Millam, M. Klene, J. E. Knox, J. B. Cross, 
 V. Bakken, C. Adamo, J. Jaramillo, R. Gomperts, R. E. Stratmann, 
 O. Yazyev, A. J. Austin, R. Cammi, C. Pomelli, J. W. Ochterski, 
 R. L. Martin, K. Morokuma, V. G. Zakrzewski, G. A. Voth, 
 P. Salvador, J. J. Dannenberg, S. Dapprich, A. D. Daniels, 
 O. Farkas, J. B. Foresman, J. V. Ortiz, J. Cioslowski, 
 and D. J. Fox, Gaussian, Inc., Wallingford CT, 2009.
 
 ******************************************
 Gaussian 09:  EM64L-G09RevA.02 11-Jun-2009
                20-Aug-2024 
 ******************************************
 %mem=100MB
 ---------------------------------------------
 #p B3LYP/6-31g(d,p) opt freq pop=full gfinput
 ---------------------------------------------
 1/14=-1,18=20,19=15,26=3,38=1/1,3;
 2/9=110,12=2,17=6,18=5,40=1/2;
 3/5=1,6=6,7=101,11=2,16=1,24=10,25=1,30=1,71=1,74=-5/1,2,3;
 4//1;
 5/5=2,38=5/2;
 6/7=3,28=1/1;
 7//1,2,3,16;
 1/14=-1,18=20,19=15/3(2);
 2/9=110/2;
 99//99;
 2/9=110/2;
 3/5=1,6=6,7=101,11=2,16=1,25=1,30=1,71=1,74=-5/1,2,3;
 4/5=5,16=3/1;
 5/5=2,38=5/2;
 7//1,2,3,16;
 1/14=-1,18=20,19=15/3(-5);
 2/9=110/2;
 6/7=3,19=2,28=1/1;
 99/9=1/99;
 Leave Link    1 at Tue Aug 20 22:45:48 2024, MaxMem=   13107200 cpu:       0.1
 (Enter /programs/64bit/g09/g09-gfortran/bin/l101.exe)
 --
 H2
 --
 Symbolic Z-matrix:
 Charge =  0 Multiplicity = 1
 li
 f                    1    fli2
       Variables:
  fli2                  1.97                     
 
 NAtoms=      2 NQM=      2 NQMF=      0 NMic=      0 NMicF=      0 NTot=      2.
                    Isotopes and Nuclear Properties:
 (Nuclear quadrupole moments (NQMom) in fm**2, nuclear magnetic moments (NMagM)
  in nuclear magnetons)

  Atom         1           2
 IAtWgt=           7          19
 AtmWgt=   7.0160045  18.9984032
 NucSpn=           3           1
 AtZEff=   0.0000000   0.0000000
 NQMom=   -4.0100000   0.0000000
 NMagM=    3.2564240   2.6288670
 Leave Link  101 at Tue Aug 20 22:45:49 2024, MaxMem=   13107200 cpu:       0.1
 (Enter /programs/64bit/g09/g09-gfortran/bin/l103.exe)

 GradGradGradGradGradGradGradGradGradGradGradGradGradGradGradGradGradGrad
 Berny optimization.
 Initialization pass.
                           ----------------------------
                           !    Initial Parameters    !
                           ! (Angstroms and Degrees)  !
 --------------------------                            --------------------------
 ! Name  Definition              Value          Derivative Info.                !
 --------------------------------------------------------------------------------
 ! R1    R(1,2)                  1.97           estimate D2E/DX2                !
 --------------------------------------------------------------------------------
 Trust Radius=3.00D-01 FncErr=1.00D-07 GrdErr=1.00D-06
 Number of steps in this run=  20 maximum allowed number of steps= 100.
 GradGradGradGradGradGradGradGradGradGradGradGradGradGradGradGradGradGrad

 Leave Link  103 at Tue Aug 20 22:45:49 2024, MaxMem=   13107200 cpu:       0.0
 (Enter /programs/64bit/g09/g09-gfortran/bin/l202.exe)
                          Input orientation:                          
 ---------------------------------------------------------------------
 Center     Atomic      Atomic             Coordinates (Angstroms)
 Number     Number       Type             X           Y           Z
 ---------------------------------------------------------------------
      1          3           0        0.000000    0.000000    0.000000
      2          9           0        0.000000    0.000000    1.970000
 ---------------------------------------------------------------------
 Stoichiometry    FLi
 Framework group  C*V[C*(LiF)]
 Deg. of freedom     1
 Full point group                 C*V     NOp   4
 Largest Abelian subgroup         C2V     NOp   4
 Largest concise Abelian subgroup C1      NOp   1
                         Standard orientation:                         
 ---------------------------------------------------------------------
 Center     Atomic      Atomic             Coordinates (Angstroms)
 Number     Number       Type             X           Y           Z
 ---------------------------------------------------------------------
      1          3           0        0.000000    0.000000   -1.477500
      2          9           0        0.000000    0.000000    0.492500
 ---------------------------------------------------------------------
 Rotational constants (GHZ):      0.0000000     25.4150944     25.4150944
 Leave Link  202 at Tue Aug 20 22:45:49 2024, MaxMem=   13107200 cpu:       0.0
 (Enter /programs/64bit/g09/g09-gfortran/bin/l301.exe)
 Standard basis: 6-31G(d,p) (6D, 7F)
 Ernie: Thresh=  0.10000D-02 Tol=  0.10000D-05 Strict=F.
 AO basis set in the form of general basis input (Overlap normalization):
      1 0
 S   6 1.00       0.000000000000
      0.6424189150D+03  0.2142607810D-02
      0.9679851530D+02  0.1620887150D-01
      0.2209112120D+02  0.7731557250D-01
      0.6201070250D+01  0.2457860520D+00
      0.1935117680D+01  0.4701890040D+00
      0.6367357890D+00  0.3454708450D+00
 SP   3 1.00       0.000000000000
      0.2324918408D+01 -0.3509174574D-01  0.8941508043D-02
      0.6324303556D+00 -0.1912328431D+00  0.1410094640D+00
      0.7905343475D-01  0.1083987795D+01  0.9453636953D+00
 SP   1 1.00       0.000000000000
      0.3596197175D-01  0.1000000000D+01  0.1000000000D+01
 D   1 1.00       0.000000000000
      0.2000000000D+00  0.1000000000D+01
 ****
      2 0
 S   6 1.00       0.000000000000
      0.7001713090D+04  0.1819616901D-02
      0.1051366090D+04  0.1391607961D-01
      0.2392856900D+03  0.6840532453D-01
      0.6739744530D+02  0.2331857601D+00
      0.2151995730D+02  0.4712674392D+00
      0.7403101300D+01  0.3566185462D+00
 SP   3 1.00       0.000000000000
      0.2084795280D+02 -0.1085069751D+00  0.7162872424D-01
      0.4808308340D+01 -0.1464516581D+00  0.3459121027D+00
      0.1344069860D+01  0.1128688581D+01  0.7224699564D+00
 SP   1 1.00       0.000000000000
      0.3581513930D+00  0.1000000000D+01  0.1000000000D+01
 D   1 1.00       0.000000000000
      0.8000000000D+00  0.1000000000D+01
 ****

 There are    16 symmetry adapted basis functions of A1  symmetry.
 There are     2 symmetry adapted basis functions of A2  symmetry.
 There are     6 symmetry adapted basis functions of B1  symmetry.
 There are     6 symmetry adapted basis functions of B2  symmetry.
 Integral buffers will be    131072 words long.
 Raffenetti 2 integral format.
 Two-electron integral symmetry is turned on.
    30 basis functions,    56 primitive gaussians,    30 cartesian basis functions
     6 alpha electrons        6 beta electrons
       nuclear repulsion energy         7.2526825543 Hartrees.
 IExCor=  402 DFT=T Ex+Corr=B3LYP ExCW=0 ScaHFX=  0.200000
 ScaDFX=  0.800000  0.720000  1.000000  0.810000 ScalE2=  1.000000  1.000000
 IRadAn=      0 IRanWt=     -1 IRanGd=            0 ICorTp=0
 NAtoms=    2 NActive=    2 NUniq=    2 SFac= 7.50D-01 NAtFMM=   80 NAOKFM=F Big=F
 Leave Link  301 at Tue Aug 20 22:45:49 2024, MaxMem=   13107200 cpu:       0.1
 (Enter /programs/64bit/g09/g09-gfortran/bin/l302.exe)
 NPDir=0 NMtPBC=     1 NCelOv=     1 NCel=       1 NClECP=     1 NCelD=      1
         NCelK=      1 NCelE2=     1 NClLst=     1 CellRange=     0.0.
 One-electron integrals computed using PRISM.
 NBasis=    30 RedAO= T  NBF=    16     2     6     6
 NBsUse=    30 1.00D-06 NBFU=    16     2     6     6
 Precomputing XC quadrature grid using
 IXCGrd= 2 IRadAn=           0 IRanWt=          -1 IRanGd=           0 AccXCQ= 1.00D-10.
 NRdTot=     123 NPtTot=       15508 NUsed=       16408 NTot=       16440
 NSgBfM=    30    30    30    30    30 NAtAll=     2     2.
 Leave Link  302 at Tue Aug 20 22:45:49 2024, MaxMem=   13107200 cpu:       0.2
 (Enter /programs/64bit/g09/g09-gfortran/bin/l303.exe)
 DipDrv:  MaxL=1.
 Leave Link  303 at Tue Aug 20 22:45:49 2024, MaxMem=   13107200 cpu:       0.0
 (Enter /programs/64bit/g09/g09-gfortran/bin/l401.exe)
 Harris functional with IExCor=  402 diagonalized for initial guess.
 ExpMin= 3.60D-02 ExpMax= 7.00D+03 ExpMxC= 1.05D+03 IAcc=3 IRadAn=         0 AccDes= 0.00D+00
 HarFok:  IExCor=  402 AccDes= 0.00D+00 IRadAn=         0 IDoV= 1
 ScaDFX=  1.000000  1.000000  1.000000  1.000000
 FoFCou: FMM=F IPFlag=           0 FMFlag=      100000 FMFlg1=           0
         NFxFlg=           0 DoJE=T BraDBF=F KetDBF=T FulRan=T
         Omega=  0.000000  0.000000  1.000000  0.000000  0.000000 ICntrl=     500 IOpCl=  0
         NMat0=    1 NMatS0=    1 NMatT0=    0 NMatD0=    1 NMtDS0=    0 NMtDT0=    0
         I1Cent=           4 NGrid=           0.
 Petite list used in FoFCou.
 Harris En= -107.488037193183    
 Initial guess orbital symmetries:
       Occupied  (SG) (SG) (SG) (SG) (PI) (PI)
       Virtual   (SG) (PI) (PI) (SG) (PI) (PI) (SG) (SG) (DLTA)
                 (DLTA) (PI) (PI) (SG) (SG) (SG) (PI) (PI) (SG)
                 (DLTA) (DLTA) (PI) (PI) (SG) (SG)
 The electronic state of the initial guess is 1-SG.
 Leave Link  401 at Tue Aug 20 22:45:50 2024, MaxMem=   13107200 cpu:       0.3
 (Enter /programs/64bit/g09/g09-gfortran/bin/l502.exe)
 Closed shell SCF:
 Requested convergence on RMS density matrix=1.00D-08 within 128 cycles.
 Requested convergence on MAX density matrix=1.00D-06.
 Requested convergence on             energy=1.00D-06.
 No special actions if energy rises.
 Using DIIS extrapolation, IDIIS=  1040.
 Integral symmetry usage will be decided dynamically.
        16377 words used for storage of precomputed grid.
 Keep R1 ints in memory in canonical form, NReq=1004546.
 IEnd=       37649 IEndB=       37649 NGot=    13107200 MDV=    12978749
 LenX=    12978749 LenY=    12977408
 Symmetry not used in FoFDir.
 MinBra= 0 MaxBra= 2 Meth= 1.
 IRaf=       0 NMat=   1 IRICut=       1 DoRegI=T DoRafI=F ISym2E= 0 JSym2E=0.

 Cycle   1  Pass 1  IDiag  1:
 E= -107.280684159199    
 DIIS: error= 6.40D-02 at cycle   1 NSaved=   1.
 NSaved= 1 IEnMin= 1 EnMin= -107.280684159199     IErMin= 1 ErrMin= 6.40D-02
 ErrMax= 6.40D-02 EMaxC= 1.00D-01 BMatC= 1.34D-01 BMatP= 1.34D-01
 IDIUse=3 WtCom= 3.60D-01 WtEn= 6.40D-01
 Coeff-Com:  0.100D+01
 Coeff-En:   0.100D+01
 Coeff:      0.100D+01
 Gap=    -0.022 Goal=   None    Shift=    0.000
 GapD=   -0.022 DampG=0.250 DampE=0.500 DampFc=0.2500 IDamp=-1.
 Damping current iteration by 2.50D-01
 RMSDP=4.28D-02 MaxDP=4.27D-01              OVMax= 7.12D-01

 Cycle   2  Pass 1  IDiag  1:
 E= -107.059152716215     Delta-E=        0.221531442984 Rises=F Damp=T
 DIIS: error= 3.73D-02 at cycle   2 NSaved=   2.
 NSaved= 2 IEnMin= 1 EnMin= -107.280684159199     IErMin= 2 ErrMin= 3.73D-02
 ErrMax= 3.73D-02 EMaxC= 1.00D-01 BMatC= 4.02D-02 BMatP= 1.34D-01
 IDIUse=3 WtCom= 6.27D-01 WtEn= 3.73D-01
 Coeff-Com:  0.339D+00 0.661D+00
 Coeff-En:   0.812D+00 0.188D+00
 Coeff:      0.515D+00 0.485D+00
 Gap=    -0.120 Goal=   None    Shift=    0.000
 RMSDP=1.20D-02 MaxDP=7.66D-02 DE= 2.22D-01 OVMax= 9.13D-01

 Cycle   3  Pass 1  IDiag  1:
 E= -107.381507992277     Delta-E=       -0.322355276062 Rises=F Damp=F
 DIIS: error= 7.06D-03 at cycle   3 NSaved=   3.
 NSaved= 3 IEnMin= 3 EnMin= -107.381507992277     IErMin= 3 ErrMin= 7.06D-03
 ErrMax= 7.06D-03 EMaxC= 1.00D-01 BMatC= 1.90D-03 BMatP= 4.02D-02
 IDIUse=3 WtCom= 9.29D-01 WtEn= 7.06D-02
 Coeff-Com:  0.478D-02 0.155D+00 0.840D+00
 Coeff-En:   0.000D+00 0.000D+00 0.100D+01
 Coeff:      0.444D-02 0.144D+00 0.851D+00
 Gap=     0.173 Goal=   None    Shift=    0.000
 RMSDP=2.59D-03 MaxDP=1.93D-02 DE=-3.22D-01 OVMax= 2.62D-02

 Cycle   4  Pass 1  IDiag  1:
 E= -107.385257480240     Delta-E=       -0.003749487963 Rises=F Damp=F
 DIIS: error= 4.34D-03 at cycle   4 NSaved=   4.
 NSaved= 4 IEnMin= 4 EnMin= -107.385257480240     IErMin= 4 ErrMin= 4.34D-03
 ErrMax= 4.34D-03 EMaxC= 1.00D-01 BMatC= 8.61D-04 BMatP= 1.90D-03
 IDIUse=3 WtCom= 9.57D-01 WtEn= 4.34D-02
 Coeff-Com: -0.531D-01 0.504D-01-0.165D+00 0.117D+01
 Coeff-En:   0.000D+00 0.000D+00 0.000D+00 0.100D+01
 Coeff:     -0.508D-01 0.482D-01-0.158D+00 0.116D+01
 Gap=     0.168 Goal=   None    Shift=    0.000
 RMSDP=5.40D-04 MaxDP=3.78D-03 DE=-3.75D-03 OVMax= 8.10D-03

 Cycle   5  Pass 1  IDiag  1:
 E= -107.385917581830     Delta-E=       -0.000660101589 Rises=F Damp=F
 DIIS: error= 2.73D-03 at cycle   5 NSaved=   5.
 NSaved= 5 IEnMin= 5 EnMin= -107.385917581830     IErMin= 5 ErrMin= 2.73D-03
 ErrMax= 2.73D-03 EMaxC= 1.00D-01 BMatC= 3.50D-04 BMatP= 8.61D-04
 IDIUse=3 WtCom= 9.73D-01 WtEn= 2.73D-02
 Coeff-Com: -0.353D-01 0.249D-01-0.621D-01-0.691D-01 0.114D+01
 Coeff-En:   0.000D+00 0.000D+00 0.000D+00 0.000D+00 0.100D+01
 Coeff:     -0.343D-01 0.242D-01-0.604D-01-0.672D-01 0.114D+01
 Gap=     0.165 Goal=   None    Shift=    0.000
 RMSDP=2.67D-04 MaxDP=2.16D-03 DE=-6.60D-04 OVMax= 3.51D-03

 Cycle   6  Pass 1  IDiag  1:
 E= -107.386124260040     Delta-E=       -0.000206678211 Rises=F Damp=F
 DIIS: error= 1.74D-03 at cycle   6 NSaved=   6.
 NSaved= 6 IEnMin= 6 EnMin= -107.386124260040     IErMin= 6 ErrMin= 1.74D-03
 ErrMax= 1.74D-03 EMaxC= 1.00D-01 BMatC= 1.33D-04 BMatP= 3.50D-04
 IDIUse=3 WtCom= 9.83D-01 WtEn= 1.74D-02
 Coeff-Com: -0.109D-01 0.510D-02 0.155D-01-0.263D+00-0.349D+00 0.160D+01
 Coeff-En:   0.000D+00 0.000D+00 0.000D+00 0.000D+00 0.000D+00 0.100D+01
 Coeff:     -0.107D-01 0.501D-02 0.152D-01-0.258D+00-0.343D+00 0.159D+01
 Gap=     0.161 Goal=   None    Shift=    0.000
 RMSDP=2.88D-04 MaxDP=2.42D-03 DE=-2.07D-04 OVMax= 3.65D-03

 Cycle   7  Pass 1  IDiag  1:
 E= -107.386233648003     Delta-E=       -0.000109387962 Rises=F Damp=F
 DIIS: error= 4.12D-04 at cycle   7 NSaved=   7.
 NSaved= 7 IEnMin= 7 EnMin= -107.386233648003     IErMin= 7 ErrMin= 4.12D-04
 ErrMax= 4.12D-04 EMaxC= 1.00D-01 BMatC= 7.67D-06 BMatP= 1.33D-04
 IDIUse=3 WtCom= 9.96D-01 WtEn= 4.12D-03
 Coeff-Com: -0.128D-03-0.258D-05 0.697D-04 0.151D-01-0.108D+00-0.161D+00
 Coeff-Com:  0.125D+01
 Coeff-En:   0.000D+00 0.000D+00 0.000D+00 0.000D+00 0.000D+00 0.000D+00
 Coeff-En:   0.100D+01
 Coeff:     -0.128D-03-0.257D-05 0.694D-04 0.150D-01-0.107D+00-0.160D+00
 Coeff:      0.125D+01
 Gap=     0.159 Goal=   None    Shift=    0.000
 RMSDP=9.27D-05 MaxDP=7.83D-04 DE=-1.09D-04 OVMax= 1.07D-03

 Cycle   8  Pass 1  IDiag  1:
 E= -107.386240103186     Delta-E=       -0.000006455184 Rises=F Damp=F
 DIIS: error= 7.62D-06 at cycle   8 NSaved=   8.
 NSaved= 8 IEnMin= 8 EnMin= -107.386240103186     IErMin= 8 ErrMin= 7.62D-06
 ErrMax= 7.62D-06 EMaxC= 1.00D-01 BMatC= 2.30D-09 BMatP= 7.67D-06
 IDIUse=1 WtCom= 1.00D+00 WtEn= 0.00D+00
 Coeff-Com:  0.132D-04-0.254D-04-0.211D-03 0.796D-03 0.114D-01 0.127D-02
 Coeff-Com: -0.110D+00 0.110D+01
 Coeff:      0.132D-04-0.254D-04-0.211D-03 0.796D-03 0.114D-01 0.127D-02
 Coeff:     -0.110D+00 0.110D+01
 Gap=     0.159 Goal=   None    Shift=    0.000
 RMSDP=3.21D-06 MaxDP=2.11D-05 DE=-6.46D-06 OVMax= 2.38D-05

 Cycle   9  Pass 1  IDiag  1:
 E= -107.386240104877     Delta-E=       -0.000000001691 Rises=F Damp=F
 DIIS: error= 2.13D-06 at cycle   9 NSaved=   9.
 NSaved= 9 IEnMin= 9 EnMin= -107.386240104877     IErMin= 9 ErrMin= 2.13D-06
 ErrMax= 2.13D-06 EMaxC= 1.00D-01 BMatC= 2.12D-10 BMatP= 2.30D-09
 IDIUse=1 WtCom= 1.00D+00 WtEn= 0.00D+00
 Coeff-Com: -0.107D-05 0.128D-05 0.731D-05-0.144D-03-0.171D-03 0.650D-03
 Coeff-Com:  0.755D-02-0.100D+00 0.109D+01
 Coeff:     -0.107D-05 0.128D-05 0.731D-05-0.144D-03-0.171D-03 0.650D-03
 Coeff:      0.755D-02-0.100D+00 0.109D+01
 Gap=     0.159 Goal=   None    Shift=    0.000
 RMSDP=4.76D-07 MaxDP=4.59D-06 DE=-1.69D-09 OVMax= 7.53D-06

 Cycle  10  Pass 1  IDiag  1:
 E= -107.386240105060     Delta-E=       -0.000000000183 Rises=F Damp=F
 DIIS: error= 9.14D-08 at cycle  10 NSaved=  10.
 NSaved=10 IEnMin=10 EnMin= -107.386240105060     IErMin=10 ErrMin= 9.14D-08
 ErrMax= 9.14D-08 EMaxC= 1.00D-01 BMatC= 4.10D-13 BMatP= 2.12D-10
 IDIUse=1 WtCom= 1.00D+00 WtEn= 0.00D+00
 Coeff-Com:  0.276D-07 0.215D-06-0.317D-06 0.215D-04-0.499D-04-0.152D-03
 Coeff-Com: -0.457D-03 0.740D-02-0.156D+00 0.115D+01
 Coeff:      0.276D-07 0.215D-06-0.317D-06 0.215D-04-0.499D-04-0.152D-03
 Coeff:     -0.457D-03 0.740D-02-0.156D+00 0.115D+01
 Gap=     0.159 Goal=   None    Shift=    0.000
 RMSDP=1.86D-08 MaxDP=1.18D-07 DE=-1.83D-10 OVMax= 2.96D-07

 Cycle  11  Pass 1  IDiag  1:
 E= -107.386240105061     Delta-E=       -0.000000000000 Rises=F Damp=F
 DIIS: error= 1.56D-08 at cycle  11 NSaved=  11.
 NSaved=11 IEnMin=11 EnMin= -107.386240105061     IErMin=11 ErrMin= 1.56D-08
 ErrMax= 1.56D-08 EMaxC= 1.00D-01 BMatC= 1.19D-14 BMatP= 4.10D-13
 IDIUse=1 WtCom= 1.00D+00 WtEn= 0.00D+00
 Coeff-Com: -0.145D-07 0.790D-09-0.472D-07-0.150D-05 0.539D-05 0.728D-05
 Coeff-Com: -0.142D-05-0.129D-03 0.111D-01-0.133D+00 0.112D+01
 Coeff:     -0.145D-07 0.790D-09-0.472D-07-0.150D-05 0.539D-05 0.728D-05
 Coeff:     -0.142D-05-0.129D-03 0.111D-01-0.133D+00 0.112D+01
 Gap=     0.159 Goal=   None    Shift=    0.000
 RMSDP=3.25D-09 MaxDP=2.32D-08 DE=-3.55D-13 OVMax= 5.05D-08

 SCF Done:  E(RB3LYP) =  -107.386240105     A.U. after   11 cycles
             Convg  =    0.3250D-08             -V/T =  2.0086
 KE= 1.064661527898D+02 PE=-2.722178809830D+02 EE= 5.111280553391D+01
 Leave Link  502 at Tue Aug 20 22:45:51 2024, MaxMem=   13107200 cpu:       1.1
 (Enter /programs/64bit/g09/g09-gfortran/bin/l601.exe)
 Copying SCF densities to generalized density rwf, IOpCl= 0 IROHF=0.

 **********************************************************************

            Population analysis using the SCF density.

 **********************************************************************

 Orbital symmetries:
       Occupied  (SG) (SG) (SG) (SG) (PI) (PI)
       Virtual   (SG) (PI) (PI) (SG) (SG) (PI) (PI) (SG) (DLTA)
                 (DLTA) (PI) (PI) (SG) (SG) (SG) (PI) (PI) (SG)
                 (DLTA) (DLTA) (PI) (PI) (SG) (SG)
 The electronic state is 1-SG.
 Alpha  occ. eigenvalues --  -24.50289  -2.03922  -0.94168  -0.23932  -0.22085
 Alpha  occ. eigenvalues --   -0.22085
 Alpha virt. eigenvalues --   -0.06152   0.00992   0.00992   0.05486   0.11713
 Alpha virt. eigenvalues --    0.12608   0.12608   0.22323   0.45878   0.45881
 Alpha virt. eigenvalues --    0.49932   0.49932   0.61821   1.10281   1.30622
 Alpha virt. eigenvalues --    1.41446   1.41446   1.82224   2.01784   2.01786
 Alpha virt. eigenvalues --    2.08026   2.08026   2.09227   4.03903
     Molecular Orbital Coefficients:
                           1         2         3         4         5
                           O         O         O         O         O
     Eigenvalues --   -24.50289  -2.03922  -0.94168  -0.23932  -0.22085
   1 1   Li 1S         -0.00007   0.99822  -0.02205   0.05259   0.00000
   2        2S         -0.00081   0.05442   0.02721  -0.33129   0.00000
   3        2PX         0.00000   0.00000   0.00000   0.00000   0.00000
   4        2PY         0.00000   0.00000   0.00000   0.00000   0.13769
   5        2PZ        -0.00076  -0.01129   0.02970  -0.24335   0.00000
   6        3S         -0.00012  -0.02483   0.00693   0.10344   0.00000
   7        3PX         0.00000   0.00000   0.00000   0.00000   0.00000
   8        3PY         0.00000   0.00000   0.00000   0.00000   0.03894
   9        3PZ        -0.00006   0.00713   0.00045   0.16988   0.00000
  10        4XX         0.00029  -0.00596  -0.00627   0.03264   0.00000
  11        4YY         0.00029  -0.00596  -0.00627   0.03264   0.00000
  12        4ZZ        -0.00020  -0.00890   0.00387   0.01051   0.00000
  13        4XY         0.00000   0.00000   0.00000   0.00000   0.00000
  14        4XZ         0.00000   0.00000   0.00000   0.00000   0.00000
  15        4YZ         0.00000   0.00000   0.00000   0.00000   0.05055
  16 2   F  1S          0.99297  -0.00121  -0.23674  -0.02190   0.00000
  17        2S          0.01904   0.00042   0.51496   0.01061   0.00000
  18        2PX         0.00000   0.00000   0.00000   0.00000   0.00000
  19        2PY         0.00000   0.00000   0.00000   0.00000   0.63180
  20        2PZ        -0.00016  -0.00139  -0.01795   0.61555   0.00000
  21        3S          0.01641   0.00605   0.53886   0.16831   0.00000
  22        3PX         0.00000   0.00000   0.00000   0.00000   0.00000
  23        3PY         0.00000   0.00000   0.00000   0.00000   0.46428
  24        3PZ        -0.00031  -0.00338  -0.01385   0.44018   0.00000
  25        4XX        -0.00834  -0.00126   0.00530  -0.01506   0.00000
  26        4YY        -0.00834  -0.00126   0.00530  -0.01506   0.00000
  27        4ZZ        -0.00826   0.00074   0.01135  -0.03185   0.00000
  28        4XY         0.00000   0.00000   0.00000   0.00000   0.00000
  29        4XZ         0.00000   0.00000   0.00000   0.00000   0.00000
  30        4YZ         0.00000   0.00000   0.00000   0.00000  -0.00660
                           6         7         8         9        10
                           O         V         V         V         V
     Eigenvalues --    -0.22085  -0.06152   0.00992   0.00992   0.05486
   1 1   Li 1S          0.00000  -0.17594   0.00000   0.00000  -0.07016
   2        2S          0.00000   0.10773   0.00000   0.00000   0.26099
   3        2PX         0.13769   0.00000   0.00000   0.30072   0.00000
   4        2PY         0.00000   0.00000   0.30072   0.00000   0.00000
   5        2PZ         0.00000  -0.27859   0.00000   0.00000  -0.20872
   6        3S          0.00000   0.80644   0.00000   0.00000   0.20565
   7        3PX         0.03894   0.00000   0.00000   0.73583   0.00000
   8        3PY         0.00000   0.00000   0.73583   0.00000   0.00000
   9        3PZ         0.00000  -0.16294   0.00000   0.00000   1.14746
  10        4XX         0.00000   0.01449   0.00000   0.00000   0.02173
  11        4YY         0.00000   0.01449   0.00000   0.00000   0.02173
  12        4ZZ         0.00000  -0.00675   0.00000   0.00000  -0.08833
  13        4XY         0.00000   0.00000   0.00000   0.00000   0.00000
  14        4XZ         0.05055   0.00000   0.00000  -0.05231   0.00000
  15        4YZ         0.00000   0.00000  -0.05231   0.00000   0.00000
  16 2   F  1S          0.00000   0.00960   0.00000   0.00000   0.05017
  17        2S          0.00000  -0.02575   0.00000   0.00000  -0.03374
  18        2PX         0.63180   0.00000   0.00000  -0.15241   0.00000
  19        2PY         0.00000   0.00000  -0.15241   0.00000   0.00000
  20        2PZ         0.00000   0.08438   0.00000   0.00000   0.03589
  21        3S          0.00000  -0.03043   0.00000   0.00000  -0.41612
  22        3PX         0.46428   0.00000   0.00000  -0.14251   0.00000
  23        3PY         0.00000   0.00000  -0.14251   0.00000   0.00000
  24        3PZ         0.00000   0.06786   0.00000   0.00000  -0.00863
  25        4XX         0.00000   0.00053   0.00000   0.00000   0.04142
  26        4YY         0.00000   0.00053   0.00000   0.00000   0.04142
  27        4ZZ         0.00000  -0.00352   0.00000   0.00000   0.04382
  28        4XY         0.00000   0.00000   0.00000   0.00000   0.00000
  29        4XZ        -0.00660   0.00000   0.00000  -0.00279   0.00000
  30        4YZ         0.00000   0.00000  -0.00279   0.00000   0.00000
                          11        12        13        14        15
                           V         V         V         V         V
     Eigenvalues --     0.11713   0.12608   0.12608   0.22323   0.45878
   1 1   Li 1S          0.07911   0.00000   0.00000   0.02907   0.00000
   2        2S          2.64140   0.00000   0.00000   2.07645   0.00000
   3        2PX         0.00000   0.00000   1.64321   0.00000   0.00000
   4        2PY         0.00000   1.64321   0.00000   0.00000   0.00000
   5        2PZ        -1.02568   0.00000   0.00000   1.29183   0.00000
   6        3S         -2.13592   0.00000   0.00000  -1.42381  -0.00000
   7        3PX         0.00000   0.00000  -1.50235   0.00000   0.00000
   8        3PY         0.00000  -1.50235   0.00000   0.00000   0.00000
   9        3PZ         0.69768   0.00000   0.00000  -0.99390  -0.00000
  10        4XX        -0.30707   0.00000   0.00000  -0.07382   0.86535
  11        4YY        -0.30707   0.00000   0.00000  -0.07382  -0.86535
  12        4ZZ        -0.20794   0.00000   0.00000  -0.42268  -0.00000
  13        4XY         0.00000   0.00000   0.00000   0.00000   0.00000
  14        4XZ         0.00000   0.00000  -0.05552   0.00000   0.00000
  15        4YZ         0.00000  -0.05552   0.00000   0.00000   0.00000
  16 2   F  1S         -0.02003   0.00000   0.00000   0.02490   0.00000
  17        2S          0.01777   0.00000   0.00000  -0.04972  -0.00000
  18        2PX         0.00000   0.00000  -0.05774   0.00000   0.00000
  19        2PY         0.00000  -0.05774   0.00000   0.00000   0.00000
  20        2PZ        -0.02834   0.00000   0.00000   0.25038  -0.00000
  21        3S          0.18457   0.00000   0.00000  -0.17567   0.00000
  22        3PX         0.00000   0.00000  -0.05752   0.00000   0.00000
  23        3PY         0.00000  -0.05752   0.00000   0.00000   0.00000
  24        3PZ        -0.00267   0.00000   0.00000   0.18997  -0.00000
  25        4XX        -0.01092   0.00000   0.00000   0.00040   0.01196
  26        4YY        -0.01092   0.00000   0.00000   0.00040  -0.01196
  27        4ZZ        -0.02618   0.00000   0.00000   0.02344   0.00000
  28        4XY         0.00000   0.00000   0.00000   0.00000   0.00000
  29        4XZ         0.00000   0.00000  -0.00788   0.00000   0.00000
  30        4YZ         0.00000  -0.00788   0.00000   0.00000   0.00000
                          16        17        18        19        20
                           V         V         V         V         V
     Eigenvalues --     0.45881   0.49932   0.49932   0.61821   1.10281
   1 1   Li 1S          0.00000   0.00000   0.00000  -0.00633   0.10477
   2        2S          0.00000   0.00000   0.00000   0.46918   9.33008
   3        2PX         0.00000   0.00000   0.12869   0.00000   0.00000
   4        2PY         0.00000   0.12869   0.00000   0.00000   0.00000
   5        2PZ         0.00000   0.00000   0.00000   0.87352  -0.23215
   6        3S          0.00000   0.00000   0.00000  -0.20748  -2.85862
   7        3PX         0.00000   0.00000  -0.04574   0.00000   0.00000
   8        3PY         0.00000  -0.04574   0.00000   0.00000   0.00000
   9        3PZ         0.00000   0.00000   0.00000  -0.38908   0.10811
  10        4XX         0.00000   0.00000   0.00000  -0.56190  -3.10823
  11        4YY         0.00000   0.00000   0.00000  -0.56190  -3.10823
  12        4ZZ         0.00000   0.00000   0.00000   1.27415  -3.33198
  13        4XY         0.99922   0.00000   0.00000   0.00000   0.00000
  14        4XZ         0.00000   0.00000   1.01637   0.00000   0.00000
  15        4YZ         0.00000   1.01637   0.00000   0.00000   0.00000
  16 2   F  1S          0.00000   0.00000   0.00000   0.06159  -0.01324
  17        2S          0.00000   0.00000   0.00000  -0.21466  -0.17188
  18        2PX         0.00000   0.00000  -0.18776   0.00000   0.00000
  19        2PY         0.00000  -0.18776   0.00000   0.00000   0.00000
  20        2PZ         0.00000   0.00000   0.00000   0.13308  -0.04825
  21        3S          0.00000   0.00000   0.00000  -0.52370   0.47454
  22        3PX         0.00000   0.00000  -0.14168   0.00000   0.00000
  23        3PY         0.00000  -0.14168   0.00000   0.00000   0.00000
  24        3PZ         0.00000   0.00000   0.00000   0.45967  -0.23539
  25        4XX         0.00000   0.00000   0.00000  -0.01972  -0.08441
  26        4YY         0.00000   0.00000   0.00000  -0.01972  -0.08441
  27        4ZZ         0.00000   0.00000   0.00000  -0.06541  -0.04914
  28        4XY         0.01381   0.00000   0.00000   0.00000   0.00000
  29        4XZ         0.00000   0.00000  -0.01505   0.00000   0.00000
  30        4YZ         0.00000  -0.01505   0.00000   0.00000   0.00000
                          21        22        23        24        25
                           V         V         V         V         V
     Eigenvalues --     1.30622   1.41446   1.41446   1.82224   2.01784
   1 1   Li 1S          0.03233   0.00000   0.00000  -0.02963   0.00000
   2        2S         -0.75380   0.00000   0.00000  -0.95182   0.00000
   3        2PX         0.00000  -0.17525   0.00000   0.00000   0.00000
   4        2PY         0.00000   0.00000  -0.17525   0.00000   0.00000
   5        2PZ        -0.10339   0.00000   0.00000  -1.11793   0.00000
   6        3S         -0.05791   0.00000   0.00000   0.24697   0.00000
   7        3PX         0.00000   0.00118   0.00000   0.00000   0.00000
   8        3PY         0.00000   0.00000   0.00118   0.00000   0.00000
   9        3PZ        -0.24081   0.00000   0.00000   0.38260   0.00000
  10        4XX         0.41407   0.00000   0.00000   0.35930   0.00000
  11        4YY         0.41407   0.00000   0.00000   0.35930   0.00000
  12        4ZZ         0.03794   0.00000   0.00000  -0.58361   0.00000
  13        4XY         0.00000   0.00000   0.00000   0.00000  -0.06372
  14        4XZ         0.00000  -0.28097   0.00000   0.00000   0.00000
  15        4YZ         0.00000   0.00000  -0.28097   0.00000   0.00000
  16 2   F  1S         -0.08437   0.00000   0.00000  -0.08909   0.00000
  17        2S         -1.41554   0.00000   0.00000  -1.55214   0.00000
  18        2PX         0.00000  -0.94060   0.00000   0.00000   0.00000
  19        2PY         0.00000   0.00000  -0.94060   0.00000   0.00000
  20        2PZ        -0.69965   0.00000   0.00000   0.57421   0.00000
  21        3S          2.94733   0.00000   0.00000   3.42966   0.00000
  22        3PX         0.00000   1.13741   0.00000   0.00000   0.00000
  23        3PY         0.00000   0.00000   1.13741   0.00000   0.00000
  24        3PZ         0.68850   0.00000   0.00000  -1.10724   0.00000
  25        4XX        -0.63960   0.00000   0.00000  -0.36152   0.00000
  26        4YY        -0.63960   0.00000   0.00000  -0.36152   0.00000
  27        4ZZ        -0.65870   0.00000   0.00000  -1.04942   0.00000
  28        4XY         0.00000   0.00000   0.00000   0.00000   1.00115
  29        4XZ         0.00000   0.08514   0.00000   0.00000   0.00000
  30        4YZ         0.00000   0.00000   0.08514   0.00000   0.00000
                          26        27        28        29        30
                           V         V         V         V         V
     Eigenvalues --     2.01786   2.08026   2.08026   2.09227   4.03903
   1 1   Li 1S          0.00000   0.00000   0.00000  -0.03550  -0.03521
   2        2S          0.00000   0.00000   0.00000  -0.60575  -0.65956
   3        2PX         0.00000   0.00000   0.16515   0.00000   0.00000
   4        2PY         0.00000   0.16515   0.00000   0.00000   0.00000
   5        2PZ         0.00000   0.00000   0.00000  -0.91606  -0.82943
   6        3S         -0.00000   0.00000   0.00000   0.23631   0.03484
   7        3PX         0.00000   0.00000  -0.08390   0.00000   0.00000
   8        3PY         0.00000  -0.08390   0.00000   0.00000   0.00000
   9        3PZ        -0.00000   0.00000   0.00000   0.37702   0.15073
  10        4XX        -0.05518   0.00000   0.00000   0.23294   0.26296
  11        4YY         0.05518   0.00000   0.00000   0.23294   0.26296
  12        4ZZ         0.00000   0.00000   0.00000  -0.59293  -0.42365
  13        4XY         0.00000   0.00000   0.00000   0.00000   0.00000
  14        4XZ         0.00000   0.00000   0.24307   0.00000   0.00000
  15        4YZ         0.00000   0.24307   0.00000   0.00000   0.00000
  16 2   F  1S          0.00000   0.00000   0.00000  -0.04121  -0.62017
  17        2S          0.00000   0.00000   0.00000  -0.99787  -1.46703
  18        2PX         0.00000   0.00000   0.10890   0.00000   0.00000
  19        2PY         0.00000   0.10890   0.00000   0.00000   0.00000
  20        2PZ        -0.00000   0.00000   0.00000   0.33527   0.17477
  21        3S         -0.00000   0.00000   0.00000   2.15262   6.99822
  22        3PX         0.00000   0.00000  -0.19230   0.00000   0.00000
  23        3PY         0.00000  -0.19230   0.00000   0.00000   0.00000
  24        3PZ         0.00000   0.00000   0.00000  -0.75732  -0.53987
  25        4XX         0.86702   0.00000   0.00000  -0.75377  -2.49242
  26        4YY        -0.86702   0.00000   0.00000  -0.75377  -2.49242
  27        4ZZ        -0.00000   0.00000   0.00000   0.60379  -2.33430
  28        4XY         0.00000   0.00000   0.00000   0.00000   0.00000
  29        4XZ         0.00000   0.00000   1.01693   0.00000   0.00000
  30        4YZ         0.00000   1.01693   0.00000   0.00000   0.00000
     Density Matrix:
                           1         2         3         4         5
   1 1   Li 1S          1.99940
   2        2S          0.07260   0.22691
   3        2PX         0.00000   0.00000   0.03792
   4        2PY         0.00000   0.00000   0.00000   0.03792
   5        2PZ        -0.04945   0.16163   0.00000   0.00000   0.12045
   6        3S         -0.03899  -0.07086   0.00000   0.00000  -0.04937
   7        3PX         0.00000   0.00000   0.01072   0.00000   0.00000
   8        3PY         0.00000   0.00000   0.00000   0.01072   0.00000
   9        3PZ         0.03208  -0.11176   0.00000   0.00000  -0.08281
  10        4XX        -0.00819  -0.02262   0.00000   0.00000  -0.01612
  11        4YY        -0.00819  -0.02262   0.00000   0.00000  -0.01612
  12        4ZZ        -0.01683  -0.00772   0.00000   0.00000  -0.00469
  13        4XY         0.00000   0.00000   0.00000   0.00000   0.00000
  14        4XZ         0.00000   0.00000   0.01392   0.00000   0.00000
  15        4YZ         0.00000   0.00000   0.00000   0.01392   0.00000
  16 2   F  1S          0.00559  -0.00011   0.00000   0.00000  -0.00489
  17        2S         -0.02077   0.02100   0.00000   0.00000   0.02538
  18        2PX         0.00000   0.00000   0.17399   0.00000   0.00000
  19        2PY         0.00000   0.00000   0.00000   0.17399   0.00000
  20        2PZ         0.06275  -0.40899   0.00000   0.00000  -0.30062
  21        3S          0.00602  -0.08157   0.00000   0.00000  -0.05007
  22        3PX         0.00000   0.00000   0.12786   0.00000   0.00000
  23        3PY         0.00000   0.00000   0.00000   0.12786   0.00000
  24        3PZ         0.04015  -0.29278   0.00000   0.00000  -0.21498
  25        4XX        -0.00433   0.01014   0.00000   0.00000   0.00768
  26        4YY        -0.00433   0.01014   0.00000   0.00000   0.00768
  27        4ZZ        -0.00237   0.02181   0.00000   0.00000   0.01617
  28        4XY         0.00000   0.00000   0.00000   0.00000   0.00000
  29        4XZ         0.00000   0.00000  -0.00182   0.00000   0.00000
  30        4YZ         0.00000   0.00000   0.00000  -0.00182   0.00000
                           6         7         8         9        10
   6        3S          0.02273
   7        3PX         0.00000   0.00303
   8        3PY         0.00000   0.00000   0.00303
   9        3PZ         0.03480   0.00000   0.00000   0.05782
  10        4XX         0.00696   0.00000   0.00000   0.01100   0.00228
  11        4YY         0.00696   0.00000   0.00000   0.01100   0.00228
  12        4ZZ         0.00267   0.00000   0.00000   0.00345   0.00074
  13        4XY         0.00000   0.00000   0.00000   0.00000   0.00000
  14        4XZ         0.00000   0.00394   0.00000   0.00000   0.00000
  15        4YZ         0.00000   0.00000   0.00394   0.00000   0.00000
  16 2   F  1S         -0.00800   0.00000   0.00000  -0.00780   0.00213
  17        2S          0.00931   0.00000   0.00000   0.00408  -0.00576
  18        2PX         0.00000   0.04920   0.00000   0.00000   0.00000
  19        2PY         0.00000   0.00000   0.04920   0.00000   0.00000
  20        2PZ         0.12717   0.00000   0.00000   0.20910   0.04043
  21        3S          0.04199   0.00000   0.00000   0.05776   0.00417
  22        3PX         0.00000   0.03616   0.00000   0.00000   0.00000
  23        3PY         0.00000   0.00000   0.03616   0.00000   0.00000
  24        3PZ         0.09104   0.00000   0.00000   0.14949   0.02895
  25        4XX        -0.00298   0.00000   0.00000  -0.00513  -0.00104
  26        4YY        -0.00298   0.00000   0.00000  -0.00513  -0.00104
  27        4ZZ        -0.00647   0.00000   0.00000  -0.01080  -0.00224
  28        4XY         0.00000   0.00000   0.00000   0.00000   0.00000
  29        4XZ         0.00000  -0.00051   0.00000   0.00000   0.00000
  30        4YZ         0.00000   0.00000  -0.00051   0.00000   0.00000
                          11        12        13        14        15
  11        4YY         0.00228
  12        4ZZ         0.00074   0.00041
  13        4XY         0.00000   0.00000   0.00000
  14        4XZ         0.00000   0.00000   0.00000   0.00511
  15        4YZ         0.00000   0.00000   0.00000   0.00000   0.00511
  16 2   F  1S          0.00213  -0.00267   0.00000   0.00000   0.00000
  17        2S         -0.00576   0.00419   0.00000   0.00000   0.00000
  18        2PX         0.00000   0.00000   0.00000   0.06387   0.00000
  19        2PY         0.00000   0.00000   0.00000   0.00000   0.06387
  20        2PZ         0.04043   0.01283   0.00000   0.00000   0.00000
  21        3S          0.00417   0.00759   0.00000   0.00000   0.00000
  22        3PX         0.00000   0.00000   0.00000   0.04694   0.00000
  23        3PY         0.00000   0.00000   0.00000   0.00000   0.04694
  24        3PZ         0.02895   0.00921   0.00000   0.00000   0.00000
  25        4XX        -0.00104  -0.00025   0.00000   0.00000   0.00000
  26        4YY        -0.00104  -0.00025   0.00000   0.00000   0.00000
  27        4ZZ        -0.00224  -0.00059   0.00000   0.00000   0.00000
  28        4XY         0.00000   0.00000   0.00000   0.00000   0.00000
  29        4XZ         0.00000   0.00000   0.00000  -0.00067   0.00000
  30        4YZ         0.00000   0.00000   0.00000   0.00000  -0.00067
                          16        17        18        19        20
  16 2   F  1S          2.08503
  17        2S         -0.20647   0.53132
  18        2PX         0.00000   0.00000   0.79834
  19        2PY         0.00000   0.00000   0.00000   0.79834
  20        2PZ        -0.01878  -0.00543   0.00000   0.00000   0.75846
  21        3S         -0.22993   0.55919   0.00000   0.00000   0.18784
  22        3PX         0.00000   0.00000   0.58667   0.00000   0.00000
  23        3PY         0.00000   0.00000   0.00000   0.58667   0.00000
  24        3PZ        -0.01333  -0.00494   0.00000   0.00000   0.54241
  25        4XX        -0.01840   0.00482   0.00000   0.00000  -0.01872
  26        4YY        -0.01840   0.00482   0.00000   0.00000  -0.01872
  27        4ZZ        -0.02039   0.01070   0.00000   0.00000  -0.03962
  28        4XY         0.00000   0.00000   0.00000   0.00000   0.00000
  29        4XZ         0.00000   0.00000  -0.00834   0.00000   0.00000
  30        4YZ         0.00000   0.00000   0.00000  -0.00834   0.00000
                          21        22        23        24        25
  21        3S          0.63801
  22        3PX         0.00000   0.43112
  23        3PY         0.00000   0.00000   0.43112
  24        3PZ         0.13319   0.00000   0.00000   0.38792
  25        4XX         0.00035   0.00000   0.00000  -0.01339   0.00065
  26        4YY         0.00035   0.00000   0.00000  -0.01339   0.00065
  27        4ZZ         0.00125   0.00000   0.00000  -0.02835   0.00122
  28        4XY         0.00000   0.00000   0.00000   0.00000   0.00000
  29        4XZ         0.00000  -0.00613   0.00000   0.00000   0.00000
  30        4YZ         0.00000   0.00000  -0.00613   0.00000   0.00000
                          26        27        28        29        30
  26        4YY         0.00065
  27        4ZZ         0.00122   0.00242
  28        4XY         0.00000   0.00000  -0.00000
  29        4XZ         0.00000   0.00000   0.00000   0.00009
  30        4YZ         0.00000   0.00000   0.00000   0.00000   0.00009
    Full Mulliken population analysis:
                           1         2         3         4         5
   1 1   Li 1S          1.99940
   2        2S          0.01055   0.22691
   3        2PX         0.00000   0.00000   0.03792
   4        2PY         0.00000   0.00000   0.00000   0.03792
   5        2PZ         0.00000   0.00000   0.00000   0.00000   0.12045
   6        3S         -0.00724  -0.06417   0.00000   0.00000   0.00000
   7        3PX         0.00000   0.00000   0.00860   0.00000   0.00000
   8        3PY         0.00000   0.00000   0.00000   0.00860   0.00000
   9        3PZ         0.00000   0.00000   0.00000   0.00000  -0.06642
  10        4XX        -0.00082  -0.01638   0.00000   0.00000   0.00000
  11        4YY        -0.00082  -0.01638   0.00000   0.00000   0.00000
  12        4ZZ        -0.00168  -0.00559   0.00000   0.00000   0.00000
  13        4XY         0.00000   0.00000   0.00000   0.00000   0.00000
  14        4XZ         0.00000   0.00000   0.00000   0.00000   0.00000
  15        4YZ         0.00000   0.00000   0.00000   0.00000   0.00000
  16 2   F  1S          0.00000  -0.00000   0.00000   0.00000  -0.00019
  17        2S         -0.00002   0.00264   0.00000   0.00000   0.00555
  18        2PX         0.00000   0.00000   0.00668   0.00000   0.00000
  19        2PY         0.00000   0.00000   0.00000   0.00668   0.00000
  20        2PZ        -0.00010   0.01835   0.00000   0.00000   0.01312
  21        3S          0.00011  -0.02370   0.00000   0.00000  -0.02295
  22        3PX         0.00000   0.00000   0.02630   0.00000   0.00000
  23        3PY         0.00000   0.00000   0.00000   0.02630   0.00000
  24        3PZ        -0.00235   0.06377   0.00000   0.00000   0.04046
  25        4XX        -0.00001   0.00184   0.00000   0.00000   0.00234
  26        4YY        -0.00001   0.00184   0.00000   0.00000   0.00234
  27        4ZZ        -0.00004   0.00457   0.00000   0.00000   0.00514
  28        4XY         0.00000   0.00000   0.00000   0.00000   0.00000
  29        4XZ         0.00000   0.00000   0.00010   0.00000   0.00000
  30        4YZ         0.00000   0.00000   0.00000   0.00010   0.00000
                           6         7         8         9        10
   6        3S          0.02273
   7        3PX         0.00000   0.00303
   8        3PY         0.00000   0.00000   0.00303
   9        3PZ         0.00000   0.00000   0.00000   0.05782
  10        4XX         0.00415   0.00000   0.00000   0.00000   0.00228
  11        4YY         0.00415   0.00000   0.00000   0.00000   0.00076
  12        4ZZ         0.00159   0.00000   0.00000   0.00000   0.00025
  13        4XY         0.00000   0.00000   0.00000   0.00000   0.00000
  14        4XZ         0.00000   0.00000   0.00000   0.00000   0.00000
  15        4YZ         0.00000   0.00000   0.00000   0.00000   0.00000
  16 2   F  1S         -0.00016   0.00000   0.00000  -0.00021   0.00000
  17        2S          0.00109   0.00000   0.00000   0.00065  -0.00005
  18        2PX         0.00000   0.00138   0.00000   0.00000   0.00000
  19        2PY         0.00000   0.00000   0.00138   0.00000   0.00000
  20        2PZ        -0.00253   0.00000   0.00000   0.00016  -0.00025
  21        3S          0.01167   0.00000   0.00000   0.02059   0.00027
  22        3PX         0.00000   0.00579   0.00000   0.00000   0.00000
  23        3PY         0.00000   0.00000   0.00579   0.00000   0.00000
  24        3PZ        -0.01029   0.00000   0.00000   0.00225  -0.00303
  25        4XX        -0.00053   0.00000   0.00000  -0.00123  -0.00005
  26        4YY        -0.00053   0.00000   0.00000  -0.00123  -0.00002
  27        4ZZ        -0.00120   0.00000   0.00000  -0.00247  -0.00008
  28        4XY         0.00000   0.00000   0.00000   0.00000   0.00000
  29        4XZ         0.00000   0.00001   0.00000   0.00000   0.00000
  30        4YZ         0.00000   0.00000   0.00001   0.00000   0.00000
                          11        12        13        14        15
  11        4YY         0.00228
  12        4ZZ         0.00025   0.00041
  13        4XY         0.00000   0.00000   0.00000
  14        4XZ         0.00000   0.00000   0.00000   0.00511
  15        4YZ         0.00000   0.00000   0.00000   0.00000   0.00511
  16 2   F  1S          0.00000  -0.00012   0.00000   0.00000   0.00000
  17        2S         -0.00005   0.00109   0.00000   0.00000   0.00000
  18        2PX         0.00000   0.00000   0.00000   0.00492   0.00000
  19        2PY         0.00000   0.00000   0.00000   0.00000   0.00492
  20        2PZ        -0.00025  -0.00172   0.00000   0.00000   0.00000
  21        3S          0.00027   0.00367   0.00000   0.00000   0.00000
  22        3PX         0.00000   0.00000   0.00000   0.01525   0.00000
  23        3PY         0.00000   0.00000   0.00000   0.00000   0.01525
  24        3PZ        -0.00303  -0.00366   0.00000   0.00000   0.00000
  25        4XX        -0.00002  -0.00008   0.00000   0.00000   0.00000
  26        4YY        -0.00005  -0.00008   0.00000   0.00000   0.00000
  27        4ZZ        -0.00008  -0.00023   0.00000   0.00000   0.00000
  28        4XY         0.00000   0.00000   0.00000   0.00000   0.00000
  29        4XZ         0.00000   0.00000   0.00000   0.00011   0.00000
  30        4YZ         0.00000   0.00000   0.00000   0.00000   0.00011
                          16        17        18        19        20
  16 2   F  1S          2.08503
  17        2S         -0.05044   0.53132
  18        2PX         0.00000   0.00000   0.79834
  19        2PY         0.00000   0.00000   0.00000   0.79834
  20        2PZ         0.00000   0.00000   0.00000   0.00000   0.75846
  21        3S         -0.03946   0.42694   0.00000   0.00000   0.00000
  22        3PX         0.00000   0.00000   0.29305   0.00000   0.00000
  23        3PY         0.00000   0.00000   0.00000   0.29305   0.00000
  24        3PZ         0.00000   0.00000   0.00000   0.00000   0.27095
  25        4XX        -0.00043   0.00216   0.00000   0.00000   0.00000
  26        4YY        -0.00043   0.00216   0.00000   0.00000   0.00000
  27        4ZZ        -0.00047   0.00479   0.00000   0.00000   0.00000
  28        4XY         0.00000   0.00000   0.00000   0.00000   0.00000
  29        4XZ         0.00000   0.00000   0.00000   0.00000   0.00000
  30        4YZ         0.00000   0.00000   0.00000   0.00000   0.00000
                          21        22        23        24        25
  21        3S          0.63801
  22        3PX         0.00000   0.43112
  23        3PY         0.00000   0.00000   0.43112
  24        3PZ         0.00000   0.00000   0.00000   0.38792
  25        4XX         0.00025   0.00000   0.00000   0.00000   0.00065
  26        4YY         0.00025   0.00000   0.00000   0.00000   0.00022
  27        4ZZ         0.00089   0.00000   0.00000   0.00000   0.00041
  28        4XY         0.00000   0.00000   0.00000   0.00000   0.00000
  29        4XZ         0.00000   0.00000   0.00000   0.00000   0.00000
  30        4YZ         0.00000   0.00000   0.00000   0.00000   0.00000
                          26        27        28        29        30
  26        4YY         0.00065
  27        4ZZ         0.00041   0.00242
  28        4XY         0.00000   0.00000  -0.00000
  29        4XZ         0.00000   0.00000   0.00000   0.00009
  30        4YZ         0.00000   0.00000   0.00000   0.00000   0.00009
     Gross orbital populations:
                           1
   1 1   Li 1S          1.99699
   2        2S          0.20424
   3        2PX         0.07960
   4        2PY         0.07960
   5        2PZ         0.09985
   6        3S         -0.04125
   7        3PX         0.01881
   8        3PY         0.01881
   9        3PZ         0.00992
  10        4XX        -0.01296
  11        4YY        -0.01296
  12        4ZZ        -0.00590
  13        4XY         0.00000
  14        4XZ         0.02540
  15        4YZ         0.02540
  16 2   F  1S          1.99313
  17        2S          0.92783
  18        2PX         1.10437
  19        2PY         1.10437
  20        2PZ         1.05619
  21        3S          1.01682
  22        3PX         0.77151
  23        3PY         0.77151
  24        3PZ         0.74300
  25        4XX         0.00552
  26        4YY         0.00552
  27        4ZZ         0.01406
  28        4XY        -0.00000
  29        4XZ         0.00031
  30        4YZ         0.00031
          Condensed to atoms (all electrons):
              1          2
     1  Li   2.243221   0.242332
     2  F    0.242332   9.272116
 Mulliken atomic charges:
              1
     1  Li   0.514448
     2  F   -0.514448
 Sum of Mulliken atomic charges =  -0.00000
 Mulliken charges with hydrogens summed into heavy atoms:
              1
     1  Li   0.514448
     2  F   -0.514448
 Sum of Mulliken charges with hydrogens summed into heavy atoms =  -0.00000
 Electronic spatial extent (au):  <R**2>=             41.5483
 Charge=             -0.0000 electrons
 Dipole moment (field-independent basis, Debye):
    X=              0.0000    Y=              0.0000    Z=             -7.0009  Tot=              7.0009
 Quadrupole moment (field-independent basis, Debye-Ang):
   XX=             -7.8156   YY=             -7.8156   ZZ=              1.6891
   XY=              0.0000   XZ=              0.0000   YZ=              0.0000
 Traceless Quadrupole moment (field-independent basis, Debye-Ang):
   XX=             -3.1682   YY=             -3.1682   ZZ=              6.3364
   XY=              0.0000   XZ=              0.0000   YZ=              0.0000
 Octapole moment (field-independent basis, Debye-Ang**2):
  XXX=              0.0000  YYY=              0.0000  ZZZ=            -16.2024  XYY=              0.0000
  XXY=              0.0000  XXZ=             -0.0569  XZZ=              0.0000  YZZ=              0.0000
  YYZ=             -0.0569  XYZ=              0.0000
 Hexadecapole moment (field-independent basis, Debye-Ang**3):
 XXXX=            -11.6555 YYYY=            -11.6555 ZZZZ=            -13.6469 XXXY=              0.0000
 XXXZ=              0.0000 YYYX=              0.0000 YYYZ=              0.0000 ZZZX=              0.0000
 ZZZY=              0.0000 XXYY=             -3.8852 XXZZ=             -8.1847 YYZZ=             -8.1847
 XXYZ=              0.0000 YYXZ=              0.0000 ZZXY=              0.0000
 N-N= 7.252682554279D+00 E-N=-2.722178800337D+02  KE= 1.064661527898D+02
 Symmetry A1   KE= 9.477959622251D+01
 Symmetry A2   KE=-2.751681265405D-51
 Symmetry B1   KE= 5.843278283643D+00
 Symmetry B2   KE= 5.843278283643D+00
 Orbital energies and kinetic energies (alpha):
                                 1                 2
   1         O               -24.502891         37.085122
   2         O                -2.039224          3.590648
   3         O                -0.941682          3.883737
   4         O                -0.239320          2.830291
   5         O                -0.220850          2.921639
   6         O                -0.220850          2.921639
   7         V                -0.061520          0.260696
   8         V                 0.009923          0.292200
   9         V                 0.009923          0.292200
  10         V                 0.054863          0.282880
  11         V                 0.117129          0.364193
  12         V                 0.126077          0.388744
  13         V                 0.126077          0.388744
  14         V                 0.223229          0.901264
  15         V                 0.458785          0.700002
  16         V                 0.458809          0.700002
  17         V                 0.499321          0.935199
  18         V                 0.499321          0.935199
  19         V                 0.618208          1.337618
  20         V                 1.102813          1.457357
  21         V                 1.306216          3.673280
  22         V                 1.414464          4.665735
  23         V                 1.414464          4.665735
  24         V                 1.822238          3.691449
  25         V                 2.017842          2.806676
  26         V                 2.017856          2.806676
  27         V                 2.080258          2.924164
  28         V                 2.080258          2.924164
  29         V                 2.092274          3.391844
  30         V                 4.039031         11.503828
 Total kinetic energy from orbitals= 1.064661527898D+02
 No NMR shielding tensors so no spin-rotation constants.
 Leave Link  601 at Tue Aug 20 22:45:51 2024, MaxMem=   13107200 cpu:       0.2
 (Enter /programs/64bit/g09/g09-gfortran/bin/l701.exe)
 Compute integral first derivatives.
 ... and contract with generalized density number  0.
 Leave Link  701 at Tue Aug 20 22:45:52 2024, MaxMem=   13107200 cpu:       0.2
 (Enter /programs/64bit/g09/g09-gfortran/bin/l702.exe)
 L702 exits ... SP integral derivatives will be done elsewhere.
 Leave Link  702 at Tue Aug 20 22:45:52 2024, MaxMem=   13107200 cpu:       0.1
 (Enter /programs/64bit/g09/g09-gfortran/bin/l703.exe)
 Compute integral first derivatives, UseDBF=F ICtDFT=           0.
 Integral derivatives from FoFDir, PRISM(SPDF).
 Calling FoFJK, ICntrl=      2127 FMM=F ISym2X=1 I1Cent= 0 IOpClX= 0 NMat=1 NMatS=1 NMatT=0.
 FoFCou: FMM=F IPFlag=           0 FMFlag=      100000 FMFlg1=         800
         NFxFlg=           0 DoJE=F BraDBF=F KetDBF=F FulRan=T
         Omega=  0.000000  0.000000  1.000000  0.000000  0.000000 ICntrl=    2127 IOpCl=  0
         NMat0=    1 NMatS0=    1 NMatT0=    0 NMatD0=    1 NMtDS0=    0 NMtDT0=    0
         I1Cent=           0 NGrid=           0.
 Petite list used in FoFCou.
 Leave Link  703 at Tue Aug 20 22:45:52 2024, MaxMem=   13107200 cpu:       0.5
 (Enter /programs/64bit/g09/g09-gfortran/bin/l716.exe)
 Dipole        = 0.00000000D+00 0.00000000D+00-2.75435543D+00
 ***** Axes restored to original set *****
 -------------------------------------------------------------------
 Center     Atomic                   Forces (Hartrees/Bohr)
 Number     Number              X              Y              Z
 -------------------------------------------------------------------
      1        3          -0.000000000   -0.000000000    0.056740669
      2        9          -0.000000000   -0.000000000   -0.056740669
 -------------------------------------------------------------------
 Cartesian Forces:  Max     0.056740669 RMS     0.032759240
 Leave Link  716 at Tue Aug 20 22:45:53 2024, MaxMem=   13107200 cpu:       0.0
 (Enter /programs/64bit/g09/g09-gfortran/bin/l103.exe)

 GradGradGradGradGradGradGradGradGradGradGradGradGradGradGradGradGradGrad
 Berny optimization.
 Internal  Forces:  Max     0.056740669 RMS     0.056740669
 Search for a local minimum.
 Step number   1 out of a maximum of   20
 All quantities printed in internal units (Hartrees-Bohrs-Radians)
 RMS Force = .56741D-01 SwitMx=.10000D-02 MixMth= 1
 Mixed Optimization -- RFO/linear search
 Second derivative matrix not updated -- first step.
 The second derivative matrix:
                          R1
           R1           0.09448
     Eigenvalues ---    0.09448
 RFO step:  Lambda=-2.65915850D-02 EMin= 9.44806822D-02
 Linear search not attempted -- first point.
 Maximum step size (   0.300) exceeded in Quadratic search.
    -- Step size scaled by   0.640
 Iteration  1 RMS(Cart)=  0.14142136 RMS(Int)=  0.10000000
 Iteration  2 RMS(Cart)=  0.07071068 RMS(Int)=  0.00000000
 Iteration  3 RMS(Cart)=  0.00000000 RMS(Int)=  0.00000000
 ClnCor:  largest displacement from symmetrization is 1.67D-16 for atom     1.
 Variable       Old X    -DE/DX   Delta X   Delta X   Delta X     New X
                                 (Linear)    (Quad)   (Total)
    R1        3.72276  -0.05674   0.00000  -0.30000  -0.30000   3.42276
         Item               Value     Threshold  Converged?
 Maximum Force            0.056741     0.000450     NO 
 RMS     Force            0.056741     0.000300     NO 
 Maximum Displacement     0.150000     0.001800     NO 
 RMS     Displacement     0.212132     0.001200     NO 
 Predicted change in Energy=-1.277057D-02
 GradGradGradGradGradGradGradGradGradGradGradGradGradGradGradGradGradGrad

 Leave Link  103 at Tue Aug 20 22:45:53 2024, MaxMem=   13107200 cpu:       0.0
 (Enter /programs/64bit/g09/g09-gfortran/bin/l202.exe)
                          Input orientation:                          
 ---------------------------------------------------------------------
 Center     Atomic      Atomic             Coordinates (Angstroms)
 Number     Number       Type             X           Y           Z
 ---------------------------------------------------------------------
      1          3           0        0.000000    0.000000    0.079377
      2          9           0        0.000000    0.000000    1.890623
 ---------------------------------------------------------------------
 Stoichiometry    FLi
 Framework group  C*V[C*(LiF)]
 Deg. of freedom     1
 Full point group                 C*V     NOp   4
 Largest Abelian subgroup         C2V     NOp   4
 Largest concise Abelian subgroup C1      NOp   1
                         Standard orientation:                         
 ---------------------------------------------------------------------
 Center     Atomic      Atomic             Coordinates (Angstroms)
 Number     Number       Type             X           Y           Z
 ---------------------------------------------------------------------
      1          3           0        0.000000    0.000000   -1.358435
      2          9           0        0.000000    0.000000    0.452812
 ---------------------------------------------------------------------
 Rotational constants (GHZ):      0.0000000     30.0655324     30.0655324
 Leave Link  202 at Tue Aug 20 22:45:53 2024, MaxMem=   13107200 cpu:       0.0
 (Enter /programs/64bit/g09/g09-gfortran/bin/l301.exe)
 Standard basis: 6-31G(d,p) (6D, 7F)
 Ernie: Thresh=  0.10000D-02 Tol=  0.10000D-05 Strict=F.
 There are    16 symmetry adapted basis functions of A1  symmetry.
 There are     2 symmetry adapted basis functions of A2  symmetry.
 There are     6 symmetry adapted basis functions of B1  symmetry.
 There are     6 symmetry adapted basis functions of B2  symmetry.
 Integral buffers will be    131072 words long.
 Raffenetti 2 integral format.
 Two-electron integral symmetry is turned on.
    30 basis functions,    56 primitive gaussians,    30 cartesian basis functions
     6 alpha electrons        6 beta electrons
       nuclear repulsion energy         7.8883696781 Hartrees.
 IExCor=  402 DFT=T Ex+Corr=B3LYP ExCW=0 ScaHFX=  0.200000
 ScaDFX=  0.800000  0.720000  1.000000  0.810000 ScalE2=  1.000000  1.000000
 IRadAn=      0 IRanWt=     -1 IRanGd=            0 ICorTp=0
 NAtoms=    2 NActive=    2 NUniq=    2 SFac= 7.50D-01 NAtFMM=   80 NAOKFM=F Big=F
 Leave Link  301 at Tue Aug 20 22:45:53 2024, MaxMem=   13107200 cpu:       0.1
 (Enter /programs/64bit/g09/g09-gfortran/bin/l302.exe)
 NPDir=0 NMtPBC=     1 NCelOv=     1 NCel=       1 NClECP=     1 NCelD=      1
         NCelK=      1 NCelE2=     1 NClLst=     1 CellRange=     0.0.
 One-electron integrals computed using PRISM.
 NBasis=    30 RedAO= T  NBF=    16     2     6     6
 NBsUse=    30 1.00D-06 NBFU=    16     2     6     6
 Precomputing XC quadrature grid using
 IXCGrd= 2 IRadAn=           0 IRanWt=          -1 IRanGd=           0 AccXCQ= 1.00D-10.
 NRdTot=     123 NPtTot=       15508 NUsed=       16408 NTot=       16440
 NSgBfM=    30    30    30    30    30 NAtAll=     2     2.
 Leave Link  302 at Tue Aug 20 22:45:53 2024, MaxMem=   13107200 cpu:       0.2
 (Enter /programs/64bit/g09/g09-gfortran/bin/l303.exe)
 DipDrv:  MaxL=1.
 Leave Link  303 at Tue Aug 20 22:45:53 2024, MaxMem=   13107200 cpu:       0.0
 (Enter /programs/64bit/g09/g09-gfortran/bin/l401.exe)
 Initial guess read from the read-write file.
 B after Tr=     0.000000    0.000000    0.000000
         Rot=    1.000000    0.000000    0.000000    0.000000 Ang=   0.00 deg.
 Guess basis will be translated and rotated to current coordinates.
 Initial guess orbital symmetries:
       Occupied  (SG) (SG) (SG) (SG) (PI) (PI)
       Virtual   (SG) (PI) (PI) (SG) (SG) (PI) (PI) (SG) (DLTA)
                 (DLTA) (PI) (PI) (SG) (SG) (SG) (PI) (PI) (SG)
                 (DLTA) (DLTA) (PI) (PI) (SG) (SG)
 The electronic state of the initial guess is 1-SG.
 Generating alternative initial guess.
 Harris functional with IExCor=  402 diagonalized for initial guess.
 ExpMin= 3.60D-02 ExpMax= 7.00D+03 ExpMxC= 1.05D+03 IAcc=3 IRadAn=         0 AccDes= 0.00D+00
 HarFok:  IExCor=  402 AccDes= 0.00D+00 IRadAn=         0 IDoV= 1
 ScaDFX=  1.000000  1.000000  1.000000  1.000000
 FoFCou: FMM=F IPFlag=           0 FMFlag=      100000 FMFlg1=           0
         NFxFlg=           0 DoJE=T BraDBF=F KetDBF=T FulRan=T
         Omega=  0.000000  0.000000  1.000000  0.000000  0.000000 ICntrl=     500 IOpCl=  0
         NMat0=    1 NMatS0=    1 NMatT0=    0 NMatD0=    1 NMtDS0=    0 NMtDT0=    0
         I1Cent=           4 NGrid=           0.
 Petite list used in FoFCou.
 Harris En= -107.497906728704    
 Leave Link  401 at Tue Aug 20 22:45:54 2024, MaxMem=   13107200 cpu:       0.4
 (Enter /programs/64bit/g09/g09-gfortran/bin/l502.exe)
 Closed shell SCF:
 Requested convergence on RMS density matrix=1.00D-08 within 128 cycles.
 Requested convergence on MAX density matrix=1.00D-06.
 Requested convergence on             energy=1.00D-06.
 No special actions if energy rises.
 Using DIIS extrapolation, IDIIS=  1040.
 Integral symmetry usage will be decided dynamically.
        16377 words used for storage of precomputed grid.
 Keep R1 ints in memory in canonical form, NReq=1004546.
 IEnd=       37649 IEndB=       37649 NGot=    13107200 MDV=    12978749
 LenX=    12978749 LenY=    12977408
 Symmetry not used in FoFDir.
 MinBra= 0 MaxBra= 2 Meth= 1.
 IRaf=       0 NMat=   1 IRICut=       1 DoRegI=T DoRafI=F ISym2E= 0 JSym2E=0.

 Cycle   1  Pass 1  IDiag  1:
 E= -107.401367181357    
 DIIS: error= 3.51D-03 at cycle   1 NSaved=   1.
 NSaved= 1 IEnMin= 1 EnMin= -107.401367181357     IErMin= 1 ErrMin= 3.51D-03
 ErrMax= 3.51D-03 EMaxC= 1.00D-01 BMatC= 5.37D-04 BMatP= 5.37D-04
 IDIUse=3 WtCom= 9.65D-01 WtEn= 3.51D-02
 Coeff-Com:  0.100D+01
 Coeff-En:   0.100D+01
 Coeff:      0.100D+01
 Gap=     0.188 Goal=   None    Shift=    0.000
 GapD=    0.188 DampG=1.000 DampE=1.000 DampFc=1.0000 IDamp=-1.
 RMSDP=2.59D-03 MaxDP=1.88D-02              OVMax= 2.89D-02

 Cycle   2  Pass 1  IDiag  1:
 E= -107.401991339490     Delta-E=       -0.000624158132 Rises=F Damp=F
 DIIS: error= 4.19D-03 at cycle   2 NSaved=   2.
 NSaved= 2 IEnMin= 2 EnMin= -107.401991339490     IErMin= 1 ErrMin= 3.51D-03
 ErrMax= 4.19D-03 EMaxC= 1.00D-01 BMatC= 5.92D-04 BMatP= 5.37D-04
 IDIUse=3 WtCom= 1.34D-01 WtEn= 8.66D-01
 Coeff-Com:  0.516D+00 0.484D+00
 Coeff-En:   0.000D+00 0.100D+01
 Coeff:      0.690D-01 0.931D+00
 Gap=     0.166 Goal=   None    Shift=    0.000
 RMSDP=1.59D-03 MaxDP=1.24D-02 DE=-6.24D-04 OVMax= 2.01D-02

 Cycle   3  Pass 1  IDiag  1:
 E= -107.401117438783     Delta-E=        0.000873900706 Rises=F Damp=F
 DIIS: error= 7.74D-03 at cycle   3 NSaved=   3.
 NSaved= 3 IEnMin= 2 EnMin= -107.401991339490     IErMin= 1 ErrMin= 3.51D-03
 ErrMax= 7.74D-03 EMaxC= 1.00D-01 BMatC= 1.88D-03 BMatP= 5.37D-04
 IDIUse=3 WtCom= 1.02D-01 WtEn= 8.98D-01
 Coeff-Com:  0.335D-01 0.626D+00 0.340D+00
 Coeff-En:   0.000D+00 0.714D+00 0.286D+00
 Coeff:      0.342D-02 0.705D+00 0.292D+00
 Gap=     0.177 Goal=   None    Shift=    0.000
 RMSDP=8.66D-04 MaxDP=6.60D-03 DE= 8.74D-04 OVMax= 1.03D-02

 Cycle   4  Pass 1  IDiag  1:
 E= -107.402352212285     Delta-E=       -0.001234773502 Rises=F Damp=F
 DIIS: error= 1.47D-03 at cycle   4 NSaved=   4.
 NSaved= 4 IEnMin= 4 EnMin= -107.402352212285     IErMin= 4 ErrMin= 1.47D-03
 ErrMax= 1.47D-03 EMaxC= 1.00D-01 BMatC= 6.47D-05 BMatP= 5.37D-04
 IDIUse=3 WtCom= 9.85D-01 WtEn= 1.47D-02
 Coeff-Com: -0.122D-01 0.117D+00-0.119D+00 0.101D+01
 Coeff-En:   0.000D+00 0.102D+00 0.000D+00 0.898D+00
 Coeff:     -0.120D-01 0.117D+00-0.117D+00 0.101D+01
 Gap=     0.179 Goal=   None    Shift=    0.000
 RMSDP=1.88D-04 MaxDP=1.50D-03 DE=-1.23D-03 OVMax= 2.25D-03

 Cycle   5  Pass 1  IDiag  1:
 E= -107.402395425841     Delta-E=       -0.000043213556 Rises=F Damp=F
 DIIS: error= 1.03D-05 at cycle   5 NSaved=   5.
 NSaved= 5 IEnMin= 5 EnMin= -107.402395425841     IErMin= 5 ErrMin= 1.03D-05
 ErrMax= 1.03D-05 EMaxC= 1.00D-01 BMatC= 3.22D-09 BMatP= 6.47D-05
 IDIUse=1 WtCom= 1.00D+00 WtEn= 0.00D+00
 Coeff-Com:  0.753D-03-0.168D-01-0.363D-03-0.472D-01 0.106D+01
 Coeff:      0.753D-03-0.168D-01-0.363D-03-0.472D-01 0.106D+01
 Gap=     0.179 Goal=   None    Shift=    0.000
 RMSDP=5.85D-06 MaxDP=5.27D-05 DE=-4.32D-05 OVMax= 1.41D-04

 Cycle   6  Pass 1  IDiag  1:
 E= -107.402395436438     Delta-E=       -0.000000010596 Rises=F Damp=F
 DIIS: error= 3.22D-06 at cycle   6 NSaved=   6.
 NSaved= 6 IEnMin= 6 EnMin= -107.402395436438     IErMin= 6 ErrMin= 3.22D-06
 ErrMax= 3.22D-06 EMaxC= 1.00D-01 BMatC= 4.11D-10 BMatP= 3.22D-09
 IDIUse=1 WtCom= 1.00D+00 WtEn= 0.00D+00
 Coeff-Com:  0.116D-03-0.101D-02 0.175D-02-0.102D-01-0.252D-01 0.103D+01
 Coeff:      0.116D-03-0.101D-02 0.175D-02-0.102D-01-0.252D-01 0.103D+01
 Gap=     0.179 Goal=   None    Shift=    0.000
 RMSDP=7.75D-07 MaxDP=5.63D-06 DE=-1.06D-08 OVMax= 1.05D-05

 Cycle   7  Pass 1  IDiag  1:
 E= -107.402395436820     Delta-E=       -0.000000000382 Rises=F Damp=F
 DIIS: error= 1.28D-07 at cycle   7 NSaved=   7.
 NSaved= 7 IEnMin= 7 EnMin= -107.402395436820     IErMin= 7 ErrMin= 1.28D-07
 ErrMax= 1.28D-07 EMaxC= 1.00D-01 BMatC= 5.50D-13 BMatP= 4.11D-10
 IDIUse=1 WtCom= 1.00D+00 WtEn= 0.00D+00
 Coeff-Com: -0.877D-05 0.149D-03-0.111D-03 0.782D-03-0.403D-02-0.720D-01
 Coeff-Com:  0.108D+01
 Coeff:     -0.877D-05 0.149D-03-0.111D-03 0.782D-03-0.403D-02-0.720D-01
 Coeff:      0.108D+01
 Gap=     0.179 Goal=   None    Shift=    0.000
 RMSDP=5.15D-08 MaxDP=5.45D-07 DE=-3.82D-10 OVMax= 1.17D-06

 Cycle   8  Pass 1  IDiag  1:
 E= -107.402395436821     Delta-E=       -0.000000000001 Rises=F Damp=F
 DIIS: error= 7.06D-09 at cycle   8 NSaved=   8.
 NSaved= 8 IEnMin= 8 EnMin= -107.402395436821     IErMin= 8 ErrMin= 7.06D-09
 ErrMax= 7.06D-09 EMaxC= 1.00D-01 BMatC= 2.00D-15 BMatP= 5.50D-13
 IDIUse=1 WtCom= 1.00D+00 WtEn= 0.00D+00
 Coeff-Com: -0.225D-06 0.508D-06 0.209D-06 0.372D-05 0.383D-04 0.110D-02
 Coeff-Com: -0.654D-01 0.106D+01
 Coeff:     -0.225D-06 0.508D-06 0.209D-06 0.372D-05 0.383D-04 0.110D-02
 Coeff:     -0.654D-01 0.106D+01
 Gap=     0.179 Goal=   None    Shift=    0.000
 RMSDP=3.88D-09 MaxDP=4.47D-08 DE=-8.81D-13 OVMax= 7.24D-08

 SCF Done:  E(RB3LYP) =  -107.402395437     A.U. after    8 cycles
             Convg  =    0.3882D-08             -V/T =  2.0084
 KE= 1.065054256945D+02 PE=-2.734530098678D+02 EE= 5.165681905839D+01
 Leave Link  502 at Tue Aug 20 22:45:55 2024, MaxMem=   13107200 cpu:       0.8
 (Enter /programs/64bit/g09/g09-gfortran/bin/l701.exe)
 Compute integral first derivatives.
 ... and contract with generalized density number  0.
 Leave Link  701 at Tue Aug 20 22:45:55 2024, MaxMem=   13107200 cpu:       0.2
 (Enter /programs/64bit/g09/g09-gfortran/bin/l702.exe)
 L702 exits ... SP integral derivatives will be done elsewhere.
 Leave Link  702 at Tue Aug 20 22:45:55 2024, MaxMem=   13107200 cpu:       0.0
 (Enter /programs/64bit/g09/g09-gfortran/bin/l703.exe)
 Compute integral first derivatives, UseDBF=F ICtDFT=           0.
 Integral derivatives from FoFDir, PRISM(SPDF).
 Calling FoFJK, ICntrl=      2127 FMM=F ISym2X=1 I1Cent= 0 IOpClX= 0 NMat=1 NMatS=1 NMatT=0.
 FoFCou: FMM=F IPFlag=           0 FMFlag=      100000 FMFlg1=         800
         NFxFlg=           0 DoJE=F BraDBF=F KetDBF=F FulRan=T
         Omega=  0.000000  0.000000  1.000000  0.000000  0.000000 ICntrl=    2127 IOpCl=  0
         NMat0=    1 NMatS0=    1 NMatT0=    0 NMatD0=    1 NMtDS0=    0 NMtDT0=    0
         I1Cent=           0 NGrid=           0.
 Petite list used in FoFCou.
 Leave Link  703 at Tue Aug 20 22:45:56 2024, MaxMem=   13107200 cpu:       0.5
 (Enter /programs/64bit/g09/g09-gfortran/bin/l716.exe)
 Dipole        = 0.00000000D+00 0.00000000D+00-2.54690731D+00
 ***** Axes restored to original set *****
 -------------------------------------------------------------------
 Center     Atomic                   Forces (Hartrees/Bohr)
 Number     Number              X              Y              Z
 -------------------------------------------------------------------
      1        3          -0.000000000   -0.000000000    0.049501891
      2        9          -0.000000000   -0.000000000   -0.049501891
 -------------------------------------------------------------------
 Cartesian Forces:  Max     0.049501891 RMS     0.028579930
 Leave Link  716 at Tue Aug 20 22:45:56 2024, MaxMem=   13107200 cpu:       0.0
 (Enter /programs/64bit/g09/g09-gfortran/bin/l103.exe)

 GradGradGradGradGradGradGradGradGradGradGradGradGradGradGradGradGradGrad
 Berny optimization.
 Using GEDIIS/GDIIS optimizer.
 Internal  Forces:  Max     0.049501891 RMS     0.049501891
 Search for a local minimum.
 Step number   2 out of a maximum of   20
 All quantities printed in internal units (Hartrees-Bohrs-Radians)
 RMS Force = .49502D-01 SwitMx=.10000D-02 MixMth= 1
 Mixed Optimization -- RFO/linear search
 Update second derivatives using D2CorX and points    1    2
 DE= -1.62D-02 DEPred=-1.28D-02 R= 1.27D+00
 SS=  1.41D+00  RLast= 3.00D-01 DXNew= 5.0454D-01 9.0000D-01
 Trust test= 1.27D+00 RLast= 3.00D-01 DXMaxT set to 5.05D-01
 The second derivative matrix:
                          R1
           R1           0.02413
 Use linear search instead of GDIIS.
 Linear search step of   0.567 exceeds DXMaxT=   0.505 but not scaled.
 Quartic linear search produced a step of  1.89002.
 Iteration  1 RMS(Cart)=  0.14142136 RMS(Int)=  0.36700455
 Iteration  2 RMS(Cart)=  0.14142136 RMS(Int)=  0.16700455
 Iteration  3 RMS(Cart)=  0.11809005 RMS(Int)=  0.00000000
 Iteration  4 RMS(Cart)=  0.00000000 RMS(Int)=  0.00000000
 ClnCor:  largest displacement from symmetrization is 1.67D-16 for atom     1.
 Variable       Old X    -DE/DX   Delta X   Delta X   Delta X     New X
                                 (Linear)    (Quad)   (Total)
    R1        3.42276  -0.04950  -0.56700   0.00000  -0.56700   2.85576
         Item               Value     Threshold  Converged?
 Maximum Force            0.049502     0.000450     NO 
 RMS     Force            0.049502     0.000300     NO 
 Maximum Displacement     0.283502     0.001800     NO 
 RMS     Displacement     0.400933     0.001200     NO 
 Predicted change in Energy=-2.418909D-02
 GradGradGradGradGradGradGradGradGradGradGradGradGradGradGradGradGradGrad

 Leave Link  103 at Tue Aug 20 22:45:56 2024, MaxMem=   13107200 cpu:       0.0
 (Enter /programs/64bit/g09/g09-gfortran/bin/l202.exe)
                          Input orientation:                          
 ---------------------------------------------------------------------
 Center     Atomic      Atomic             Coordinates (Angstroms)
 Number     Number       Type             X           Y           Z
 ---------------------------------------------------------------------
      1          3           0        0.000000    0.000000    0.229400
      2          9           0        0.000000    0.000000    1.740600
 ---------------------------------------------------------------------
 Stoichiometry    FLi
 Framework group  C*V[C*(LiF)]
 Deg. of freedom     1
 Full point group                 C*V     NOp   4
 Largest Abelian subgroup         C2V     NOp   4
 Largest concise Abelian subgroup C1      NOp   1
                         Standard orientation:                         
 ---------------------------------------------------------------------
 Center     Atomic      Atomic             Coordinates (Angstroms)
 Number     Number       Type             X           Y           Z
 ---------------------------------------------------------------------
      1          3           0        0.000000    0.000000   -1.133401
      2          9           0        0.000000    0.000000    0.377800
 ---------------------------------------------------------------------
 Rotational constants (GHZ):      0.0000000     43.1896556     43.1896556
 Leave Link  202 at Tue Aug 20 22:45:56 2024, MaxMem=   13107200 cpu:       0.0
 (Enter /programs/64bit/g09/g09-gfortran/bin/l301.exe)
 Standard basis: 6-31G(d,p) (6D, 7F)
 Ernie: Thresh=  0.10000D-02 Tol=  0.10000D-05 Strict=F.
 There are    16 symmetry adapted basis functions of A1  symmetry.
 There are     2 symmetry adapted basis functions of A2  symmetry.
 There are     6 symmetry adapted basis functions of B1  symmetry.
 There are     6 symmetry adapted basis functions of B2  symmetry.
 Integral buffers will be    131072 words long.
 Raffenetti 2 integral format.
 Two-electron integral symmetry is turned on.
    30 basis functions,    56 primitive gaussians,    30 cartesian basis functions
     6 alpha electrons        6 beta electrons
       nuclear repulsion energy         9.4545894814 Hartrees.
 IExCor=  402 DFT=T Ex+Corr=B3LYP ExCW=0 ScaHFX=  0.200000
 ScaDFX=  0.800000  0.720000  1.000000  0.810000 ScalE2=  1.000000  1.000000
 IRadAn=      0 IRanWt=     -1 IRanGd=            0 ICorTp=0
 NAtoms=    2 NActive=    2 NUniq=    2 SFac= 7.50D-01 NAtFMM=   80 NAOKFM=F Big=F
 Leave Link  301 at Tue Aug 20 22:45:56 2024, MaxMem=   13107200 cpu:       0.1
 (Enter /programs/64bit/g09/g09-gfortran/bin/l302.exe)
 NPDir=0 NMtPBC=     1 NCelOv=     1 NCel=       1 NClECP=     1 NCelD=      1
         NCelK=      1 NCelE2=     1 NClLst=     1 CellRange=     0.0.
 One-electron integrals computed using PRISM.
 NBasis=    30 RedAO= T  NBF=    16     2     6     6
 NBsUse=    30 1.00D-06 NBFU=    16     2     6     6
 Precomputing XC quadrature grid using
 IXCGrd= 2 IRadAn=           0 IRanWt=          -1 IRanGd=           0 AccXCQ= 1.00D-10.
 NRdTot=     123 NPtTot=       15508 NUsed=       16408 NTot=       16440
 NSgBfM=    30    30    30    30    30 NAtAll=     2     2.
 Leave Link  302 at Tue Aug 20 22:45:56 2024, MaxMem=   13107200 cpu:       0.2
 (Enter /programs/64bit/g09/g09-gfortran/bin/l303.exe)
 DipDrv:  MaxL=1.
 Leave Link  303 at Tue Aug 20 22:45:56 2024, MaxMem=   13107200 cpu:       0.0
 (Enter /programs/64bit/g09/g09-gfortran/bin/l401.exe)
 Initial guess read from the read-write file.
 B after Tr=     0.000000    0.000000    0.000000
         Rot=    1.000000    0.000000    0.000000    0.000000 Ang=   0.00 deg.
 Guess basis will be translated and rotated to current coordinates.
 Initial guess orbital symmetries:
       Occupied  (SG) (SG) (SG) (SG) (PI) (PI)
       Virtual   (SG) (PI) (PI) (SG) (SG) (PI) (PI) (SG) (DLTA)
                 (DLTA) (PI) (PI) (SG) (SG) (SG) (PI) (PI) (SG)
                 (DLTA) (DLTA) (SG) (PI) (PI) (SG)
 The electronic state of the initial guess is 1-SG.
 Generating alternative initial guess.
 Harris functional with IExCor=  402 diagonalized for initial guess.
 ExpMin= 3.60D-02 ExpMax= 7.00D+03 ExpMxC= 1.05D+03 IAcc=3 IRadAn=         0 AccDes= 0.00D+00
 HarFok:  IExCor=  402 AccDes= 0.00D+00 IRadAn=         0 IDoV= 1
 ScaDFX=  1.000000  1.000000  1.000000  1.000000
 FoFCou: FMM=F IPFlag=           0 FMFlag=      100000 FMFlg1=           0
         NFxFlg=           0 DoJE=T BraDBF=F KetDBF=T FulRan=T
         Omega=  0.000000  0.000000  1.000000  0.000000  0.000000 ICntrl=     500 IOpCl=  0
         NMat0=    1 NMatS0=    1 NMatT0=    0 NMatD0=    1 NMtDS0=    0 NMtDT0=    0
         I1Cent=           4 NGrid=           0.
 Petite list used in FoFCou.
 Harris En= -107.506435279061    
 Leave Link  401 at Tue Aug 20 22:45:57 2024, MaxMem=   13107200 cpu:       0.4
 (Enter /programs/64bit/g09/g09-gfortran/bin/l502.exe)
 Closed shell SCF:
 Requested convergence on RMS density matrix=1.00D-08 within 128 cycles.
 Requested convergence on MAX density matrix=1.00D-06.
 Requested convergence on             energy=1.00D-06.
 No special actions if energy rises.
 Using DIIS extrapolation, IDIIS=  1040.
 Integral symmetry usage will be decided dynamically.
        16377 words used for storage of precomputed grid.
 Keep R1 ints in memory in canonical form, NReq=1004546.
 IEnd=       37649 IEndB=       37649 NGot=    13107200 MDV=    12978749
 LenX=    12978749 LenY=    12977408
 Symmetry not used in FoFDir.
 MinBra= 0 MaxBra= 2 Meth= 1.
 IRaf=       0 NMat=   1 IRICut=       1 DoRegI=T DoRafI=F ISym2E= 0 JSym2E=0.

 Cycle   1  Pass 1  IDiag  1:
 E= -107.411530375035    
 DIIS: error= 7.22D-03 at cycle   1 NSaved=   1.
 NSaved= 1 IEnMin= 1 EnMin= -107.411530375035     IErMin= 1 ErrMin= 7.22D-03
[...]
  30        4YZ         0.00000   0.00000   0.00000   0.00031   0.00000
                           6         7         8         9        10
   6        3S          0.02010
   7        3PX         0.00000   0.00032
   8        3PY         0.00000   0.00000   0.00032
   9        3PZ         0.00000   0.00000   0.00000   0.04675
  10        4XX        -0.00072   0.00000   0.00000   0.00000   0.00030
  11        4YY        -0.00072   0.00000   0.00000   0.00000   0.00010
  12        4ZZ         0.00309   0.00000   0.00000   0.00000  -0.00006
  13        4XY         0.00000   0.00000   0.00000   0.00000   0.00000
  14        4XZ         0.00000   0.00000   0.00000   0.00000   0.00000
  15        4YZ         0.00000   0.00000   0.00000   0.00000   0.00000
  16 2   F  1S         -0.00015   0.00000   0.00000  -0.00008   0.00000
  17        2S          0.00157   0.00000   0.00000   0.00028  -0.00010
  18        2PX         0.00000  -0.00053   0.00000   0.00000   0.00000
  19        2PY         0.00000   0.00000  -0.00053   0.00000   0.00000
  20        2PZ        -0.00230   0.00000   0.00000   0.00260   0.00012
  21        3S          0.00886   0.00000   0.00000   0.00897  -0.00084
  22        3PX         0.00000  -0.00211   0.00000   0.00000   0.00000
  23        3PY         0.00000   0.00000  -0.00211   0.00000   0.00000
  24        3PZ        -0.00971   0.00000   0.00000   0.01213   0.00122
  25        4XX        -0.00013   0.00000   0.00000  -0.00030   0.00000
  26        4YY        -0.00013   0.00000   0.00000  -0.00030   0.00000
  27        4ZZ        -0.00137   0.00000   0.00000  -0.00218   0.00002
  28        4XY         0.00000   0.00000   0.00000   0.00000   0.00000
  29        4XZ         0.00000  -0.00000   0.00000   0.00000   0.00000
  30        4YZ         0.00000   0.00000  -0.00000   0.00000   0.00000
                          11        12        13        14        15
  11        4YY         0.00030
  12        4ZZ        -0.00006   0.00140
  13        4XY         0.00000   0.00000   0.00000
  14        4XZ         0.00000   0.00000   0.00000   0.00595
  15        4YZ         0.00000   0.00000   0.00000   0.00000   0.00595
  16 2   F  1S          0.00000  -0.00007   0.00000   0.00000   0.00000
  17        2S         -0.00010   0.00044   0.00000   0.00000   0.00000
  18        2PX         0.00000   0.00000   0.00000   0.01048   0.00000
  19        2PY         0.00000   0.00000   0.00000   0.00000   0.01048
  20        2PZ         0.00012  -0.00307   0.00000   0.00000   0.00000
  21        3S         -0.00084   0.00305   0.00000   0.00000   0.00000
  22        3PX         0.00000   0.00000   0.00000   0.02423   0.00000
  23        3PY         0.00000   0.00000   0.00000   0.00000   0.02423
  24        3PZ         0.00122  -0.00500   0.00000   0.00000   0.00000
  25        4XX         0.00000  -0.00007   0.00000   0.00000   0.00000
  26        4YY         0.00000  -0.00007   0.00000   0.00000   0.00000
  27        4ZZ         0.00002  -0.00069   0.00000   0.00000   0.00000
  28        4XY         0.00000   0.00000  -0.00000   0.00000   0.00000
  29        4XZ         0.00000   0.00000   0.00000   0.00023   0.00000
  30        4YZ         0.00000   0.00000   0.00000   0.00000   0.00023
                          16        17        18        19        20
  16 2   F  1S          2.08390
  17        2S         -0.05054   0.53347
  18        2PX         0.00000   0.00000   0.78713
  19        2PY         0.00000   0.00000   0.00000   0.78713
  20        2PZ         0.00000   0.00000   0.00000   0.00000   0.80288
  21        3S         -0.03782   0.42237   0.00000   0.00000   0.00000
  22        3PX         0.00000   0.00000   0.27682   0.00000   0.00000
  23        3PY         0.00000   0.00000   0.00000   0.27682   0.00000
  24        3PZ         0.00000   0.00000   0.00000   0.00000   0.30223
  25        4XX        -0.00046   0.00269   0.00000   0.00000   0.00000
  26        4YY        -0.00046   0.00269   0.00000   0.00000   0.00000
  27        4ZZ        -0.00056   0.00751   0.00000   0.00000   0.00000
  28        4XY         0.00000   0.00000   0.00000   0.00000   0.00000
  29        4XZ         0.00000   0.00000   0.00000   0.00000   0.00000
  30        4YZ         0.00000   0.00000   0.00000   0.00000   0.00000
                          21        22        23        24        25
  21        3S          0.58705
  22        3PX         0.00000   0.39018
  23        3PY         0.00000   0.00000   0.39018
  24        3PZ         0.00000   0.00000   0.00000   0.45615
  25        4XX         0.00393   0.00000   0.00000   0.00000   0.00026
  26        4YY         0.00393   0.00000   0.00000   0.00000   0.00009
  27        4ZZ         0.00846   0.00000   0.00000   0.00000   0.00021
  28        4XY         0.00000   0.00000   0.00000   0.00000   0.00000
  29        4XZ         0.00000   0.00000   0.00000   0.00000   0.00000
  30        4YZ         0.00000   0.00000   0.00000   0.00000   0.00000
                          26        27        28        29        30
  26        4YY         0.00026
  27        4ZZ         0.00021   0.00301
  28        4XY         0.00000   0.00000  -0.00000
  29        4XZ         0.00000   0.00000   0.00000   0.00023
  30        4YZ         0.00000   0.00000   0.00000   0.00000   0.00023
     Gross orbital populations:
                           1
   1 1   Li 1S          1.99657
   2        2S          0.08849
   3        2PX         0.13622
   4        2PY         0.13622
   5        2PZ         0.05340
   6        3S         -0.02024
   7        3PX        -0.00624
   8        3PY        -0.00624
   9        3PZ         0.02510
  10        4XX        -0.00049
  11        4YY        -0.00049
  12        4ZZ        -0.00992
  13        4XY        -0.00000
  14        4XZ         0.04089
  15        4YZ         0.04089
  16 2   F  1S          1.99298
  17        2S          0.93007
  18        2PX         1.08815
  19        2PY         1.08815
  20        2PZ         1.11769
  21        3S          1.00142
  22        3PX         0.74021
  23        3PY         0.74021
  24        3PZ         0.78891
  25        4XX         0.00724
  26        4YY         0.00724
  27        4ZZ         0.02204
  28        4XY        -0.00000
  29        4XZ         0.00076
  30        4YZ         0.00076
          Condensed to atoms (all electrons):
              1          2
     1  Li   2.206634   0.267530
     2  F    0.267530   9.258306
 Mulliken atomic charges:
              1
     1  Li   0.525836
     2  F   -0.525836
 Sum of Mulliken atomic charges =   0.00000
 Mulliken charges with hydrogens summed into heavy atoms:
              1
     1  Li   0.525836
     2  F   -0.525836
 Sum of Mulliken charges with hydrogens summed into heavy atoms =   0.00000
 APT atomic charges:
              1
     1  Li   0.738559
     2  F   -0.738559
 Sum of APT charges=   0.00000
 APT Atomic charges with hydrogens summed into heavy atoms:
              1
     1  Li   0.738559
     2  F   -0.738559
 Sum of APT charges=   0.00000
 Electronic spatial extent (au):  <R**2>=             31.5698
 Charge=              0.0000 electrons
 Dipole moment (field-independent basis, Debye):
    X=              0.0000    Y=              0.0000    Z=             -5.5880  Tot=              5.5880
 Quadrupole moment (field-independent basis, Debye-Ang):
   XX=             -7.5698   YY=             -7.5698   ZZ=             -1.3120
   XY=              0.0000   XZ=              0.0000   YZ=              0.0000
 Traceless Quadrupole moment (field-independent basis, Debye-Ang):
   XX=             -2.0859   YY=             -2.0859   ZZ=              4.1718
   XY=              0.0000   XZ=              0.0000   YZ=              0.0000
 Octapole moment (field-independent basis, Debye-Ang**2):
  XXX=              0.0000  YYY=              0.0000  ZZZ=             -9.4051  XYY=              0.0000
  XXY=              0.0000  XXZ=             -0.4528  XZZ=              0.0000  YZZ=              0.0000
  YYZ=             -0.4528  XYZ=              0.0000
 Hexadecapole moment (field-independent basis, Debye-Ang**3):
 XXXX=             -9.4931 YYYY=             -9.4931 ZZZZ=            -14.4554 XXXY=              0.0000
 XXXZ=              0.0000 YYYX=              0.0000 YYYZ=              0.0000 ZZZX=              0.0000
 ZZZY=              0.0000 XXYY=             -3.1644 XXZZ=             -5.4089 YYZZ=             -5.4089
 XXYZ=              0.0000 YYXZ=              0.0000 ZZXY=              0.0000
 N-N= 9.209683447841D+00 E-N=-2.760813129370D+02  KE= 1.066637397098D+02
 Symmetry A1   KE= 9.517104606782D+01
 Symmetry A2   KE=-1.385510199523D-51
 Symmetry B1   KE= 5.746346821000D+00
 Symmetry B2   KE= 5.746346821000D+00
 Orbital energies and kinetic energies (alpha):
                                 1                 2
   1         O               -24.531602         37.082057
   2         O                -1.985313          3.569898
   3         O                -0.984677          3.893836
   4         O                -0.277458          3.039732
   5         O                -0.264014          2.873173
   6         O                -0.264014          2.873173
   7         V                -0.049236          0.212687
   8         V                 0.024199          0.281209
   9         V                 0.024199          0.281209
  10         V                 0.058903          0.250402
  11         V                 0.129716          0.360291
  12         V                 0.149486          0.490842
  13         V                 0.149486          0.490842
  14         V                 0.273212          0.932962
  15         V                 0.472392          0.700652
  16         V                 0.472415          0.700652
  17         V                 0.545286          1.084611
  18         V                 0.545286          1.084611
  19         V                 0.618958          1.236443
  20         V                 1.091204          1.614060
  21         V                 1.392891          4.363857
  22         V                 1.457795          4.582485
  23         V                 1.457795          4.582485
  24         V                 1.795340          3.699169
  25         V                 1.979184          2.856576
  26         V                 1.997118          2.828420
  27         V                 1.997225          2.828420
  28         V                 2.092634          3.079952
  29         V                 2.092634          3.079952
  30         V                 4.160718         12.060036
 Total kinetic energy from orbitals= 1.066637397098D+02
  Exact polarizability:   8.657  -0.000   8.657   0.000  -0.000   8.857
 Approx polarizability:   8.405  -0.000   8.405  -0.000  -0.000  11.527
 No NMR shielding tensors so no spin-rotation constants.
 Leave Link  601 at Tue Aug 20 22:46:10 2024, MaxMem=   13107200 cpu:       0.1
 (Enter /programs/64bit/g09/g09-gfortran/bin/l701.exe)
 Compute integral second derivatives.
 ... and contract with generalized density number  0.
 Leave Link  701 at Tue Aug 20 22:46:11 2024, MaxMem=   13107200 cpu:       0.2
 (Enter /programs/64bit/g09/g09-gfortran/bin/l702.exe)
 L702 exits ... SP integral derivatives will be done elsewhere.
 Leave Link  702 at Tue Aug 20 22:46:11 2024, MaxMem=   13107200 cpu:       0.0
 (Enter /programs/64bit/g09/g09-gfortran/bin/l703.exe)
 Compute integral second derivatives, UseDBF=F ICtDFT=           0.
 Integral derivatives from FoFDir, PRISM(SPDF).
 Calling FoFJK, ICntrl=    100127 FMM=F ISym2X=1 I1Cent= 0 IOpClX= 0 NMat=1 NMatS=1 NMatT=0.
 FoFCou: FMM=F IPFlag=           0 FMFlag=      100000 FMFlg1=         800
         NFxFlg=           0 DoJE=F BraDBF=F KetDBF=F FulRan=T
         Omega=  0.000000  0.000000  1.000000  0.000000  0.000000 ICntrl=  100127 IOpCl=  0
         NMat0=    1 NMatS0=    1 NMatT0=    0 NMatD0=    1 NMtDS0=    0 NMtDT0=    0
         I1Cent=           0 NGrid=           0.
 Petite list used in FoFCou.
 Leave Link  703 at Tue Aug 20 22:46:12 2024, MaxMem=   13107200 cpu:       1.5
 (Enter /programs/64bit/g09/g09-gfortran/bin/l716.exe)
 Dipole        = 0.00000000D+00 0.00000000D+00-2.19849249D+00
 Polarizability= 8.65724166D+00-5.26089574D-09 8.65724167D+00
                 3.39567762D-09-9.56478901D-09 8.85690466D+00
 Full mass-weighted force constant matrix:
 Low frequencies ---  -60.0603  -60.0603   -0.0011    0.0010    0.0010 1007.0989
 Diagonal vibrational polarizability:
        0.0000000       0.0000000       2.5853543
 Harmonic frequencies (cm**-1), IR intensities (KM/Mole), Raman scattering
 activities (A**4/AMU), depolarization ratios for plane and unpolarized
 incident light, reduced masses (AMU), force constants (mDyne/A),
 and normal coordinates:
                     1
                    SG
 Frequencies --  1007.0989
 Red. masses --     8.4540
 Frc consts  --     5.0519
 IR Inten    --    97.4386
  Atom  AN      X      Y      Z
     1   3     0.00   0.00   0.94
     2   9     0.00   0.00  -0.35

 -------------------
 - Thermochemistry -
 -------------------
 Temperature   298.150 Kelvin.  Pressure   1.00000 Atm.
 Atom     1 has atomic number  3 and mass   7.01600
 Atom     2 has atomic number  9 and mass  18.99840
 Molecular mass:    26.01441 amu.
 Principal axes and moments of inertia in atomic units:
                           1         2         3
     Eigenvalues --     0.00000  44.03836  44.03836
           X            0.00000  -0.00000   1.00000
           Y            0.00000   1.00000   0.00000
           Z            1.00000   0.00000   0.00000
 This molecule is a prolate symmetric top.
 Rotational symmetry number  1.
 Rotational temperature (Kelvin)      1.96678
 Rotational constant (GHZ):          40.981117
 Zero-point vibrational energy       6023.8 (Joules/Mol)
                                    1.43972 (Kcal/Mol)
 Vibrational temperatures:   1448.99
          (Kelvin)
 
 Zero-point correction=                           0.002294 (Hartree/Particle)
 Thermal correction to Energy=                    0.004691
 Thermal correction to Enthalpy=                  0.005635
 Thermal correction to Gibbs Free Energy=        -0.017058
 Sum of electronic and zero-point Energies=           -107.415305
 Sum of electronic and thermal Energies=              -107.412909
 Sum of electronic and thermal Enthalpies=            -107.411965
 Sum of electronic and thermal Free Energies=         -107.434658
 
                     E (Thermal)             CV                S
                      KCal/Mol        Cal/Mol-Kelvin    Cal/Mol-Kelvin
 Total                    2.943              5.338             47.761
 Electronic               0.000              0.000              0.000
 Translational            0.889              2.981             35.704
 Rotational               0.592              1.987             11.965
 Vibrational              1.462              0.370              0.091
                       Q            Log10(Q)             Ln(Q)
 Total Bot       0.701477D+08          7.846013         18.066113
 Total V=0       0.796772D+09          8.901334         20.496080
 Vib (Bot)       0.887275D-01         -1.051942         -2.422185
 Vib (V=0)       0.100781D+01          0.003379          0.007781
 Electronic      0.100000D+01          0.000000          0.000000
 Translational   0.521526D+07          6.717276         15.467100
 Rotational      0.151593D+03          2.180679          5.021198
 ***** Axes restored to original set *****
 -------------------------------------------------------------------
 Center     Atomic                   Forces (Hartrees/Bohr)
 Number     Number              X              Y              Z
 -------------------------------------------------------------------
      1        3          -0.000000000   -0.000000000   -0.000001272
      2        9          -0.000000000   -0.000000000    0.000001272
 -------------------------------------------------------------------
 Cartesian Forces:  Max     0.000001272 RMS     0.000000734
 Force constants in Cartesian coordinates: 
                1             2             3             4             5 
      1 -0.699454D-03
      2  0.000000D+00 -0.699454D-03
      3  0.000000D+00  0.000000D+00  0.196666D+00
      4  0.699454D-03  0.000000D+00  0.000000D+00 -0.699454D-03
      5  0.000000D+00  0.699454D-03  0.000000D+00  0.000000D+00 -0.699454D-03
      6  0.000000D+00  0.000000D+00 -0.196666D+00  0.000000D+00  0.000000D+00
                6 
      6  0.196666D+00
 Force constants in internal coordinates: 
                1 
      1  0.196666D+00
 Leave Link  716 at Tue Aug 20 22:46:12 2024, MaxMem=   13107200 cpu:       0.1
 (Enter /programs/64bit/g09/g09-gfortran/bin/l103.exe)

 GradGradGradGradGradGradGradGradGradGradGradGradGradGradGradGradGradGrad
 Berny optimization.
 Internal  Forces:  Max     0.000001272 RMS     0.000001272
 Search for a local minimum.
 Step number   1 out of a maximum of    2
 All quantities printed in internal units (Hartrees-Bohrs-Radians)
 Second derivative matrix not updated -- analytic derivatives used.
 The second derivative matrix:
                          R1
           R1           0.19667
     Eigenvalues ---    0.19667
 Angle between quadratic step and forces=   0.00 degrees.
 Linear search not attempted -- first point.
 Iteration  1 RMS(Cart)=  0.00000457 RMS(Int)=  0.00000000
 Iteration  2 RMS(Cart)=  0.00000000 RMS(Int)=  0.00000000
 ClnCor:  largest displacement from symmetrization is 0.00D+00 for atom     0.
 Variable       Old X    -DE/DX   Delta X   Delta X   Delta X     New X
                                 (Linear)    (Quad)   (Total)
    R1        2.93170   0.00000   0.00000   0.00001   0.00001   2.93170
         Item               Value     Threshold  Converged?
 Maximum Force            0.000001     0.000450     YES
 RMS     Force            0.000001     0.000300     YES
 Maximum Displacement     0.000003     0.001800     YES
 RMS     Displacement     0.000005     0.001200     YES
 Predicted change in Energy=-4.114595D-12
 Optimization completed.
    -- Stationary point found.
                           ----------------------------
                           !   Optimized Parameters   !
                           ! (Angstroms and Degrees)  !
 --------------------------                            --------------------------
 ! Name  Definition              Value          Derivative Info.                !
 --------------------------------------------------------------------------------
 ! R1    R(1,2)                  1.5514         -DE/DX =    0.0                 !
 --------------------------------------------------------------------------------
 GradGradGradGradGradGradGradGradGradGradGradGradGradGradGradGradGradGrad

 Leave Link  103 at Tue Aug 20 22:46:12 2024, MaxMem=   13107200 cpu:       0.0
 (Enter /programs/64bit/g09/g09-gfortran/bin/l9999.exe)
 1\1\GINC-MOLMOD\Freq\RB3LYP\6-31G(d,p)\F1Li1\OSPITE\20-Aug-2024\0\\#P 
 Geom=AllCheck Guess=TCheck SCRF=Check GenChk RB3LYP/6-31G(d,p) Freq\\H
 2\\0,1\Li,0.,0.,0.2093064209\F,0.,0.,1.7606935791\\Version=EM64L-G09Re
 vA.02\State=1-SG\HF=-107.4175998\RMSD=3.234e-10\RMSF=7.345e-07\ZeroPoi
 nt=0.0022943\Thermal=0.0046906\Dipole=0.,0.,-2.1984925\DipoleDeriv=0.7
 50026,0.,0.,0.,0.750026,0.,0.,0.,0.7156266,-0.750026,0.,0.,0.,-0.75002
 6,0.,0.,0.,-0.7156266\Polar=8.6572417,0.,8.6572417,0.,0.,8.8569047\PG=
 C*V [C*(Li1F1)]\NImag=0\\-0.00069945,0.,-0.00069945,0.,0.,0.19666572,0
 .00069945,0.,0.,-0.00069945,0.,0.00069945,0.,0.,-0.00069945,0.,0.,-0.1
 9666572,0.,0.,0.19666572\\0.,0.,0.00000127,0.,0.,-0.00000127\\\@


 THE SECRET OF SUCCESS IN LIFE IS TO EAT WHAT YOU LIKE, AND LET THE FOOD
 FIGHT IT OUT INSIDE YOU. -- FROM A FORTUNE COOKIE
 Job cpu time:  0 days  0 hours  0 minutes  6.3 seconds.
 File lengths (MBytes):  RWF=      5 Int=      0 D2E=      0 Chk=      1 Scr=      1
 Normal termination of Gaussian 09 at Tue Aug 20 22:46:12 2024.
