
 Primary working directories    : /data/scratch
 Secondary working directories  : /data/scratch
 Wavefunction directory         : /home/ospite/wfu/
 Main file repository           : /data/scratch/

 ARCHNAME  : Linux/x86_64
 FC        : /usr/bin/gfortran
 FCVERSION : 4.8.5
 BLASLIB   : 
 id        : polimi

 Nodes     nprocs
 molmod       1

 Using default tuning parameters: mindgm=1; mindgv=20; mindgc=4; mindgr=1; noblas=0; mincuda=1000; minvec=7
 default implementation of scratch files=df  

 ***,methane to methyl and hydrogen
 memory,300,m
 nosym
 
 
 geometry={angstrom
 C
 H1, C, d
 H2, C, d, H1, a
 H3, C, d, H1, a, H2, t
 H4, C, r, H1, a, H2, -t
 }
 
 r=1.09 Ang                                                                      !start from 'standard' bond lenght
 d=1.09 Ang
 a=109.47 Deg
 t=120.0 Deg
 
                                                                                 !set required basis set
 basis=cc-pVDZ
 
 do i=1,40
 
                                                                                 !save distance to array
 rch4(i)=r
                                           !for each value of r, perform both hf and caspt2 calculations and save relative energies
                                                                                 !hf calculation
 hf
 ehf(i)=energy
                                                                                 !caspt2 calculation
 {casscf;closed,3;occ,7;wf,10,1,0}
 {rs2,shift=0.2}
 ers2(i)=energy
                                                                                 !Perform optimization
                                                                                 !{optg;inactive,r}
 
 
 r=r+0.05
 end do
 
 {table,rch4,ehf,ers2;plot,file='scan.plot'}
 

 Variables initialized (661), CPU time= 0.01 sec
 Commands  initialized (458), CPU time= 0.05 sec, 486 directives.
 Default parameters read. Elapsed time= 0.22 sec

 Checking input...
 Passed
1


                                         ***  PROGRAM SYSTEM MOLPRO  ***
                         Copyright, University College Cardiff Consultants Limited, 2008

                                    Version 2010.1 linked Mar  6 2018 16:01:50


 **********************************************************************************************************************************
 LABEL *   methane to methyl and hydrogen                                                
 Linux-3.10.0-1160.108.1.el7.x86_64/molmod(x86_64) 64 bit serial version                 DATE: 18-Aug-24          TIME: 23:13:25  
 **********************************************************************************************************************************

 SHA1:             d90fb18d49a3be29a79769f900c595ef3b8176e2
 **********************************************************************************************************************************

 Variable memory set to  300000000 words,  buffer space   230000 words

 ZSYMEL=NOSYM

 SETTING R              =         1.09000000  ANG                             
 SETTING D              =         1.09000000  ANG                             
 SETTING A              =       109.47000000  DEG                             
 SETTING T              =       120.00000000  DEG                             
 SETTING BASIS          =    CC-PVDZ

 DO I                   =         1.00000000   
 SETTING RCH4(1)        =         1.09000000  ANG                             


 Recomputing integrals since basis changed


 Using spherical harmonics

 Library entry C      S cc-pVDZ              selected for orbital group  1
 Library entry C      P cc-pVDZ              selected for orbital group  1
 Library entry C      D cc-pVDZ              selected for orbital group  1
 Library entry H      S cc-pVDZ              selected for orbital group  2
 Library entry H      P cc-pVDZ              selected for orbital group  2

1PROGRAM * SEWARD (Integral evaluation for generally contracted gaussian basis sets)     Author: Roland Lindh, 1990

 Geometry written to block  1 of record 700

 Orientation using atomic masses  
 Molecule type: Symmetric top,     Order of principal axis = 3
 Rotational constants:     158.2574080    158.2574080    158.2538321 GHz  (calculated with average atomic masses)

 Point group  C1  



 ATOMIC COORDINATES

 NR  ATOM    CHARGE       X              Y              Z

   1  C       6.00   -0.000000000   -0.000000000   -0.000007798
   2  H1      1.00   -0.000000000    0.000000000    2.059793685
   3  H2      1.00    1.942014089    0.000000000   -0.686566920
   4  H3      1.00   -0.971007045   -1.681833536   -0.686566920
   5  H4      1.00   -0.971007045    1.681833536   -0.686566920

 Bond lengths in Bohr (Angstrom)

 1-2  2.059801483  1-3  2.059801483  1-4  2.059801483  1-5  2.059801483
     ( 1.090000000)     ( 1.090000000)     ( 1.090000000)     ( 1.090000000)

 Bond angles

  2-1-3  109.47000000   2-1-4  109.47000000   2-1-5  109.47000000   3-1-4  109.47244124

  3-1-5  109.47244124   4-1-5  109.47244124

 NUCLEAR CHARGE:                   10
 NUMBER OF PRIMITIVE AOS:          55
 NUMBER OF SYMMETRY AOS:           54
 NUMBER OF CONTRACTIONS:           34   (  34A   )
 NUMBER OF CORE ORBITALS:           1   (   1A   )
 NUMBER OF VALENCE ORBITALS:        8   (   8A   )


 NUCLEAR REPULSION ENERGY   13.43538921


 Eigenvalues of metric

         1 0.122E-01 0.371E-01 0.371E-01 0.371E-01 0.509E-01 0.574E-01 0.574E-01 0.574E-01


 Contracted 2-electron integrals neglected if value below      1.0D-11
 AO integral compression algorithm  1   Integral accuracy      1.0D-11

     1.049 MB (compressed) written to integral file ( 65.1%)


 NUMBER OF SORTED TWO-ELECTRON INTEGRALS:     177310.     BUFFER LENGTH:  32768
 NUMBER OF SEGMENTS:   1  SEGMENT LENGTH:     177310      RECORD LENGTH: 524288

 Memory used in sort:       0.73 MW

 SORT1 READ      219389. AND WROTE      146782. INTEGRALS IN      1 RECORDS. CPU TIME:     0.01 SEC, REAL TIME:     0.01 SEC
 SORT2 READ      146782. AND WROTE      177310. INTEGRALS IN      4 RECORDS. CPU TIME:     0.09 SEC, REAL TIME:     0.10 SEC

 FILE SIZES:   FILE 1:     3.7 MBYTE,  FILE 4:     4.2 MBYTE,   TOTAL:      7.9 MBYTE

 OPERATOR DM      FOR CENTER  0  COORDINATES:    0.000000    0.000000    0.000000


 **********************************************************************************************************************************
 DATASETS  * FILE   NREC   LENGTH (MB)   RECORD NAMES
              1      19        3.41       500      610      700      900      950      970     1000      129      960     1100   
                                          VAR    BASINP    GEOM    SYMINP    ZMAT    AOBASIS   BASIS     P2S    ABASIS      S 
                                         1400     1410     1200     1210     1080     1600     1650     1300     1700   
                                           T        V       H0       H01     AOSYM     SMH    MOLCAS    ERIS     OPER   

 PROGRAMS   *        TOTAL       INT
 CPU TIMES  *         0.86      0.35
 REAL TIME  *         1.39 SEC
 DISK USED  *         8.43 MB      
 **********************************************************************************************************************************

1PROGRAM * RHF-SCF (CLOSED SHELL)       Authors: W. Meyer, H.-J. Werner


 NUMBER OF ELECTRONS:       5+    5-    SPACE SYMMETRY=1    SPIN SYMMETRY: Singlet 
 CONVERGENCE THRESHOLDS:    1.00E-05 (Density)    1.00E-07 (Energy)
 MAX. NUMBER OF ITERATIONS:       60
 INTERPOLATION TYPE:            DIIS
 INTERPOLATION STEPS:              2 (START)      1 (STEP)
 LEVEL SHIFTS:                  0.00 (CLOSED)  0.00 (OPEN) 



 Orbital guess generated from atomic densities. Full valence occupancy:    9

 Molecular orbital dump at record        2100.2

 ITERATION    DDIFF          GRAD             ENERGY        2-EL.EN.            DIPOLE MOMENTS         DIIS
    1      0.000D+00      0.000D+00       -40.18038706     52.915011   -0.00000    0.00000    0.00002    0
    2      0.000D+00      0.892D-02       -40.19653015     51.789911   -0.00000    0.00000    0.00001    1
    3      0.185D-01      0.328D-02       -40.19844654     52.187619    0.00000    0.00000    0.00001    2
    4      0.646D-02      0.880D-03       -40.19870801     52.121589    0.00000    0.00000    0.00001    3
    5      0.231D-02      0.933D-04       -40.19871028     52.124618    0.00000   -0.00000    0.00001    4
    6      0.331D-03      0.552D-05       -40.19871029     52.124537    0.00000   -0.00000    0.00001    5
    7      0.295D-04      0.269D-06       -40.19871029     52.124535    0.00000    0.00000    0.00001    5
    8      0.880D-06      0.292D-07       -40.19871029     52.124535    0.00000    0.00000    0.00001    0

 Final occupancy:   5

 !RHF STATE 1.1 Energy                -40.198710292452
 Nuclear energy                        13.43538921
 One-electron energy                  -79.69636708
 Two-electron energy                   26.06226758
 Virial quotient                       -1.00237832
 !RHF STATE 1.1 Dipole moment           0.00000000     0.00000000     0.00000741
 Dipole moment /Debye                   0.00000000     0.00000000     0.00001883

 Orbital energies:

         1.1          2.1          3.1          4.1          5.1          6.1          7.1
    -11.216211    -0.942011    -0.542567    -0.542567    -0.542560     0.193025     0.274023


 **********************************************************************************************************************************
 DATASETS  * FILE   NREC   LENGTH (MB)   RECORD NAMES
              1      19        3.41       500      610      700      900      950      970     1000      129      960     1100   
                                          VAR    BASINP    GEOM    SYMINP    ZMAT    AOBASIS   BASIS     P2S    ABASIS      S 
                                         1400     1410     1200     1210     1080     1600     1650     1300     1700   
                                           T        V       H0       H01     AOSYM     SMH    MOLCAS    ERIS     OPER   

              2       3        0.32       700     1000     2100   
                                         GEOM     BASIS     RHF  

 PROGRAMS   *        TOTAL        HF       INT
 CPU TIMES  *         0.94      0.08      0.35
 REAL TIME  *         1.50 SEC
 DISK USED  *         8.43 MB      
 **********************************************************************************************************************************
 SETTING EHF(1)         =       -40.19871029  AU                              

1PROGRAM * MULTI (Direct Multiconfiguration SCF)       Authors: P.J. Knowles, H.-J. Werner (1984)     S.T. Elbert (1988)


 Number of closed-shell orbitals:  3 (  3 )
 Number of active  orbitals:       4 (  4 )
 Number of external orbitals:     27 ( 27 )

 State symmetry 1

 Number of electrons:     4    Spin symmetry=Singlet   Space symmetry=1
 Number of states:        1
 Number of CSFs:         20   (36 determinants, 36 intermediate states)

 Molecular orbitals read from record     2100.2  Type=RHF/CANONICAL (state 1.1)

 Wavefunction dump at record             2140.2

 Convergence thresholds  0.10E-01 (gradient)  0.10E-05 (energy)  0.10E-02 (step length)

 Number of orbital rotations:     201     (  12 Core/Active   81 Core/Virtual   0 Active/Active  108 Active/Virtual)
 Total number of variables:       237


 ITER. MIC  NCI  NEG     ENERGY(VAR)     ENERGY(PROJ)   ENERGY CHANGE     GRAD(0)  GRAD(ORB)   GRAD(CI)     STEP       TIME

   1   60   20    0     -40.20043130     -40.22133770   -0.02090640    0.00513546 0.00006124 0.00022238  0.12D+01      0.13
   2   48   19    0     -40.22179954     -40.22671324   -0.00491371    0.02777004 0.00000643 0.00103260  0.54D+00      0.24
   3   30   18    0     -40.22952279     -40.23197998   -0.00245719    0.01782479 0.00005292 0.00013309  0.33D+00      0.32
   4   27   16    0     -40.23221776     -40.23233178   -0.00011401    0.00577711 0.00000555 0.00001428  0.74D-01      0.41
   5   25   13    0     -40.23233297     -40.23233310   -0.00000013    0.00020576 0.00000003 0.00000011  0.26D-02      0.49
   6   25    4    0     -40.23233310     -40.23233310   -0.00000000    0.00000007 0.00000000 0.00000000  0.10D-05      0.54

 ** WVFN ****  CONVERGENCE REACHED, FINAL GRADIENT:  0.41D-07


 First order charge density matrix for state 1.1 saved on record  2140.2 (density set 1)

 Results for state 1.1
 =====================

 !MCSCF STATE 1.1 Energy              -40.232333102996
 Nuclear energy                        13.43538921
 Kinetic energy                        40.18438323
 One electron energy                  -79.69310684
 Two electron energy                   26.02538453
 Virial ratio                           2.00119325

 !MCSCF STATE 1.1 Dipole moment         0.00794353    -0.00000000     0.00562346
 Dipole moment /Debye                   0.02018912    -0.00000000     0.01429247


 Natural orbital dump at molpro section                    2140.2    (Orbital set 2)



 **********************************************************************************************************************************
 DATASETS  * FILE   NREC   LENGTH (MB)   RECORD NAMES
              1      20        3.82       500      610      700      900      950      970     1000      129      960     1100   
                                          VAR    BASINP    GEOM    SYMINP    ZMAT    AOBASIS   BASIS     P2S    ABASIS      S 
                                         1400     1410     1200     1210     1080     1600     1650     1300     1700     1380   
                                           T        V       H0       H01     AOSYM     SMH    MOLCAS    ERIS     OPER     JKOP   

              2       4        0.40       700     1000     2100     2140   
                                         GEOM     BASIS     RHF     MCSCF   

 PROGRAMS   *        TOTAL    CASSCF        HF       INT
 CPU TIMES  *         1.57      0.62      0.08      0.35
 REAL TIME  *         2.55 SEC
 DISK USED  *         9.40 MB      
 **********************************************************************************************************************************

1PROGRAM * RS2 (Multireference RS Perturbation Theory)     Authors: H.-J. Werner (1993), P. Celani (1998)


 Level shift= 0.20

 Convergence thresholds:  THRVAR = 1.00D-08  THRDEN = 1.00D-06

 Number of optimized states:  1  Roots:   1
 Number of reference states:  1  Roots:   1

 Reference symmetry:                   1   Singlet 
 Number of electrons:                 10
 Maximum number of shells:             5
 Maximum number of spin couplings:    14

 Reference space:       19 conf       20 CSFs
 N elec internal:       81 conf       96 CSFs
 N-1 el internal:      102 conf      174 CSFs
 N-2 el internal:       99 conf      260 CSFs

 Number of electrons in valence space:                      8
 Maximum number of open shell orbitals in reference space:  4
 Maximum number of open shell orbitals in internal spaces:  8


 Number of core orbitals:           1 (   1 )
 Number of closed-shell orbitals:   2 (   2 )
 Number of active  orbitals:        4 (   4 )
 Number of external orbitals:      27 (  27 )

 Molecular orbitals read from record     2140.2  Type=MCSCF/NATURAL (state 1.1)

 Coulomb and exchange operators available. No transformation done.

 Number of p-space configurations:   1

 Reference wavefunction optimized for reference space (refopt=1)

 State     Reference Energy 
   1         -40.23233310

 Number of blocks in overlap matrix:     2   Smallest eigenvalue:  0.59D-05
 Number of N-2 electron functions:      36
 Number of N-1 electron functions:     174

 Number of internal configurations:                   96
 Number of singly external configurations:          4698
 Number of doubly external configurations:         13203
 Total number of contracted configurations:        17997
 Total number of uncontracted configurations:      99429

 Weight factors for SA-density in H0:    1.000000

 FIMAX=  0.19D+00  FXMAX=  0.82D-08  DIAG=  F  F  NOREF=1  NOINT=0  IHPPD=2

 Nuclear energy:                      13.43538921
 Core energy:                        -36.24264322
 Zeroth-order valence energy:         -5.06343298
 Zeroth-order total energy:          -27.87068699
 First-order energy:                 -12.36164611

 Using uncontracted singles

 Diagonal Coupling coefficients finished.               Storage:    4660 words, CPU-Time:      0.00 seconds.
 Energy denominators for pairs finished in 0 passes.    Storage:    5326 words, CPU-time:      0.00 seconds.

 A level shift of 0.20 is applied.

  ITER. STATE  ROOT     SQ.NORM     CORR.ENERGY   TOTAL ENERGY   ENERGY CHANGE       DEN1      VAR(S)    VAR(P)      TIME
    1     1     1     1.00776880    -0.00155376   -40.23388686    -0.00155376    -0.12192385  0.78D-02  0.29D-01     0.03
    2     1     1     1.03729929    -0.13029782   -40.36263092    -0.12874406    -0.00083344  0.78D-04  0.17D-03     0.05
    3     1     1     1.03801514    -0.13126738   -40.36360049    -0.00096956    -0.00064250  0.72D-05  0.20D-05     0.06
    4     1     1     1.03810781    -0.13131379   -40.36364690    -0.00004641    -0.00001087  0.18D-06  0.19D-06     0.07
    5     1     1     1.03813825    -0.13132106   -40.36365416    -0.00000727    -0.00002128  0.13D-07  0.59D-08     0.09
    6     1     1     1.03814185    -0.13132182   -40.36365493    -0.00000076    -0.00000059  0.64D-09  0.39D-09     0.11
    7     1     1     1.03814312    -0.13132210   -40.36365520    -0.00000027    -0.00000084  0.42D-10  0.24D-10     0.12

 Energies without level shift correction:

    7     1     1     1.03814312    -0.12369347   -40.35602658

 Energy contributions for state 1.1:
 ===================================

            Energy contr.      SQ.Norm of FOWF
 Space I     -0.00044019          0.00018166
 Space S     -0.02448998          0.00847344
 Space P     -0.09876330          0.02948803


 =====================================
 Analysis of CPU times by interactions
 =====================================

       I      S      P

 I   0.0%
 S  33.3%   8.3%
 P   0.0%   8.3%  25.0%

 Initialization:  25.0%
 Other:            0.0%

 Total CPU:        0.1 seconds
 =====================================



 Reference coefficients greater than 0.0500000
 =============================================
 222200           0.9908251
 22/\/\          -0.0852322
 222002          -0.0665860
 220220          -0.0623375

 Coefficients of doubly external configurations greater than 0.0500000
 =====================================================================

 PAIR    I     J   ->   K     L     NP  SYM  REF     COEFFICIENTS

  16    5.1   5.1     14.1  14.1     1   1    1   -0.23844286
  16    5.1   5.1     13.1  13.1     1   1    1   -0.19874825
  16    5.1   5.1     18.1  18.1     1   1    1   -0.19071410
   9    4.1   4.1     14.1  14.1     1   1    1   -0.18259964
  16    5.1   5.1     17.1  17.1     1   1    1   -0.17694287
  36    7.1   7.1     14.1  14.1     1   1    1   -0.16265908
   9    4.1   4.1     18.1  18.1     1   1    1   -0.15943644
  16    5.1   5.1     11.1  11.1     1   1    1   -0.15656801
   9    4.1   4.1     13.1  13.1     1   1    1   -0.15565003
  25    6.1   6.1     14.1  14.1     1   1    1   -0.13769461
  36    7.1   7.1     13.1  13.1     1   1    1   -0.13660222
  36    7.1   7.1     18.1  18.1     1   1    1   -0.13272648
   9    4.1   4.1     17.1  17.1     1   1    1   -0.13239562
  16    5.1   5.1     11.1  14.1     1   1    1    0.12845186
   9    4.1   4.1     11.1  11.1     1   1    1   -0.12138328
  36    7.1   7.1     17.1  17.1     1   1    1   -0.11801873
  16    5.1   5.1     12.1  12.1     1   1    1   -0.11752718
  16    5.1   5.1     10.1  10.1     1   1    1   -0.11748328
  25    6.1   6.1     13.1  13.1     1   1    1   -0.11624845
  25    6.1   6.1     18.1  18.1     1   1    1   -0.11424787
  16    5.1   5.1      9.1   9.1     1   1    1   -0.11243917
  36    7.1   7.1     11.1  11.1     1   1    1   -0.10724130
  16    5.1   5.1     22.1  22.1     1   1    1   -0.10355739
   9    4.1   4.1     11.1  14.1     1   1    1    0.10072256
  25    6.1   6.1     17.1  17.1     1   1    1   -0.09953639
   9    4.1   4.1     12.1  12.1     1   1    1   -0.09830308
   9    4.1   4.1      9.1   9.1     1   1    1   -0.09457524
   9    4.1   4.1     10.1  10.1     1   1    1   -0.09361661
  16    5.1   5.1      9.1  12.1     1   1    1    0.09184599
  25    6.1   6.1     11.1  11.1     1   1    1   -0.09097489
  16    5.1   5.1     13.1  18.1     1   1    1    0.09023668
  36    7.1   7.1     11.1  14.1     1   1    1    0.08812658
  36    7.1   7.1     12.1  12.1     1   1    1   -0.08278210
  16    5.1   5.1     23.1  23.1     1   1    1   -0.08238130
  36    7.1   7.1     10.1  10.1     1   1    1   -0.08143405
   9    4.1   4.1     22.1  22.1     1   1    1   -0.08118394
  36    7.1   7.1      9.1   9.1     1   1    1   -0.07984216
  16    5.1   5.1     17.1  21.1     1   1    1    0.07849824
   9    4.1   4.1      9.1  12.1     1   1    1    0.07799184
  16    5.1   5.1     14.1  23.1     1   1    1   -0.07562518
  25    6.1   6.1     11.1  14.1     1   1    1    0.07500948
  16    5.1   5.1     15.1  15.1     1   1    1   -0.07383294
  25    6.1   6.1     12.1  12.1     1   1    1   -0.07137661
  16    5.1   5.1     21.1  21.1     1   1    1   -0.06987640
  25    6.1   6.1     10.1  10.1     1   1    1   -0.06973972
  16    5.1   5.1      8.1   8.1     1   1    1   -0.06964884
  16    5.1   5.1      9.1  15.1     1   1    1   -0.06953435
  16    5.1   5.1     19.1  19.1     1   1    1   -0.06952566
  36    7.1   7.1     22.1  22.1     1   1    1   -0.06944645
  25    6.1   6.1      9.1   9.1     1   1    1   -0.06906475
   9    4.1   4.1     13.1  18.1     1   1    1    0.06851547
  36    7.1   7.1      9.1  12.1     1   1    1    0.06527430
   9    4.1   4.1     23.1  23.1     1   1    1   -0.06477039
  16    5.1   5.1     18.1  24.1     1   1    1    0.06381916
   9    4.1   4.1     15.1  15.1     1   1    1   -0.06365731
  16    5.1   5.1     13.1  24.1     1   1    1   -0.06295579
  16    5.1   5.1     13.1  19.1     1   1    1    0.06227168
   9    4.1   4.1     17.1  21.1     1   1    1    0.06187371
  16    5.1   5.1     24.1  24.1     1   1    1   -0.06165297
  36    7.1   7.1     13.1  18.1     1   1    1    0.06098784
   9    4.1   4.1     14.1  23.1     1   1    1   -0.06070863
   9    4.1   4.1      9.1  15.1     1   1    1   -0.05938208
  16    5.1   5.1      8.1  18.1     1   1    1   -0.05920993
  25    6.1   6.1     22.1  22.1     1   1    1   -0.05913591
  16    5.1   5.1     10.1  13.1     1   1    1   -0.05887129
  16    5.1   5.1      8.1  13.1     1   1    1    0.05834649
  25    6.1   6.1      9.1  12.1     1   1    1    0.05650153
  16    5.1   5.1     16.1  16.1     1   1    1   -0.05570127
   9    4.1   4.1     19.1  19.1     1   1    1   -0.05550685
  36    7.1   7.1     23.1  23.1     1   1    1   -0.05539040
   9    4.1   4.1     21.1  21.1     1   1    1   -0.05512887
   9    4.1   4.1      8.1   8.1     1   1    1   -0.05417553
  36    7.1   7.1     17.1  21.1     1   1    1    0.05303556
  36    7.1   7.1     15.1  15.1     1   1    1   -0.05214568
  36    7.1   7.1     14.1  23.1     1   1    1   -0.05190004
   9    4.1   4.1     13.1  19.1     1   1    1    0.05169307
  25    6.1   6.1     13.1  18.1     1   1    1    0.05157854



 RESULTS FOR STATE 1.1
 =====================

 Coefficient of reference function:   C(0) = 1.00000000 (fixed)   1.00000000 (relaxed)

 Energy contributions of configuration classes

 CLASS          SQ.NORM        ECORR1        ECORR2
 +++++++++++++++++++++++++++++++++++++++++++++++++++
 Internals    0.00018166   -0.00044016    0.13038728
 Singles      0.00847344   -0.02448989   -0.05200064
 Pairs        0.02948803   -0.09876326   -0.20970874
 Total        1.03814312   -0.12369331   -0.13132210
 +++++++++++++++++++++++++++++++++++++++++++++++++++


 Reference energy                     -40.23233310
 Nuclear energy                        13.43538921
 Kinetic energy                        40.25853623
 One electron energy                  -79.61375587
 Two electron energy                   25.81471146
 Virial quotient                       -1.00261110
 Correlation energy                    -0.13132210
 !RSPT2 STATE 1.1 Energy              -40.363655200622

 !RSPT2 STATE 1.1 Dipole moment         0.00959850    -0.00000000     0.00679382
 Dipole moment /Debye                   0.02439537    -0.00000000     0.01726704


 **********************************************************************************************************************************
 DATASETS  * FILE   NREC   LENGTH (MB)   RECORD NAMES
              1      20        3.82       500      610      700      900      950      970     1000      129      960     1100   
                                          VAR    BASINP    GEOM    SYMINP    ZMAT    AOBASIS   BASIS     P2S    ABASIS      S 
                                         1400     1410     1200     1210     1080     1600     1650     1300     1700     1380   
                                           T        V       H0       H01     AOSYM     SMH    MOLCAS    ERIS     OPER     JKOP   

              2       4        0.40       700     1000     2100     2140   
                                         GEOM     BASIS     RHF     MCSCF   

 PROGRAMS   *        TOTAL       RS2    CASSCF        HF       INT
 CPU TIMES  *         1.91      0.33      0.62      0.08      0.35
 REAL TIME  *         3.06 SEC
 DISK USED  *         9.40 MB      
 **********************************************************************************************************************************
 SETTING ERS2(1)        =       -40.36365520  AU                              
 SETTING R              =         1.14000000  ANG                             

 DO I                   =         2.00000000   
 SETTING RCH4(2)        =         1.14000000  ANG                             

 *** Symmetry of molecule has changed ***

 Recomputing integrals since geometry changed

1PROGRAM * SEWARD (Integral evaluation for generally contracted gaussian basis sets)     Author: Roland Lindh, 1990

 Geometry written to block  1 of record 700

 Orientation using atomic masses  
 Molecule type: Asymmetric top
 Rotational constants:     152.8845147    158.2570110    152.8815480 GHz  (calculated with average atomic masses)

 Point group  C1  



 ATOMIC COORDINATES

 NR  ATOM    CHARGE       X              Y              Z

   1  C       6.00   -0.000000000   -0.005933820   -0.000006164
   2  H1      1.00   -0.000000000   -0.692104124    1.942145340
   3  H2      1.00    1.681833536   -0.692770063   -0.970817209
   4  H3      1.00   -1.681833536   -0.692770063   -0.970817209
   5  H4      1.00   -0.000000000    2.148353927   -0.000437467

 Bond lengths in Bohr (Angstrom)

 1-2  2.059801483  1-3  2.059801483  1-4  2.059801483  1-5  2.154287790
     ( 1.090000000)     ( 1.090000000)     ( 1.090000000)     ( 1.140000000)

 Bond angles

  2-1-3  109.47000000   2-1-4  109.47000000   2-1-5  109.47000000   3-1-4  109.47244124

  3-1-5  109.47244124   4-1-5  109.47244124

 NUCLEAR CHARGE:                   10
 NUMBER OF PRIMITIVE AOS:          55
 NUMBER OF SYMMETRY AOS:           54
 NUMBER OF CONTRACTIONS:           34   (  34A   )
 NUMBER OF CORE ORBITALS:           1   (   1A   )
 NUMBER OF VALENCE ORBITALS:        8   (   8A   )


 NUCLEAR REPULSION ENERGY   13.28752329


 Eigenvalues of metric

         1 0.124E-01 0.372E-01 0.372E-01 0.408E-01 0.538E-01 0.572E-01 0.572E-01 0.631E-01


 Contracted 2-electron integrals neglected if value below      1.0D-11
 AO integral compression algorithm  1   Integral accuracy      1.0D-11

     1.049 MB (compressed) written to integral file ( 68.3%)


 NUMBER OF SORTED TWO-ELECTRON INTEGRALS:     177310.     BUFFER LENGTH:  32768
 NUMBER OF SEGMENTS:   1  SEGMENT LENGTH:     177310      RECORD LENGTH: 524288

 Memory used in sort:       0.73 MW

 SORT1 READ      219389. AND WROTE      152515. INTEGRALS IN      1 RECORDS. CPU TIME:     0.00 SEC, REAL TIME:     0.01 SEC
 SORT2 READ      152515. AND WROTE      177310. INTEGRALS IN      4 RECORDS. CPU TIME:     0.09 SEC, REAL TIME:     0.10 SEC

 FILE SIZES:   FILE 1:     3.7 MBYTE,  FILE 4:     4.2 MBYTE,   TOTAL:      7.9 MBYTE

 OPERATOR DM      FOR CENTER  0  COORDINATES:    0.000000    0.000000    0.000000


 **********************************************************************************************************************************
 DATASETS  * FILE   NREC   LENGTH (MB)   RECORD NAMES
              1      19        3.43       500      610      700      900      950      970     1000      129      960     1100   
                                          VAR    BASINP    GEOM    SYMINP    ZMAT    AOBASIS   BASIS     P2S    ABASIS      S 
                                         1400     1410     1200     1210     1080     1600     1650     1300     1700   
                                           T        V       H0       H01     AOSYM     SMH    MOLCAS    ERIS     OPER   

              2       4        0.40       700     1000     2100     2140   
                                         GEOM     BASIS     RHF     MCSCF   

 PROGRAMS   *        TOTAL       INT       RS2    CASSCF        HF       INT
 CPU TIMES  *         2.24      0.31      0.33      0.62      0.08      0.35
 REAL TIME  *         3.50 SEC
 DISK USED  *         9.40 MB      
 **********************************************************************************************************************************

1PROGRAM * RHF-SCF (CLOSED SHELL)       Authors: W. Meyer, H.-J. Werner


 NUMBER OF ELECTRONS:       5+    5-    SPACE SYMMETRY=1    SPIN SYMMETRY: Singlet 
 CONVERGENCE THRESHOLDS:    1.00E-05 (Density)    1.00E-07 (Energy)
 MAX. NUMBER OF ITERATIONS:       60
 INTERPOLATION TYPE:            DIIS
 INTERPOLATION STEPS:              2 (START)      1 (STEP)
 LEVEL SHIFTS:                  0.00 (CLOSED)  0.00 (OPEN) 



 Molecular orbitals read from record     2100.2  Type=RHF/CANONICAL (state 1.1)

 Molecular orbital dump at record        2100.2

 ITERATION    DDIFF          GRAD             ENERGY        2-EL.EN.            DIPOLE MOMENTS         DIIS
    1      0.000D+00      0.000D+00       -40.11450359     51.903232   -0.00851    0.00067   -0.00645    0
    2      0.000D+00      0.180D-01       -40.18854844     51.814817    0.00835   -0.00252    0.00622    1
    3      0.300D-01      0.496D-02       -40.19692521     51.896738   -0.00030   -0.01325   -0.00025    2
    4      0.930D-02      0.863D-03       -40.19721618     51.830638    0.00051   -0.01635    0.00039    3
    5      0.185D-02      0.239D-03       -40.19722815     51.859186    0.00014   -0.01666    0.00011    4
    6      0.458D-03      0.237D-04       -40.19722834     51.858683   -0.00003   -0.01680   -0.00001    5
    7      0.719D-04      0.349D-05       -40.19722835     51.858659   -0.00000   -0.01680    0.00001    6
    8      0.850D-05      0.541D-06       -40.19722835     51.858623   -0.00000   -0.01680    0.00001    0

 Final occupancy:   5

 !RHF STATE 1.1 Energy                -40.197228348240
 Nuclear energy                        13.28752329
 One-electron energy                  -79.41406334
 Two-electron energy                   25.92931170
 Virial quotient                       -1.00398384
 !RHF STATE 1.1 Dipole moment          -0.00000112    -0.01679938     0.00001009
 Dipole moment /Debye                  -0.00000286    -0.04269696     0.00002564

 Orbital energies:

         1.1          2.1          3.1          4.1          5.1          6.1          7.1
    -11.221969    -0.937297    -0.543620    -0.543613    -0.531221     0.191285     0.268278


 **********************************************************************************************************************************
 DATASETS  * FILE   NREC   LENGTH (MB)   RECORD NAMES
              1      19        3.43       500      610      700      900      950      970     1000      129      960     1100   
                                          VAR    BASINP    GEOM    SYMINP    ZMAT    AOBASIS   BASIS     P2S    ABASIS      S 
                                         1400     1410     1200     1210     1080     1600     1650     1300     1700   
                                           T        V       H0       H01     AOSYM     SMH    MOLCAS    ERIS     OPER   

              2       4        0.40       700     1000     2100     2140   
                                         GEOM     BASIS     RHF     MCSCF   

 PROGRAMS   *        TOTAL        HF       INT       RS2    CASSCF        HF       INT
 CPU TIMES  *         2.33      0.10      0.31      0.33      0.62      0.08      0.35
 REAL TIME  *         3.67 SEC
 DISK USED  *         9.40 MB      
 **********************************************************************************************************************************
 SETTING EHF(2)         =       -40.19722835  AU                              

1PROGRAM * MULTI (Direct Multiconfiguration SCF)       Authors: P.J. Knowles, H.-J. Werner (1984)     S.T. Elbert (1988)


 Number of closed-shell orbitals:  3 (  3 )
 Number of active  orbitals:       4 (  4 )
 Number of external orbitals:     27 ( 27 )

 State symmetry 1

 Number of electrons:     4    Spin symmetry=Singlet   Space symmetry=1
 Number of states:        1
 Number of CSFs:         20   (36 determinants, 36 intermediate states)

 Molecular orbitals read from record     2140.2  Type=MCSCF/NATURAL (state 1.1)

 Wavefunction dump at record             2140.2

 Convergence thresholds  0.10E-01 (gradient)  0.10E-05 (energy)  0.10E-02 (step length)

 Number of orbital rotations:     201     (  12 Core/Active   81 Core/Virtual   0 Active/Active  108 Active/Virtual)
 Total number of variables:       237


 ITER. MIC  NCI  NEG     ENERGY(VAR)     ENERGY(PROJ)   ENERGY CHANGE     GRAD(0)  GRAD(ORB)   GRAD(CI)     STEP       TIME

   1   50   21    0     -40.18285321     -40.23206213   -0.04920892    0.35798509 0.00018071 0.00014355  0.29D+00      0.12
   2   40   17    0     -40.23205392     -40.23220322   -0.00014930    0.01547093 0.00000201 0.00000995  0.50D-01      0.21
   3   40   13    0     -40.23220411     -40.23220420   -0.00000009    0.00012690 0.00000005 0.00000026  0.20D-02      0.32
   4   37    4    0     -40.23220420     -40.23220420   -0.00000000    0.00000007 0.00000000 0.00000001  0.24D-06      0.37

 ** WVFN ****  CONVERGENCE REACHED, FINAL GRADIENT:  0.35D-07


 First order charge density matrix for state 1.1 saved on record  2140.2 (density set 1)

 Results for state 1.1
 =====================

 !MCSCF STATE 1.1 Energy              -40.232204195926
 Nuclear energy                        13.28752329
 Kinetic energy                        40.12411464
 One electron energy                  -79.41241397
 Two electron energy                   25.89268648
 Virial ratio                           2.00269388

 !MCSCF STATE 1.1 Dipole moment         0.00708238    -0.02067128     0.00409985
 Dipole moment /Debye                   0.01800045    -0.05253771     0.01042009


 Natural orbital dump at molpro section                    2140.2    (Orbital set 2)



 **********************************************************************************************************************************
 DATASETS  * FILE   NREC   LENGTH (MB)   RECORD NAMES
              1      20        3.84       500      610      700      900      950      970     1000      129      960     1100   
                                          VAR    BASINP    GEOM    SYMINP    ZMAT    AOBASIS   BASIS     P2S    ABASIS      S 
                                         1400     1410     1200     1210     1080     1600     1650     1300     1700     1380   
                                           T        V       H0       H01     AOSYM     SMH    MOLCAS    ERIS     OPER     JKOP   

              2       4        0.40       700     1000     2100     2140   
                                         GEOM     BASIS     RHF     MCSCF   

 PROGRAMS   *        TOTAL    CASSCF        HF       INT       RS2    CASSCF        HF       INT
 CPU TIMES  *         2.79      0.44      0.10      0.31      0.33      0.62      0.08      0.35
 REAL TIME  *         4.41 SEC
 DISK USED  *         9.40 MB      
 **********************************************************************************************************************************

1PROGRAM * RS2 (Multireference RS Perturbation Theory)     Authors: H.-J. Werner (1993), P. Celani (1998)


 Level shift= 0.20

 Convergence thresholds:  THRVAR = 1.00D-08  THRDEN = 1.00D-06

 Number of optimized states:  1  Roots:   1
 Number of reference states:  1  Roots:   1

 Reference symmetry:                   1   Singlet 
 Number of electrons:                 10
 Maximum number of shells:             5
 Maximum number of spin couplings:    14

 Reference space:       19 conf       20 CSFs
 N elec internal:       81 conf       96 CSFs
 N-1 el internal:      102 conf      174 CSFs
 N-2 el internal:       99 conf      260 CSFs

 Number of electrons in valence space:                      8
 Maximum number of open shell orbitals in reference space:  4
 Maximum number of open shell orbitals in internal spaces:  8


 Number of core orbitals:           1 (   1 )
 Number of closed-shell orbitals:   2 (   2 )
 Number of active  orbitals:        4 (   4 )
 Number of external orbitals:      27 (  27 )

 Molecular orbitals read from record     2140.2  Type=MCSCF/NATURAL (state 1.1)

 Coulomb and exchange operators available. No transformation done.

 Number of p-space configurations:   1

 Reference wavefunction optimized for reference space (refopt=1)

 State     Reference Energy 
   1         -40.23220420

 Number of blocks in overlap matrix:     2   Smallest eigenvalue:  0.49D-05
 Number of N-2 electron functions:      36
 Number of N-1 electron functions:     174

 Number of internal configurations:                   96
 Number of singly external configurations:          4698
 Number of doubly external configurations:         13203
 Total number of contracted configurations:        17997
 Total number of uncontracted configurations:      99429

 Weight factors for SA-density in H0:    1.000000

 FIMAX=  0.18D+00  FXMAX=  0.18D-07  DIAG=  F  F  NOREF=1  NOINT=0  IHPPD=2

 Nuclear energy:                      13.28752329
 Core energy:                        -36.20007787
 Zeroth-order valence energy:         -5.03057811
 Zeroth-order total energy:          -27.94313270
 First-order energy:                 -12.28907150

 Using uncontracted singles

 Diagonal Coupling coefficients finished.               Storage:    4660 words, CPU-Time:      0.00 seconds.
 Energy denominators for pairs finished in 0 passes.    Storage:    5326 words, CPU-time:      0.00 seconds.

 A level shift of 0.20 is applied.

  ITER. STATE  ROOT     SQ.NORM     CORR.ENERGY   TOTAL ENERGY   ENERGY CHANGE       DEN1      VAR(S)    VAR(P)      TIME
    1     1     1     1.00793383    -0.00158677   -40.23379096    -0.00158677    -0.12146380  0.79D-02  0.29D-01     0.04
    2     1     1     1.03737887    -0.12988262   -40.36208682    -0.12829586    -0.00083026  0.80D-04  0.17D-03     0.05
    3     1     1     1.03808171    -0.13083647   -40.36304067    -0.00095385    -0.00063176  0.70D-05  0.20D-05     0.07
    4     1     1     1.03817373    -0.13088190   -40.36308609    -0.00004542    -0.00001152  0.18D-06  0.18D-06     0.09
    5     1     1     1.03820334    -0.13088895   -40.36309315    -0.00000705    -0.00002064  0.12D-07  0.57D-08     0.10
    6     1     1     1.03820685    -0.13088969   -40.36309389    -0.00000074    -0.00000059  0.63D-09  0.36D-09     0.11
    7     1     1     1.03820807    -0.13088995   -40.36309415    -0.00000026    -0.00000081  0.40D-10  0.22D-10     0.13

 Energies without level shift correction:

    7     1     1     1.03820807    -0.12324834   -40.35545254

 Energy contributions for state 1.1:
 ===================================

            Energy contr.      SQ.Norm of FOWF
 Space I     -0.00046474          0.00019499
 Space S     -0.02468153          0.00864822
 Space P     -0.09810206          0.02936486


 =====================================
 Analysis of CPU times by interactions
 =====================================

       I      S      P

 I   0.0%
 S  23.1%   0.0%
 P   0.0%  23.1%  15.4%

 Initialization:  23.1%
 Other:           15.4%

 Total CPU:        0.1 seconds
 =====================================



 Reference coefficients greater than 0.0500000
 =============================================
 222200           0.9900592
 222020          -0.0844190
 220202          -0.0704180

 Coefficients of doubly external configurations greater than 0.0500000
 =====================================================================

 PAIR    I     J   ->   K     L     NP  SYM  REF     COEFFICIENTS

  16    5.1   5.1     14.1  14.1     1   1    1   -0.23394844
  16    5.1   5.1     13.1  13.1     1   1    1   -0.19465767
  16    5.1   5.1     18.1  18.1     1   1    1   -0.18902427
  25    6.1   6.1     14.1  14.1     1   1    1   -0.18694929
  36    7.1   7.1     14.1  14.1     1   1    1   -0.18594918
   9    4.1   4.1     14.1  14.1     1   1    1   -0.18488357
   9    4.1   4.1     13.1  13.1     1   1    1   -0.17371176
  16    5.1   5.1     17.1  17.1     1   1    1   -0.17309329
  36    7.1   7.1     13.1  13.1     1   1    1   -0.17267288
   9    4.1   4.1     18.1  18.1     1   1    1   -0.16694503
  16    5.1   5.1     11.1  11.1     1   1    1   -0.16358533
  36    7.1   7.1     18.1  18.1     1   1    1   -0.16009718
  25    6.1   6.1     13.1  13.1     1   1    1   -0.15515471
  25    6.1   6.1     18.1  18.1     1   1    1   -0.15319630
   9    4.1   4.1     17.1  17.1     1   1    1   -0.14129618
  36    7.1   7.1     17.1  17.1     1   1    1   -0.14115175
  25    6.1   6.1     17.1  17.1     1   1    1   -0.13476961
   9    4.1   4.1     11.1  11.1     1   1    1   -0.13264116
  36    7.1   7.1     11.1  11.1     1   1    1   -0.13261291
  25    6.1   6.1     11.1  11.1     1   1    1   -0.13103710
  16    5.1   5.1     11.1  14.1     1   1    1    0.12777404
  16    5.1   5.1     12.1  12.1     1   1    1   -0.12150542
  16    5.1   5.1     10.1  10.1     1   1    1   -0.12102764
  16    5.1   5.1      9.1   9.1     1   1    1   -0.11206184
   9    4.1   4.1     12.1  12.1     1   1    1   -0.10661503
   9    4.1   4.1     10.1  10.1     1   1    1   -0.10536314
  36    7.1   7.1     10.1  10.1     1   1    1   -0.10443775
  16    5.1   5.1     21.1  21.1     1   1    1   -0.10415972
  36    7.1   7.1     12.1  12.1     1   1    1   -0.10355167
  25    6.1   6.1     11.1  14.1     1   1    1    0.10273484
   9    4.1   4.1     11.1  14.1     1   1    1    0.10190385
  36    7.1   7.1     11.1  14.1     1   1    1    0.10132124
  25    6.1   6.1     12.1  12.1     1   1    1   -0.09975390
   9    4.1   4.1      9.1   9.1     1   1    1   -0.09966675
  25    6.1   6.1     10.1  10.1     1   1    1   -0.09778292
  36    7.1   7.1      9.1   9.1     1   1    1   -0.09721459
  16    5.1   5.1      9.1  12.1     1   1    1    0.09346797
  25    6.1   6.1      9.1   9.1     1   1    1   -0.09279573
  16    5.1   5.1     13.1  18.1     1   1    1    0.08943806
   9    4.1   4.1     21.1  21.1     1   1    1   -0.08722872
  36    7.1   7.1     21.1  21.1     1   1    1   -0.08472268
   9    4.1   4.1      9.1  12.1     1   1    1    0.08325987
  16    5.1   5.1     23.1  23.1     1   1    1   -0.08317218
  25    6.1   6.1     21.1  21.1     1   1    1   -0.08157736
  36    7.1   7.1      9.1  12.1     1   1    1    0.08068270
  25    6.1   6.1      9.1  12.1     1   1    1    0.07741824
  16    5.1   5.1     14.1  23.1     1   1    1   -0.07509416
  16    5.1   5.1     15.1  15.1     1   1    1   -0.07138100
  25    6.1   6.1     13.1  18.1     1   1    1    0.07087740
  36    7.1   7.1     13.1  18.1     1   1    1    0.07037910
   9    4.1   4.1     13.1  18.1     1   1    1    0.07013873
  16    5.1   5.1      8.1   8.1     1   1    1   -0.06892449
   9    4.1   4.1     23.1  23.1     1   1    1   -0.06830016
  16    5.1   5.1     19.1  19.1     1   1    1   -0.06800162
  16    5.1   5.1      9.1  15.1     1   1    1   -0.06718394
  16    5.1   5.1     17.1  20.1     1   1    1    0.06673601
  36    7.1   7.1     23.1  23.1     1   1    1   -0.06651948
  16    5.1   5.1     20.1  20.1     1   1    1   -0.06639105
   9    4.1   4.1     15.1  15.1     1   1    1   -0.06530477
  25    6.1   6.1     23.1  23.1     1   1    1   -0.06507445
  36    7.1   7.1     15.1  15.1     1   1    1   -0.06214051
   9    4.1   4.1     14.1  23.1     1   1    1   -0.06207079
  16    5.1   5.1     13.1  24.1     1   1    1   -0.06131490
   9    4.1   4.1      9.1  15.1     1   1    1   -0.06102712
  36    7.1   7.1     14.1  23.1     1   1    1   -0.06085010
  16    5.1   5.1     18.1  24.1     1   1    1    0.06019567
  25    6.1   6.1     14.1  23.1     1   1    1   -0.06009175
  16    5.1   5.1     24.1  24.1     1   1    1   -0.05983792
  25    6.1   6.1     15.1  15.1     1   1    1   -0.05883048
  36    7.1   7.1      9.1  15.1     1   1    1   -0.05871630
   9    4.1   4.1     19.1  19.1     1   1    1   -0.05820933
  36    7.1   7.1      8.1   8.1     1   1    1   -0.05810939
   9    4.1   4.1      8.1   8.1     1   1    1   -0.05786642
  16    5.1   5.1      8.1  18.1     1   1    1   -0.05754440
  36    7.1   7.1     19.1  19.1     1   1    1   -0.05660646
  16    5.1   5.1     13.1  19.1     1   1    1    0.05597271
  25    6.1   6.1      9.1  15.1     1   1    1   -0.05553440
  16    5.1   5.1      8.1  13.1     1   1    1    0.05553362
  25    6.1   6.1      8.1   8.1     1   1    1   -0.05548591
  16    5.1   5.1     10.1  13.1     1   1    1   -0.05533829
  16    5.1   5.1     16.1  16.1     1   1    1   -0.05426024
  25    6.1   6.1     19.1  19.1     1   1    1   -0.05410905
  16    5.1   5.1     31.1  31.1     1   1    1   -0.05406412
   9    4.1   4.1     13.1  19.1     1   1    1    0.05342109
  25    6.1   6.1     17.1  20.1     1   1    1    0.05298881
   9    4.1   4.1     10.1  13.1     1   1    1   -0.05297501
  25    6.1   6.1     20.1  20.1     1   1    1   -0.05255253
  36    7.1   7.1     10.1  13.1     1   1    1   -0.05192754
  36    7.1   7.1     13.1  19.1     1   1    1    0.05142569
  36    7.1   7.1     13.1  24.1     1   1    1   -0.05119956
   9    4.1   4.1     13.1  24.1     1   1    1   -0.05098597
   9    4.1   4.1     24.1  24.1     1   1    1   -0.05061177



 RESULTS FOR STATE 1.1
 =====================

 Coefficient of reference function:   C(0) = 1.00000000 (fixed)   1.00000000 (relaxed)

 Energy contributions of configuration classes

 CLASS          SQ.NORM        ECORR1        ECORR2
 +++++++++++++++++++++++++++++++++++++++++++++++++++
 Internals    0.00019499   -0.00046471    0.12990271
 Singles      0.00864822   -0.02468145   -0.05242358
 Pairs        0.02936486   -0.09810202   -0.20836909
 Total        1.03820807   -0.12324819   -0.13088995
 +++++++++++++++++++++++++++++++++++++++++++++++++++


 Reference energy                     -40.23220420
 Nuclear energy                        13.28752329
 Kinetic energy                        40.19868326
 One electron energy                  -79.33433629
 Two electron energy                   25.68371885
 Virial quotient                       -1.00408996
 Correlation energy                    -0.13088995
 !RSPT2 STATE 1.1 Energy              -40.363094150586

 !RSPT2 STATE 1.1 Dipole moment         0.00866406    -0.02207122     0.00501345
 Dipole moment /Debye                   0.02202041    -0.05609577     0.01274210


 **********************************************************************************************************************************
 DATASETS  * FILE   NREC   LENGTH (MB)   RECORD NAMES
              1      20        3.84       500      610      700      900      950      970     1000      129      960     1100   
                                          VAR    BASINP    GEOM    SYMINP    ZMAT    AOBASIS   BASIS     P2S    ABASIS      S 
                                         1400     1410     1200     1210     1080     1600     1650     1300     1700     1380   
                                           T        V       H0       H01     AOSYM     SMH    MOLCAS    ERIS     OPER     JKOP   

              2       4        0.40       700     1000     2100     2140   
                                         GEOM     BASIS     RHF     MCSCF   

 PROGRAMS   *        TOTAL       RS2    CASSCF        HF       INT       RS2    CASSCF        HF       INT
 CPU TIMES  *         3.12      0.33      0.44      0.10      0.31      0.33      0.62      0.08      0.35
 REAL TIME  *         4.91 SEC
 DISK USED  *         9.40 MB      
 **********************************************************************************************************************************
 SETTING ERS2(2)        =       -40.36309415  AU                              
 SETTING R              =         1.19000000  ANG                             

 DO I                   =         3.00000000   
 SETTING RCH4(3)        =         1.19000000  ANG                             


 Recomputing integrals since geometry changed

1PROGRAM * SEWARD (Integral evaluation for generally contracted gaussian basis sets)     Author: Roland Lindh, 1990

 Geometry written to block  1 of record 700

 Orientation using atomic masses  
 Molecule type: Asymmetric top
 Rotational constants:     147.6604163    158.2570109    147.6576490 GHz  (calculated with average atomic masses)

 Point group  C1  



 ATOMIC COORDINATES

 NR  ATOM    CHARGE       X              Y              Z

   1  C       6.00   -0.000000000   -0.011870237   -0.000006198
   2  H1      1.00   -0.000000000   -0.698240572    1.942074622
   3  H2      1.00    1.681833536   -0.698606486   -0.970887980
   4  H3      1.00   -1.681833536   -0.698606486   -0.970887980
   5  H4      1.00   -0.000000000    2.236903849   -0.000224802

 Bond lengths in Bohr (Angstrom)

 1-2  2.059801483  1-3  2.059801483  1-4  2.059801483  1-5  2.248774096
     ( 1.090000000)     ( 1.090000000)     ( 1.090000000)     ( 1.190000000)

 Bond angles

  2-1-3  109.47000000   2-1-4  109.47000000   2-1-5  109.47000000   3-1-4  109.47244124

  3-1-5  109.47244124   4-1-5  109.47244124

 NUCLEAR CHARGE:                   10
 NUMBER OF PRIMITIVE AOS:          55
 NUMBER OF SYMMETRY AOS:           54
 NUMBER OF CONTRACTIONS:           34   (  34A   )
 NUMBER OF CORE ORBITALS:           1   (   1A   )
 NUMBER OF VALENCE ORBITALS:        8   (   8A   )


 NUCLEAR REPULSION ENERGY   13.15107980


 Eigenvalues of metric

         1 0.125E-01 0.372E-01 0.372E-01 0.433E-01 0.561E-01 0.570E-01 0.570E-01 0.709E-01


 Contracted 2-electron integrals neglected if value below      1.0D-11
 AO integral compression algorithm  1   Integral accuracy      1.0D-11

     1.049 MB (compressed) written to integral file ( 67.9%)


 NUMBER OF SORTED TWO-ELECTRON INTEGRALS:     177310.     BUFFER LENGTH:  32768
 NUMBER OF SEGMENTS:   1  SEGMENT LENGTH:     177310      RECORD LENGTH: 524288

 Memory used in sort:       0.73 MW

 SORT1 READ      219389. AND WROTE      152515. INTEGRALS IN      1 RECORDS. CPU TIME:     0.01 SEC, REAL TIME:     0.01 SEC
 SORT2 READ      152515. AND WROTE      177310. INTEGRALS IN      4 RECORDS. CPU TIME:     0.10 SEC, REAL TIME:     0.14 SEC

 FILE SIZES:   FILE 1:     3.7 MBYTE,  FILE 4:     4.2 MBYTE,   TOTAL:      7.9 MBYTE

 OPERATOR DM      FOR CENTER  0  COORDINATES:    0.000000    0.000000    0.000000


 **********************************************************************************************************************************
 DATASETS  * FILE   NREC   LENGTH (MB)   RECORD NAMES
              1      19        3.43       500      610      700      900      950      970     1000      129      960     1100   
                                          VAR    BASINP    GEOM    SYMINP    ZMAT    AOBASIS   BASIS     P2S    ABASIS      S 
                                         1400     1410     1200     1210     1080     1600     1650     1300     1700   
                                           T        V       H0       H01     AOSYM     SMH    MOLCAS    ERIS     OPER   

              2       4        0.40       700     1000     2100     2140   
                                         GEOM     BASIS     RHF     MCSCF   

 PROGRAMS   *        TOTAL       INT       RS2    CASSCF        HF       INT       RS2    CASSCF        HF       INT
 CPU TIMES  *         3.43      0.30      0.33      0.44      0.10      0.31      0.33      0.62      0.08      0.35
 REAL TIME  *         5.33 SEC
 DISK USED  *         9.40 MB      
 **********************************************************************************************************************************

1PROGRAM * RHF-SCF (CLOSED SHELL)       Authors: W. Meyer, H.-J. Werner


 NUMBER OF ELECTRONS:       5+    5-    SPACE SYMMETRY=1    SPIN SYMMETRY: Singlet 
 CONVERGENCE THRESHOLDS:    1.00E-05 (Density)    1.00E-07 (Energy)
 MAX. NUMBER OF ITERATIONS:       60
 INTERPOLATION TYPE:            DIIS
 INTERPOLATION STEPS:              2 (START)      1 (STEP)
 LEVEL SHIFTS:                  0.00 (CLOSED)  0.00 (OPEN) 



 Molecular orbitals read from record     2100.2  Type=RHF/CANONICAL (state 1.1)

 Molecular orbital dump at record        2100.2

 ITERATION    DDIFF          GRAD             ENERGY        2-EL.EN.            DIPOLE MOMENTS         DIIS
    1      0.000D+00      0.000D+00       -40.19283256     51.658707   -0.00000   -0.01433    0.00001    0
    2      0.000D+00      0.119D-02       -40.19317066     51.591403   -0.00000   -0.01936    0.00001    1
    3      0.363D-02      0.315D-03       -40.19319892     51.615594   -0.00000   -0.03100    0.00001    2
    4      0.875D-03      0.100D-03       -40.19320183     51.603897   -0.00000   -0.03441    0.00001    3
    5      0.240D-03      0.265D-04       -40.19320211     51.605802   -0.00000   -0.03580    0.00001    4
    6      0.847D-04      0.425D-05       -40.19320212     51.605597   -0.00000   -0.03610    0.00001    5
    7      0.148D-04      0.524D-06       -40.19320212     51.605605   -0.00000   -0.03612    0.00001    6
    8      0.167D-05      0.713D-07       -40.19320212     51.605604   -0.00000   -0.03612    0.00001    0

 Final occupancy:   5

 !RHF STATE 1.1 Energy                -40.193202119483
 Nuclear energy                        13.15107980
 One-electron energy                  -79.14708409
 Two-electron energy                   25.80280216
 Virial quotient                       -1.00532000
 !RHF STATE 1.1 Dipole moment          -0.00000000    -0.03612302     0.00001150
 Dipole moment /Debye                  -0.00000000    -0.09180955     0.00002922

 Orbital energies:

         1.1          2.1          3.1          4.1          5.1          6.1          7.1
    -11.227659    -0.933469    -0.544817    -0.544811    -0.519984     0.189130     0.262057


 **********************************************************************************************************************************
 DATASETS  * FILE   NREC   LENGTH (MB)   RECORD NAMES
              1      19        3.43       500      610      700      900      950      970     1000      129      960     1100   
                                          VAR    BASINP    GEOM    SYMINP    ZMAT    AOBASIS   BASIS     P2S    ABASIS      S 
                                         1400     1410     1200     1210     1080     1600     1650     1300     1700   
                                           T        V       H0       H01     AOSYM     SMH    MOLCAS    ERIS     OPER   

              2       4        0.40       700     1000     2100     2140   
                                         GEOM     BASIS     RHF     MCSCF   

 PROGRAMS   *        TOTAL        HF       INT       RS2    CASSCF        HF       INT       RS2    CASSCF        HF       INT
 CPU TIMES  *         3.52      0.09      0.30      0.33      0.44      0.10      0.31      0.33      0.62      0.08      0.35
 REAL TIME  *         5.50 SEC
 DISK USED  *         9.40 MB      
 **********************************************************************************************************************************
 SETTING EHF(3)         =       -40.19320212  AU                              

1PROGRAM * MULTI (Direct Multiconfiguration SCF)       Authors: P.J. Knowles, H.-J. Werner (1984)     S.T. Elbert (1988)


 Number of closed-shell orbitals:  3 (  3 )
 Number of active  orbitals:       4 (  4 )
 Number of external orbitals:     27 ( 27 )

 State symmetry 1

 Number of electrons:     4    Spin symmetry=Singlet   Space symmetry=1
 Number of states:        1
 Number of CSFs:         20   (36 determinants, 36 intermediate states)

 Molecular orbitals read from record     2140.2  Type=MCSCF/NATURAL (state 1.1)

 Wavefunction dump at record             2140.2

 Convergence thresholds  0.10E-01 (gradient)  0.10E-05 (energy)  0.10E-02 (step length)

 Number of orbital rotations:     201     (  12 Core/Active   81 Core/Virtual   0 Active/Active  108 Active/Virtual)
 Total number of variables:       237


 ITER. MIC  NCI  NEG     ENERGY(VAR)     ENERGY(PROJ)   ENERGY CHANGE     GRAD(0)  GRAD(ORB)   GRAD(CI)     STEP       TIME

   1   24   20    0     -40.22928977     -40.22959192   -0.00030216    0.02656990 0.00000141 0.00000090  0.20D-01      0.10
   2   21   12    0     -40.22959234     -40.22959235   -0.00000000    0.00008373 0.00000001 0.00000003  0.18D-03      0.17

 ** WVFN ****  CONVERGENCE REACHED, FINAL GRADIENT:  0.77D-08


 First order charge density matrix for state 1.1 saved on record  2140.2 (density set 1)

 Results for state 1.1
 =====================

 !MCSCF STATE 1.1 Energy              -40.229592346991
 Nuclear energy                        13.15107980
 Kinetic energy                        40.07242608
 One electron energy                  -79.14726977
 Two electron energy                   25.76659762
 Virial ratio                           2.00392206

 !MCSCF STATE 1.1 Dipole moment         0.00727103    -0.03772814     0.00420872
 Dipole moment /Debye                   0.01847991    -0.09588909     0.01069679


 Natural orbital dump at molpro section                    2140.2    (Orbital set 2)



 **********************************************************************************************************************************
 DATASETS  * FILE   NREC   LENGTH (MB)   RECORD NAMES
              1      20        3.84       500      610      700      900      950      970     1000      129      960     1100   
                                          VAR    BASINP    GEOM    SYMINP    ZMAT    AOBASIS   BASIS     P2S    ABASIS      S 
                                         1400     1410     1200     1210     1080     1600     1650     1300     1700     1380   
                                           T        V       H0       H01     AOSYM     SMH    MOLCAS    ERIS     OPER     JKOP   

              2       4        0.40       700     1000     2100     2140   
                                         GEOM     BASIS     RHF     MCSCF   

 PROGRAMS   *        TOTAL    CASSCF        HF       INT       RS2    CASSCF        HF       INT       RS2    CASSCF        HF
 CPU TIMES  *         3.78      0.25      0.09      0.30      0.33      0.44      0.10      0.31      0.33      0.62      0.08
 REAL TIME  *         5.94 SEC
 DISK USED  *         9.40 MB      
 **********************************************************************************************************************************

1PROGRAM * RS2 (Multireference RS Perturbation Theory)     Authors: H.-J. Werner (1993), P. Celani (1998)


 Level shift= 0.20

 Convergence thresholds:  THRVAR = 1.00D-08  THRDEN = 1.00D-06

 Number of optimized states:  1  Roots:   1
 Number of reference states:  1  Roots:   1

 Reference symmetry:                   1   Singlet 
 Number of electrons:                 10
 Maximum number of shells:             5
 Maximum number of spin couplings:    14

 Reference space:       19 conf       20 CSFs
 N elec internal:       81 conf       96 CSFs
 N-1 el internal:      102 conf      174 CSFs
 N-2 el internal:       99 conf      260 CSFs

 Number of electrons in valence space:                      8
 Maximum number of open shell orbitals in reference space:  4
 Maximum number of open shell orbitals in internal spaces:  8


 Number of core orbitals:           1 (   1 )
 Number of closed-shell orbitals:   2 (   2 )
 Number of active  orbitals:        4 (   4 )
 Number of external orbitals:      27 (  27 )

 Molecular orbitals read from record     2140.2  Type=MCSCF/NATURAL (state 1.1)

 Coulomb and exchange operators available. No transformation done.

 Number of p-space configurations:   1

 Reference wavefunction optimized for reference space (refopt=1)

 State     Reference Energy 
   1         -40.22959235

 Number of blocks in overlap matrix:     2   Smallest eigenvalue:  0.47D-05
 Number of N-2 electron functions:      36
 Number of N-1 electron functions:     174

 Number of internal configurations:                   96
 Number of singly external configurations:          4698
 Number of doubly external configurations:         13203
 Total number of contracted configurations:        17997
 Total number of uncontracted configurations:      99429

 Weight factors for SA-density in H0:    1.000000

 FIMAX=  0.16D+00  FXMAX=  0.55D-08  DIAG=  F  F  NOREF=1  NOINT=0  IHPPD=2

 Nuclear energy:                      13.15107980
 Core energy:                        -36.16108782
 Zeroth-order valence energy:         -4.99981567
 Zeroth-order total energy:          -28.00982369
 First-order energy:                 -12.21976866

 Using uncontracted singles

 Diagonal Coupling coefficients finished.               Storage:    4660 words, CPU-Time:      0.00 seconds.
 Energy denominators for pairs finished in 0 passes.    Storage:    5326 words, CPU-time:      0.00 seconds.

 A level shift of 0.20 is applied.

  ITER. STATE  ROOT     SQ.NORM     CORR.ENERGY   TOTAL ENERGY   ENERGY CHANGE       DEN1      VAR(S)    VAR(P)      TIME
    1     1     1     1.00810717    -0.00162143   -40.23121378    -0.00162143    -0.12099022  0.81D-02  0.29D-01     0.04
    2     1     1     1.03744098    -0.12942600   -40.35901835    -0.12780457    -0.00080708  0.82D-04  0.16D-03     0.06
    3     1     1     1.03812732    -0.13036004   -40.35995238    -0.00093404    -0.00061922  0.68D-05  0.19D-05     0.07
    4     1     1     1.03821749    -0.13040405   -40.35999640    -0.00004402    -0.00001127  0.18D-06  0.17D-06     0.09
    5     1     1     1.03824602    -0.13041083   -40.36000318    -0.00000678    -0.00001987  0.12D-07  0.54D-08     0.10
    6     1     1     1.03824938    -0.13041154   -40.36000389    -0.00000071    -0.00000057  0.60D-09  0.33D-09     0.11
    7     1     1     1.03825055    -0.13041179   -40.36000414    -0.00000025    -0.00000077  0.37D-10  0.20D-10     0.13

 Energies without level shift correction:

    7     1     1     1.03825055    -0.12276168   -40.35235403

 Energy contributions for state 1.1:
 ===================================

            Energy contr.      SQ.Norm of FOWF
 Space I     -0.00048990          0.00020888
 Space S     -0.02484908          0.00881389
 Space P     -0.09742271          0.02922779


 =====================================
 Analysis of CPU times by interactions
 =====================================

       I      S      P

 I   0.0%
 S  23.1%   7.7%
 P   0.0%  15.4%   7.7%

 Initialization:  30.8%
 Other:           15.4%

 Total CPU:        0.1 seconds
 =====================================



 Reference coefficients greater than 0.0500000
 =============================================
 222200           0.9891802
 222020          -0.1017773
 220202          -0.0817980

 Coefficients of doubly external configurations greater than 0.0500000
 =====================================================================

 PAIR    I     J   ->   K     L     NP  SYM  REF     COEFFICIENTS

  16    5.1   5.1     14.1  14.1     1   1    1   -0.22939910
  16    5.1   5.1     13.1  13.1     1   1    1   -0.19415186
   9    4.1   4.1     13.1  13.1     1   1    1   -0.19240141
  25    6.1   6.1     14.1  14.1     1   1    1   -0.19126452
   9    4.1   4.1     14.1  14.1     1   1    1   -0.18837611
  16    5.1   5.1     17.1  17.1     1   1    1   -0.18791674
  36    7.1   7.1     14.1  14.1     1   1    1   -0.18440732
  36    7.1   7.1     13.1  13.1     1   1    1   -0.18371990
  16    5.1   5.1     11.1  11.1     1   1    1   -0.17553203
   9    4.1   4.1     17.1  17.1     1   1    1   -0.17518970
  16    5.1   5.1     18.1  18.1     1   1    1   -0.16988816
  36    7.1   7.1     17.1  17.1     1   1    1   -0.16434640
  25    6.1   6.1     13.1  13.1     1   1    1   -0.16339660
  25    6.1   6.1     17.1  17.1     1   1    1   -0.15831053
   9    4.1   4.1     18.1  18.1     1   1    1   -0.15016305
  25    6.1   6.1     11.1  11.1     1   1    1   -0.14673595
   9    4.1   4.1     11.1  11.1     1   1    1   -0.14458518
  36    7.1   7.1     18.1  18.1     1   1    1   -0.14429581
  36    7.1   7.1     11.1  11.1     1   1    1   -0.14109615
  25    6.1   6.1     18.1  18.1     1   1    1   -0.13933261
  16    5.1   5.1     11.1  14.1     1   1    1    0.12790011
  16    5.1   5.1     12.1  12.1     1   1    1   -0.12630984
  16    5.1   5.1     10.1  10.1     1   1    1   -0.12055065
   9    4.1   4.1     10.1  10.1     1   1    1   -0.11755146
   9    4.1   4.1     12.1  12.1     1   1    1   -0.11584441
  36    7.1   7.1     10.1  10.1     1   1    1   -0.11240497
  16    5.1   5.1      9.1   9.1     1   1    1   -0.11206965
  36    7.1   7.1     12.1  12.1     1   1    1   -0.11027351
  25    6.1   6.1     12.1  12.1     1   1    1   -0.10761601
  25    6.1   6.1     11.1  14.1     1   1    1    0.10680930
   9    4.1   4.1      9.1   9.1     1   1    1   -0.10538247
  16    5.1   5.1     21.1  21.1     1   1    1   -0.10513238
   9    4.1   4.1     11.1  14.1     1   1    1    0.10320080
  25    6.1   6.1     10.1  10.1     1   1    1   -0.10215639
  36    7.1   7.1      9.1   9.1     1   1    1   -0.10061061
  36    7.1   7.1     11.1  14.1     1   1    1    0.10058520
  25    6.1   6.1      9.1   9.1     1   1    1   -0.09637022
  16    5.1   5.1      9.1  12.1     1   1    1    0.09543740
   9    4.1   4.1     21.1  21.1     1   1    1   -0.09326914
   9    4.1   4.1      9.1  12.1     1   1    1    0.08908264
  16    5.1   5.1     13.1  17.1     1   1    1    0.08903143
  36    7.1   7.1     21.1  21.1     1   1    1   -0.08800219
  16    5.1   5.1     23.1  23.1     1   1    1   -0.08653078
  25    6.1   6.1     21.1  21.1     1   1    1   -0.08616855
  36    7.1   7.1      9.1  12.1     1   1    1    0.08470691
  25    6.1   6.1      9.1  12.1     1   1    1    0.08193365
  16    5.1   5.1     14.1  23.1     1   1    1   -0.07566113
   9    4.1   4.1     23.1  23.1     1   1    1   -0.07365216
  25    6.1   6.1     13.1  17.1     1   1    1    0.07363012
   9    4.1   4.1     13.1  17.1     1   1    1    0.07172406
  16    5.1   5.1     20.1  20.1     1   1    1   -0.07070898
  25    6.1   6.1     23.1  23.1     1   1    1   -0.07056426
  36    7.1   7.1     13.1  17.1     1   1    1    0.07013522
  36    7.1   7.1     23.1  23.1     1   1    1   -0.07007393
  16    5.1   5.1     15.1  15.1     1   1    1   -0.06926885
  16    5.1   5.1      8.1   8.1     1   1    1   -0.06865988
  16    5.1   5.1     18.1  20.1     1   1    1    0.06757229
   9    4.1   4.1     15.1  15.1     1   1    1   -0.06755922
  16    5.1   5.1     19.1  19.1     1   1    1   -0.06703256
  16    5.1   5.1      9.1  15.1     1   1    1   -0.06490499
   9    4.1   4.1     14.1  23.1     1   1    1   -0.06442299
   9    4.1   4.1      9.1  15.1     1   1    1   -0.06304635
  36    7.1   7.1     15.1  15.1     1   1    1   -0.06298625
  25    6.1   6.1     14.1  23.1     1   1    1   -0.06282905
  36    7.1   7.1     14.1  23.1     1   1    1   -0.06193381
   9    4.1   4.1      8.1   8.1     1   1    1   -0.06183826
   9    4.1   4.1     19.1  19.1     1   1    1   -0.06118613
   9    4.1   4.1     10.1  13.1     1   1    1   -0.06023690
  36    7.1   7.1      8.1   8.1     1   1    1   -0.06007865
  16    5.1   5.1     13.1  24.1     1   1    1   -0.05981702
  36    7.1   7.1      9.1  15.1     1   1    1   -0.05935493
  25    6.1   6.1     15.1  15.1     1   1    1   -0.05924228
  25    6.1   6.1      8.1   8.1     1   1    1   -0.05795222
  36    7.1   7.1     19.1  19.1     1   1    1   -0.05779866
  16    5.1   5.1     24.1  24.1     1   1    1   -0.05747381
  25    6.1   6.1     20.1  20.1     1   1    1   -0.05720283
  16    5.1   5.1     17.1  24.1     1   1    1    0.05676873
  36    7.1   7.1     10.1  13.1     1   1    1   -0.05620982
  16    5.1   5.1      8.1  17.1     1   1    1   -0.05612366
  25    6.1   6.1     19.1  19.1     1   1    1   -0.05578273
  25    6.1   6.1      9.1  15.1     1   1    1   -0.05572507
   9    4.1   4.1     13.1  24.1     1   1    1   -0.05543769
  25    6.1   6.1     18.1  20.1     1   1    1    0.05523669
  16    5.1   5.1     31.1  31.1     1   1    1   -0.05501466
   9    4.1   4.1     13.1  19.1     1   1    1    0.05489622
   9    4.1   4.1     24.1  24.1     1   1    1   -0.05396637
  16    5.1   5.1     16.1  16.1     1   1    1   -0.05332770
  16    5.1   5.1      8.1  13.1     1   1    1    0.05301299
  36    7.1   7.1     13.1  24.1     1   1    1   -0.05301276
  16    5.1   5.1     10.1  13.1     1   1    1   -0.05245371
   9    4.1   4.1      8.1  17.1     1   1    1   -0.05100638
  36    7.1   7.1     13.1  19.1     1   1    1    0.05090073
   9    4.1   4.1     18.1  20.1     1   1    1    0.05084190
  16    5.1   5.1     13.1  19.1     1   1    1    0.05059578
  36    7.1   7.1     24.1  24.1     1   1    1   -0.05047196



 RESULTS FOR STATE 1.1
 =====================

 Coefficient of reference function:   C(0) = 1.00000000 (fixed)   1.00000000 (relaxed)

 Energy contributions of configuration classes

 CLASS          SQ.NORM        ECORR1        ECORR2
 +++++++++++++++++++++++++++++++++++++++++++++++++++
 Internals    0.00020888   -0.00048987    0.12937082
 Singles      0.00881389   -0.02484900   -0.05279510
 Pairs        0.02922779   -0.09742267   -0.20698751
 Total        1.03825055   -0.12276154   -0.13041179
 +++++++++++++++++++++++++++++++++++++++++++++++++++


 Reference energy                     -40.22959235
 Nuclear energy                        13.15107980
 Kinetic energy                        40.14737793
 One electron energy                  -79.07047839
 Two electron energy                   25.55939445
 Virial quotient                       -1.00529614
 Correlation energy                    -0.13041179
 !RSPT2 STATE 1.1 Energy              -40.360004137027

 !RSPT2 STATE 1.1 Dipole moment         0.00900801    -0.03935319     0.00521186
 Dipole moment /Debye                   0.02289457    -0.10001929     0.01324637


 **********************************************************************************************************************************
 DATASETS  * FILE   NREC   LENGTH (MB)   RECORD NAMES
              1      20        3.84       500      610      700      900      950      970     1000      129      960     1100   
                                          VAR    BASINP    GEOM    SYMINP    ZMAT    AOBASIS   BASIS     P2S    ABASIS      S 
                                         1400     1410     1200     1210     1080     1600     1650     1300     1700     1380   
                                           T        V       H0       H01     AOSYM     SMH    MOLCAS    ERIS     OPER     JKOP   

              2       4        0.40       700     1000     2100     2140   
                                         GEOM     BASIS     RHF     MCSCF   

 PROGRAMS   *        TOTAL       RS2    CASSCF        HF       INT       RS2    CASSCF        HF       INT       RS2    CASSCF
 CPU TIMES  *         4.11      0.32      0.25      0.09      0.30      0.33      0.44      0.10      0.31      0.33      0.62
 REAL TIME  *         6.47 SEC
 DISK USED  *         9.40 MB      
 **********************************************************************************************************************************
 SETTING ERS2(3)        =       -40.36000414  AU                              
 SETTING R              =         1.24000000  ANG                             

 DO I                   =         4.00000000   
 SETTING RCH4(4)        =         1.24000000  ANG                             


 Recomputing integrals since geometry changed

1PROGRAM * SEWARD (Integral evaluation for generally contracted gaussian basis sets)     Author: Roland Lindh, 1990

 Geometry written to block  1 of record 700

 Orientation using atomic masses  
 Molecule type: Asymmetric top
 Rotational constants:     142.5912682    158.2570108    142.5886877 GHz  (calculated with average atomic masses)

 Point group  C1  



 ATOMIC COORDINATES

 NR  ATOM    CHARGE       X              Y              Z

   1  C       6.00   -0.000000000   -0.017806655   -0.000006231
   2  H1      1.00   -0.000000000   -0.704243536    1.942051069
   3  H2      1.00    1.681833536   -0.704509636   -0.970911543
   4  H3      1.00   -1.681833536   -0.704509636   -0.970911543
   5  H4      1.00   -0.000000000    2.325453743   -0.000153727

 Bond lengths in Bohr (Angstrom)

 1-2  2.059801483  1-3  2.059801483  1-4  2.059801483  1-5  2.343260403
     ( 1.090000000)     ( 1.090000000)     ( 1.090000000)     ( 1.240000000)

 Bond angles

  2-1-3  109.47000000   2-1-4  109.47000000   2-1-5  109.47000000   3-1-4  109.47244124

  3-1-5  109.47244124   4-1-5  109.47244124

 NUCLEAR CHARGE:                   10
 NUMBER OF PRIMITIVE AOS:          55
 NUMBER OF SYMMETRY AOS:           54
 NUMBER OF CONTRACTIONS:           34   (  34A   )
 NUMBER OF CORE ORBITALS:           1   (   1A   )
 NUMBER OF VALENCE ORBITALS:        8   (   8A   )


 NUCLEAR REPULSION ENERGY   13.02474107


 Eigenvalues of metric

         1 0.126E-01 0.372E-01 0.372E-01 0.448E-01 0.569E-01 0.569E-01 0.582E-01 0.789E-01


 Contracted 2-electron integrals neglected if value below      1.0D-11
 AO integral compression algorithm  1   Integral accuracy      1.0D-11

     1.049 MB (compressed) written to integral file ( 67.5%)


 NUMBER OF SORTED TWO-ELECTRON INTEGRALS:     177310.     BUFFER LENGTH:  32768
 NUMBER OF SEGMENTS:   1  SEGMENT LENGTH:     177310      RECORD LENGTH: 524288

 Memory used in sort:       0.73 MW

 SORT1 READ      219389. AND WROTE      152513. INTEGRALS IN      1 RECORDS. CPU TIME:     0.01 SEC, REAL TIME:     0.01 SEC
 SORT2 READ      152513. AND WROTE      177310. INTEGRALS IN      4 RECORDS. CPU TIME:     0.11 SEC, REAL TIME:     0.12 SEC

 FILE SIZES:   FILE 1:     3.7 MBYTE,  FILE 4:     4.2 MBYTE,   TOTAL:      7.9 MBYTE

 OPERATOR DM      FOR CENTER  0  COORDINATES:    0.000000    0.000000    0.000000


 **********************************************************************************************************************************
 DATASETS  * FILE   NREC   LENGTH (MB)   RECORD NAMES
              1      19        3.43       500      610      700      900      950      970     1000      129      960     1100   
                                          VAR    BASINP    GEOM    SYMINP    ZMAT    AOBASIS   BASIS     P2S    ABASIS      S 
                                         1400     1410     1200     1210     1080     1600     1650     1300     1700   
                                           T        V       H0       H01     AOSYM     SMH    MOLCAS    ERIS     OPER   

              2       4        0.40       700     1000     2100     2140   
                                         GEOM     BASIS     RHF     MCSCF   

 PROGRAMS   *        TOTAL       INT       RS2    CASSCF        HF       INT       RS2    CASSCF        HF       INT       RS2
 CPU TIMES  *         4.47      0.36      0.32      0.25      0.09      0.30      0.33      0.44      0.10      0.31      0.33
 REAL TIME  *         6.93 SEC
 DISK USED  *         9.40 MB      
 **********************************************************************************************************************************

1PROGRAM * RHF-SCF (CLOSED SHELL)       Authors: W. Meyer, H.-J. Werner


 NUMBER OF ELECTRONS:       5+    5-    SPACE SYMMETRY=1    SPIN SYMMETRY: Singlet 
 CONVERGENCE THRESHOLDS:    1.00E-05 (Density)    1.00E-07 (Energy)
 MAX. NUMBER OF ITERATIONS:       60
 INTERPOLATION TYPE:            DIIS
 INTERPOLATION STEPS:              2 (START)      1 (STEP)
 LEVEL SHIFTS:                  0.00 (CLOSED)  0.00 (OPEN) 



 Molecular orbitals read from record     2100.2  Type=RHF/CANONICAL (state 1.1)

 Molecular orbital dump at record        2100.2

 ITERATION    DDIFF          GRAD             ENERGY        2-EL.EN.            DIPOLE MOMENTS         DIIS
    1      0.000D+00      0.000D+00       -40.18694497     51.415365   -0.00000   -0.03379    0.00001    0
    2      0.000D+00      0.113D-02       -40.18725607     51.351889   -0.00000   -0.04066    0.00001    1
    3      0.341D-02      0.303D-03       -40.18728310     51.374327   -0.00000   -0.05243    0.00001    2
    4      0.852D-03      0.961D-04       -40.18728587     51.362837   -0.00000   -0.05607    0.00001    3
    5      0.229D-03      0.262D-04       -40.18728614     51.364687   -0.00000   -0.05755    0.00001    4
    6      0.847D-04      0.398D-05       -40.18728615     51.364487    0.00000   -0.05785    0.00001    5
    7      0.138D-04      0.513D-06       -40.18728615     51.364493    0.00000   -0.05787    0.00001    6
    8      0.160D-05      0.723D-07       -40.18728615     51.364493   -0.00000   -0.05787    0.00001    0

 Final occupancy:   5

 !RHF STATE 1.1 Energy                -40.187286150260
 Nuclear energy                        13.02474107
 One-electron energy                  -78.89427382
 Two-electron energy                   25.68224661
 Virial quotient                       -1.00642893
 !RHF STATE 1.1 Dipole moment          -0.00000000    -0.05787200     0.00001214
 Dipole moment /Debye                  -0.00000000    -0.14708632     0.00003086

 Orbital energies:

         1.1          2.1          3.1          4.1          5.1          6.1          7.1
    -11.233241    -0.930437    -0.546149    -0.546143    -0.508921     0.186453     0.255520


 **********************************************************************************************************************************
 DATASETS  * FILE   NREC   LENGTH (MB)   RECORD NAMES
              1      19        3.43       500      610      700      900      950      970     1000      129      960     1100   
                                          VAR    BASINP    GEOM    SYMINP    ZMAT    AOBASIS   BASIS     P2S    ABASIS      S 
                                         1400     1410     1200     1210     1080     1600     1650     1300     1700   
                                           T        V       H0       H01     AOSYM     SMH    MOLCAS    ERIS     OPER   

              2       4        0.40       700     1000     2100     2140   
                                         GEOM     BASIS     RHF     MCSCF   

[...]



 ATOMIC COORDINATES

 NR  ATOM    CHARGE       X              Y              Z

   1  C       6.00   -0.000000000   -0.231517699   -0.000006910
   2  H1      1.00   -0.000000000   -0.918073116    1.942008489
   3  H2      1.00    1.681833536   -0.918161418   -0.970954135
   4  H3      1.00   -1.681833536   -0.918161418   -0.970954135
   5  H4      1.00   -0.000000000    5.513249740   -0.000017872

 Bond lengths in Bohr (Angstrom)

 1-2  2.059801483  1-3  2.059801483  1-4  2.059801483
     ( 1.090000000)     ( 1.090000000)     ( 1.090000000)

 Bond angles

  2-1-3  109.47000000   2-1-4  109.47000000   3-1-4  109.47244124

 NUCLEAR CHARGE:                   10
 NUMBER OF PRIMITIVE AOS:          55
 NUMBER OF SYMMETRY AOS:           54
 NUMBER OF CONTRACTIONS:           34   (  34A   )
 NUMBER OF CORE ORBITALS:           1   (   1A   )
 NUMBER OF VALENCE ORBITALS:        8   (   8A   )


 NUCLEAR REPULSION ENERGY   11.12157677


 Eigenvalues of metric

         1 0.138E-01 0.374E-01 0.374E-01 0.487E-01 0.589E-01 0.589E-01 0.875E-01 0.125E+00


 Contracted 2-electron integrals neglected if value below      1.0D-11
 AO integral compression algorithm  1   Integral accuracy      1.0D-11

     1.049 MB (compressed) written to integral file ( 56.7%)


 NUMBER OF SORTED TWO-ELECTRON INTEGRALS:     177310.     BUFFER LENGTH:  32768
 NUMBER OF SEGMENTS:   1  SEGMENT LENGTH:     177310      RECORD LENGTH: 524288

 Memory used in sort:       0.73 MW

 SORT1 READ      218660. AND WROTE      151168. INTEGRALS IN      1 RECORDS. CPU TIME:     0.01 SEC, REAL TIME:     0.01 SEC
 SORT2 READ      151168. AND WROTE      177310. INTEGRALS IN      4 RECORDS. CPU TIME:     0.10 SEC, REAL TIME:     0.10 SEC

 FILE SIZES:   FILE 1:     3.7 MBYTE,  FILE 4:     4.2 MBYTE,   TOTAL:      7.9 MBYTE

 OPERATOR DM      FOR CENTER  0  COORDINATES:    0.000000    0.000000    0.000000


 **********************************************************************************************************************************
 DATASETS  * FILE   NREC   LENGTH (MB)   RECORD NAMES
              1      19        3.34       500      610      700      900      950      970     1000      129      960     1100   
                                          VAR    BASINP    GEOM    SYMINP    ZMAT    AOBASIS   BASIS     P2S    ABASIS      S 
                                         1400     1410     1200     1210     1080     1600     1650     1300     1700   
                                           T        V       H0       H01     AOSYM     SMH    MOLCAS    ERIS     OPER   

              2       4        0.40       700     1000     2100     2140   
                                         GEOM     BASIS     RHF     MCSCF   

 PROGRAMS   *        TOTAL       INT       RS2    CASSCF        HF       INT       RS2    CASSCF        HF       INT       RS2
 CPU TIMES  *        39.36      0.29      0.30      0.18      0.06      0.32      0.31      0.19      0.07      0.28      0.33
 REAL TIME  *        59.19 SEC
 DISK USED  *         9.40 MB      
 **********************************************************************************************************************************

1PROGRAM * RHF-SCF (CLOSED SHELL)       Authors: W. Meyer, H.-J. Werner


 NUMBER OF ELECTRONS:       5+    5-    SPACE SYMMETRY=1    SPIN SYMMETRY: Singlet 
 CONVERGENCE THRESHOLDS:    1.00E-05 (Density)    1.00E-07 (Energy)
 MAX. NUMBER OF ITERATIONS:       60
 INTERPOLATION TYPE:            DIIS
 INTERPOLATION STEPS:              2 (START)      1 (STEP)
 LEVEL SHIFTS:                  0.00 (CLOSED)  0.00 (OPEN) 



 Molecular orbitals read from record     2100.2  Type=RHF/CANONICAL (state 1.1)

 Molecular orbital dump at record        2100.2

 ITERATION    DDIFF          GRAD             ENERGY        2-EL.EN.            DIPOLE MOMENTS         DIIS
    1      0.000D+00      0.000D+00       -39.92294068     46.835562   -0.00000   -1.43933    0.00002    0
    2      0.000D+00      0.119D-03       -39.92294543     46.831443    0.00000   -1.44157    0.00002    1
    3      0.305D-03      0.283D-04       -39.92294581     46.828922    0.00000   -1.44630    0.00002    2
    4      0.819D-04      0.960D-05       -39.92294584     46.830492   -0.00000   -1.44644    0.00002    3
    5      0.330D-04      0.562D-05       -39.92294585     46.829174   -0.00000   -1.44731    0.00002    4
    6      0.103D-04      0.152D-05       -39.92294585     46.829371   -0.00000   -1.44731    0.00002    5
    7      0.381D-05      0.876D-07       -39.92294585     46.829353    0.00000   -1.44732    0.00002    0

 Final occupancy:   5

 !RHF STATE 1.1 Energy                -39.922945846146
 Nuclear energy                        11.12157677
 One-electron energy                  -74.45919913
 Two-electron energy                   23.41467651
 Virial quotient                       -1.00760449
 !RHF STATE 1.1 Dipole moment           0.00000000    -1.44732147     0.00001865
 Dipole moment /Debye                   0.00000000    -3.67848331     0.00004741

 Orbital energies:

         1.1          2.1          3.1          4.1          5.1          6.1          7.1
    -11.340999    -0.965129    -0.609458    -0.609451    -0.289885    -0.041466     0.174315


 **********************************************************************************************************************************
 DATASETS  * FILE   NREC   LENGTH (MB)   RECORD NAMES
              1      19        3.34       500      610      700      900      950      970     1000      129      960     1100   
                                          VAR    BASINP    GEOM    SYMINP    ZMAT    AOBASIS   BASIS     P2S    ABASIS      S 
                                         1400     1410     1200     1210     1080     1600     1650     1300     1700   
                                           T        V       H0       H01     AOSYM     SMH    MOLCAS    ERIS     OPER   

              2       4        0.40       700     1000     2100     2140   
                                         GEOM     BASIS     RHF     MCSCF   

 PROGRAMS   *        TOTAL        HF       INT       RS2    CASSCF        HF       INT       RS2    CASSCF        HF       INT
 CPU TIMES  *        39.42      0.06      0.29      0.30      0.18      0.06      0.32      0.31      0.19      0.07      0.28
 REAL TIME  *        59.29 SEC
 DISK USED  *         9.40 MB      
 **********************************************************************************************************************************
 SETTING EHF(40)        =       -39.92294585  AU                              

1PROGRAM * MULTI (Direct Multiconfiguration SCF)       Authors: P.J. Knowles, H.-J. Werner (1984)     S.T. Elbert (1988)


 Number of closed-shell orbitals:  3 (  3 )
 Number of active  orbitals:       4 (  4 )
 Number of external orbitals:     27 ( 27 )

 State symmetry 1

 Number of electrons:     4    Spin symmetry=Singlet   Space symmetry=1
 Number of states:        1
 Number of CSFs:         20   (36 determinants, 36 intermediate states)

 Molecular orbitals read from record     2140.2  Type=MCSCF/NATURAL (state 1.1)

 Wavefunction dump at record             2140.2

 Convergence thresholds  0.10E-01 (gradient)  0.10E-05 (energy)  0.10E-02 (step length)

 Number of orbital rotations:     201     (  12 Core/Active   81 Core/Virtual   0 Active/Active  108 Active/Virtual)
 Total number of variables:       237


 ITER. MIC  NCI  NEG     ENERGY(VAR)     ENERGY(PROJ)   ENERGY CHANGE     GRAD(0)  GRAD(ORB)   GRAD(CI)     STEP       TIME

   1   20   19    0     -40.07053460     -40.07053572   -0.00000112    0.00112567 0.00000008 0.00000004  0.19D-02      0.10
   2   20    4    0     -40.07053572     -40.07053572   -0.00000000    0.00000027 0.00000000 0.00000002  0.60D-06      0.14

 ** WVFN ****  CONVERGENCE REACHED, FINAL GRADIENT:  0.35D-07


 First order charge density matrix for state 1.1 saved on record  2140.2 (density set 1)

 Results for state 1.1
 =====================

 !MCSCF STATE 1.1 Energy              -40.070535718925
 Nuclear energy                        11.12157677
 Kinetic energy                        39.98757245
 One electron energy                  -74.91067918
 Two electron energy                   23.71856669
 Virial ratio                           2.00207473

 !MCSCF STATE 1.1 Dipole moment         0.00324272    -0.28210064     0.00188277
 Dipole moment /Debye                   0.00824162    -0.71698135     0.00478520


 Natural orbital dump at molpro section                    2140.2    (Orbital set 2)



 **********************************************************************************************************************************
 DATASETS  * FILE   NREC   LENGTH (MB)   RECORD NAMES
              1      20        3.76       500      610      700      900      950      970     1000      129      960     1100   
                                          VAR    BASINP    GEOM    SYMINP    ZMAT    AOBASIS   BASIS     P2S    ABASIS      S 
                                         1400     1410     1200     1210     1080     1600     1650     1300     1700     1380   
                                           T        V       H0       H01     AOSYM     SMH    MOLCAS    ERIS     OPER     JKOP   

              2       4        0.40       700     1000     2100     2140   
                                         GEOM     BASIS     RHF     MCSCF   

 PROGRAMS   *        TOTAL    CASSCF        HF       INT       RS2    CASSCF        HF       INT       RS2    CASSCF        HF
 CPU TIMES  *        39.64      0.20      0.06      0.29      0.30      0.18      0.06      0.32      0.31      0.19      0.07
 REAL TIME  *        59.65 SEC
 DISK USED  *         9.40 MB      
 **********************************************************************************************************************************

1PROGRAM * RS2 (Multireference RS Perturbation Theory)     Authors: H.-J. Werner (1993), P. Celani (1998)


 Level shift= 0.20

 Convergence thresholds:  THRVAR = 1.00D-08  THRDEN = 1.00D-06

 Number of optimized states:  1  Roots:   1
 Number of reference states:  1  Roots:   1

 Reference symmetry:                   1   Singlet 
 Number of electrons:                 10
 Maximum number of shells:             5
 Maximum number of spin couplings:    14

 Reference space:       19 conf       20 CSFs
 N elec internal:       81 conf       96 CSFs
 N-1 el internal:      102 conf      174 CSFs
 N-2 el internal:       99 conf      260 CSFs

 Number of electrons in valence space:                      8
 Maximum number of open shell orbitals in reference space:  4
 Maximum number of open shell orbitals in internal spaces:  8


 Number of core orbitals:           1 (   1 )
 Number of closed-shell orbitals:   2 (   2 )
 Number of active  orbitals:        4 (   4 )
 Number of external orbitals:      27 (  27 )

 Molecular orbitals read from record     2140.2  Type=MCSCF/NATURAL (state 1.1)

 Coulomb and exchange operators available. No transformation done.

 Number of p-space configurations:   5

 Reference wavefunction optimized for reference space (refopt=1)

 State     Reference Energy 
   1         -40.07053572

 Number of blocks in overlap matrix:     2   Smallest eigenvalue:  0.12D-04
 Number of N-2 electron functions:      35
 Number of N-1 electron functions:     174

 Number of internal configurations:                   96
 Number of singly external configurations:          4698
 Number of doubly external configurations:         12825
 Total number of contracted configurations:        17619
 Total number of uncontracted configurations:      99429

 Weight factors for SA-density in H0:    1.000000

 FIMAX=  0.15D+00  FXMAX=  0.17D-07  DIAG=  F  F  NOREF=1  NOINT=0  IHPPD=2

 Nuclear energy:                      11.12157677
 Core energy:                        -35.61985058
 Zeroth-order valence energy:         -4.34003079
 Zeroth-order total energy:          -28.83830461
 First-order energy:                 -11.23223111

 Using uncontracted singles

 Diagonal Coupling coefficients finished.               Storage:    4617 words, CPU-Time:      0.00 seconds.
 Energy denominators for pairs finished in 0 passes.    Storage:    5298 words, CPU-time:      0.00 seconds.

 A level shift of 0.20 is applied.

  ITER. STATE  ROOT     SQ.NORM     CORR.ENERGY   TOTAL ENERGY   ENERGY CHANGE       DEN1      VAR(S)    VAR(P)      TIME
    1     1     1     1.00892403    -0.00178481   -40.07232052    -0.00178481    -0.11127935  0.89D-02  0.28D-01     0.04
    2     1     1     1.03658847    -0.11894102   -40.18947674    -0.11715621    -0.00012756  0.85D-04  0.10D-03     0.05
    3     1     1     1.03707288    -0.11956416   -40.19009988    -0.00062315    -0.00041908  0.48D-05  0.10D-05     0.06
    4     1     1     1.03712896    -0.11959114   -40.19012686    -0.00002698    -0.00000083  0.10D-06  0.11D-06     0.08
    5     1     1     1.03714790    -0.11959550   -40.19013122    -0.00000436    -0.00001252  0.75D-08  0.28D-08     0.10
    6     1     1     1.03714968    -0.11959591   -40.19013163    -0.00000041    -0.00000020  0.30D-09  0.22D-09     0.11
    7     1     1     1.03715044    -0.11959604   -40.19013176    -0.00000013    -0.00000047  0.21D-10  0.11D-10     0.12

 Energies without level shift correction:

    7     1     1     1.03715044    -0.11216595   -40.18270167

 Energy contributions for state 1.1:
 ===================================

            Energy contr.      SQ.Norm of FOWF
 Space I     -0.00050057          0.00025615
 Space S     -0.02266640          0.00912663
 Space P     -0.08899898          0.02776766


 =====================================
 Analysis of CPU times by interactions
 =====================================

       I      S      P

 I   8.3%
 S  33.3%  16.7%
 P   0.0%  16.7%   0.0%

 Initialization:  16.7%
 Other:            8.3%

 Total CPU:        0.1 seconds
 =====================================



 Reference coefficients greater than 0.0500000
 =============================================
 222200           0.7980639
 222020          -0.5941887
 220202          -0.0731173
 220022           0.0552376

 Coefficients of doubly external configurations greater than 0.0500000
 =====================================================================

 PAIR    I     J   ->   K     L     NP  SYM  REF     COEFFICIENTS

   9    4.1   4.1     10.1  10.1     1   1    1   -0.12656821
  35    7.1   7.1     10.1  10.1     1   1    1   -0.11206806
   9    4.1   4.1     12.1  12.1     1   1    1   -0.08964451
   9    4.1   4.1     18.1  18.1     1   1    1   -0.08051617
  35    7.1   7.1     12.1  12.1     1   1    1   -0.07880200
   9    4.1   4.1     10.1  12.1     1   1    1    0.07038648
  35    7.1   7.1     18.1  18.1     1   1    1   -0.06575754
  35    7.1   7.1     10.1  12.1     1   1    1    0.06191064
   9    4.1   4.1      9.1   9.1     1   1    1   -0.05220177
   9    4.1   4.1     11.1  11.1     1   1    1   -0.05113863



 RESULTS FOR STATE 1.1
 =====================

 Coefficient of reference function:   C(0) = 1.00000000 (fixed)   1.00000000 (relaxed)

 Energy contributions of configuration classes

 CLASS          SQ.NORM        ECORR1        ECORR2
 +++++++++++++++++++++++++++++++++++++++++++++++++++
 Internals    0.00025615   -0.00050055    0.11852852
 Singles      0.00912663   -0.02266635   -0.04833568
 Pairs        0.02776766   -0.08899897   -0.18978888
 Total        1.03715044   -0.11216587   -0.11959604
 +++++++++++++++++++++++++++++++++++++++++++++++++++


 Reference energy                     -40.07053572
 Nuclear energy                        11.12157677
 Kinetic energy                        40.06748661
 One electron energy                  -74.85262938
 Two electron energy                   23.54092085
 Virial quotient                       -1.00306096
 Correlation energy                    -0.11959604
 !RSPT2 STATE 1.1 Energy              -40.190131757250

 !RSPT2 STATE 1.1 Dipole moment         0.00901652    -0.29093553     0.00521658
 Dipole moment /Debye                   0.02291619    -0.73943592     0.01325835


 **********************************************************************************************************************************
 DATASETS  * FILE   NREC   LENGTH (MB)   RECORD NAMES
              1      20        3.76       500      610      700      900      950      970     1000      129      960     1100   
                                          VAR    BASINP    GEOM    SYMINP    ZMAT    AOBASIS   BASIS     P2S    ABASIS      S 
                                         1400     1410     1200     1210     1080     1600     1650     1300     1700     1380   
                                           T        V       H0       H01     AOSYM     SMH    MOLCAS    ERIS     OPER     JKOP   

              2       4        0.40       700     1000     2100     2140   
                                         GEOM     BASIS     RHF     MCSCF   

 PROGRAMS   *        TOTAL       RS2    CASSCF        HF       INT       RS2    CASSCF        HF       INT       RS2    CASSCF
 CPU TIMES  *        39.95      0.30      0.20      0.06      0.29      0.30      0.18      0.06      0.32      0.31      0.19
 REAL TIME  *        60.17 SEC
 DISK USED  *         9.40 MB      
 **********************************************************************************************************************************
 SETTING ERS2(40)       =       -40.19013176  AU                              
 SETTING R              =         3.09000000  ANG                             
                                                                                                                                                                                                                                                                

    RCH4       EHF            ERS2
    1.09   -40.19871029   -40.36365520
    1.14   -40.19722835   -40.36309415
    1.19   -40.19320212   -40.36000414
    1.24   -40.18728615   -40.35505005
    1.29   -40.17998656   -40.34874939
    1.34   -40.17169432   -40.34150516
    1.39   -40.16271127   -40.33363159
    1.44   -40.15327033   -40.32537403
    1.49   -40.14355107   -40.31692422
    1.54   -40.13369168   -40.30843202
    1.59   -40.12379817   -40.30001435
    1.64   -40.11395132   -40.29176200
    1.69   -40.10421222   -40.28374496
    1.74   -40.09462645   -40.27601650
    1.79   -40.08522751   -40.26861645
    1.84   -40.07603938   -40.26157370
    1.89   -40.06707867   -40.25490819
    1.94   -40.05835621   -40.24863241
    1.99   -40.04987839   -40.24275262
    2.04   -40.04164813   -40.23726981
    2.09   -40.03366576   -40.23218043
    2.14   -40.02592964   -40.22747713
    2.19   -40.01843670   -40.22314927
    2.24   -40.01118283   -40.21918352
    2.29   -40.00416322   -40.21556433
    2.34   -39.99737254   -40.21227442
    2.39   -39.99080512   -40.20928365
    2.44   -39.98445503   -40.20659699
    2.49   -39.97831617   -40.20418149
    2.54   -39.97238233   -40.20201705
    2.59   -39.96664718   -40.20008368
    2.64   -39.96110438   -40.19836183
    2.69   -39.95574758   -40.19683258
    2.74   -39.95057046   -40.19547783
    2.79   -39.94556683   -40.19428045
    2.84   -39.94073061   -40.19322437
    2.89   -39.93605592   -40.19229465
    2.94   -39.93153713   -40.19147751
    2.99   -39.92716881   -40.19076036
    3.04   -39.92294585   -40.19013176
                                                  

 Plot will be saved in file scan.plot

        RS2             CASSCF          HF-SCF          RS2             CASSCF          HF-SCF          RS2             CASSCF  
    -40.19013176    -40.07053572    -39.92294585    -40.19076036    -40.07113218    -39.92716881    -40.19147751    -40.07181435
 **********************************************************************************************************************************
 Variable memory released
