 Entering Gaussian System, Link 0=/programs/64bit/g09/g09-gfortran/bin/g09
 Input=benzene.com
 Output=benzene.log
 Initial command:
 /programs/64bit/g09/g09-gfortran/bin/l1.exe /home/ospite/Desktop/MMfP/Project8/gaussian_simulations/round1/Gau-9275.inp -scrdir=/home/ospite/Desktop/MMfP/Project8/gaussian_simulations/round1/
 Entering Link 1 = /programs/64bit/g09/g09-gfortran/bin/l1.exe PID=      9276.
  
 Copyright (c) 1988,1990,1992,1993,1995,1998,2003,2009, Gaussian, Inc.
                  All Rights Reserved.
  
 This is part of the Gaussian(R) 09 program.  It is based on
 the Gaussian(R) 03 system (copyright 2003, Gaussian, Inc.),
 the Gaussian(R) 98 system (copyright 1998, Gaussian, Inc.),
 the Gaussian(R) 94 system (copyright 1995, Gaussian, Inc.),
 the Gaussian 92(TM) system (copyright 1992, Gaussian, Inc.),
 the Gaussian 90(TM) system (copyright 1990, Gaussian, Inc.),
 the Gaussian 88(TM) system (copyright 1988, Gaussian, Inc.),
 the Gaussian 86(TM) system (copyright 1986, Carnegie Mellon
 University), and the Gaussian 82(TM) system (copyright 1983,
 Carnegie Mellon University). Gaussian is a federally registered
 trademark of Gaussian, Inc.
  
 This software contains proprietary and confidential information,
 including trade secrets, belonging to Gaussian, Inc.
  
 This software is provided under written license and may be
 used, copied, transmitted, or stored only in accord with that
 written license.
  
 The following legend is applicable only to US Government
 contracts under FAR:
  
                    RESTRICTED RIGHTS LEGEND
  
 Use, reproduction and disclosure by the US Government is
 subject to restrictions as set forth in subparagraphs (a)
 and (c) of the Commercial Computer Software - Restricted
 Rights clause in FAR 52.227-19.
  
 Gaussian, Inc.
 340 Quinnipiac St., Bldg. 40, Wallingford CT 06492
  
  
 ---------------------------------------------------------------
 Warning -- This program may not be used in any manner that
 competes with the business of Gaussian, Inc. or will provide
 assistance to any competitor of Gaussian, Inc.  The licensee
 of this program is prohibited from giving any competitor of
 Gaussian, Inc. access to this program.  By using this program,
 the user acknowledges that Gaussian, Inc. is engaged in the
 business of creating and licensing software in the field of
 computational chemistry and represents and warrants to the
 licensee that it is not a competitor of Gaussian, Inc. and that
 it will not use this program in any manner prohibited above.
 ---------------------------------------------------------------
  

 Cite this work as:
 Gaussian 09, Revision A.02,
 M. J. Frisch, G. W. Trucks, H. B. Schlegel, G. E. Scuseria, 
 M. A. Robb, J. R. Cheeseman, G. Scalmani, V. Barone, B. Mennucci, 
 G. A. Petersson, H. Nakatsuji, M. Caricato, X. Li, H. P. Hratchian, 
 A. F. Izmaylov, J. Bloino, G. Zheng, J. L. Sonnenberg, M. Hada, 
 M. Ehara, K. Toyota, R. Fukuda, J. Hasegawa, M. Ishida, T. Nakajima, 
 Y. Honda, O. Kitao, H. Nakai, T. Vreven, J. A. Montgomery, Jr., 
 J. E. Peralta, F. Ogliaro, M. Bearpark, J. J. Heyd, E. Brothers, 
 K. N. Kudin, V. N. Staroverov, R. Kobayashi, J. Normand, 
 K. Raghavachari, A. Rendell, J. C. Burant, S. S. Iyengar, J. Tomasi, 
 M. Cossi, N. Rega, J. M. Millam, M. Klene, J. E. Knox, J. B. Cross, 
 V. Bakken, C. Adamo, J. Jaramillo, R. Gomperts, R. E. Stratmann, 
 O. Yazyev, A. J. Austin, R. Cammi, C. Pomelli, J. W. Ochterski, 
 R. L. Martin, K. Morokuma, V. G. Zakrzewski, G. A. Voth, 
 P. Salvador, J. J. Dannenberg, S. Dapprich, A. D. Daniels, 
 O. Farkas, J. B. Foresman, J. V. Ortiz, J. Cioslowski, 
 and D. J. Fox, Gaussian, Inc., Wallingford CT, 2009.
 
 ******************************************
 Gaussian 09:  EM64L-G09RevA.02 11-Jun-2009
                21-Aug-2024 
 ******************************************
 %NProcShared=2
 Will use up to    2 processors via shared memory.
 %chk=benzene
 %mem=500MB
 ---------------------------------------------
 #p B3LYP/6-31g(d,p) opt freq pop=full gfinput
 ---------------------------------------------
 1/14=-1,18=20,19=15,26=3,38=1/1,3;
 2/9=110,12=2,17=6,18=5,40=1/2;
 3/5=1,6=6,7=101,11=2,16=1,24=10,25=1,30=1,71=1,74=-5/1,2,3;
 4//1;
 5/5=2,38=5/2;
 6/7=3,28=1/1;
 7//1,2,3,16;
 1/14=-1,18=20,19=15/3(2);
 2/9=110/2;
 99//99;
 2/9=110/2;
 3/5=1,6=6,7=101,11=2,16=1,25=1,30=1,71=1,74=-5/1,2,3;
 4/5=5,16=3/1;
 5/5=2,38=5/2;
 7//1,2,3,16;
 1/14=-1,18=20,19=15/3(-5);
 2/9=110/2;
 6/7=3,19=2,28=1/1;
 99/9=1/99;
 Leave Link    1 at Wed Aug 21 00:23:30 2024, MaxMem=   65536000 cpu:       0.1
 (Enter /programs/64bit/g09/g09-gfortran/bin/l101.exe)
 -------
 benzene
 -------
 Symbolic Z-matrix:
 Charge =  0 Multiplicity = 1
 c
 c                    1    cc2
 h                    1    hc3      2    hcc3
 h                    2    hc4      1    hcc4     3    dih4     0
 c                    1    cc5      2    ccc5     4    dih5     0
 h                    5    hc6      1    hcc6     3    dih6     0
 c                    5    cc7      1    ccc7     6    dih7     0
 h                    7    hc8      5    hcc8     6    dih8     0
 c                    7    cc9      5    ccc9     8    dih9     0
 h                    9    hc10     7    hcc10    8    dih10    0
 c                    9    cc11     7    ccc11    10   dih11    0
 h                    11   hc12     9    hcc12    10   dih12    0
       Variables:
  cc2                   1.4                      
  hc3                   1.07                     
  hcc3                120.                       
  hc4                   1.07                     
  hcc4                120.                       
  dih4                  0.                       
  cc5                   1.4                      
  ccc5                120.                       
  dih5                180.                       
  hc6                   1.07                     
  hcc6                120.                       
  dih6                  0.                       
  cc7                   1.4                      
  ccc7                120.                       
  dih7                180.                       
  hc8                   1.07                     
  hcc8                120.                       
  dih8                  0.                       
  cc9                   1.4                      
  ccc9                120.                       
  dih9                180.                       
  hc10                  1.07                     
  hcc10               120.                       
  dih10                 0.                       
  cc11                  1.4                      
  ccc11               120.                       
  dih11               180.                       
  hc12                  1.08                     
  hcc12               120.                       
  dih12                 0.                       
 
 NAtoms=     12 NQM=     12 NQMF=      0 NMic=      0 NMicF=      0 NTot=     12.
                    Isotopes and Nuclear Properties:
 (Nuclear quadrupole moments (NQMom) in fm**2, nuclear magnetic moments (NMagM)
  in nuclear magnetons)

  Atom         1           2           3           4           5           6           7           8           9          10
 IAtWgt=          12          12           1           1          12           1          12           1          12           1
 AtmWgt=  12.0000000  12.0000000   1.0078250   1.0078250  12.0000000   1.0078250  12.0000000   1.0078250  12.0000000   1.0078250
 NucSpn=           0           0           1           1           0           1           0           1           0           1
 AtZEff=   0.0000000   0.0000000   0.0000000   0.0000000   0.0000000   0.0000000   0.0000000   0.0000000   0.0000000   0.0000000
 NQMom=    0.0000000   0.0000000   0.0000000   0.0000000   0.0000000   0.0000000   0.0000000   0.0000000   0.0000000   0.0000000
 NMagM=    0.0000000   0.0000000   2.7928460   2.7928460   0.0000000   2.7928460   0.0000000   2.7928460   0.0000000   2.7928460

  Atom        11          12
 IAtWgt=          12           1
 AtmWgt=  12.0000000   1.0078250
 NucSpn=           0           1
 AtZEff=   0.0000000   0.0000000
 NQMom=    0.0000000   0.0000000
 NMagM=    0.0000000   2.7928460
 Leave Link  101 at Wed Aug 21 00:23:30 2024, MaxMem=   65536000 cpu:       0.1
 (Enter /programs/64bit/g09/g09-gfortran/bin/l103.exe)

 GradGradGradGradGradGradGradGradGradGradGradGradGradGradGradGradGradGrad
 Berny optimization.
 Initialization pass.
                           ----------------------------
                           !    Initial Parameters    !
                           ! (Angstroms and Degrees)  !
 --------------------------                            --------------------------
 ! Name  Definition              Value          Derivative Info.                !
 --------------------------------------------------------------------------------
 ! R1    R(1,2)                  1.4            estimate D2E/DX2                !
 ! R2    R(1,3)                  1.07           estimate D2E/DX2                !
 ! R3    R(1,5)                  1.4            estimate D2E/DX2                !
 ! R4    R(2,4)                  1.07           estimate D2E/DX2                !
 ! R5    R(2,11)                 1.4            estimate D2E/DX2                !
 ! R6    R(5,6)                  1.07           estimate D2E/DX2                !
 ! R7    R(5,7)                  1.4            estimate D2E/DX2                !
 ! R8    R(7,8)                  1.07           estimate D2E/DX2                !
 ! R9    R(7,9)                  1.4            estimate D2E/DX2                !
 ! R10   R(9,10)                 1.07           estimate D2E/DX2                !
 ! R11   R(9,11)                 1.4            estimate D2E/DX2                !
 ! R12   R(11,12)                1.08           estimate D2E/DX2                !
 ! A1    A(2,1,3)              120.0            estimate D2E/DX2                !
 ! A2    A(2,1,5)              120.0            estimate D2E/DX2                !
 ! A3    A(3,1,5)              120.0            estimate D2E/DX2                !
 ! A4    A(1,2,4)              120.0            estimate D2E/DX2                !
 ! A5    A(1,2,11)             120.0            estimate D2E/DX2                !
 ! A6    A(4,2,11)             120.0            estimate D2E/DX2                !
 ! A7    A(1,5,6)              120.0            estimate D2E/DX2                !
 ! A8    A(1,5,7)              120.0            estimate D2E/DX2                !
 ! A9    A(6,5,7)              120.0            estimate D2E/DX2                !
 ! A10   A(5,7,8)              120.0            estimate D2E/DX2                !
 ! A11   A(5,7,9)              120.0            estimate D2E/DX2                !
 ! A12   A(8,7,9)              120.0            estimate D2E/DX2                !
 ! A13   A(7,9,10)             120.0            estimate D2E/DX2                !
 ! A14   A(7,9,11)             120.0            estimate D2E/DX2                !
 ! A15   A(10,9,11)            120.0            estimate D2E/DX2                !
 ! A16   A(2,11,9)             120.0            estimate D2E/DX2                !
 ! A17   A(2,11,12)            120.0            estimate D2E/DX2                !
 ! A18   A(9,11,12)            120.0            estimate D2E/DX2                !
 ! D1    D(3,1,2,4)              0.0            estimate D2E/DX2                !
 ! D2    D(3,1,2,11)           180.0            estimate D2E/DX2                !
 ! D3    D(5,1,2,4)            180.0            estimate D2E/DX2                !
 ! D4    D(5,1,2,11)             0.0            estimate D2E/DX2                !
 ! D5    D(2,1,5,6)            180.0            estimate D2E/DX2                !
 ! D6    D(2,1,5,7)              0.0            estimate D2E/DX2                !
 ! D7    D(3,1,5,6)              0.0            estimate D2E/DX2                !
 ! D8    D(3,1,5,7)            180.0            estimate D2E/DX2                !
 ! D9    D(1,2,11,9)             0.0            estimate D2E/DX2                !
 ! D10   D(1,2,11,12)          180.0            estimate D2E/DX2                !
 ! D11   D(4,2,11,9)           180.0            estimate D2E/DX2                !
 ! D12   D(4,2,11,12)            0.0            estimate D2E/DX2                !
 ! D13   D(1,5,7,8)            180.0            estimate D2E/DX2                !
 ! D14   D(1,5,7,9)              0.0            estimate D2E/DX2                !
 ! D15   D(6,5,7,8)              0.0            estimate D2E/DX2                !
 ! D16   D(6,5,7,9)            180.0            estimate D2E/DX2                !
 ! D17   D(5,7,9,10)           180.0            estimate D2E/DX2                !
 ! D18   D(5,7,9,11)             0.0            estimate D2E/DX2                !
 ! D19   D(8,7,9,10)             0.0            estimate D2E/DX2                !
 ! D20   D(8,7,9,11)           180.0            estimate D2E/DX2                !
 ! D21   D(7,9,11,2)             0.0            estimate D2E/DX2                !
 ! D22   D(7,9,11,12)          180.0            estimate D2E/DX2                !
 ! D23   D(10,9,11,2)          180.0            estimate D2E/DX2                !
 ! D24   D(10,9,11,12)           0.0            estimate D2E/DX2                !
 --------------------------------------------------------------------------------
 Trust Radius=3.00D-01 FncErr=1.00D-07 GrdErr=1.00D-06
 Number of steps in this run=  64 maximum allowed number of steps= 100.
 GradGradGradGradGradGradGradGradGradGradGradGradGradGradGradGradGradGrad

 Leave Link  103 at Wed Aug 21 00:23:30 2024, MaxMem=   65536000 cpu:       0.0
 (Enter /programs/64bit/g09/g09-gfortran/bin/l202.exe)
                          Input orientation:                          
 ---------------------------------------------------------------------
 Center     Atomic      Atomic             Coordinates (Angstroms)
 Number     Number       Type             X           Y           Z
 ---------------------------------------------------------------------
      1          6           0        0.000000    0.000000    0.000000
      2          6           0        0.000000    0.000000    1.400000
      3          1           0        0.926647    0.000000   -0.535000
      4          1           0        0.926647    0.000000    1.935000
      5          6           0       -1.212436    0.000000   -0.700000
      6          1           0       -1.212436    0.000000   -1.770000
      7          6           0       -2.424871    0.000000    0.000000
      8          1           0       -3.351518    0.000000   -0.535000
      9          6           0       -2.424871    0.000000    1.400000
     10          1           0       -3.351518    0.000000    1.935000
     11          6           0       -1.212436    0.000000    2.100000
     12          1           0       -1.212436    0.000000    3.180000
 ---------------------------------------------------------------------
                    Distance matrix (angstroms):
                    1          2          3          4          5
     1  C    0.000000
     2  C    1.400000   0.000000
     3  H    1.070000   2.145437   0.000000
     4  H    2.145437   1.070000   2.470000   0.000000
     5  C    1.400000   2.424871   2.145437   3.393951   0.000000
     6  H    2.145437   3.393951   2.470000   4.278165   1.070000
     7  C    2.424871   2.800000   3.393951   3.870000   1.400000
     8  H    3.393951   3.870000   4.278165   4.940000   2.145437
     9  C    2.800000   2.424871   3.870000   3.393951   2.424871
    10  H    3.870000   3.393951   4.940000   4.278165   3.393951
    11  C    2.424871   1.400000   3.393951   2.145437   2.800000
    12  H    3.403293   2.153695   4.286829   2.475015   3.880000
                    6          7          8          9         10
     6  H    0.000000
     7  C    2.145437   0.000000
     8  H    2.470000   1.070000   0.000000
     9  C    3.393951   1.400000   2.145437   0.000000
    10  H    4.278165   2.145437   2.470000   1.070000   0.000000
    11  C    3.870000   2.424871   3.393951   1.400000   2.145437
    12  H    4.950000   3.403293   4.286829   2.153695   2.475015
                   11         12
    11  C    0.000000
    12  H    1.080000   0.000000
 Stoichiometry    C6H6
 Framework group  C2V[C2(HCCH),SGV(C4H4)]
 Deg. of freedom    11
 Full point group                 C2V     NOp   4
 Largest Abelian subgroup         C2V     NOp   4
 Largest concise Abelian subgroup C2      NOp   2
                         Standard orientation:                         
 ---------------------------------------------------------------------
 Center     Atomic      Atomic             Coordinates (Angstroms)
 Number     Number       Type             X           Y           Z
 ---------------------------------------------------------------------
      1          6           0        0.000000    1.212436    0.700238
      2          6           0        0.000000    1.212436   -0.699762
      3          1           0        0.000000    2.139083    1.235238
      4          1           0        0.000000    2.139083   -1.234762
      5          6           0       -0.000000   -0.000000    1.400238
      6          1           0       -0.000000   -0.000000    2.470238
      7          6           0       -0.000000   -1.212436    0.700238
      8          1           0       -0.000000   -2.139083    1.235238
      9          6           0       -0.000000   -1.212436   -0.699762
     10          1           0       -0.000000   -2.139083   -1.234762
     11          6           0        0.000000    0.000000   -1.399762
     12          1           0        0.000000    0.000000   -2.479762
 ---------------------------------------------------------------------
 Rotational constants (GHZ):      5.6780381      5.6748575      2.8382237
 Leave Link  202 at Wed Aug 21 00:23:30 2024, MaxMem=   65536000 cpu:       0.0
 (Enter /programs/64bit/g09/g09-gfortran/bin/l301.exe)
 Standard basis: 6-31G(d,p) (6D, 7F)
 Ernie: Thresh=  0.10000D-02 Tol=  0.10000D-05 Strict=F.
 AO basis set in the form of general basis input (Overlap normalization):
      1 0
 S   6 1.00       0.000000000000
      0.3047524880D+04  0.1834737132D-02
      0.4573695180D+03  0.1403732281D-01
      0.1039486850D+03  0.6884262226D-01
      0.2921015530D+02  0.2321844432D+00
      0.9286662960D+01  0.4679413484D+00
      0.3163926960D+01  0.3623119853D+00
 SP   3 1.00       0.000000000000
      0.7868272350D+01 -0.1193324198D+00  0.6899906659D-01
      0.1881288540D+01 -0.1608541517D+00  0.3164239610D+00
      0.5442492580D+00  0.1143456438D+01  0.7443082909D+00
 SP   1 1.00       0.000000000000
      0.1687144782D+00  0.1000000000D+01  0.1000000000D+01
 D   1 1.00       0.000000000000
      0.8000000000D+00  0.1000000000D+01
 ****
      2 0
 S   6 1.00       0.000000000000
      0.3047524880D+04  0.1834737132D-02
      0.4573695180D+03  0.1403732281D-01
      0.1039486850D+03  0.6884262226D-01
      0.2921015530D+02  0.2321844432D+00
      0.9286662960D+01  0.4679413484D+00
      0.3163926960D+01  0.3623119853D+00
 SP   3 1.00       0.000000000000
      0.7868272350D+01 -0.1193324198D+00  0.6899906659D-01
      0.1881288540D+01 -0.1608541517D+00  0.3164239610D+00
      0.5442492580D+00  0.1143456438D+01  0.7443082909D+00
 SP   1 1.00       0.000000000000
      0.1687144782D+00  0.1000000000D+01  0.1000000000D+01
 D   1 1.00       0.000000000000
      0.8000000000D+00  0.1000000000D+01
 ****
      3 0
 S   3 1.00       0.000000000000
      0.1873113696D+02  0.3349460434D-01
      0.2825394365D+01  0.2347269535D+00
      0.6401216923D+00  0.8137573261D+00
 S   1 1.00       0.000000000000
      0.1612777588D+00  0.1000000000D+01
 P   1 1.00       0.000000000000
      0.1100000000D+01  0.1000000000D+01
 ****
      4 0
 S   3 1.00       0.000000000000
      0.1873113696D+02  0.3349460434D-01
      0.2825394365D+01  0.2347269535D+00
      0.6401216923D+00  0.8137573261D+00
 S   1 1.00       0.000000000000
      0.1612777588D+00  0.1000000000D+01
 P   1 1.00       0.000000000000
      0.1100000000D+01  0.1000000000D+01
 ****
      5 0
 S   6 1.00       0.000000000000
      0.3047524880D+04  0.1834737132D-02
      0.4573695180D+03  0.1403732281D-01
      0.1039486850D+03  0.6884262226D-01
      0.2921015530D+02  0.2321844432D+00
      0.9286662960D+01  0.4679413484D+00
      0.3163926960D+01  0.3623119853D+00
 SP   3 1.00       0.000000000000
      0.7868272350D+01 -0.1193324198D+00  0.6899906659D-01
      0.1881288540D+01 -0.1608541517D+00  0.3164239610D+00
      0.5442492580D+00  0.1143456438D+01  0.7443082909D+00
 SP   1 1.00       0.000000000000
      0.1687144782D+00  0.1000000000D+01  0.1000000000D+01
 D   1 1.00       0.000000000000
      0.8000000000D+00  0.1000000000D+01
 ****
      6 0
 S   3 1.00       0.000000000000
      0.1873113696D+02  0.3349460434D-01
      0.2825394365D+01  0.2347269535D+00
      0.6401216923D+00  0.8137573261D+00
 S   1 1.00       0.000000000000
      0.1612777588D+00  0.1000000000D+01
 P   1 1.00       0.000000000000
      0.1100000000D+01  0.1000000000D+01
 ****
      7 0
 S   6 1.00       0.000000000000
      0.3047524880D+04  0.1834737132D-02
      0.4573695180D+03  0.1403732281D-01
      0.1039486850D+03  0.6884262226D-01
      0.2921015530D+02  0.2321844432D+00
      0.9286662960D+01  0.4679413484D+00
      0.3163926960D+01  0.3623119853D+00
 SP   3 1.00       0.000000000000
      0.7868272350D+01 -0.1193324198D+00  0.6899906659D-01
      0.1881288540D+01 -0.1608541517D+00  0.3164239610D+00
      0.5442492580D+00  0.1143456438D+01  0.7443082909D+00
 SP   1 1.00       0.000000000000
      0.1687144782D+00  0.1000000000D+01  0.1000000000D+01
 D   1 1.00       0.000000000000
      0.8000000000D+00  0.1000000000D+01
 ****
      8 0
 S   3 1.00       0.000000000000
      0.1873113696D+02  0.3349460434D-01
      0.2825394365D+01  0.2347269535D+00
      0.6401216923D+00  0.8137573261D+00
 S   1 1.00       0.000000000000
      0.1612777588D+00  0.1000000000D+01
 P   1 1.00       0.000000000000
      0.1100000000D+01  0.1000000000D+01
 ****
      9 0
 S   6 1.00       0.000000000000
      0.3047524880D+04  0.1834737132D-02
      0.4573695180D+03  0.1403732281D-01
      0.1039486850D+03  0.6884262226D-01
      0.2921015530D+02  0.2321844432D+00
      0.9286662960D+01  0.4679413484D+00
      0.3163926960D+01  0.3623119853D+00
 SP   3 1.00       0.000000000000
      0.7868272350D+01 -0.1193324198D+00  0.6899906659D-01
      0.1881288540D+01 -0.1608541517D+00  0.3164239610D+00
      0.5442492580D+00  0.1143456438D+01  0.7443082909D+00
 SP   1 1.00       0.000000000000
      0.1687144782D+00  0.1000000000D+01  0.1000000000D+01
 D   1 1.00       0.000000000000
      0.8000000000D+00  0.1000000000D+01
 ****
     10 0
 S   3 1.00       0.000000000000
      0.1873113696D+02  0.3349460434D-01
      0.2825394365D+01  0.2347269535D+00
      0.6401216923D+00  0.8137573261D+00
 S   1 1.00       0.000000000000
      0.1612777588D+00  0.1000000000D+01
 P   1 1.00       0.000000000000
      0.1100000000D+01  0.1000000000D+01
 ****
     11 0
 S   6 1.00       0.000000000000
      0.3047524880D+04  0.1834737132D-02
      0.4573695180D+03  0.1403732281D-01
      0.1039486850D+03  0.6884262226D-01
      0.2921015530D+02  0.2321844432D+00
      0.9286662960D+01  0.4679413484D+00
      0.3163926960D+01  0.3623119853D+00
 SP   3 1.00       0.000000000000
      0.7868272350D+01 -0.1193324198D+00  0.6899906659D-01
      0.1881288540D+01 -0.1608541517D+00  0.3164239610D+00
      0.5442492580D+00  0.1143456438D+01  0.7443082909D+00
 SP   1 1.00       0.000000000000
      0.1687144782D+00  0.1000000000D+01  0.1000000000D+01
 D   1 1.00       0.000000000000
      0.8000000000D+00  0.1000000000D+01
 ****
     12 0
 S   3 1.00       0.000000000000
      0.1873113696D+02  0.3349460434D-01
      0.2825394365D+01  0.2347269535D+00
      0.6401216923D+00  0.8137573261D+00
 S   1 1.00       0.000000000000
      0.1612777588D+00  0.1000000000D+01
 P   1 1.00       0.000000000000
      0.1100000000D+01  0.1000000000D+01
 ****

 There are    52 symmetry adapted basis functions of A1  symmetry.
 There are    12 symmetry adapted basis functions of A2  symmetry.
 There are    18 symmetry adapted basis functions of B1  symmetry.
 There are    38 symmetry adapted basis functions of B2  symmetry.
 Integral buffers will be    131072 words long.
 Raffenetti 2 integral format.
 Two-electron integral symmetry is turned on.
   120 basis functions,   210 primitive gaussians,   120 cartesian basis functions
    21 alpha electrons       21 beta electrons
       nuclear repulsion energy       203.2061039328 Hartrees.
 IExCor=  402 DFT=T Ex+Corr=B3LYP ExCW=0 ScaHFX=  0.200000
 ScaDFX=  0.800000  0.720000  1.000000  0.810000 ScalE2=  1.000000  1.000000
 IRadAn=      0 IRanWt=     -1 IRanGd=            0 ICorTp=0
 NAtoms=   12 NActive=   12 NUniq=    8 SFac= 1.69D+00 NAtFMM=   80 NAOKFM=F Big=F
 Leave Link  301 at Wed Aug 21 00:23:31 2024, MaxMem=   65536000 cpu:       0.1
 (Enter /programs/64bit/g09/g09-gfortran/bin/l302.exe)
 NPDir=0 NMtPBC=     1 NCelOv=     1 NCel=       1 NClECP=     1 NCelD=      1
         NCelK=      1 NCelE2=     1 NClLst=     1 CellRange=     0.0.
 One-electron integrals computed using PRISM.
 One-electron integral symmetry used in STVInt
 NBasis=   120 RedAO= T  NBF=    52    12    18    38
 NBsUse=   120 1.00D-06 NBFU=    52    12    18    38
 Precomputing XC quadrature grid using
 IXCGrd= 2 IRadAn=           0 IRanWt=          -1 IRanGd=           0 AccXCQ= 1.00D-10.
 NRdTot=     744 NPtTot=       93780 NUsed=       99157 NTot=       99189
 NSgBfM=   120   120   120   120   120 NAtAll=    12    12.
 Leave Link  302 at Wed Aug 21 00:23:31 2024, MaxMem=   65536000 cpu:       0.5
 (Enter /programs/64bit/g09/g09-gfortran/bin/l303.exe)
 DipDrv:  MaxL=1.
 Leave Link  303 at Wed Aug 21 00:23:31 2024, MaxMem=   65536000 cpu:       0.1
 (Enter /programs/64bit/g09/g09-gfortran/bin/l401.exe)
 Harris functional with IExCor=  402 diagonalized for initial guess.
 ExpMin= 1.61D-01 ExpMax= 3.05D+03 ExpMxC= 4.57D+02 IAcc=1 IRadAn=         1 AccDes= 0.00D+00
 HarFok:  IExCor=  402 AccDes= 0.00D+00 IRadAn=         1 IDoV= 1
 ScaDFX=  1.000000  1.000000  1.000000  1.000000
 FoFCou: FMM=F IPFlag=           0 FMFlag=      100000 FMFlg1=           0
         NFxFlg=           0 DoJE=T BraDBF=F KetDBF=T FulRan=T
         Omega=  0.000000  0.000000  1.000000  0.000000  0.000000 ICntrl=     500 IOpCl=  0
         NMat0=    1 NMatS0=    1 NMatT0=    0 NMatD0=    1 NMtDS0=    0 NMtDT0=    0
         I1Cent=           4 NGrid=           0.
 Petite list used in FoFCou.
 Harris En= -232.311527902348    
 Initial guess orbital symmetries:
       Occupied  (A1) (B2) (A1) (B2) (A1) (A1) (A1) (B2) (A1) (B2)
                 (A1) (A1) (B2) (A1) (B2) (A1) (B2) (A1) (B1) (A2)
                 (B1)
       Virtual   (A2) (B1) (B1) (A1) (A1) (B2) (A1) (B2) (A1) (A1)
                 (B2) (A1) (B2) (B2) (A1) (B2) (B1) (A1) (B2) (A1)
                 (A1) (B1) (A2) (A1) (B2) (A2) (B1) (B1) (A1) (A1)
                 (B2) (A1) (B2) (A1) (B2) (A1) (B2) (B2) (A1) (B2)
                 (A1) (A1) (A2) (B1) (A2) (B1) (A2) (B1) (A1) (B2)
                 (B2) (A1) (A1) (A1) (B2) (A1) (A1) (B2) (A2) (B1)
                 (B1) (A1) (B2) (B1) (A2) (A1) (B2) (B1) (A1) (B2)
                 (B2) (B1) (A2) (A1) (B2) (A1) (B2) (B1) (A2) (A2)
                 (B1) (B2) (A1) (B2) (A1) (A1) (A1) (A1) (B2) (B2)
                 (A1) (B2) (A1) (A1) (B2) (A1) (B2) (A1) (A1)
 The electronic state of the initial guess is 1-A1.
 Leave Link  401 at Wed Aug 21 00:23:33 2024, MaxMem=   65536000 cpu:       1.8
 (Enter /programs/64bit/g09/g09-gfortran/bin/l502.exe)
 Closed shell SCF:
 Requested convergence on RMS density matrix=1.00D-08 within 128 cycles.
 Requested convergence on MAX density matrix=1.00D-06.
 Requested convergence on             energy=1.00D-06.
 No special actions if energy rises.
 Using DIIS extrapolation, IDIIS=  1040.
 Integral symmetry usage will be decided dynamically.
        99036 words used for storage of precomputed grid.
 Keep R1 ints in memory in canonical form, NReq=27462292.
 IEnd=      162254 IEndB=      162254 NGot=    65536000 MDV=    39047449
 LenX=    39047449 LenY=    39032608
 Symmetry not used in FoFDir.
 MinBra= 0 MaxBra= 2 Meth= 1.
 IRaf=       0 NMat=   1 IRICut=       1 DoRegI=T DoRafI=F ISym2E= 0 JSym2E=0.
 Integral accuracy reduced to 1.0D-05 until final iterations.

 Cycle   1  Pass 0  IDiag  1:
 E= -232.095776825762    
 DIIS: error= 3.56D-02 at cycle   1 NSaved=   1.
 NSaved= 1 IEnMin= 1 EnMin= -232.095776825762     IErMin= 1 ErrMin= 3.56D-02
 ErrMax= 3.56D-02 EMaxC= 1.00D-01 BMatC= 1.37D-01 BMatP= 1.37D-01
 IDIUse=3 WtCom= 6.44D-01 WtEn= 3.56D-01
 Coeff-Com:  0.100D+01
 Coeff-En:   0.100D+01
 Coeff:      0.100D+01
 Gap=     0.247 Goal=   None    Shift=    0.000
 GapD=    0.247 DampG=1.000 DampE=0.500 DampFc=0.5000 IDamp=-1.
 Damping current iteration by 5.00D-01
 RMSDP=7.09D-03 MaxDP=1.17D-01              OVMax= 1.58D-01

 Cycle   2  Pass 0  IDiag  1:
 E= -232.173114240742     Delta-E=       -0.077337414980 Rises=F Damp=T
 DIIS: error= 7.94D-03 at cycle   2 NSaved=   2.
 NSaved= 2 IEnMin= 2 EnMin= -232.173114240742     IErMin= 2 ErrMin= 7.94D-03
 ErrMax= 7.94D-03 EMaxC= 1.00D-01 BMatC= 6.34D-03 BMatP= 1.37D-01
 IDIUse=3 WtCom= 9.21D-01 WtEn= 7.94D-02
 Coeff-Com:  0.348D-02 0.997D+00
 Coeff-En:   0.000D+00 0.100D+01
 Coeff:      0.320D-02 0.997D+00
 Gap=     0.251 Goal=   None    Shift=    0.000
 RMSDP=1.45D-03 MaxDP=1.70D-02 DE=-7.73D-02 OVMax= 9.08D-02

 Cycle   3  Pass 0  IDiag  1:
 E= -232.256305272615     Delta-E=       -0.083191031873 Rises=F Damp=F
 DIIS: error= 4.41D-03 at cycle   3 NSaved=   3.
 NSaved= 3 IEnMin= 3 EnMin= -232.256305272615     IErMin= 3 ErrMin= 4.41D-03
 ErrMax= 4.41D-03 EMaxC= 1.00D-01 BMatC= 1.06D-03 BMatP= 6.34D-03
 IDIUse=3 WtCom= 9.56D-01 WtEn= 4.41D-02
 Coeff-Com: -0.358D-01 0.255D+00 0.781D+00
 Coeff-En:   0.000D+00 0.000D+00 0.100D+01
 Coeff:     -0.342D-01 0.244D+00 0.790D+00
 Gap=     0.248 Goal=   None    Shift=    0.000
 RMSDP=3.66D-04 MaxDP=3.70D-03 DE=-8.32D-02 OVMax= 7.72D-03

 Cycle   4  Pass 0  IDiag  1:
 E= -232.257241060593     Delta-E=       -0.000935787978 Rises=F Damp=F
 DIIS: error= 5.29D-04 at cycle   4 NSaved=   4.
 NSaved= 4 IEnMin= 4 EnMin= -232.257241060593     IErMin= 4 ErrMin= 5.29D-04
 ErrMax= 5.29D-04 EMaxC= 1.00D-01 BMatC= 2.92D-05 BMatP= 1.06D-03
 IDIUse=3 WtCom= 9.95D-01 WtEn= 5.29D-03
 Coeff-Com: -0.748D-02 0.164D-01 0.170D+00 0.821D+00
 Coeff-En:   0.000D+00 0.000D+00 0.000D+00 0.100D+01
 Coeff:     -0.745D-02 0.163D-01 0.169D+00 0.822D+00
 Gap=     0.248 Goal=   None    Shift=    0.000
 RMSDP=4.93D-05 MaxDP=6.82D-04 DE=-9.36D-04 OVMax= 1.28D-03

 Cycle   5  Pass 0  IDiag  1:
 E= -232.257265178253     Delta-E=       -0.000024117660 Rises=F Damp=F
 DIIS: error= 2.17D-04 at cycle   5 NSaved=   5.
 NSaved= 5 IEnMin= 5 EnMin= -232.257265178253     IErMin= 5 ErrMin= 2.17D-04
 ErrMax= 2.17D-04 EMaxC= 1.00D-01 BMatC= 1.78D-06 BMatP= 2.92D-05
 IDIUse=3 WtCom= 9.98D-01 WtEn= 2.17D-03
 Coeff-Com: -0.366D-02 0.712D-02 0.832D-01 0.423D+00 0.490D+00
 Coeff-En:   0.000D+00 0.000D+00 0.000D+00 0.000D+00 0.100D+01
 Coeff:     -0.365D-02 0.710D-02 0.831D-01 0.422D+00 0.492D+00
 Gap=     0.248 Goal=   None    Shift=    0.000
 RMSDP=1.67D-05 MaxDP=3.68D-04 DE=-2.41D-05 OVMax= 9.51D-04

 Cycle   6  Pass 0  IDiag  1:
 E= -232.257266856913     Delta-E=       -0.000001678660 Rises=F Damp=F
 DIIS: error= 9.50D-05 at cycle   6 NSaved=   6.
 NSaved= 6 IEnMin= 6 EnMin= -232.257266856913     IErMin= 6 ErrMin= 9.50D-05
 ErrMax= 9.50D-05 EMaxC= 1.00D-01 BMatC= 3.54D-07 BMatP= 1.78D-06
 IDIUse=1 WtCom= 1.00D+00 WtEn= 0.00D+00
 Coeff-Com: -0.121D-03-0.448D-03 0.269D-02 0.290D-01 0.311D+00 0.658D+00
 Coeff:     -0.121D-03-0.448D-03 0.269D-02 0.290D-01 0.311D+00 0.658D+00
 Gap=     0.248 Goal=   None    Shift=    0.000
 RMSDP=5.38D-06 MaxDP=1.05D-04 DE=-1.68D-06 OVMax= 2.84D-04

 Initial convergence to 1.0D-05 achieved.  Increase integral accuracy.
 Cycle   7  Pass 1  IDiag  1:
 E= -232.257235766297     Delta-E=        0.000031090616 Rises=F Damp=F
 DIIS: error= 4.06D-05 at cycle   1 NSaved=   1.
 NSaved= 1 IEnMin= 1 EnMin= -232.257235766297     IErMin= 1 ErrMin= 4.06D-05
 ErrMax= 4.06D-05 EMaxC= 1.00D-01 BMatC= 7.00D-08 BMatP= 7.00D-08
 IDIUse=1 WtCom= 1.00D+00 WtEn= 0.00D+00
 Coeff-Com:  0.100D+01
 Coeff:      0.100D+01
 Gap=     0.248 Goal=   None    Shift=    0.000
 RMSDP=5.38D-06 MaxDP=1.05D-04 DE= 3.11D-05 OVMax= 1.41D-04

 Cycle   8  Pass 1  IDiag  1:
 E= -232.257235858499     Delta-E=       -0.000000092202 Rises=F Damp=F
 DIIS: error= 5.25D-06 at cycle   2 NSaved=   2.
 NSaved= 2 IEnMin= 2 EnMin= -232.257235858499     IErMin= 2 ErrMin= 5.25D-06
 ErrMax= 5.25D-06 EMaxC= 1.00D-01 BMatC= 3.73D-09 BMatP= 7.00D-08
 IDIUse=1 WtCom= 1.00D+00 WtEn= 0.00D+00
 Coeff-Com:  0.486D-01 0.951D+00
 Coeff:      0.486D-01 0.951D+00
 Gap=     0.248 Goal=   None    Shift=    0.000
 RMSDP=1.15D-06 MaxDP=2.77D-05 DE=-9.22D-08 OVMax= 5.93D-05

 Cycle   9  Pass 1  IDiag  1:
 E= -232.257235855642     Delta-E=        0.000000002856 Rises=F Damp=F
 DIIS: error= 7.21D-06 at cycle   3 NSaved=   3.
 NSaved= 3 IEnMin= 2 EnMin= -232.257235858499     IErMin= 2 ErrMin= 5.25D-06
 ErrMax= 7.21D-06 EMaxC= 1.00D-01 BMatC= 6.63D-09 BMatP= 3.73D-09
 IDIUse=1 WtCom= 1.00D+00 WtEn= 0.00D+00
 Coeff-Com: -0.208D-01 0.582D+00 0.438D+00
 Coeff:     -0.208D-01 0.582D+00 0.438D+00
 Gap=     0.248 Goal=   None    Shift=    0.000
 RMSDP=6.31D-07 MaxDP=1.55D-05 DE= 2.86D-09 OVMax= 3.93D-05

 Cycle  10  Pass 1  IDiag  1:
 E= -232.257235862271     Delta-E=       -0.000000006629 Rises=F Damp=F
 DIIS: error= 1.40D-06 at cycle   4 NSaved=   4.
 NSaved= 4 IEnMin= 4 EnMin= -232.257235862271     IErMin= 4 ErrMin= 1.40D-06
 ErrMax= 1.40D-06 EMaxC= 1.00D-01 BMatC= 8.62D-11 BMatP= 3.73D-09
 IDIUse=1 WtCom= 1.00D+00 WtEn= 0.00D+00
 Coeff-Com: -0.103D-01 0.236D+00 0.197D+00 0.577D+00
 Coeff:     -0.103D-01 0.236D+00 0.197D+00 0.577D+00
 Gap=     0.248 Goal=   None    Shift=    0.000
 RMSDP=1.22D-07 MaxDP=2.67D-06 DE=-6.63D-09 OVMax= 7.08D-06

 Cycle  11  Pass 1  IDiag  1:
 E= -232.257235862338     Delta-E=       -0.000000000067 Rises=F Damp=F
 DIIS: error= 8.87D-07 at cycle   5 NSaved=   5.
 NSaved= 5 IEnMin= 5 EnMin= -232.257235862338     IErMin= 5 ErrMin= 8.87D-07
 ErrMax= 8.87D-07 EMaxC= 1.00D-01 BMatC= 2.83D-11 BMatP= 8.62D-11
 IDIUse=1 WtCom= 1.00D+00 WtEn= 0.00D+00
 Coeff-Com: -0.368D-02 0.736D-01 0.666D-01 0.374D+00 0.489D+00
 Coeff:     -0.368D-02 0.736D-01 0.666D-01 0.374D+00 0.489D+00
 Gap=     0.248 Goal=   None    Shift=    0.000
 RMSDP=4.74D-08 MaxDP=1.45D-06 DE=-6.65D-11 OVMax= 3.03D-06

 Cycle  12  Pass 1  IDiag  1:
 E= -232.257235862369     Delta-E=       -0.000000000031 Rises=F Damp=F
 DIIS: error= 4.72D-08 at cycle   6 NSaved=   6.
 NSaved= 6 IEnMin= 6 EnMin= -232.257235862369     IErMin= 6 ErrMin= 4.72D-08
 ErrMax= 4.72D-08 EMaxC= 1.00D-01 BMatC= 1.71D-13 BMatP= 2.83D-11
 IDIUse=1 WtCom= 1.00D+00 WtEn= 0.00D+00
 Coeff-Com: -0.303D-03 0.325D-02 0.361D-02 0.502D-01 0.117D+00 0.826D+00
 Coeff:     -0.303D-03 0.325D-02 0.361D-02 0.502D-01 0.117D+00 0.826D+00
 Gap=     0.248 Goal=   None    Shift=    0.000
 RMSDP=3.41D-09 MaxDP=9.70D-08 DE=-3.13D-11 OVMax= 1.53D-07

 SCF Done:  E(RB3LYP) =  -232.257235862     A.U. after   12 cycles
             Convg  =    0.3410D-08             -V/T =  2.0098
 KE= 2.300120881113D+02 PE=-9.438351920848D+02 EE= 2.783597641783D+02
 Leave Link  502 at Wed Aug 21 00:24:08 2024, MaxMem=   65536000 cpu:      33.4
 (Enter /programs/64bit/g09/g09-gfortran/bin/l601.exe)
 Copying SCF densities to generalized density rwf, IOpCl= 0 IROHF=0.

 **********************************************************************

            Population analysis using the SCF density.

 **********************************************************************

 Orbital symmetries:
       Occupied  (A1) (A1) (B2) (A1) (B2) (A1) (A1) (B2) (A1) (B2)
                 (A1) (A1) (A1) (B2) (B2) (A1) (B1) (B2) (A1) (A2)
                 (B1)
       Virtual   (A2) (B1) (A1) (A1) (B2) (B1) (A1) (B2) (A1) (A1)
                 (B2) (B2) (A1) (B2) (B1) (A1) (A1) (B2) (A1) (A1)
                 (B2) (B1) (A2) (A1) (B2) (B1) (A2) (B1) (A1) (B2)
                 (A1) (A1) (B2) (A1) (B2) (A1) (B2) (B2) (A1) (B2)
                 (A1) (A1) (A2) (B1) (A2) (B1) (A2) (B1) (A1) (B2)
                 (B2) (A1) (A1) (A1) (A1) (B2) (A1) (B2) (A2) (B1)
                 (B1) (A1) (B2) (B1) (A2) (A1) (B2) (B1) (B2) (B1)
                 (A2) (A1) (B2) (A1) (B2) (A1) (B2) (B1) (A2) (A2)
                 (B1) (B2) (A1) (B2) (A1) (A1) (A1) (A1) (B2) (B2)
                 (A1) (B2) (A1) (A1) (B2) (A1) (A1) (B2) (A1)
 The electronic state is 1-A1.
 Alpha  occ. eigenvalues --  -10.18727 -10.18659 -10.18645 -10.18608 -10.18591
 Alpha  occ. eigenvalues --  -10.18569  -0.84474  -0.74008  -0.73976  -0.59910
 Alpha  occ. eigenvalues --   -0.59858  -0.51959  -0.46312  -0.43694  -0.41813
 Alpha  occ. eigenvalues --   -0.41763  -0.35821  -0.34097  -0.34060  -0.24599
 Alpha  occ. eigenvalues --   -0.24597
 Alpha virt. eigenvalues --    0.00209   0.00214   0.09637   0.14880   0.14966
 Alpha virt. eigenvalues --    0.16008   0.18340   0.18397   0.19438   0.30055
 Alpha virt. eigenvalues --    0.30084   0.31594   0.31596   0.46890   0.52794
 Alpha virt. eigenvalues --    0.54599   0.54876   0.55762   0.59087   0.60045
 Alpha virt. eigenvalues --    0.60047   0.60259   0.60268   0.62515   0.62527
 Alpha virt. eigenvalues --    0.66748   0.66757   0.74279   0.82727   0.82994
 Alpha virt. eigenvalues --    0.83119   0.85237   0.85386   0.93345   0.93538
 Alpha virt. eigenvalues --    0.93573   0.95685   1.07599   1.07652   1.12765
 Alpha virt. eigenvalues --    1.12769   1.20083   1.26241   1.30118   1.40505
 Alpha virt. eigenvalues --    1.40537   1.42678   1.42699   1.43598   1.43745
 Alpha virt. eigenvalues --    1.75244   1.75679   1.82690   1.88628   1.93904
 Alpha virt. eigenvalues --    1.94301   1.96238   1.96316   1.97546   1.97564
 Alpha virt. eigenvalues --    2.01824   2.06800   2.06850   2.29392   2.29419
 Alpha virt. eigenvalues --    2.36640   2.36924   2.38024   2.42252   2.42664
 Alpha virt. eigenvalues --    2.42950   2.43926   2.43984   2.50104   2.50108
 Alpha virt. eigenvalues --    2.54448   2.58303   2.61372   2.61743   2.65077
 Alpha virt. eigenvalues --    2.78759   2.81889   2.82011   3.06312   3.06787
 Alpha virt. eigenvalues --    3.19695   3.26643   3.28013   3.28500   3.41578
 Alpha virt. eigenvalues --    3.53385   3.54003   3.96890   4.12584   4.16015
 Alpha virt. eigenvalues --    4.16058   4.43911   4.43937   4.83426
     Molecular Orbital Coefficients:
                           1         2         3         4         5
                        (A1)--O   (A1)--O   (B2)--O   (A1)--O   (B2)--O
     Eigenvalues --   -10.18727 -10.18659 -10.18645 -10.18608 -10.18591
   1 1   C  1S          0.06488   0.50475   0.48895  -0.06096   0.50374
   2        2S          0.00312   0.02476   0.02424  -0.00290   0.02535
   3        2PX         0.00000   0.00000   0.00000   0.00000   0.00000
   4        2PY         0.00002   0.00016  -0.00006   0.00013  -0.00006
   5        2PZ         0.00012  -0.00006   0.00014  -0.00024  -0.00017
   6        3S         -0.00214  -0.00328  -0.00488  -0.00170  -0.01001
   7        3PX         0.00000   0.00000   0.00000   0.00000   0.00000
   8        3PY         0.00107  -0.00078   0.00065   0.00044   0.00154
   9        3PZ         0.00023   0.00025  -0.00050   0.00214   0.00172
  10        4XX        -0.00067  -0.00501  -0.00476   0.00064  -0.00478
  11        4YY        -0.00065  -0.00488  -0.00465   0.00048  -0.00452
  12        4ZZ        -0.00064  -0.00494  -0.00474   0.00065  -0.00439
  13        4XY         0.00000   0.00000   0.00000   0.00000   0.00000
  14        4XZ         0.00000   0.00000   0.00000   0.00000   0.00000
  15        4YZ         0.00003   0.00007   0.00004   0.00007   0.00001
  16 2   C  1S          0.24350   0.20021   0.50355  -0.54353  -0.48914
  17        2S          0.01159   0.00979   0.02498  -0.02733  -0.02463
  18        2PX         0.00000   0.00000   0.00000   0.00000   0.00000
  19        2PY         0.00027  -0.00003  -0.00007   0.00011   0.00006
  20        2PZ         0.00012  -0.00021  -0.00013  -0.00000  -0.00017
  21        3S          0.00312  -0.00257  -0.00518   0.01209   0.00986
  22        3PX         0.00000   0.00000   0.00000   0.00000   0.00000
  23        3PY        -0.00279   0.00091   0.00070  -0.00324  -0.00152
  24        3PZ         0.00012   0.00068   0.00045   0.00130   0.00174
  25        4XX        -0.00254  -0.00201  -0.00490   0.00517   0.00464
  26        4YY        -0.00261  -0.00186  -0.00478   0.00483   0.00438
  27        4ZZ        -0.00257  -0.00196  -0.00487   0.00496   0.00425
  28        4XY         0.00000   0.00000   0.00000   0.00000   0.00000
  29        4XZ         0.00000   0.00000   0.00000   0.00000   0.00000
  30        4YZ        -0.00010   0.00000  -0.00004  -0.00004   0.00001
  31 3   H  1S         -0.00007  -0.00025  -0.00026  -0.00001  -0.00028
  32        2S         -0.00002   0.00110   0.00076  -0.00047   0.00048
  33        3PX         0.00000   0.00000   0.00000   0.00000   0.00000
  34        3PY        -0.00001   0.00004   0.00007  -0.00001   0.00015
  35        3PZ        -0.00002   0.00004   0.00003  -0.00003   0.00007
  36 4   H  1S         -0.00008  -0.00012  -0.00026   0.00034   0.00027
  37        2S          0.00101   0.00037   0.00078  -0.00027  -0.00046
  38        3PX         0.00000   0.00000   0.00000   0.00000   0.00000
  39        3PY        -0.00002   0.00001   0.00008  -0.00011  -0.00015
  40        3PZ         0.00002  -0.00001  -0.00004   0.00010   0.00007
  41 5   C  1S          0.02755   0.59804   0.00000   0.55698   0.00000
  42        2S          0.00112   0.02941   0.00000   0.02778   0.00000
  43        2PX         0.00000   0.00000   0.00000   0.00000   0.00000
  44        2PY         0.00000   0.00000  -0.00029   0.00000  -0.00023
  45        2PZ         0.00007   0.00013   0.00000  -0.00010   0.00000
  46        3S          0.00211  -0.00511   0.00000  -0.00617   0.00000
  47        3PX         0.00000   0.00000   0.00000   0.00000   0.00000
  48        3PY         0.00000   0.00000   0.00147   0.00000   0.00149
  49        3PZ        -0.00142   0.00017   0.00000  -0.00002   0.00000
  50        4XX        -0.00037  -0.00591   0.00000  -0.00537   0.00000
  51        4YY        -0.00027  -0.00593   0.00000  -0.00512   0.00000
  52        4ZZ        -0.00028  -0.00575   0.00000  -0.00512   0.00000
  53        4XY         0.00000   0.00000   0.00000   0.00000   0.00000
  54        4XZ         0.00000   0.00000   0.00000   0.00000   0.00000
  55        4YZ         0.00000   0.00000   0.00005   0.00000   0.00014
  56 6   H  1S          0.00002  -0.00032   0.00000  -0.00026   0.00000
  57        2S          0.00048   0.00108   0.00000   0.00100   0.00000
  58        3PX         0.00000   0.00000   0.00000   0.00000   0.00000
  59        3PY         0.00000   0.00000   0.00001   0.00000  -0.00003
  60        3PZ        -0.00001   0.00005   0.00000   0.00016   0.00000
  61 7   C  1S          0.06488   0.50475  -0.48895  -0.06096  -0.50374
  62        2S          0.00312   0.02476  -0.02424  -0.00290  -0.02535
  63        2PX         0.00000   0.00000   0.00000   0.00000   0.00000
  64        2PY        -0.00002  -0.00016  -0.00006  -0.00013  -0.00006
  65        2PZ         0.00012  -0.00006  -0.00014  -0.00024   0.00017
  66        3S         -0.00214  -0.00328   0.00488  -0.00170   0.01001
  67        3PX         0.00000   0.00000   0.00000   0.00000   0.00000
  68        3PY        -0.00107   0.00078   0.00065  -0.00044   0.00154
  69        3PZ         0.00023   0.00025   0.00050   0.00214  -0.00172
  70        4XX        -0.00067  -0.00501   0.00476   0.00064   0.00478
  71        4YY        -0.00065  -0.00488   0.00465   0.00048   0.00452
  72        4ZZ        -0.00064  -0.00494   0.00474   0.00065   0.00439
  73        4XY         0.00000   0.00000   0.00000   0.00000   0.00000
  74        4XZ         0.00000   0.00000   0.00000   0.00000   0.00000
  75        4YZ        -0.00003  -0.00007   0.00004  -0.00007   0.00001
  76 8   H  1S         -0.00007  -0.00025   0.00026  -0.00001   0.00028
  77        2S         -0.00002   0.00110  -0.00076  -0.00047  -0.00048
  78        3PX         0.00000   0.00000   0.00000   0.00000   0.00000
  79        3PY         0.00001  -0.00004   0.00007   0.00001   0.00015
  80        3PZ        -0.00002   0.00004  -0.00003  -0.00003  -0.00007
  81 9   C  1S          0.24350   0.20021  -0.50355  -0.54353   0.48914
  82        2S          0.01159   0.00979  -0.02498  -0.02733   0.02463
  83        2PX         0.00000   0.00000   0.00000   0.00000   0.00000
  84        2PY        -0.00027   0.00003  -0.00007  -0.00011   0.00006
  85        2PZ         0.00012  -0.00021   0.00013  -0.00000   0.00017
  86        3S          0.00312  -0.00257   0.00518   0.01209  -0.00986
  87        3PX         0.00000   0.00000   0.00000   0.00000   0.00000
  88        3PY         0.00279  -0.00091   0.00070   0.00324  -0.00152
  89        3PZ         0.00012   0.00068  -0.00045   0.00130  -0.00174
  90        4XX        -0.00254  -0.00201   0.00490   0.00517  -0.00464
  91        4YY        -0.00261  -0.00186   0.00478   0.00483  -0.00438
  92        4ZZ        -0.00257  -0.00196   0.00487   0.00496  -0.00425
  93        4XY         0.00000   0.00000   0.00000   0.00000   0.00000
  94        4XZ         0.00000   0.00000   0.00000   0.00000   0.00000
  95        4YZ         0.00010  -0.00000  -0.00004   0.00004   0.00001
  96 10  H  1S         -0.00008  -0.00012   0.00026   0.00034  -0.00027
  97        2S          0.00101   0.00037  -0.00078  -0.00027   0.00046
  98        3PX         0.00000   0.00000   0.00000   0.00000   0.00000
  99        3PY         0.00002  -0.00001   0.00008   0.00011  -0.00015
 100        3PZ         0.00002  -0.00001   0.00004   0.00010  -0.00007
 101 11  C  1S          0.92602  -0.19414   0.00000   0.27822   0.00000
 102        2S          0.04602  -0.01000   0.00000   0.01444   0.00000
 103        2PX         0.00000   0.00000   0.00000   0.00000   0.00000
 104        2PY         0.00000   0.00000  -0.00030   0.00000   0.00022
 105        2PZ         0.00001  -0.00015   0.00000   0.00022   0.00000
 106        3S         -0.01404   0.00529   0.00000  -0.01225   0.00000
 107        3PX         0.00000   0.00000   0.00000   0.00000   0.00000
 108        3PY         0.00000   0.00000   0.00152   0.00000  -0.00145
 109        3PZ        -0.00288   0.00160   0.00000  -0.00435   0.00000
 110        4XX        -0.00895   0.00175   0.00000  -0.00248   0.00000
 111        4YY        -0.00870   0.00166   0.00000  -0.00207   0.00000
 112        4ZZ        -0.00859   0.00170   0.00000  -0.00221   0.00000
 113        4XY         0.00000   0.00000   0.00000   0.00000   0.00000
 114        4XZ         0.00000   0.00000   0.00000   0.00000   0.00000
 115        4YZ         0.00000   0.00000  -0.00005   0.00000   0.00014
 116 12  H  1S         -0.00052   0.00012   0.00000  -0.00020   0.00000
 117        2S          0.00108   0.00010   0.00000  -0.00037   0.00000
 118        3PX         0.00000   0.00000   0.00000   0.00000   0.00000
 119        3PY         0.00000   0.00000   0.00001   0.00000   0.00003
 120        3PZ        -0.00019   0.00009   0.00000  -0.00016   0.00000
                           6         7         8         9        10
                        (A1)--O   (A1)--O   (B2)--O   (A1)--O   (B2)--O
     Eigenvalues --   -10.18569  -0.84474  -0.74008  -0.73976  -0.59910
   1 1   C  1S         -0.47978  -0.09424  -0.11335  -0.06530   0.08917
   2        2S         -0.02471   0.18022   0.22315   0.12855  -0.18410
   3        2PX         0.00000   0.00000   0.00000   0.00000   0.00000
   4        2PY         0.00021  -0.05251   0.01212  -0.05878  -0.00239
   5        2PZ         0.00006  -0.03029  -0.05873   0.08035  -0.11762
   6        3S          0.02062   0.11219   0.16449   0.09519  -0.14316
   7        3PX         0.00000   0.00000   0.00000   0.00000   0.00000
   8        3PY        -0.00736  -0.00731   0.00702  -0.00595  -0.02022
   9        3PZ        -0.00382  -0.00414  -0.00592   0.01380  -0.04133
  10        4XX         0.00436  -0.01064  -0.01120  -0.00645   0.00717
  11        4YY         0.00401   0.00088  -0.00631   0.00588  -0.00026
  12        4ZZ         0.00404   0.00240   0.00485  -0.00673   0.00906
  13        4XY         0.00000   0.00000   0.00000   0.00000   0.00000
  14        4XZ         0.00000   0.00000   0.00000   0.00000   0.00000
  15        4YZ         0.00005  -0.00153  -0.00019  -0.00646   0.00034
  16 2   C  1S          0.31320  -0.09415  -0.11335   0.06580  -0.08917
  17        2S          0.01626   0.18005   0.22316  -0.12955   0.18412
  18        2PX         0.00000   0.00000   0.00000   0.00000   0.00000
  19        2PY        -0.00008  -0.05245   0.01210   0.05883   0.00233
  20        2PZ         0.00015   0.03043   0.05873   0.07970  -0.11760
  21        3S         -0.01676   0.11245   0.16451  -0.09586   0.14318
  22        3PX         0.00000   0.00000   0.00000   0.00000   0.00000
  23        3PY         0.00608  -0.00740   0.00703   0.00609   0.02020
  24        3PZ        -0.00414   0.00443   0.00597   0.01350  -0.04131
  25        4XX        -0.00280  -0.01063  -0.01120   0.00650  -0.00717
  26        4YY        -0.00263   0.00087  -0.00631  -0.00585   0.00025
  27        4ZZ        -0.00255   0.00240   0.00485   0.00674  -0.00906
  28        4XY         0.00000   0.00000   0.00000   0.00000   0.00000
  29        4XZ         0.00000   0.00000   0.00000   0.00000   0.00000
  30        4YZ        -0.00001   0.00150   0.00019  -0.00641   0.00034
  31 3   H  1S          0.00042   0.03832   0.07192   0.04150  -0.10348
  32        2S          0.00089   0.00724   0.01934   0.01117  -0.04252
  33        3PX         0.00000   0.00000   0.00000   0.00000   0.00000
  34        3PY        -0.00015  -0.00385  -0.00580  -0.00413   0.00752
  35        3PZ        -0.00010  -0.00222  -0.00413  -0.00102   0.00244
  36 4   H  1S         -0.00033   0.03826   0.07191  -0.04172   0.10345
  37        2S         -0.00099   0.00728   0.01933  -0.01133   0.04250
  38        3PX         0.00000   0.00000   0.00000   0.00000   0.00000
  39        3PY         0.00010  -0.00384  -0.00580   0.00415  -0.00752
  40        3PZ        -0.00005   0.00222   0.00413  -0.00104   0.00244
  41 5   C  1S          0.56309  -0.09425   0.00000  -0.13101   0.00000
  42        2S          0.02888   0.18023   0.00000   0.25795   0.00000
  43        2PX         0.00000   0.00000   0.00000   0.00000   0.00000
  44        2PY         0.00000   0.00000   0.11382   0.00000  -0.20132
  45        2PZ        -0.00023  -0.06063   0.00000  -0.02159   0.00000
  46        3S         -0.02234   0.11242   0.00000   0.19020   0.00000
  47        3PX         0.00000   0.00000   0.00000   0.00000   0.00000
  48        3PY         0.00000   0.00000   0.01729   0.00000  -0.05146
  49        3PZ         0.00866  -0.00851   0.00000   0.00380   0.00000
  50        4XX        -0.00516  -0.01065   0.00000  -0.01294   0.00000
  51        4YY        -0.00472   0.00317   0.00000   0.00254   0.00000
  52        4ZZ        -0.00479   0.00012   0.00000  -0.00424   0.00000
  53        4XY         0.00000   0.00000   0.00000   0.00000   0.00000
  54        4XZ         0.00000   0.00000   0.00000   0.00000   0.00000
  55        4YZ         0.00000   0.00000  -0.01097   0.00000   0.00965
  56 6   H  1S         -0.00047   0.03832   0.00000   0.08324   0.00000
  57        2S         -0.00079   0.00726   0.00000   0.02236   0.00000
  58        3PX         0.00000   0.00000   0.00000   0.00000   0.00000
  59        3PY         0.00000   0.00000   0.00135   0.00000  -0.00329
  60        3PZ         0.00021  -0.00444   0.00000  -0.00819   0.00000
  61 7   C  1S         -0.47978  -0.09424   0.11335  -0.06530  -0.08917
  62        2S         -0.02471   0.18022  -0.22315   0.12855   0.18410
  63        2PX         0.00000   0.00000   0.00000   0.00000   0.00000
  64        2PY        -0.00021   0.05251   0.01212   0.05878  -0.00239
  65        2PZ         0.00006  -0.03029   0.05873   0.08035   0.11762
  66        3S          0.02062   0.11219  -0.16449   0.09519   0.14316
  67        3PX         0.00000   0.00000   0.00000   0.00000   0.00000
  68        3PY         0.00736   0.00731   0.00702   0.00595  -0.02022
  69        3PZ        -0.00382  -0.00414   0.00592   0.01380   0.04133
  70        4XX         0.00436  -0.01064   0.01120  -0.00645  -0.00717
  71        4YY         0.00401   0.00088   0.00631   0.00588   0.00026
  72        4ZZ         0.00404   0.00240  -0.00485  -0.00673  -0.00906
  73        4XY         0.00000   0.00000   0.00000   0.00000   0.00000
  74        4XZ         0.00000   0.00000   0.00000   0.00000   0.00000
  75        4YZ        -0.00005   0.00153  -0.00019   0.00646   0.00034
  76 8   H  1S          0.00042   0.03832  -0.07192   0.04150   0.10348
  77        2S          0.00089   0.00724  -0.01934   0.01117   0.04252
  78        3PX         0.00000   0.00000   0.00000   0.00000   0.00000
  79        3PY         0.00015   0.00385  -0.00580   0.00413   0.00752
  80        3PZ        -0.00010  -0.00222   0.00413  -0.00102  -0.00244
  81 9   C  1S          0.31320  -0.09415   0.11335   0.06580   0.08917
  82        2S          0.01626   0.18005  -0.22316  -0.12955  -0.18412
  83        2PX         0.00000   0.00000   0.00000   0.00000   0.00000
  84        2PY         0.00008   0.05245   0.01210  -0.05883   0.00233
  85        2PZ         0.00015   0.03043  -0.05873   0.07970   0.11760
  86        3S         -0.01676   0.11245  -0.16451  -0.09586  -0.14318
  87        3PX         0.00000   0.00000   0.00000   0.00000   0.00000
  88        3PY        -0.00608   0.00740   0.00703  -0.00609   0.02020
  89        3PZ        -0.00414   0.00443  -0.00597   0.01350   0.04131
  90        4XX        -0.00280  -0.01063   0.01120   0.00650   0.00717
  91        4YY        -0.00263   0.00087   0.00631  -0.00585  -0.00025
  92        4ZZ        -0.00255   0.00240  -0.00485   0.00674   0.00906
  93        4XY         0.00000   0.00000   0.00000   0.00000   0.00000
  94        4XZ         0.00000   0.00000   0.00000   0.00000   0.00000
  95        4YZ         0.00001  -0.00150   0.00019   0.00641   0.00034
  96 10  H  1S         -0.00033   0.03826  -0.07191  -0.04172  -0.10345
  97        2S         -0.00099   0.00728  -0.01933  -0.01133  -0.04250
  98        3PX         0.00000   0.00000   0.00000   0.00000   0.00000
  99        3PY        -0.00010   0.00384  -0.00580  -0.00415  -0.00752
 100        3PZ        -0.00005   0.00222  -0.00413  -0.00104  -0.00244
 101 11  C  1S         -0.11450  -0.09386   0.00000   0.13056   0.00000
 102        2S         -0.00636   0.17966   0.00000  -0.25731   0.00000
 103        2PX         0.00000   0.00000   0.00000   0.00000   0.00000
 104        2PY         0.00000   0.00000   0.11388   0.00000   0.20142
 105        2PZ        -0.00013   0.06110   0.00000  -0.02336   0.00000
 106        3S          0.01390   0.11199   0.00000  -0.18981   0.00000
 107        3PX         0.00000   0.00000   0.00000   0.00000   0.00000
 108        3PY         0.00000   0.00000   0.01730   0.00000   0.05139
 109        3PZ         0.00686   0.00821   0.00000   0.00391   0.00000
 110        4XX         0.00087  -0.01062   0.00000   0.01291   0.00000
 111        4YY         0.00073   0.00319   0.00000  -0.00263   0.00000
 112        4ZZ         0.00078   0.00013   0.00000   0.00422   0.00000
 113        4XY         0.00000   0.00000   0.00000   0.00000   0.00000
 114        4XZ         0.00000   0.00000   0.00000   0.00000   0.00000
 115        4YZ         0.00000   0.00000   0.01100   0.00000   0.00970
 116 12  H  1S          0.00022   0.03734   0.00000  -0.08114   0.00000
 117        2S          0.00124   0.00698   0.00000  -0.02175   0.00000
 118        3PX         0.00000   0.00000   0.00000   0.00000   0.00000
 119        3PY         0.00000   0.00000   0.00133   0.00000   0.00325
 120        3PZ         0.00007   0.00439   0.00000  -0.00806   0.00000
                          11        12        13        14        15
                        (A1)--O   (A1)--O   (A1)--O   (B2)--O   (B2)--O
     Eigenvalues --    -0.59858  -0.51959  -0.46312  -0.43694  -0.41813
   1 1   C  1S          0.05190  -0.00733  -0.05937  -0.00001   0.02080
   2        2S         -0.10718   0.01558   0.12310   0.00003  -0.04781
   3        2PX         0.00000   0.00000   0.00000   0.00000   0.00000
   4        2PY        -0.11840   0.17071   0.11732  -0.13744   0.20743
   5        2PZ         0.13288   0.09969   0.06834   0.23777   0.17043
   6        3S         -0.08395   0.02386   0.15652   0.00003  -0.09151
   7        3PX         0.00000   0.00000   0.00000   0.00000   0.00000
   8        3PY        -0.04172   0.05689   0.02749  -0.04590   0.07290
   9        3PZ         0.02765   0.03348   0.01675   0.07944   0.02848
  10        4XX         0.00417  -0.00006  -0.00446  -0.00000   0.00059
  11        4YY         0.00820  -0.00108   0.00198   0.00321   0.00982
  12        4ZZ        -0.00308   0.00202  -0.00967  -0.00322  -0.00538
  13        4XY         0.00000   0.00000   0.00000   0.00000   0.00000
  14        4XZ         0.00000   0.00000   0.00000   0.00000   0.00000
  15        4YZ        -0.00536  -0.00312   0.01180  -0.00214   0.00174
  16 2   C  1S          0.05099  -0.00855   0.05956  -0.00002   0.02078
  17        2S         -0.10533   0.01809  -0.12356   0.00005  -0.04776
  18        2PX         0.00000   0.00000   0.00000   0.00000   0.00000
  19        2PY        -0.11891   0.17077  -0.11593  -0.13752   0.20749
  20        2PZ        -0.13383  -0.10091   0.06388  -0.23777  -0.17047
  21        3S         -0.08132   0.02745  -0.15642   0.00016  -0.09143
  22        3PX         0.00000   0.00000   0.00000   0.00000   0.00000
  23        3PY        -0.04195   0.05682  -0.02748  -0.04594   0.07292
  24        3PZ        -0.02721  -0.03312   0.01557  -0.07940  -0.02845
  25        4XX         0.00409  -0.00015   0.00447  -0.00000   0.00059
  26        4YY         0.00826  -0.00101  -0.00185   0.00320   0.00982
  27        4ZZ        -0.00325   0.00177   0.00958  -0.00322  -0.00538
  28        4XY         0.00000   0.00000   0.00000   0.00000   0.00000
  29        4XZ         0.00000   0.00000   0.00000   0.00000   0.00000
  30        4YZ         0.00535   0.00303   0.01185   0.00215  -0.00174
  31 3   H  1S         -0.06058   0.10896   0.14471  -0.00007   0.14487
  32        2S         -0.02496   0.06956   0.10536  -0.00007   0.14083
  33        3PX         0.00000   0.00000   0.00000   0.00000   0.00000
  34        3PY         0.00248  -0.00426  -0.00582  -0.00277  -0.00407
  35        3PZ         0.00472  -0.00244  -0.00335   0.00481  -0.00160
  36 4   H  1S         -0.05977   0.11051  -0.14289  -0.00012   0.14492
  37        2S         -0.02448   0.07055  -0.10366  -0.00011   0.14085
  38        3PX         0.00000   0.00000   0.00000   0.00000   0.00000
  39        3PY         0.00242  -0.00435   0.00574  -0.00277  -0.00408
  40        3PZ        -0.00471   0.00247  -0.00337  -0.00481   0.00160
  41 5   C  1S         -0.10278  -0.00894   0.05965   0.00000   0.00000
  42        2S          0.21222   0.01893  -0.12374   0.00000   0.00000
  43        2PX         0.00000   0.00000   0.00000   0.00000   0.00000
  44        2PY         0.00000   0.00000   0.00000   0.27469  -0.08719
  45        2PZ         0.07019   0.20017  -0.12784   0.00000   0.00000
  46        3S          0.16498   0.02743  -0.15811   0.00000   0.00000
  47        3PX         0.00000   0.00000   0.00000   0.00000   0.00000
  48        3PY         0.00000   0.00000   0.00000   0.09169   0.02378
  49        3PZ         0.04394   0.06678  -0.02965   0.00000   0.00000
  50        4XX        -0.00827  -0.00018   0.00447   0.00000   0.00000
  51        4YY        -0.00754   0.00332   0.01562   0.00000   0.00000
  52        4ZZ        -0.00264  -0.00260  -0.00785   0.00000   0.00000
  53        4XY         0.00000   0.00000   0.00000   0.00000   0.00000
  54        4XZ         0.00000   0.00000   0.00000   0.00000   0.00000
  55        4YZ         0.00000   0.00000   0.00000  -0.00430   0.01345
  56 6   H  1S          0.11939   0.11184  -0.14042   0.00000   0.00000
  57        2S          0.04919   0.07126  -0.10183   0.00000   0.00000
  58        3PX         0.00000   0.00000   0.00000   0.00000   0.00000
  59        3PY         0.00000   0.00000   0.00000   0.00555  -0.00129
  60        3PZ        -0.00891  -0.00507   0.00656   0.00000   0.00000
  61 7   C  1S          0.05190  -0.00733  -0.05937   0.00001  -0.02080
  62        2S         -0.10718   0.01558   0.12310  -0.00003   0.04781
  63        2PX         0.00000   0.00000   0.00000   0.00000   0.00000
  64        2PY         0.11840  -0.17071  -0.11732  -0.13744   0.20743
  65        2PZ         0.13288   0.09969   0.06834  -0.23777  -0.17043
  66        3S         -0.08395   0.02386   0.15652  -0.00003   0.09151
  67        3PX         0.00000   0.00000   0.00000   0.00000   0.00000
  68        3PY         0.04172  -0.05689  -0.02749  -0.04590   0.07290
  69        3PZ         0.02765   0.03348   0.01675  -0.07944  -0.02848
  70        4XX         0.00417  -0.00006  -0.00446   0.00000  -0.00059
  71        4YY         0.00820  -0.00108   0.00198  -0.00321  -0.00982
  72        4ZZ        -0.00308   0.00202  -0.00967   0.00322   0.00538
  73        4XY         0.00000   0.00000   0.00000   0.00000   0.00000
  74        4XZ         0.00000   0.00000   0.00000   0.00000   0.00000
  75        4YZ         0.00536   0.00312  -0.01180  -0.00214   0.00174
  76 8   H  1S         -0.06058   0.10896   0.14471   0.00007  -0.14487
  77        2S         -0.02496   0.06956   0.10536   0.00007  -0.14083
  78        3PX         0.00000   0.00000   0.00000   0.00000   0.00000
  79        3PY        -0.00248   0.00426   0.00582  -0.00277  -0.00407
  80        3PZ         0.00472  -0.00244  -0.00335  -0.00481   0.00160
  81 9   C  1S          0.05099  -0.00855   0.05956   0.00002  -0.02078
  82        2S         -0.10533   0.01809  -0.12356  -0.00005   0.04776
  83        2PX         0.00000   0.00000   0.00000   0.00000   0.00000
  84        2PY         0.11891  -0.17077   0.11593  -0.13752   0.20749
  85        2PZ        -0.13383  -0.10091   0.06388   0.23777   0.17047
  86        3S         -0.08132   0.02745  -0.15642  -0.00016   0.09143
  87        3PX         0.00000   0.00000   0.00000   0.00000   0.00000
  88        3PY         0.04195  -0.05682   0.02748  -0.04594   0.07292
  89        3PZ        -0.02721  -0.03312   0.01557   0.07940   0.02845
  90        4XX         0.00409  -0.00015   0.00447   0.00000  -0.00059
  91        4YY         0.00826  -0.00101  -0.00185  -0.00320  -0.00982
  92        4ZZ        -0.00325   0.00177   0.00958   0.00322   0.00538
  93        4XY         0.00000   0.00000   0.00000   0.00000   0.00000
  94        4XZ         0.00000   0.00000   0.00000   0.00000   0.00000
  95        4YZ        -0.00535  -0.00303  -0.01185   0.00215  -0.00174
  96 10  H  1S         -0.05977   0.11051  -0.14289   0.00012  -0.14492
  97        2S         -0.02448   0.07055  -0.10366   0.00011  -0.14085
  98        3PX         0.00000   0.00000   0.00000   0.00000   0.00000
  99        3PY        -0.00242   0.00435  -0.00574  -0.00277  -0.00408
 100        3PZ        -0.00471   0.00247  -0.00337   0.00481  -0.00160
 101 11  C  1S         -0.10308  -0.00856  -0.06051   0.00000   0.00000
 102        2S          0.21308   0.01823   0.12573   0.00000   0.00000
 103        2PX         0.00000   0.00000   0.00000   0.00000   0.00000
 104        2PY         0.00000   0.00000   0.00000   0.27484  -0.08721
 105        2PZ        -0.06692  -0.19532  -0.12903   0.00000   0.00000
 106        3S          0.16589   0.02712   0.16046   0.00000   0.00000
 107        3PX         0.00000   0.00000   0.00000   0.00000   0.00000
 108        3PY         0.00000   0.00000   0.00000   0.09156   0.02382
 109        3PZ        -0.04426  -0.06655  -0.03188   0.00000   0.00000
 110        4XX        -0.00828  -0.00012  -0.00449   0.00000   0.00000
 111        4YY        -0.00733   0.00367  -0.01544   0.00000   0.00000
 112        4ZZ        -0.00275  -0.00282   0.00761   0.00000   0.00000
 113        4XY         0.00000   0.00000   0.00000   0.00000   0.00000
 114        4XZ         0.00000   0.00000   0.00000   0.00000   0.00000
 115        4YZ         0.00000   0.00000   0.00000   0.00437  -0.01346
 116 12  H  1S          0.11688   0.10817   0.14116   0.00000   0.00000
 117        2S          0.04798   0.06888   0.10228   0.00000   0.00000
 118        3PX         0.00000   0.00000   0.00000   0.00000   0.00000
 119        3PY         0.00000   0.00000   0.00000   0.00549  -0.00125
 120        3PZ         0.00880   0.00492   0.00668   0.00000   0.00000
                          16        17        18        19        20
                        (A1)--O   (B1)--O   (B2)--O   (A1)--O   (A2)--O
     Eigenvalues --    -0.41763  -0.35821  -0.34097  -0.34060  -0.24599
   1 1   C  1S          0.01250   0.00000  -0.00461  -0.00282   0.00000
   2        2S         -0.02861   0.00000   0.01746   0.01043   0.00000
   3        2PX         0.00000   0.22154   0.00000   0.00000   0.29353
   4        2PY         0.16864   0.00000  -0.23684   0.01926   0.00000
   5        2PZ         0.00801   0.00000   0.01955  -0.25874   0.00000
   6        3S         -0.05401   0.00000  -0.01336  -0.00732   0.00000
   7        3PX         0.00000   0.12889   0.00000   0.00000   0.21055
   8        3PY         0.02805   0.00000  -0.05041   0.03086   0.00000
   9        3PZ         0.03909   0.00000   0.03079  -0.08586   0.00000
  10        4XX         0.00038   0.00000   0.00083   0.00047   0.00000
  11        4YY        -0.00609   0.00000  -0.00620  -0.01381   0.00000
  12        4ZZ         0.00871   0.00000   0.00059   0.01055   0.00000
  13        4XY         0.00000  -0.00867   0.00000   0.00000   0.00030
  14        4XZ         0.00000  -0.00501   0.00000   0.00000  -0.01060
  15        4YZ         0.00864   0.00000  -0.01866  -0.00393   0.00000
  16 2   C  1S         -0.01264   0.00000   0.00459  -0.00243   0.00000
  17        2S          0.02901   0.00000  -0.01743   0.00951   0.00000
  18        2PX         0.00000   0.22155   0.00000   0.00000   0.29354
  19        2PY        -0.16899   0.00000   0.23677   0.01997   0.00000
  20        2PZ         0.01262   0.00000   0.01953   0.25891   0.00000
  21        3S          0.05380   0.00000   0.01335  -0.00789   0.00000
  22        3PX         0.00000   0.12889   0.00000   0.00000   0.21051
  23        3PY        -0.02750   0.00000   0.05041   0.03028   0.00000
  24        3PZ         0.04029   0.00000   0.03079   0.08587   0.00000
  25        4XX        -0.00038   0.00000  -0.00082   0.00048   0.00000
  26        4YY         0.00593   0.00000   0.00620  -0.01389   0.00000
  27        4ZZ        -0.00856   0.00000  -0.00059   0.01066   0.00000
  28        4XY         0.00000  -0.00867   0.00000   0.00000   0.00030
  29        4XZ         0.00000   0.00501   0.00000   0.00000   0.01060
  30        4YZ         0.00864   0.00000  -0.01865   0.00391   0.00000
  31 3   H  1S          0.08130   0.00000  -0.14755  -0.08498   0.00000
  32        2S          0.07941   0.00000  -0.17195  -0.09921   0.00000
  33        3PX         0.00000   0.00486   0.00000   0.00000   0.00775
  34        3PY        -0.00151   0.00000   0.00134   0.00337   0.00000
  35        3PZ        -0.00220   0.00000   0.00339  -0.00257   0.00000
  36 4   H  1S         -0.08281   0.00000   0.14752  -0.08510   0.00000
  37        2S         -0.08111   0.00000   0.17188  -0.09883   0.00000
  38        3PX         0.00000   0.00486   0.00000   0.00000   0.00775
  39        3PY         0.00158   0.00000  -0.00134   0.00338   0.00000
  40        3PZ        -0.00216   0.00000   0.00339   0.00256   0.00000
  41 5   C  1S          0.02357   0.00000   0.00000   0.00529   0.00000
  42        2S         -0.05432   0.00000   0.00000  -0.02008   0.00000
  43        2PX         0.00000   0.22152   0.00000   0.00000   0.00000
  44        2PY         0.00000   0.00000   0.27070   0.00000   0.00000
  45        2PZ         0.30752   0.00000   0.00000   0.22393   0.00000
  46        3S         -0.10429   0.00000   0.00000   0.01576   0.00000
  47        3PX         0.00000   0.12888   0.00000   0.00000   0.00000
  48        3PY         0.00000   0.00000   0.10372   0.00000   0.00000
  49        3PZ         0.08962   0.00000   0.00000   0.03214   0.00000
  50        4XX         0.00064   0.00000   0.00000  -0.00095   0.00000
  51        4YY        -0.00358   0.00000   0.00000  -0.01481   0.00000
  52        4ZZ         0.00868   0.00000   0.00000   0.02127   0.00000
  53        4XY         0.00000   0.00000   0.00000   0.00000   0.01866
  54        4XZ         0.00000  -0.01001   0.00000   0.00000   0.00000
  55        4YZ         0.00000   0.00000  -0.01188   0.00000   0.00000
  56 6   H  1S          0.16913   0.00000   0.00000   0.16931   0.00000
  57        2S          0.16444   0.00000   0.00000   0.19752   0.00000
  58        3PX         0.00000   0.00486   0.00000   0.00000   0.00000
  59        3PY         0.00000   0.00000   0.00453   0.00000   0.00000
  60        3PZ        -0.00505   0.00000   0.00000  -0.00327   0.00000
  61 7   C  1S          0.01250   0.00000   0.00461  -0.00282   0.00000
  62        2S         -0.02861   0.00000  -0.01746   0.01043   0.00000
  63        2PX         0.00000   0.22154   0.00000   0.00000  -0.29353
  64        2PY        -0.16864   0.00000  -0.23684  -0.01926   0.00000
  65        2PZ         0.00801   0.00000  -0.01955  -0.25874   0.00000
  66        3S         -0.05401   0.00000   0.01336  -0.00732   0.00000
  67        3PX         0.00000   0.12889   0.00000   0.00000  -0.21055
  68        3PY        -0.02805   0.00000  -0.05041  -0.03086   0.00000
  69        3PZ         0.03909   0.00000  -0.03079  -0.08586   0.00000
  70        4XX         0.00038   0.00000  -0.00083   0.00047   0.00000
  71        4YY        -0.00609   0.00000   0.00620  -0.01381   0.00000
  72        4ZZ         0.00871   0.00000  -0.00059   0.01055   0.00000
  73        4XY         0.00000   0.00867   0.00000   0.00000   0.00030
  74        4XZ         0.00000  -0.00501   0.00000   0.00000   0.01060
  75        4YZ        -0.00864   0.00000  -0.01866   0.00393   0.00000
  76 8   H  1S          0.08130   0.00000   0.14755  -0.08498   0.00000
  77        2S          0.07941   0.00000   0.17195  -0.09921   0.00000
  78        3PX         0.00000   0.00486   0.00000   0.00000  -0.00775
  79        3PY         0.00151   0.00000   0.00134  -0.00337   0.00000
  80        3PZ        -0.00220   0.00000  -0.00339  -0.00257   0.00000
  81 9   C  1S         -0.01264   0.00000  -0.00459  -0.00243   0.00000
  82        2S          0.02901   0.00000   0.01743   0.00951   0.00000
  83        2PX         0.00000   0.22155   0.00000   0.00000  -0.29354
  84        2PY         0.16899   0.00000   0.23677  -0.01997   0.00000
  85        2PZ         0.01262   0.00000  -0.01953   0.25891   0.00000
  86        3S          0.05380   0.00000  -0.01335  -0.00789   0.00000
  87        3PX         0.00000   0.12889   0.00000   0.00000  -0.21051
  88        3PY         0.02750   0.00000   0.05041  -0.03028   0.00000
  89        3PZ         0.04029   0.00000  -0.03079   0.08587   0.00000
  90        4XX        -0.00038   0.00000   0.00082   0.00048   0.00000
  91        4YY         0.00593   0.00000  -0.00620  -0.01389   0.00000
  92        4ZZ        -0.00856   0.00000   0.00059   0.01066   0.00000
  93        4XY         0.00000   0.00867   0.00000   0.00000   0.00030
  94        4XZ         0.00000   0.00501   0.00000   0.00000  -0.01060
  95        4YZ        -0.00864   0.00000  -0.01865  -0.00391   0.00000
  96 10  H  1S         -0.08281   0.00000  -0.14752  -0.08510   0.00000
  97        2S         -0.08111   0.00000  -0.17188  -0.09883   0.00000
  98        3PX         0.00000   0.00486   0.00000   0.00000  -0.00775
  99        3PY        -0.00158   0.00000  -0.00134  -0.00338   0.00000
 100        3PZ        -0.00216   0.00000  -0.00339   0.00256   0.00000
 101 11  C  1S         -0.02295   0.00000   0.00000   0.00513   0.00000
 102        2S          0.05296   0.00000   0.00000  -0.01985   0.00000
 103        2PX         0.00000   0.22157   0.00000   0.00000   0.00000
 104        2PY         0.00000   0.00000  -0.27066   0.00000   0.00000
 105        2PZ         0.30633   0.00000   0.00000  -0.22712   0.00000
 106        3S          0.10204   0.00000   0.00000   0.01674   0.00000
 107        3PX         0.00000   0.12880   0.00000   0.00000   0.00000
 108        3PY         0.00000   0.00000  -0.10353   0.00000   0.00000
 109        3PZ         0.09161   0.00000   0.00000  -0.03499   0.00000
 110        4XX        -0.00066   0.00000   0.00000  -0.00092   0.00000
 111        4YY         0.00332   0.00000   0.00000  -0.01486   0.00000
 112        4ZZ        -0.00836   0.00000   0.00000   0.02134   0.00000
 113        4XY         0.00000   0.00000   0.00000   0.00000   0.01866
 114        4XZ         0.00000   0.01006   0.00000   0.00000   0.00000
 115        4YZ         0.00000   0.00000  -0.01193   0.00000   0.00000
 116 12  H  1S         -0.16862   0.00000   0.00000   0.17224   0.00000
 117        2S         -0.16350   0.00000   0.00000   0.20059   0.00000
 118        3PX         0.00000   0.00479   0.00000   0.00000   0.00000
 119        3PY         0.00000   0.00000  -0.00445   0.00000   0.00000
 120        3PZ        -0.00515   0.00000   0.00000   0.00350   0.00000
                          21        22        23        24        25
                        (B1)--O   (A2)--V   (B1)--V   (A1)--V   (A1)--V
     Eigenvalues --    -0.24597   0.00209   0.00214   0.09637   0.14880
   1 1   C  1S          0.00000   0.00000   0.00000   0.03917  -0.02007
   2        2S          0.00000   0.00000   0.00000  -0.06807   0.01887
   3        2PX        -0.16946   0.31509  -0.18201   0.00000   0.00000
   4        2PY         0.00000   0.00000   0.00000  -0.10582   0.09543
   5        2PZ         0.00000   0.00000   0.00000  -0.05978   0.08395
   6        3S          0.00000   0.00000   0.00000  -0.51982   0.52617
   7        3PX        -0.12156   0.41437  -0.23938   0.00000   0.00000
   8        3PY         0.00000   0.00000   0.00000  -0.24758   0.35855
   9        3PZ         0.00000   0.00000   0.00000  -0.14224  -0.01748
  10        4XX         0.00000   0.00000   0.00000   0.00024  -0.00219
  11        4YY         0.00000   0.00000   0.00000   0.01380  -0.01071
  12        4ZZ         0.00000   0.00000   0.00000  -0.00320   0.00979
  13        4XY         0.01060  -0.00025  -0.01700   0.00000   0.00000
  14        4XZ        -0.01254   0.01700   0.01988   0.00000   0.00000
  15        4YZ         0.00000   0.00000   0.00000   0.01733  -0.00000
  16 2   C  1S          0.00000   0.00000   0.00000   0.03889   0.01726
  17        2S          0.00000   0.00000   0.00000  -0.06661  -0.01430
  18        2PX         0.16952  -0.31511  -0.18183   0.00000   0.00000
  19        2PY         0.00000   0.00000   0.00000  -0.10774  -0.09169
  20        2PZ         0.00000   0.00000   0.00000   0.06149   0.07722
  21        3S          0.00000   0.00000   0.00000  -0.52873  -0.48327
  22        3PX         0.12163  -0.41435  -0.23907   0.00000   0.00000
  23        3PY         0.00000   0.00000   0.00000  -0.24674  -0.34750
  24        3PZ         0.00000   0.00000   0.00000   0.13963  -0.03728
  25        4XX         0.00000   0.00000   0.00000   0.00033   0.00209
  26        4YY         0.00000   0.00000   0.00000   0.01407   0.01022
  27        4ZZ         0.00000   0.00000   0.00000  -0.00366  -0.00978
  28        4XY        -0.01060   0.00025  -0.01701   0.00000   0.00000
  29        4XZ        -0.01254   0.01699  -0.01988   0.00000   0.00000
  30        4YZ         0.00000   0.00000   0.00000  -0.01744   0.00003
  31 3   H  1S          0.00000   0.00000   0.00000   0.05469  -0.01933
  32        2S          0.00000   0.00000   0.00000   0.74318  -0.63797
  33        3PX        -0.00448   0.01191  -0.00688   0.00000   0.00000
  34        3PY         0.00000   0.00000   0.00000   0.00422  -0.00264
  35        3PZ         0.00000   0.00000   0.00000   0.00251   0.00123
  36 4   H  1S          0.00000   0.00000   0.00000   0.05497   0.01815
  37        2S          0.00000   0.00000   0.00000   0.74729   0.59169
  38        3PX         0.00448  -0.01191  -0.00687   0.00000   0.00000
  39        3PY         0.00000   0.00000   0.00000   0.00426   0.00234
  40        3PZ         0.00000   0.00000   0.00000  -0.00247   0.00110
  41 5   C  1S          0.00000   0.00000   0.00000   0.03905  -0.03881
  42        2S          0.00000   0.00000   0.00000  -0.06733   0.03858
  43        2PX        -0.33894   0.00000   0.36386   0.00000   0.00000
  44        2PY         0.00000   0.00000   0.00000   0.00000   0.00000
  45        2PZ         0.00000   0.00000   0.00000  -0.12099   0.24439
  46        3S          0.00000   0.00000   0.00000  -0.52527   0.98976
  47        3PX        -0.24314   0.00000   0.47862   0.00000   0.00000
  48        3PY         0.00000   0.00000   0.00000   0.00000   0.00000
  49        3PZ         0.00000   0.00000   0.00000  -0.27843   0.61980
  50        4XX         0.00000   0.00000   0.00000   0.00030  -0.00398
  51        4YY         0.00000   0.00000   0.00000  -0.01190   0.00905
  52        4ZZ         0.00000   0.00000   0.00000   0.02233  -0.01137
  53        4XY         0.00000   0.02969   0.00000   0.00000   0.00000
  54        4XZ         0.00581   0.00000   0.00957   0.00000   0.00000
  55        4YZ         0.00000   0.00000   0.00000   0.00000   0.00000
  56 6   H  1S          0.00000   0.00000   0.00000   0.05400  -0.03947
  57        2S          0.00000   0.00000   0.00000   0.73691  -1.26206
  58        3PX        -0.00895   0.00000   0.01375   0.00000   0.00000
  59        3PY         0.00000   0.00000   0.00000   0.00000   0.00000
  60        3PZ         0.00000   0.00000   0.00000   0.00487  -0.00334
  61 7   C  1S          0.00000   0.00000   0.00000   0.03917  -0.02007
  62        2S          0.00000   0.00000   0.00000  -0.06807   0.01887
  63        2PX        -0.16946  -0.31509  -0.18201   0.00000   0.00000
  64        2PY         0.00000   0.00000   0.00000   0.10582  -0.09543
  65        2PZ         0.00000   0.00000   0.00000  -0.05978   0.08395
  66        3S          0.00000   0.00000   0.00000  -0.51982   0.52617
  67        3PX        -0.12156  -0.41437  -0.23938   0.00000   0.00000
  68        3PY         0.00000   0.00000   0.00000   0.24758  -0.35855
  69        3PZ         0.00000   0.00000   0.00000  -0.14224  -0.01748
  70        4XX         0.00000   0.00000   0.00000   0.00024  -0.00219
  71        4YY         0.00000   0.00000   0.00000   0.01380  -0.01071
  72        4ZZ         0.00000   0.00000   0.00000  -0.00320   0.00979
  73        4XY        -0.01060  -0.00025   0.01700   0.00000   0.00000
  74        4XZ        -0.01254  -0.01700   0.01988   0.00000   0.00000
  75        4YZ         0.00000   0.00000   0.00000  -0.01733   0.00000
  76 8   H  1S          0.00000   0.00000   0.00000   0.05469  -0.01933
[...]
     36  0.757055D-03  0.174952D-03  0.000000D+00 -0.706097D-03  0.303853D-02
               26            27            28            29            30 
     26  0.132240D+00
     27  0.000000D+00  0.689074D+00
     28  0.000000D+00  0.120232D+00  0.283568D+00
     29 -0.359584D-01  0.000000D+00  0.000000D+00  0.255292D-01
     30  0.000000D+00 -0.129481D+00 -0.129860D+00  0.000000D+00  0.133660D+00
     31  0.000000D+00 -0.583913D-01 -0.186508D-01  0.000000D+00 -0.150703D-01
     32 -0.613767D-01  0.000000D+00  0.000000D+00  0.256265D-02  0.000000D+00
     33  0.000000D+00 -0.181822D+00  0.166499D-01  0.000000D+00  0.118417D-01
     34  0.000000D+00 -0.286871D-01  0.101249D-02  0.000000D+00  0.449181D-03
     35  0.258087D-02  0.000000D+00  0.000000D+00 -0.395773D-02  0.000000D+00
     36  0.000000D+00 -0.117247D-01 -0.232905D-03  0.000000D+00  0.887291D-03
               31            32            33            34            35 
     31  0.671591D+00
     32  0.000000D+00  0.132437D+00
     33  0.000000D+00  0.000000D+00  0.743050D+00
     34 -0.600044D-01  0.000000D+00  0.000000D+00  0.586499D-01
     35  0.000000D+00 -0.360546D-01  0.000000D+00  0.000000D+00  0.256062D-01
     36  0.000000D+00  0.000000D+00 -0.337667D+00  0.000000D+00  0.000000D+00
               36 
     36  0.358538D+00
 Leave Link  716 at Wed Aug 21 00:35:02 2024, MaxMem=   65536000 cpu:       0.1
 (Enter /programs/64bit/g09/g09-gfortran/bin/l103.exe)

 GradGradGradGradGradGradGradGradGradGradGradGradGradGradGradGradGradGrad
 Berny optimization.
 Internal  Forces:  Max     0.000171015 RMS     0.000053631
 Search for a local minimum.
 Step number   1 out of a maximum of    2
 All quantities printed in internal units (Hartrees-Bohrs-Radians)
 Second derivative matrix not updated -- analytic derivatives used.
     Eigenvalues ---    0.01716   0.01720   0.01821   0.02379   0.02380
     Eigenvalues ---    0.02683   0.02828   0.02835   0.02888   0.10834
     Eigenvalues ---    0.11343   0.11346   0.12112   0.12761   0.12768
     Eigenvalues ---    0.19306   0.19496   0.19510   0.28751   0.35663
     Eigenvalues ---    0.35663   0.35970   0.35982   0.35984   0.36182
     Eigenvalues ---    0.41848   0.41868   0.47438   0.47444   0.51541
     Eigenvalues --- 1000.000001000.000001000.000001000.000001000.00000
     Eigenvalues --- 1000.000001000.000001000.000001000.000001000.00000
     Eigenvalues --- 1000.000001000.000001000.000001000.000001000.00000
     Eigenvalues --- 1000.000001000.000001000.000001000.000001000.00000
     Eigenvalues --- 1000.000001000.000001000.000001000.00000
 Angle between quadratic step and forces=  24.41 degrees.
 Linear search not attempted -- first point.
 Iteration  1 RMS(Cart)=  0.00020685 RMS(Int)=  0.00000004
 Iteration  2 RMS(Cart)=  0.00000006 RMS(Int)=  0.00000001
 ClnCor:  largest displacement from symmetrization is 4.04D-12 for atom     8.
 Variable       Old X    -DE/DX   Delta X   Delta X   Delta X     New X
                                 (Linear)    (Quad)   (Total)
    R1        2.63855   0.00009   0.00000   0.00012   0.00012   2.63868
    R2        2.05301  -0.00003   0.00000  -0.00011  -0.00011   2.05290
    R3        2.63855   0.00006   0.00000   0.00012   0.00012   2.63868
    R4        2.05299  -0.00004   0.00000  -0.00009  -0.00009   2.05290
    R5        2.63829   0.00017   0.00000   0.00039   0.00039   2.63868
    R6        2.05302  -0.00004   0.00000  -0.00012  -0.00012   2.05290
    R7        2.63855   0.00006   0.00000   0.00012   0.00012   2.63868
    R8        2.05301  -0.00003   0.00000  -0.00011  -0.00011   2.05290
    R9        2.63855   0.00009   0.00000   0.00012   0.00012   2.63868
   R10        2.05299  -0.00004   0.00000  -0.00009  -0.00009   2.05290
   R11        2.63829   0.00017   0.00000   0.00039   0.00039   2.63868
   R12        2.05298  -0.00001   0.00000  -0.00008  -0.00008   2.05290
    A1        2.09427   0.00002   0.00000   0.00011   0.00011   2.09439
    A2        2.09450  -0.00001   0.00000  -0.00007  -0.00007   2.09443
    A3        2.09441  -0.00001   0.00000  -0.00004  -0.00004   2.09437
    A4        2.09455  -0.00003   0.00000  -0.00017  -0.00017   2.09439
    A5        2.09396   0.00009   0.00000   0.00047   0.00047   2.09443
    A6        2.09468  -0.00006   0.00000  -0.00030  -0.00030   2.09437
    A7        2.09441  -0.00000   0.00000   0.00002   0.00002   2.09443
    A8        2.09437   0.00000   0.00000  -0.00004  -0.00004   2.09433
    A9        2.09441  -0.00000   0.00000   0.00002   0.00002   2.09443
   A10        2.09441  -0.00001   0.00000  -0.00004  -0.00004   2.09437
   A11        2.09450  -0.00001   0.00000  -0.00007  -0.00007   2.09443
   A12        2.09427   0.00002   0.00000   0.00011   0.00011   2.09439
   A13        2.09455  -0.00003   0.00000  -0.00017  -0.00017   2.09439
   A14        2.09396   0.00009   0.00000   0.00047   0.00047   2.09443
   A15        2.09468  -0.00006   0.00000  -0.00030  -0.00030   2.09437
   A16        2.09509  -0.00016   0.00000  -0.00076  -0.00076   2.09433
   A17        2.09405   0.00008   0.00000   0.00038   0.00038   2.09443
   A18        2.09405   0.00008   0.00000   0.00038   0.00038   2.09443
    D1        0.00000  -0.00000   0.00000   0.00000  -0.00000   0.00000
    D2        3.14159  -0.00000   0.00000   0.00000   0.00000   3.14159
    D3        3.14159  -0.00000   0.00000   0.00000   0.00000   3.14159
    D4       -0.00000  -0.00000   0.00000   0.00000   0.00000   0.00000
    D5        3.14159  -0.00000   0.00000   0.00000   0.00000   3.14159
    D6       -0.00000   0.00000   0.00000  -0.00000   0.00000   0.00000
    D7       -0.00000  -0.00000   0.00000   0.00000   0.00000   0.00000
    D8        3.14159   0.00000   0.00000   0.00000   0.00000   3.14159
    D9        0.00000  -0.00000   0.00000  -0.00000   0.00000   0.00000
   D10        3.14159  -0.00000   0.00000   0.00000   0.00000   3.14159
   D11        3.14159  -0.00000   0.00000  -0.00000   0.00000   3.14159
   D12        0.00000  -0.00000   0.00000   0.00000   0.00000   0.00000
   D13        3.14159  -0.00000   0.00000  -0.00000   0.00000   3.14159
   D14        0.00000  -0.00000   0.00000  -0.00000   0.00000   0.00000
   D15        0.00000   0.00000   0.00000  -0.00000   0.00000   0.00000
   D16        3.14159   0.00000   0.00000  -0.00000   0.00000   3.14159
   D17        3.14159   0.00000   0.00000   0.00000   0.00000   3.14159
   D18        0.00000  -0.00000   0.00000   0.00000  -0.00000   0.00000
   D19       -0.00000   0.00000   0.00000   0.00000   0.00000   0.00000
   D20        3.14159   0.00000   0.00000   0.00000   0.00000   3.14159
   D21       -0.00000   0.00000   0.00000  -0.00000   0.00000   0.00000
   D22        3.14159   0.00000   0.00000  -0.00000   0.00000   3.14159
   D23        3.14159   0.00000   0.00000   0.00000   0.00000   3.14159
   D24       -0.00000  -0.00000   0.00000  -0.00000   0.00000   0.00000
         Item               Value     Threshold  Converged?
 Maximum Force            0.000171     0.000450     YES
 RMS     Force            0.000054     0.000300     YES
 Maximum Displacement     0.000986     0.001800     YES
 RMS     Displacement     0.000207     0.001200     YES
 Predicted change in Energy=-2.546139D-07
 Optimization completed.
    -- Stationary point found.
                           ----------------------------
                           !   Optimized Parameters   !
                           ! (Angstroms and Degrees)  !
 --------------------------                            --------------------------
 ! Name  Definition              Value          Derivative Info.                !
 --------------------------------------------------------------------------------
 ! R1    R(1,2)                  1.3963         -DE/DX =    0.0001              !
 ! R2    R(1,3)                  1.0864         -DE/DX =    0.0                 !
 ! R3    R(1,5)                  1.3963         -DE/DX =    0.0001              !
 ! R4    R(2,4)                  1.0864         -DE/DX =    0.0                 !
 ! R5    R(2,11)                 1.3961         -DE/DX =    0.0002              !
 ! R6    R(5,6)                  1.0864         -DE/DX =    0.0                 !
 ! R7    R(5,7)                  1.3963         -DE/DX =    0.0001              !
 ! R8    R(7,8)                  1.0864         -DE/DX =    0.0                 !
 ! R9    R(7,9)                  1.3963         -DE/DX =    0.0001              !
 ! R10   R(9,10)                 1.0864         -DE/DX =    0.0                 !
 ! R11   R(9,11)                 1.3961         -DE/DX =    0.0002              !
 ! R12   R(11,12)                1.0864         -DE/DX =    0.0                 !
 ! A1    A(2,1,3)              119.9931         -DE/DX =    0.0                 !
 ! A2    A(2,1,5)              120.0059         -DE/DX =    0.0                 !
 ! A3    A(3,1,5)              120.001          -DE/DX =    0.0                 !
 ! A4    A(1,2,4)              120.0091         -DE/DX =    0.0                 !
 ! A5    A(1,2,11)             119.9748         -DE/DX =    0.0001              !
 ! A6    A(4,2,11)             120.0161         -DE/DX =   -0.0001              !
 ! A7    A(1,5,6)              120.0006         -DE/DX =    0.0                 !
 ! A8    A(1,5,7)              119.9987         -DE/DX =    0.0                 !
 ! A9    A(6,5,7)              120.0006         -DE/DX =    0.0                 !
 ! A10   A(5,7,8)              120.001          -DE/DX =    0.0                 !
 ! A11   A(5,7,9)              120.0059         -DE/DX =    0.0                 !
 ! A12   A(8,7,9)              119.9931         -DE/DX =    0.0                 !
 ! A13   A(7,9,10)             120.0091         -DE/DX =    0.0                 !
 ! A14   A(7,9,11)             119.9748         -DE/DX =    0.0001              !
 ! A15   A(10,9,11)            120.0161         -DE/DX =   -0.0001              !
 ! A16   A(2,11,9)             120.0398         -DE/DX =   -0.0002              !
 ! A17   A(2,11,12)            119.9801         -DE/DX =    0.0001              !
 ! A18   A(9,11,12)            119.9801         -DE/DX =    0.0001              !
 ! D1    D(3,1,2,4)              0.0            -DE/DX =    0.0                 !
 ! D2    D(3,1,2,11)           180.0            -DE/DX =    0.0                 !
 ! D3    D(5,1,2,4)            180.0            -DE/DX =    0.0                 !
 ! D4    D(5,1,2,11)             0.0            -DE/DX =    0.0                 !
 ! D5    D(2,1,5,6)            180.0            -DE/DX =    0.0                 !
 ! D6    D(2,1,5,7)              0.0            -DE/DX =    0.0                 !
 ! D7    D(3,1,5,6)              0.0            -DE/DX =    0.0                 !
 ! D8    D(3,1,5,7)            180.0            -DE/DX =    0.0                 !
 ! D9    D(1,2,11,9)             0.0            -DE/DX =    0.0                 !
 ! D10   D(1,2,11,12)          180.0            -DE/DX =    0.0                 !
 ! D11   D(4,2,11,9)           180.0            -DE/DX =    0.0                 !
 ! D12   D(4,2,11,12)            0.0            -DE/DX =    0.0                 !
 ! D13   D(1,5,7,8)            180.0            -DE/DX =    0.0                 !
 ! D14   D(1,5,7,9)              0.0            -DE/DX =    0.0                 !
 ! D15   D(6,5,7,8)              0.0            -DE/DX =    0.0                 !
 ! D16   D(6,5,7,9)            180.0            -DE/DX =    0.0                 !
 ! D17   D(5,7,9,10)           180.0            -DE/DX =    0.0                 !
 ! D18   D(5,7,9,11)             0.0            -DE/DX =    0.0                 !
 ! D19   D(8,7,9,10)             0.0            -DE/DX =    0.0                 !
 ! D20   D(8,7,9,11)           180.0            -DE/DX =    0.0                 !
 ! D21   D(7,9,11,2)             0.0            -DE/DX =    0.0                 !
 ! D22   D(7,9,11,12)          180.0            -DE/DX =    0.0                 !
 ! D23   D(10,9,11,2)          180.0            -DE/DX =    0.0                 !
 ! D24   D(10,9,11,12)           0.0            -DE/DX =    0.0                 !
 --------------------------------------------------------------------------------
 GradGradGradGradGradGradGradGradGradGradGradGradGradGradGradGradGradGrad

 Leave Link  103 at Wed Aug 21 00:35:02 2024, MaxMem=   65536000 cpu:       0.0
 (Enter /programs/64bit/g09/g09-gfortran/bin/l9999.exe)
 1\1\GINC-MOLMOD\Freq\RB3LYP\6-31G(d,p)\C6H6\OSPITE\21-Aug-2024\0\\#P G
 eom=AllCheck Guess=TCheck SCRF=Check GenChk RB3LYP/6-31G(d,p) Freq\\be
 nzene\\0,1\C,-0.0032452591,0.,0.0027739095\C,-0.0031167413,0.,1.399036
 2037\H,0.9376277503,0.,-0.5404035662\H,0.937694456,0.,1.942297236\C,-1
 .2124355653,0.,-0.6953705414\H,-1.2124355653,0.,-1.7817812359\C,-2.421
 6258715,0.,0.0027739095\H,-3.3624988809,0.,-0.5404035662\C,-2.42175438
 93,0.,1.3990362037\H,-3.3625655866,0.,1.942297236\C,-1.2124355653,0.,2
 .0966771054\H,-1.2124355653,0.,3.1830671057\\Version=EM64L-G09RevA.02\
 State=1-A1\HF=-232.2582121\RMSD=4.534e-09\RMSF=8.946e-05\ZeroPoint=0.1
 006209\Thermal=0.1050087\Dipole=0.,0.,0.0000214\DipoleDeriv=0.0810957,
 0.,-0.0857465,0.,-0.1085746,0.,-0.0857682,0.,-0.0178027,0.0807709,0.,0
 .0858144,0.,-0.1086437,0.,0.0858481,0.,-0.0181154,-0.0759533,0.,0.0768
 748,0.,0.1085969,0.,0.0768689,0.,0.012797,-0.0756913,0.,-0.076761,0.,0
 .1086484,0.,-0.0767931,0.,0.012888,-0.0675752,0.,0.,0.,-0.1086929,0.,0
 .,0.,0.1304361,0.0572058,0.,0.,0.,0.1086488,0.,0.,0.,-0.1201674,0.0810
 957,0.,0.0857465,0.,-0.1085746,0.,0.0857682,0.,-0.0178027,-0.0759533,0
 .,-0.0768748,0.,0.1085969,0.,-0.0768689,0.,0.012797,0.0807709,0.,-0.08
 58144,0.,-0.1086437,0.,-0.0858481,0.,-0.0181154,-0.0756913,0.,0.076761
 ,0.,0.1086484,0.,0.0767931,0.,0.012888,-0.0672276,0.,0.,0.,-0.1085823,
 0.,0.,0.,0.130728,0.0571532,0.,0.,0.,0.1085723,0.,0.,0.,-0.1205306\Pol
 ar=71.7943705,0.,21.4249722,0.,0.,71.7831956\PG=C02V [C2(H1C1C1H1),SGV
 (C4H4)]\NImag=0\\0.72517225,0.,0.13229142,-0.03106456,0.,0.68905391,-0
 .12899197,0.,-0.03355354,0.72548894,0.,-0.06126619,0.,0.,0.13223957,0.
 03349866,0.,-0.34087402,0.03098934,0.,0.68907442,-0.26827177,0.,0.1201
 9728,0.00353333,0.,-0.00225481,0.28356770,0.,-0.03598503,0.,0.,0.00259
 773,0.,0.,0.02553500,0.12020434,0.,-0.12945028,0.02946150,0.,-0.010364
 86,-0.12982663,0.,0.13364148,0.00353817,0.,0.00225778,-0.26828753,0.,-
 0.12023200,0.00082068,0.,-0.00034143,0.28356780,0.,0.00258819,0.,0.,-0
 .03595838,0.,0.,-0.00395853,0.,0.,0.02552921,-0.02945044,0.,-0.0103607
 5,-0.12024707,0.,-0.12948068,0.00034120,0.,0.00108870,0.12985959,0.,0.
 13366004,-0.28781251,0.,-0.05829350,0.03483463,0.,-0.07815971,-0.01865
 575,0.,-0.01507183,0.00165695,0.,0.00168952,0.67093522,0.,-0.06139716,
 0.,0.,0.00780084,0.,0.,0.00256989,0.,0.,0.00712280,0.,0.,0.13246119,-0
 .12532929,0.,-0.18183860,-0.02841726,0.,-0.02676557,0.01664800,0.,0.01
 184321,0.00044704,0.,-0.00564979,0.,0.,0.74301356,0.00489982,0.,-0.028
 66976,-0.00475004,0.,-0.00200526,0.00101229,0.,0.00045004,0.00008345,0
 .,-0.00153935,-0.05999790,0.,0.,0.05862664,0.,0.00256658,0.,0.,0.00712
 300,0.,0.,-0.00395624,0.,0.,0.00032891,0.,0.,-0.03602231,0.,0.,0.02560
 395,0.00304267,0.,-0.01170922,-0.00325101,0.,0.00075858,-0.00023341,0.
 ,0.00088617,0.00017504,0.,-0.00070487,0.,0.,-0.33767529,0.,0.,0.358512
 51,-0.05749621,0.,-0.02485989,-0.01847303,0.,0.02961888,-0.00289607,0.
 ,-0.00308206,0.00025142,0.,0.00092868,-0.28781251,0.,0.12532929,0.0048
 9982,0.,-0.00304267,0.72517225,0.,0.00777008,0.,0.,-0.00822974,0.,0.,0
 .00712330,0.,0.,-0.00039979,0.,0.,-0.06139716,0.,0.,0.00256658,0.,0.,0
 .13229142,0.02485989,0.,0.06560188,0.02962864,0.,-0.05246752,-0.004323
 28,0.,-0.00109348,0.00092527,0.,-0.00082218,0.05829350,0.,-0.18183860,
 0.02866976,0.,-0.01170922,0.03106456,0.,0.68905391,-0.00289607,0.,0.00
 432328,0.00025135,0.,0.00092520,-0.00109876,0.,-0.00085735,-0.00000394
 ,0.,-0.00013913,-0.01865575,0.,-0.01664800,0.00101229,0.,0.00023341,-0
 .26827177,0.,-0.12019728,0.28356770,0.,0.00712330,0.,0.,-0.00040111,0.
 ,0.,0.00032822,0.,0.,-0.00130789,0.,0.,0.00256989,0.,0.,-0.00395624,0.
 ,0.,-0.03598503,0.,0.,0.02553500,0.00308206,0.,-0.00109348,0.00092871,
 0.,-0.00082219,0.00085735,0.,0.00047702,-0.00013915,0.,0.00015667,0.01
 507182,0.,0.01184321,-0.00045004,0.,0.00088617,-0.12020434,0.,-0.12945
 028,0.12982663,0.,0.13364148,-0.01847303,0.,-0.02962864,-0.05746778,0.
 ,0.02486265,0.00025135,0.,-0.00092871,-0.00289105,0.,0.00307933,0.0348
 3462,0.,0.02841726,-0.00475004,0.,0.00325101,-0.12899197,0.,0.03355354
 ,0.00353333,0.,-0.02946150,0.72548894,0.,-0.00822974,0.,0.,0.00776847,
 0.,0.,-0.00040111,0.,0.,0.00712164,0.,0.,0.00780084,0.,0.,0.00712300,0
 .,0.,-0.06126619,0.,0.,0.00259773,0.,0.,0.13223957,-0.02961888,0.,-0.0
 5246752,-0.02486265,0.,0.06558125,-0.00092520,0.,-0.00082219,0.0043214
 2,0.,-0.00109280,0.07815971,0.,-0.02676557,0.00200526,0.,0.00075858,-0
 .03349866,0.,-0.34087402,0.00225481,0.,-0.01036486,-0.03098934,0.,0.68
 907442,0.00025142,0.,-0.00092527,-0.00289105,0.,-0.00432142,-0.0000039
 4,0.,0.00013915,-0.00109763,0.,0.00085654,0.00165696,0.,-0.00044704,0.
 00008345,0.,-0.00017504,0.00353817,0.,-0.00225778,0.00082068,0.,0.0003
 4143,-0.26828753,0.,0.12023200,0.28356780,0.,-0.00039979,0.,0.,0.00712
 164,0.,0.,-0.00130789,0.,0.,0.00032890,0.,0.,0.00712280,0.,0.,0.000328
 92,0.,0.,0.00258819,0.,0.,-0.00395853,0.,0.,-0.03595838,0.,0.,0.025529
 21,-0.00092868,0.,-0.00082218,-0.00307933,0.,-0.00109280,0.00013913,0.
 ,0.00015667,-0.00085654,0.,0.00047669,-0.00168952,0.,-0.00564979,0.001
 53935,0.,-0.00070487,0.02945044,0.,-0.01036075,-0.00034120,0.,0.001088
 70,0.12024707,0.,-0.12948068,-0.12985959,0.,0.13366004,0.03483227,0.,0
 .07820728,-0.28814136,0.,0.05839133,0.00165810,0.,-0.00168749,-0.01865
 081,0.,0.01507031,-0.06962676,0.,0.,-0.00135656,0.,0.,0.03483227,0.,-0
 .07820728,0.00165810,0.,0.00168749,-0.28814135,0.,-0.05839133,-0.01865
 081,0.,-0.01507031,0.67159132,0.,0.00781165,0.,0.,-0.06137670,0.,0.,0.
 00712670,0.,0.,0.00256265,0.,0.,-0.00823171,0.,0.,-0.00039895,0.,0.,0.
 00781165,0.,0.,0.00712670,0.,0.,-0.06137670,0.,0.,0.00256265,0.,0.,0.1
 3243659,0.02844938,0.,-0.02679680,0.12544118,0.,-0.18182193,-0.0004446
 8,0.,-0.00565635,-0.01664994,0.,0.01184168,0.,0.,-0.00130219,0.,0.,0.0
 0078570,-0.02844938,0.,-0.02679680,0.00044468,0.,-0.00565635,-0.125441
 18,0.,-0.18182193,0.01664994,0.,0.01184168,0.,0.,0.74304987,-0.0047523
 7,0.,0.00200954,0.00489452,0.,0.02868714,0.00008285,0.,0.00154047,0.00
 101249,0.,-0.00044918,-0.00135720,0.,0.,0.00023678,0.,0.,-0.00475237,0
 .,-0.00200954,0.00008285,0.,-0.00154046,0.00489452,0.,-0.02868714,0.00
 101249,0.,0.00044918,-0.06000442,0.,0.,0.05864986,0.,0.00712669,0.,0.,
 0.00258087,0.,0.,0.00032794,0.,0.,-0.00395773,0.,0.,-0.00039993,0.,0.,
 -0.00130722,0.,0.,0.00712669,0.,0.,0.00032795,0.,0.,0.00258087,0.,0.,-
 0.00395773,0.,0.,-0.03605457,0.,0.,0.02560618,0.00325485,0.,0.00075705
 ,-0.00303853,0.,-0.01172468,-0.00017495,0.,-0.00070610,0.00023291,0.,0
 .00088729,0.,0.,0.00078545,0.,0.,-0.00008423,-0.00325485,0.,0.00075705
 ,0.00017495,0.,-0.00070610,0.00303853,0.,-0.01172468,-0.00023290,0.,0.
 00088729,0.,0.,-0.33766659,0.,0.,0.35853824\\-0.00014567,0.,0.00006551
 ,-0.00006327,0.,0.00010781,0.00003782,0.,-0.00000218,0.00004366,0.,0.0
 0001112,0.,0.,0.00010424,0.,0.,-0.00004443,0.00014567,0.,0.00006551,-0
 .00003782,0.,-0.00000218,0.00006327,0.,0.00010781,-0.00004366,0.,0.000
 01112,0.,0.,-0.00043133,0.,0.,0.00000700\\\@


 "WOULD YOU TELL ME PLEASE, WHICH WAY I OUGHT TO WALK FROM HERE?"
 "THAT DEPENDS A GREAT DEAL ON WHERE YOU WANT TO GO," SAID THE CAT.
 "I DON'T MUCH CARE WHERE -- ", SAID ALICE.
 "THEN IT DOESN'T MATTER WHICH WAY YOU WALK," SAID THE CAT.

                                      -- LEWIS CARROLL
 Job cpu time:  0 days  0 hours  9 minutes 41.6 seconds.
 File lengths (MBytes):  RWF=     19 Int=      0 D2E=      0 Chk=      2 Scr=      1
 Normal termination of Gaussian 09 at Wed Aug 21 00:35:02 2024.
