 ethane                                                  
GAUSSIAN              9 MOL ORBITALS     98 PRIMITIVES        8 NUCLEI
  C    1    (CENTRE  1)   0.00000000  0.00000000  1.44607068  CHARGE =  6.0
  H    2    (CENTRE  2)   0.00000000  1.92725565  2.19945793  CHARGE =  1.0
  C    3    (CENTRE  3)   0.00000000 -0.00000000 -1.44607068  CHARGE =  6.0
  H    4    (CENTRE  4)   1.66905235 -0.96362782  2.19945793  CHARGE =  1.0
  H    5    (CENTRE  5)  -1.66905235 -0.96362782  2.19945793  CHARGE =  1.0
  H    6    (CENTRE  6)  -0.00000000 -1.92725565 -2.19945793  CHARGE =  1.0
  H    7    (CENTRE  7)  -1.66905235  0.96362782 -2.19945793  CHARGE =  1.0
  H    8    (CENTRE  8)   1.66905235  0.96362782 -2.19945793  CHARGE =  1.0
CENTRE ASSIGNMENTS    1  1  1  1  1  1  1  1  1  1  1  1  1  1  1  1  1  1  1  1
CENTRE ASSIGNMENTS    1  1  1  1  1  1  1  1  2  2  2  2  2  2  2  3  3  3  3  3
CENTRE ASSIGNMENTS    3  3  3  3  3  3  3  3  3  3  3  3  3  3  3  3  3  3  3  3
CENTRE ASSIGNMENTS    3  3  3  4  4  4  4  4  4  4  5  5  5  5  5  5  5  6  6  6
CENTRE ASSIGNMENTS    6  6  6  6  7  7  7  7  7  7  7  8  8  8  8  8  8  8
TYPE ASSIGNMENTS      1  1  1  1  1  1  1  1  1  2  2  2  3  3  3  4  4  4  1  2
TYPE ASSIGNMENTS      3  4  5  6  7  8  9 10  1  1  1  1  2  3  4  1  1  1  1  1
TYPE ASSIGNMENTS      1  1  1  1  2  2  2  3  3  3  4  4  4  1  2  3  4  5  6  7
TYPE ASSIGNMENTS      8  9 10  1  1  1  1  2  3  4  1  1  1  1  2  3  4  1  1  1
TYPE ASSIGNMENTS      1  2  3  4  1  1  1  1  2  3  4  1  1  1  1  2  3  4
EXPONENTS  0.3047525D+04 0.4573695D+03 0.1039487D+03 0.2921016D+02 0.9286663D+01
EXPONENTS  0.3163927D+01 0.7868272D+01 0.1881289D+01 0.5442493D+00 0.7868272D+01
EXPONENTS  0.1881289D+01 0.5442493D+00 0.7868272D+01 0.1881289D+01 0.5442493D+00
EXPONENTS  0.7868272D+01 0.1881289D+01 0.5442493D+00 0.1687145D+00 0.1687145D+00
EXPONENTS  0.1687145D+00 0.1687145D+00 0.8000000D+00 0.8000000D+00 0.8000000D+00
EXPONENTS  0.8000000D+00 0.8000000D+00 0.8000000D+00 0.1873114D+02 0.2825394D+01
EXPONENTS  0.6401217D+00 0.1612778D+00 0.1100000D+01 0.1100000D+01 0.1100000D+01
EXPONENTS  0.3047525D+04 0.4573695D+03 0.1039487D+03 0.2921016D+02 0.9286663D+01
EXPONENTS  0.3163927D+01 0.7868272D+01 0.1881289D+01 0.5442493D+00 0.7868272D+01
EXPONENTS  0.1881289D+01 0.5442493D+00 0.7868272D+01 0.1881289D+01 0.5442493D+00
EXPONENTS  0.7868272D+01 0.1881289D+01 0.5442493D+00 0.1687145D+00 0.1687145D+00
EXPONENTS  0.1687145D+00 0.1687145D+00 0.8000000D+00 0.8000000D+00 0.8000000D+00
EXPONENTS  0.8000000D+00 0.8000000D+00 0.8000000D+00 0.1873114D+02 0.2825394D+01
EXPONENTS  0.6401217D+00 0.1612778D+00 0.1100000D+01 0.1100000D+01 0.1100000D+01
EXPONENTS  0.1873114D+02 0.2825394D+01 0.6401217D+00 0.1612778D+00 0.1100000D+01
EXPONENTS  0.1100000D+01 0.1100000D+01 0.1873114D+02 0.2825394D+01 0.6401217D+00
EXPONENTS  0.1612778D+00 0.1100000D+01 0.1100000D+01 0.1100000D+01 0.1873114D+02
EXPONENTS  0.2825394D+01 0.6401217D+00 0.1612778D+00 0.1100000D+01 0.1100000D+01
EXPONENTS  0.1100000D+01 0.1873114D+02 0.2825394D+01 0.6401217D+00 0.1612778D+00
EXPONENTS  0.1100000D+01 0.1100000D+01 0.1100000D+01
MO    1     MO 0.0        OCC NO =    2.0000000  ORB. ENERGY =  -10.172595
  0.37653216D+00  0.69462831D+00  0.11213455D+01  0.14596586D+01  0.12455293D+01
  0.43005135D+00 -0.13963855D-01 -0.64359282D-02  0.18047014D-01  0.00000000D+00
  0.00000000D+00  0.00000000D+00 -0.34209135D-15 -0.26229395D-15 -0.13090306D-15
  0.21071080D-03  0.16155968D-03  0.80629601D-04 -0.16402405D-02  0.00000000D+00
  0.13226435D-16 -0.13050266D-03 -0.71240563D-02 -0.71240563D-02 -0.75259417D-02
  0.00000000D+00  0.00000000D+00 -0.23715096D-15 -0.42789382D-04 -0.72578890D-04
 -0.82628501D-04  0.34613502D-03  0.00000000D+00  0.17954565D-03  0.45381414D-05
  0.37653216D+00  0.69462831D+00  0.11213455D+01  0.14596586D+01  0.12455293D+01
  0.43005135D+00 -0.13963855D-01 -0.64359282D-02  0.18047014D-01  0.00000000D+00
  0.00000000D+00  0.00000000D+00  0.34209135D-15  0.26229395D-15  0.13090306D-15
 -0.21071080D-03 -0.16155968D-03 -0.80629601D-04 -0.16402405D-02  0.00000000D+00
 -0.13226435D-16  0.13050266D-03 -0.71240563D-02 -0.71240563D-02 -0.75259417D-02
  0.00000000D+00  0.00000000D+00 -0.23715096D-15 -0.42789382D-04 -0.72578890D-04
 -0.82628501D-04  0.34613502D-03  0.15549109D-03 -0.89772824D-04  0.45381414D-05
 -0.42789382D-04 -0.72578890D-04 -0.82628501D-04  0.34613502D-03 -0.15549109D-03
 -0.89772824D-04  0.45381414D-05 -0.42789382D-04 -0.72578890D-04 -0.82628501D-04
  0.34613502D-03  0.00000000D+00 -0.17954565D-03 -0.45381414D-05 -0.42789382D-04
 -0.72578890D-04 -0.82628501D-04  0.34613502D-03 -0.15549109D-03  0.89772824D-04
 -0.45381414D-05 -0.42789382D-04 -0.72578890D-04 -0.82628501D-04  0.34613502D-03
  0.15549109D-03  0.89772824D-04 -0.45381414D-05
MO    2     MO 0.0        OCC NO =    2.0000000  ORB. ENERGY =  -10.172383
  0.37662475D+00  0.69479912D+00  0.11216212D+01  0.14600176D+01  0.12458356D+01
  0.43015710D+00 -0.14089934D-01 -0.64940375D-02  0.18209959D-01  0.00000000D+00
  0.00000000D+00  0.00000000D+00  0.69764155D-15  0.53490729D-15  0.26695623D-15
 -0.61964654D-04 -0.47510567D-04 -0.23711103D-04 -0.27876675D-02  0.00000000D+00
 -0.75642548D-17  0.33946599D-03 -0.68686085D-02 -0.68686085D-02 -0.68052437D-02
  0.00000000D+00  0.00000000D+00 -0.15653567D-15  0.30966442D-05  0.52524946D-05
  0.59797795D-05  0.32529172D-03  0.00000000D+00  0.27723867D-03  0.59571970D-04
 -0.37662475D+00 -0.69479912D+00 -0.11216212D+01 -0.14600176D+01 -0.12458356D+01
 -0.43015710D+00  0.14089934D-01  0.64940375D-02 -0.18209959D-01  0.00000000D+00
  0.00000000D+00  0.00000000D+00  0.69764155D-15  0.53490729D-15  0.26695623D-15
 -0.61964654D-04 -0.47510567D-04 -0.23711103D-04  0.27876675D-02  0.00000000D+00
 -0.75642548D-17  0.33946599D-03  0.68686085D-02  0.68686085D-02  0.68052437D-02
  0.00000000D+00  0.00000000D+00  0.15653567D-15  0.30966442D-05  0.52524946D-05
  0.59797795D-05  0.32529172D-03  0.24009573D-03 -0.13861933D-03  0.59571970D-04
  0.30966442D-05  0.52524946D-05  0.59797795D-05  0.32529172D-03 -0.24009573D-03
 -0.13861933D-03  0.59571970D-04 -0.30966442D-05 -0.52524946D-05 -0.59797795D-05
 -0.32529172D-03  0.00000000D+00  0.27723867D-03  0.59571970D-04 -0.30966442D-05
 -0.52524946D-05 -0.59797795D-05 -0.32529172D-03  0.24009573D-03 -0.13861933D-03
  0.59571970D-04 -0.30966442D-05 -0.52524946D-05 -0.59797795D-05 -0.32529172D-03
 -0.24009573D-03 -0.13861933D-03  0.59571970D-04
MO    3     MO 0.0        OCC NO =    2.0000000  ORB. ENERGY =   -0.747634
 -0.80006193D-01 -0.14759580D+00 -0.23826539D+00 -0.31015074D+00 -0.26465219D+00
 -0.91378041D-01 -0.11432340D+00 -0.52691553D-01  0.14775261D+00  0.00000000D+00
  0.00000000D+00  0.00000000D+00  0.13558333D-14  0.10395669D-14  0.51881676D-15
 -0.76113804D-01 -0.58359237D-01 -0.29125350D-01  0.43723998D-01  0.00000000D+00
  0.77420396D-16 -0.15379066D-02 -0.10431140D-01 -0.10431140D-01  0.29176609D-02
  0.00000000D+00  0.00000000D+00  0.95337551D-15  0.18862322D-01  0.31994068D-01
  0.36424116D-01  0.41202548D-02  0.00000000D+00 -0.13225310D-01 -0.62664056D-02
 -0.80006193D-01 -0.14759580D+00 -0.23826539D+00 -0.31015074D+00 -0.26465219D+00
 -0.91378041D-01 -0.11432340D+00 -0.52691553D-01  0.14775261D+00  0.00000000D+00
  0.00000000D+00  0.00000000D+00 -0.13558333D-14 -0.10395669D-14 -0.51881676D-15
  0.76113804D-01  0.58359237D-01  0.29125350D-01  0.43723998D-01  0.00000000D+00
 -0.77420396D-16  0.15379066D-02 -0.10431140D-01 -0.10431140D-01  0.29176609D-02
  0.00000000D+00  0.00000000D+00  0.95337551D-15  0.18862322D-01  0.31994068D-01
  0.36424116D-01  0.41202548D-02 -0.11453455D-01  0.66126552D-02 -0.62664056D-02
  0.18862322D-01  0.31994068D-01  0.36424116D-01  0.41202548D-02  0.11453455D-01
  0.66126552D-02 -0.62664056D-02  0.18862322D-01  0.31994068D-01  0.36424116D-01
  0.41202548D-02  0.00000000D+00  0.13225310D-01  0.62664056D-02  0.18862322D-01
  0.31994068D-01  0.36424116D-01  0.41202548D-02  0.11453455D-01 -0.66126552D-02
  0.62664056D-02  0.18862322D-01  0.31994068D-01  0.36424116D-01  0.41202548D-02
 -0.11453455D-01 -0.66126552D-02  0.62664056D-02
MO    4     MO 0.0        OCC NO =    2.0000000  ORB. ENERGY =   -0.611911
 -0.69747932D-01 -0.12867131D+00 -0.20771540D+00 -0.27038373D+00 -0.23071893D+00
 -0.79661701D-01 -0.10371147D+00 -0.47800520D-01  0.13403765D+00  0.00000000D+00
  0.00000000D+00  0.00000000D+00  0.37170619D-14  0.28500073D-14  0.14223534D-14
  0.16514814D+00  0.12662512D+00  0.63194811D-01  0.47350385D-01  0.00000000D+00
 -0.10992724D-14  0.56601859D-02 -0.21198692D-02 -0.21198692D-02 -0.19214135D-01
  0.00000000D+00  0.00000000D+00  0.30802385D-15  0.25744018D-01  0.43666727D-01
  0.49713025D-01  0.93687572D-02  0.00000000D+00 -0.15196388D-01 -0.29542107D-02
  0.69747932D-01  0.12867131D+00  0.20771540D+00  0.27038373D+00  0.23071893D+00
  0.79661701D-01  0.10371147D+00  0.47800520D-01 -0.13403765D+00  0.00000000D+00
  0.00000000D+00  0.00000000D+00  0.37170619D-14  0.28500073D-14  0.14223534D-14
  0.16514814D+00  0.12662512D+00  0.63194811D-01 -0.47350385D-01  0.00000000D+00
 -0.10992724D-14  0.56601859D-02  0.21198692D-02  0.21198692D-02  0.19214135D-01
  0.00000000D+00  0.00000000D+00 -0.30802385D-15  0.25744018D-01  0.43666727D-01
  0.49713025D-01  0.93687572D-02 -0.13160458D-01  0.75981941D-02 -0.29542107D-02
  0.25744018D-01  0.43666727D-01  0.49713025D-01  0.93687572D-02  0.13160458D-01
  0.75981941D-02 -0.29542107D-02 -0.25744018D-01 -0.43666727D-01 -0.49713025D-01
 -0.93687572D-02  0.00000000D+00 -0.15196388D-01 -0.29542107D-02 -0.25744018D-01
 -0.43666727D-01 -0.49713025D-01 -0.93687572D-02 -0.13160458D-01  0.75981941D-02
 -0.29542107D-02 -0.25744018D-01 -0.43666727D-01 -0.49713025D-01 -0.93687572D-02
  0.13160458D-01  0.75981941D-02 -0.29542107D-02
MO    5     MO 0.0        OCC NO =    2.0000000  ORB. ENERGY =   -0.429471
  0.00000000D+00  0.00000000D+00  0.00000000D+00  0.00000000D+00  0.00000000D+00
  0.00000000D+00 -0.00000000D+00 -0.00000000D+00  0.00000000D+00  0.41060298D+00
  0.31482432D+00  0.15711940D+00  0.00000000D+00  0.00000000D+00  0.00000000D+00
  0.00000000D+00  0.00000000D+00  0.00000000D+00  0.00000000D+00  0.21087125D-01
  0.00000000D+00  0.00000000D+00  0.00000000D+00  0.00000000D+00  0.00000000D+00
 -0.21143220D-01  0.18103076D-02  0.00000000D+00  0.00000000D+00  0.00000000D+00
  0.00000000D+00  0.00000000D+00  0.94741173D-02  0.00000000D+00  0.00000000D+00
  0.00000000D+00  0.00000000D+00  0.00000000D+00  0.00000000D+00  0.00000000D+00
  0.00000000D+00 -0.00000000D+00 -0.00000000D+00  0.00000000D+00  0.41060298D+00
  0.31482432D+00  0.15711940D+00  0.00000000D+00  0.00000000D+00  0.00000000D+00
  0.00000000D+00  0.00000000D+00  0.00000000D+00  0.00000000D+00  0.21087125D-01
  0.00000000D+00  0.00000000D+00  0.00000000D+00  0.00000000D+00  0.00000000D+00
  0.21143220D-01 -0.18103076D-02  0.00000000D+00  0.33194661D-01  0.56304428D-01
  0.64100602D-01  0.22680202D-01 -0.20464302D-02  0.66513912D-02 -0.67402337D-02
 -0.33194661D-01 -0.56304428D-01 -0.64100602D-01 -0.22680202D-01 -0.20464302D-02
 -0.66513912D-02  0.67402337D-02  0.00000000D+00  0.00000000D+00  0.00000000D+00
  0.00000000D+00  0.94741173D-02  0.00000000D+00  0.00000000D+00 -0.33194661D-01
 -0.56304428D-01 -0.64100602D-01 -0.22680202D-01 -0.20464302D-02  0.66513912D-02
 -0.67402337D-02  0.33194661D-01  0.56304428D-01  0.64100602D-01  0.22680202D-01
 -0.20464302D-02 -0.66513912D-02  0.67402337D-02
MO    6     MO 0.0        OCC NO =    2.0000000  ORB. ENERGY =   -0.429471
  0.12063607D-14  0.22255000D-14  0.35926471D-14  0.46765590D-14  0.39905163D-14
  0.13778294D-14 -0.35367856D-14 -0.16301013D-14  0.45709741D-14  0.00000000D+00
  0.00000000D+00  0.00000000D+00  0.41060298D+00  0.31482432D+00  0.15711940D+00
  0.43619500D-15  0.33444666D-15  0.16691232D-15 -0.11805878D-13  0.00000000D+00
  0.21087125D-01  0.34492716D-14 -0.10571610D-01  0.10571610D-01  0.27008371D-14
  0.00000000D+00  0.00000000D+00  0.18103076D-02  0.38329893D-01  0.65014754D-01
  0.74016999D-01  0.26188841D-01  0.00000000D+00 -0.58866127D-02 -0.77829515D-02
 -0.12063607D-14 -0.22255000D-14 -0.35926471D-14 -0.46765590D-14 -0.39905163D-14
 -0.13778294D-14  0.35367856D-14  0.16301013D-14 -0.45709741D-14  0.00000000D+00
  0.00000000D+00  0.00000000D+00  0.41060298D+00  0.31482432D+00  0.15711940D+00
  0.43619500D-15  0.33444666D-15  0.16691232D-15  0.11805878D-13  0.00000000D+00
  0.21087125D-01  0.34492716D-14  0.10571610D-01 -0.10571610D-01 -0.27008371D-14
  0.00000000D+00  0.00000000D+00 -0.18103076D-02 -0.19164947D-01 -0.32507377D-01
 -0.37008500D-01 -0.13094421D-01  0.66513912D-02  0.56339348D-02  0.38914758D-02
 -0.19164947D-01 -0.32507377D-01 -0.37008500D-01 -0.13094421D-01 -0.66513912D-02
  0.56339348D-02  0.38914758D-02 -0.38329893D-01 -0.65014754D-01 -0.74016999D-01
 -0.26188841D-01  0.00000000D+00 -0.58866127D-02 -0.77829515D-02  0.19164947D-01
  0.32507377D-01  0.37008500D-01  0.13094421D-01  0.66513912D-02  0.56339348D-02
  0.38914758D-02  0.19164947D-01  0.32507377D-01  0.37008500D-01  0.13094421D-01
 -0.66513912D-02  0.56339348D-02  0.38914758D-02
MO    7     MO 0.0        OCC NO =    2.0000000  ORB. ENERGY =   -0.362929
  0.97224935D-02  0.17936102D-01  0.28954430D-01  0.37690065D-01  0.32161001D-01
  0.11104421D-01  0.16876663D-01  0.77784386D-02 -0.21811554D-01  0.00000000D+00
  0.00000000D+00  0.00000000D+00  0.91492079D-14  0.70150323D-14  0.35009928D-14
  0.53317695D+00  0.40880627D+00  0.20402298D+00 -0.10897711D-01  0.00000000D+00
  0.11766295D-15  0.28637384D-01  0.11337917D-01  0.11337917D-01 -0.15056690D-01
  0.00000000D+00  0.00000000D+00  0.18009611D-15  0.17677265D-01  0.29983986D-01
  0.34135709D-01  0.15013253D-01  0.00000000D+00 -0.65720106D-02  0.98553531D-02
  0.97224935D-02  0.17936102D-01  0.28954430D-01  0.37690065D-01  0.32161001D-01
  0.11104421D-01  0.16876663D-01  0.77784386D-02 -0.21811554D-01  0.00000000D+00
  0.00000000D+00  0.00000000D+00 -0.91492079D-14 -0.70150323D-14 -0.35009928D-14
 -0.53317695D+00 -0.40880627D+00 -0.20402298D+00 -0.10897711D-01  0.00000000D+00
 -0.11766295D-15 -0.28637384D-01  0.11337917D-01  0.11337917D-01 -0.15056690D-01
  0.00000000D+00  0.00000000D+00  0.18009611D-15  0.17677265D-01  0.29983986D-01
  0.34135709D-01  0.15013253D-01 -0.56915281D-02  0.32860053D-02  0.98553531D-02
  0.17677265D-01  0.29983986D-01  0.34135709D-01  0.15013253D-01  0.56915281D-02
  0.32860053D-02  0.98553531D-02  0.17677265D-01  0.29983986D-01  0.34135709D-01
  0.15013253D-01  0.00000000D+00  0.65720106D-02 -0.98553531D-02  0.17677265D-01
  0.29983986D-01  0.34135709D-01  0.15013253D-01  0.56915281D-02 -0.32860053D-02
 -0.98553531D-02  0.17677265D-01  0.29983986D-01  0.34135709D-01  0.15013253D-01
 -0.56915281D-02 -0.32860053D-02 -0.98553531D-02
MO    8     MO 0.0        OCC NO =    2.0000000  ORB. ENERGY =   -0.339236
  0.00000000D+00  0.00000000D+00  0.00000000D+00  0.00000000D+00  0.00000000D+00
  0.00000000D+00 -0.00000000D+00 -0.00000000D+00  0.00000000D+00  0.40539144D+00
  0.31082845D+00  0.15512518D+00  0.00000000D+00  0.00000000D+00  0.00000000D+00
  0.00000000D+00  0.00000000D+00  0.00000000D+00  0.00000000D+00  0.21633057D-01
  0.00000000D+00  0.00000000D+00  0.00000000D+00  0.00000000D+00  0.00000000D+00
 -0.29889536D-01  0.38011945D-01  0.00000000D+00  0.00000000D+00  0.00000000D+00
  0.00000000D+00  0.00000000D+00  0.10218211D-01  0.00000000D+00  0.00000000D+00
  0.00000000D+00  0.00000000D+00  0.00000000D+00  0.00000000D+00  0.00000000D+00
  0.00000000D+00 -0.00000000D+00 -0.00000000D+00  0.00000000D+00 -0.40539144D+00
 -0.31082845D+00 -0.15512518D+00  0.00000000D+00  0.00000000D+00  0.00000000D+00
  0.00000000D+00  0.00000000D+00  0.00000000D+00  0.00000000D+00 -0.21633057D-01
  0.00000000D+00  0.00000000D+00  0.00000000D+00  0.00000000D+00  0.00000000D+00
 -0.29889536D-01  0.38011945D-01  0.00000000D+00  0.40337891D-01  0.68420699D-01
  0.77894547D-01  0.34641237D-01 -0.19258286D-02  0.70113648D-02 -0.37696726D-02
 -0.40337891D-01 -0.68420699D-01 -0.77894547D-01 -0.34641237D-01 -0.19258286D-02
 -0.70113648D-02  0.37696726D-02  0.00000000D+00  0.00000000D+00  0.00000000D+00
  0.00000000D+00 -0.10218211D-01  0.00000000D+00  0.00000000D+00  0.40337891D-01
  0.68420699D-01  0.77894547D-01  0.34641237D-01  0.19258286D-02 -0.70113648D-02
  0.37696726D-02 -0.40337891D-01 -0.68420699D-01 -0.77894547D-01 -0.34641237D-01
  0.19258286D-02  0.70113648D-02 -0.37696726D-02
MO    9     MO 0.0        OCC NO =    2.0000000  ORB. ENERGY =   -0.339236
  0.80037779D-15  0.14765407D-14  0.23835946D-14  0.31027319D-14  0.26475667D-14
  0.91414117D-15 -0.29274993D-14 -0.13492817D-14  0.37835269D-14  0.00000000D+00
  0.00000000D+00  0.00000000D+00  0.40539144D+00  0.31082845D+00  0.15512518D+00
 -0.90928467D-14 -0.69718181D-14 -0.34794259D-14 -0.76032836D-14  0.00000000D+00
  0.21633057D-01 -0.23387425D-14 -0.14944768D-01  0.14944768D-01  0.52612368D-14
  0.00000000D+00  0.00000000D+00  0.38011945D-01  0.46578185D-01  0.79005418D-01
  0.89944875D-01  0.40000256D-01  0.00000000D+00 -0.59738419D-02 -0.43528430D-02
  0.80037779D-15  0.14765407D-14  0.23835946D-14  0.31027319D-14  0.26475667D-14
  0.91414117D-15 -0.29274993D-14 -0.13492817D-14  0.37835269D-14  0.00000000D+00
  0.00000000D+00  0.00000000D+00 -0.40539144D+00 -0.31082845D+00 -0.15512518D+00
  0.90928467D-14  0.69718181D-14  0.34794259D-14 -0.76032836D-14  0.00000000D+00
 -0.21633057D-01  0.23387425D-14 -0.14944768D-01  0.14944768D-01  0.52612368D-14
  0.00000000D+00  0.00000000D+00  0.38011945D-01 -0.23289092D-01 -0.39502709D-01
 -0.44972438D-01 -0.20000128D-01  0.70113648D-02  0.61701981D-02  0.21764215D-02
 -0.23289092D-01 -0.39502709D-01 -0.44972438D-01 -0.20000128D-01 -0.70113648D-02
  0.61701981D-02  0.21764215D-02  0.46578185D-01  0.79005418D-01  0.89944875D-01
  0.40000256D-01  0.00000000D+00  0.59738419D-02  0.43528430D-02 -0.23289092D-01
 -0.39502709D-01 -0.44972438D-01 -0.20000128D-01 -0.70113648D-02 -0.61701981D-02
 -0.21764215D-02 -0.23289092D-01 -0.39502709D-01 -0.44972438D-01 -0.20000128D-01
  0.70113648D-02 -0.61701981D-02 -0.21764215D-02
END DATA
 THE  HF ENERGY =    -79.838738243769 THE VIRIAL(-V/T)=   2.01078305
