 Entering Gaussian System, Link 0=/programs/64bit/g09/g09-gfortran/bin/g09
 Input=ethane.com
 Output=ethane.log
 Initial command:
 /programs/64bit/g09/g09-gfortran/bin/l1.exe /home/ospite/Desktop/MMfP/Project8/gaussian_simulations/Gau-5418.inp -scrdir=/home/ospite/Desktop/MMfP/Project8/gaussian_simulations/
 Entering Link 1 = /programs/64bit/g09/g09-gfortran/bin/l1.exe PID=      5419.
  
 Copyright (c) 1988,1990,1992,1993,1995,1998,2003,2009, Gaussian, Inc.
                  All Rights Reserved.
  
 This is part of the Gaussian(R) 09 program.  It is based on
 the Gaussian(R) 03 system (copyright 2003, Gaussian, Inc.),
 the Gaussian(R) 98 system (copyright 1998, Gaussian, Inc.),
 the Gaussian(R) 94 system (copyright 1995, Gaussian, Inc.),
 the Gaussian 92(TM) system (copyright 1992, Gaussian, Inc.),
 the Gaussian 90(TM) system (copyright 1990, Gaussian, Inc.),
 the Gaussian 88(TM) system (copyright 1988, Gaussian, Inc.),
 the Gaussian 86(TM) system (copyright 1986, Carnegie Mellon
 University), and the Gaussian 82(TM) system (copyright 1983,
 Carnegie Mellon University). Gaussian is a federally registered
 trademark of Gaussian, Inc.
  
 This software contains proprietary and confidential information,
 including trade secrets, belonging to Gaussian, Inc.
  
 This software is provided under written license and may be
 used, copied, transmitted, or stored only in accord with that
 written license.
  
 The following legend is applicable only to US Government
 contracts under FAR:
  
                    RESTRICTED RIGHTS LEGEND
  
 Use, reproduction and disclosure by the US Government is
 subject to restrictions as set forth in subparagraphs (a)
 and (c) of the Commercial Computer Software - Restricted
 Rights clause in FAR 52.227-19.
  
 Gaussian, Inc.
 340 Quinnipiac St., Bldg. 40, Wallingford CT 06492
  
  
 ---------------------------------------------------------------
 Warning -- This program may not be used in any manner that
 competes with the business of Gaussian, Inc. or will provide
 assistance to any competitor of Gaussian, Inc.  The licensee
 of this program is prohibited from giving any competitor of
 Gaussian, Inc. access to this program.  By using this program,
 the user acknowledges that Gaussian, Inc. is engaged in the
 business of creating and licensing software in the field of
 computational chemistry and represents and warrants to the
 licensee that it is not a competitor of Gaussian, Inc. and that
 it will not use this program in any manner prohibited above.
 ---------------------------------------------------------------
  

 Cite this work as:
 Gaussian 09, Revision A.02,
 M. J. Frisch, G. W. Trucks, H. B. Schlegel, G. E. Scuseria, 
 M. A. Robb, J. R. Cheeseman, G. Scalmani, V. Barone, B. Mennucci, 
 G. A. Petersson, H. Nakatsuji, M. Caricato, X. Li, H. P. Hratchian, 
 A. F. Izmaylov, J. Bloino, G. Zheng, J. L. Sonnenberg, M. Hada, 
 M. Ehara, K. Toyota, R. Fukuda, J. Hasegawa, M. Ishida, T. Nakajima, 
 Y. Honda, O. Kitao, H. Nakai, T. Vreven, J. A. Montgomery, Jr., 
 J. E. Peralta, F. Ogliaro, M. Bearpark, J. J. Heyd, E. Brothers, 
 K. N. Kudin, V. N. Staroverov, R. Kobayashi, J. Normand, 
 K. Raghavachari, A. Rendell, J. C. Burant, S. S. Iyengar, J. Tomasi, 
 M. Cossi, N. Rega, J. M. Millam, M. Klene, J. E. Knox, J. B. Cross, 
 V. Bakken, C. Adamo, J. Jaramillo, R. Gomperts, R. E. Stratmann, 
 O. Yazyev, A. J. Austin, R. Cammi, C. Pomelli, J. W. Ochterski, 
 R. L. Martin, K. Morokuma, V. G. Zakrzewski, G. A. Voth, 
 P. Salvador, J. J. Dannenberg, S. Dapprich, A. D. Daniels, 
 O. Farkas, J. B. Foresman, J. V. Ortiz, J. Cioslowski, 
 and D. J. Fox, Gaussian, Inc., Wallingford CT, 2009.
 
 ******************************************
 Gaussian 09:  EM64L-G09RevA.02 11-Jun-2009
                20-Aug-2024 
 ******************************************
 %NProcShared=2
 Will use up to    2 processors via shared memory.
 %mem=100MB
 ---------------------------------------------
 #p B3LYP/6-31g(d,p) opt freq pop=full gfinput
 ---------------------------------------------
 1/14=-1,18=20,19=15,26=3,38=1/1,3;
 2/9=110,12=2,17=6,18=5,40=1/2;
 3/5=1,6=6,7=101,11=2,16=1,24=10,25=1,30=1,71=1,74=-5/1,2,3;
 4//1;
 5/5=2,38=5/2;
 6/7=3,28=1/1;
 7//1,2,3,16;
 1/14=-1,18=20,19=15/3(2);
 2/9=110/2;
 99//99;
 2/9=110/2;
 3/5=1,6=6,7=101,11=2,16=1,25=1,30=1,71=1,74=-5/1,2,3;
 4/5=5,16=3/1;
 5/5=2,38=5/2;
 7//1,2,3,16;
 1/14=-1,18=20,19=15/3(-5);
 2/9=110/2;
 6/7=3,19=2,28=1/1;
 99/9=1/99;
 Leave Link    1 at Tue Aug 20 22:11:43 2024, MaxMem=   13107200 cpu:       0.1
 (Enter /programs/64bit/g09/g09-gfortran/bin/l101.exe)
 ------
 ethane
 ------
 Symbolic Z-matrix:
 Charge =  0 Multiplicity = 1
 c
 h                    1    hc2
 c                    1    cc3      2    cch3
 h                    1    hc4      2    hch4     3    dih4     0
 h                    1    hc5      2    hch5     3    dih5     0
 h                    3    hc6      1    hcc6     2    dih6     0
 h                    3    hc7      1    hcc7     6    dih7     0
 h                    3    hc8      1    hcc8     6    dih8     0
       Variables:
  hc2                   1.089                    
  cc3                   1.5                      
  cch3                109.471                    
  hc4                   1.089                    
  hch4                109.471                    
  dih4                120.                       
  hc5                   1.089                    
  hch5                109.471                    
  dih5               -120.                       
  hc6                   1.089                    
  hcc6                109.471                    
  dih6                180.                       
  hc7                   1.089                    
  hcc7                109.471                    
  dih7                120.                       
  hc8                   1.089                    
  hcc8                109.471                    
  dih8                240.                       
 
     6 tetrahedral angles replaced.
 NAtoms=      8 NQM=      8 NQMF=      0 NMic=      0 NMicF=      0 NTot=      8.
                    Isotopes and Nuclear Properties:
 (Nuclear quadrupole moments (NQMom) in fm**2, nuclear magnetic moments (NMagM)
  in nuclear magnetons)

  Atom         1           2           3           4           5           6           7           8
 IAtWgt=          12           1          12           1           1           1           1           1
 AtmWgt=  12.0000000   1.0078250  12.0000000   1.0078250   1.0078250   1.0078250   1.0078250   1.0078250
 NucSpn=           0           1           0           1           1           1           1           1
 AtZEff=   0.0000000   0.0000000   0.0000000   0.0000000   0.0000000   0.0000000   0.0000000   0.0000000
 NQMom=    0.0000000   0.0000000   0.0000000   0.0000000   0.0000000   0.0000000   0.0000000   0.0000000
 NMagM=    0.0000000   2.7928460   0.0000000   2.7928460   2.7928460   2.7928460   2.7928460   2.7928460
 Leave Link  101 at Tue Aug 20 22:11:43 2024, MaxMem=   13107200 cpu:       0.2
 (Enter /programs/64bit/g09/g09-gfortran/bin/l103.exe)

 GradGradGradGradGradGradGradGradGradGradGradGradGradGradGradGradGradGrad
 Berny optimization.
 Initialization pass.
                           ----------------------------
                           !    Initial Parameters    !
                           ! (Angstroms and Degrees)  !
 --------------------------                            --------------------------
 ! Name  Definition              Value          Derivative Info.                !
 --------------------------------------------------------------------------------
 ! R1    R(1,2)                  1.089          estimate D2E/DX2                !
 ! R2    R(1,3)                  1.5            estimate D2E/DX2                !
 ! R3    R(1,4)                  1.089          estimate D2E/DX2                !
 ! R4    R(1,5)                  1.089          estimate D2E/DX2                !
 ! R5    R(3,6)                  1.089          estimate D2E/DX2                !
 ! R6    R(3,7)                  1.089          estimate D2E/DX2                !
 ! R7    R(3,8)                  1.089          estimate D2E/DX2                !
 ! A1    A(2,1,3)              109.4712         estimate D2E/DX2                !
 ! A2    A(2,1,4)              109.4712         estimate D2E/DX2                !
 ! A3    A(2,1,5)              109.4712         estimate D2E/DX2                !
 ! A4    A(3,1,4)              109.4712         estimate D2E/DX2                !
 ! A5    A(3,1,5)              109.4712         estimate D2E/DX2                !
 ! A6    A(4,1,5)              109.4712         estimate D2E/DX2                !
 ! A7    A(1,3,6)              109.4712         estimate D2E/DX2                !
 ! A8    A(1,3,7)              109.4712         estimate D2E/DX2                !
 ! A9    A(1,3,8)              109.4712         estimate D2E/DX2                !
 ! A10   A(6,3,7)              109.4712         estimate D2E/DX2                !
 ! A11   A(6,3,8)              109.4712         estimate D2E/DX2                !
 ! A12   A(7,3,8)              109.4712         estimate D2E/DX2                !
 ! D1    D(2,1,3,6)            180.0            estimate D2E/DX2                !
 ! D2    D(2,1,3,7)            -60.0            estimate D2E/DX2                !
 ! D3    D(2,1,3,8)             60.0            estimate D2E/DX2                !
 ! D4    D(4,1,3,6)             60.0            estimate D2E/DX2                !
 ! D5    D(4,1,3,7)            180.0            estimate D2E/DX2                !
 ! D6    D(4,1,3,8)            -60.0            estimate D2E/DX2                !
 ! D7    D(5,1,3,6)            -60.0            estimate D2E/DX2                !
 ! D8    D(5,1,3,7)             60.0            estimate D2E/DX2                !
 ! D9    D(5,1,3,8)            180.0            estimate D2E/DX2                !
 --------------------------------------------------------------------------------
 Trust Radius=3.00D-01 FncErr=1.00D-07 GrdErr=1.00D-06
 Number of steps in this run=  38 maximum allowed number of steps= 100.
 GradGradGradGradGradGradGradGradGradGradGradGradGradGradGradGradGradGrad

 Leave Link  103 at Tue Aug 20 22:11:43 2024, MaxMem=   13107200 cpu:       0.0
 (Enter /programs/64bit/g09/g09-gfortran/bin/l202.exe)
                          Input orientation:                          
 ---------------------------------------------------------------------
 Center     Atomic      Atomic             Coordinates (Angstroms)
 Number     Number       Type             X           Y           Z
 ---------------------------------------------------------------------
      1          6           0        0.000000    0.000000    0.000000
      2          1           0        0.000000    0.000000    1.089000
      3          6           0        1.414214    0.000000   -0.500000
      4          1           0       -0.513360   -0.889165   -0.363000
      5          1           0       -0.513360    0.889165   -0.363000
      6          1           0        1.414214    0.000000   -1.589000
      7          1           0        1.927573    0.889165   -0.137000
      8          1           0        1.927573   -0.889165   -0.137000
 ---------------------------------------------------------------------
                    Distance matrix (angstroms):
                    1          2          3          4          5
     1  C    0.000000
     2  H    1.089000   0.000000
     3  C    1.500000   2.127186   0.000000
     4  H    1.089000   1.778330   2.127186   0.000000
     5  H    1.089000   1.778330   2.127186   1.778330   0.000000
     6  H    2.127186   3.028479   1.089000   2.451373   2.451373
     7  H    2.127186   2.451373   1.089000   3.028479   2.451373
     8  H    2.127186   2.451373   1.089000   2.451373   3.028479
                    6          7          8
     6  H    0.000000
     7  H    1.778330   0.000000
     8  H    1.778330   1.778330   0.000000
 Stoichiometry    C2H6
 Framework group  D3D[C3(C.C),3SGD(H2)]
 Deg. of freedom     3
 Full point group                 D3D     NOp  12
 Largest Abelian subgroup         C2H     NOp   4
 Largest concise Abelian subgroup C2H     NOp   4
                         Standard orientation:                         
 ---------------------------------------------------------------------
 Center     Atomic      Atomic             Coordinates (Angstroms)
 Number     Number       Type             X           Y           Z
 ---------------------------------------------------------------------
      1          6           0       -0.000000    0.000000    0.750000
      2          1           0        0.000000    1.026719    1.113000
      3          6           0       -0.000000   -0.000000   -0.750000
      4          1           0        0.889165   -0.513360    1.113000
      5          1           0       -0.889165   -0.513360    1.113000
      6          1           0       -0.000000   -1.026719   -1.113000
      7          1           0       -0.889165    0.513360   -1.113000
      8          1           0        0.889165    0.513360   -1.113000
 ---------------------------------------------------------------------
 Rotational constants (GHZ):     79.2825418     20.9024522     20.9024522
 Leave Link  202 at Tue Aug 20 22:11:43 2024, MaxMem=   13107200 cpu:       0.0
 (Enter /programs/64bit/g09/g09-gfortran/bin/l301.exe)
 Standard basis: 6-31G(d,p) (6D, 7F)
 Ernie: Thresh=  0.10000D-02 Tol=  0.10000D-05 Strict=F.
 AO basis set in the form of general basis input (Overlap normalization):
      1 0
 S   6 1.00       0.000000000000
      0.3047524880D+04  0.1834737132D-02
      0.4573695180D+03  0.1403732281D-01
      0.1039486850D+03  0.6884262226D-01
      0.2921015530D+02  0.2321844432D+00
      0.9286662960D+01  0.4679413484D+00
      0.3163926960D+01  0.3623119853D+00
 SP   3 1.00       0.000000000000
      0.7868272350D+01 -0.1193324198D+00  0.6899906659D-01
      0.1881288540D+01 -0.1608541517D+00  0.3164239610D+00
      0.5442492580D+00  0.1143456438D+01  0.7443082909D+00
 SP   1 1.00       0.000000000000
      0.1687144782D+00  0.1000000000D+01  0.1000000000D+01
 D   1 1.00       0.000000000000
      0.8000000000D+00  0.1000000000D+01
 ****
      2 0
 S   3 1.00       0.000000000000
      0.1873113696D+02  0.3349460434D-01
      0.2825394365D+01  0.2347269535D+00
      0.6401216923D+00  0.8137573261D+00
 S   1 1.00       0.000000000000
      0.1612777588D+00  0.1000000000D+01
 P   1 1.00       0.000000000000
      0.1100000000D+01  0.1000000000D+01
 ****
      3 0
 S   6 1.00       0.000000000000
      0.3047524880D+04  0.1834737132D-02
      0.4573695180D+03  0.1403732281D-01
      0.1039486850D+03  0.6884262226D-01
      0.2921015530D+02  0.2321844432D+00
      0.9286662960D+01  0.4679413484D+00
      0.3163926960D+01  0.3623119853D+00
 SP   3 1.00       0.000000000000
      0.7868272350D+01 -0.1193324198D+00  0.6899906659D-01
      0.1881288540D+01 -0.1608541517D+00  0.3164239610D+00
      0.5442492580D+00  0.1143456438D+01  0.7443082909D+00
 SP   1 1.00       0.000000000000
      0.1687144782D+00  0.1000000000D+01  0.1000000000D+01
 D   1 1.00       0.000000000000
      0.8000000000D+00  0.1000000000D+01
 ****
      4 0
 S   3 1.00       0.000000000000
      0.1873113696D+02  0.3349460434D-01
      0.2825394365D+01  0.2347269535D+00
      0.6401216923D+00  0.8137573261D+00
 S   1 1.00       0.000000000000
      0.1612777588D+00  0.1000000000D+01
 P   1 1.00       0.000000000000
      0.1100000000D+01  0.1000000000D+01
 ****
      5 0
 S   3 1.00       0.000000000000
      0.1873113696D+02  0.3349460434D-01
      0.2825394365D+01  0.2347269535D+00
      0.6401216923D+00  0.8137573261D+00
 S   1 1.00       0.000000000000
      0.1612777588D+00  0.1000000000D+01
 P   1 1.00       0.000000000000
      0.1100000000D+01  0.1000000000D+01
 ****
      6 0
 S   3 1.00       0.000000000000
      0.1873113696D+02  0.3349460434D-01
      0.2825394365D+01  0.2347269535D+00
      0.6401216923D+00  0.8137573261D+00
 S   1 1.00       0.000000000000
      0.1612777588D+00  0.1000000000D+01
 P   1 1.00       0.000000000000
      0.1100000000D+01  0.1000000000D+01
 ****
      7 0
 S   3 1.00       0.000000000000
      0.1873113696D+02  0.3349460434D-01
      0.2825394365D+01  0.2347269535D+00
      0.6401216923D+00  0.8137573261D+00
 S   1 1.00       0.000000000000
      0.1612777588D+00  0.1000000000D+01
 P   1 1.00       0.000000000000
      0.1100000000D+01  0.1000000000D+01
 ****
      8 0
 S   3 1.00       0.000000000000
      0.1873113696D+02  0.3349460434D-01
      0.2825394365D+01  0.2347269535D+00
      0.6401216923D+00  0.8137573261D+00
 S   1 1.00       0.000000000000
      0.1612777588D+00  0.1000000000D+01
 P   1 1.00       0.000000000000
      0.1100000000D+01  0.1000000000D+01
 ****

 There are    20 symmetry adapted basis functions of AG  symmetry.
 There are    10 symmetry adapted basis functions of BG  symmetry.
 There are    10 symmetry adapted basis functions of AU  symmetry.
 There are    20 symmetry adapted basis functions of BU  symmetry.
 Integral buffers will be    131072 words long.
 Raffenetti 2 integral format.
 Two-electron integral symmetry is turned on.
    60 basis functions,    98 primitive gaussians,    60 cartesian basis functions
     9 alpha electrons        9 beta electrons
       nuclear repulsion energy        42.7542238910 Hartrees.
 IExCor=  402 DFT=T Ex+Corr=B3LYP ExCW=0 ScaHFX=  0.200000
 ScaDFX=  0.800000  0.720000  1.000000  0.810000 ScalE2=  1.000000  1.000000
 IRadAn=      0 IRanWt=     -1 IRanGd=            0 ICorTp=0
 NAtoms=    8 NActive=    8 NUniq=    2 SFac= 3.00D+00 NAtFMM=   80 NAOKFM=F Big=F
 Leave Link  301 at Tue Aug 20 22:11:43 2024, MaxMem=   13107200 cpu:       0.1
 (Enter /programs/64bit/g09/g09-gfortran/bin/l302.exe)
 NPDir=0 NMtPBC=     1 NCelOv=     1 NCel=       1 NClECP=     1 NCelD=      1
         NCelK=      1 NCelE2=     1 NClLst=     1 CellRange=     0.0.
 One-electron integrals computed using PRISM.
 One-electron integral symmetry used in STVInt
 NBasis=    60 RedAO= T  NBF=    20    10    10    20
 NBsUse=    60 1.00D-06 NBFU=    20    10    10    20
 Precomputing XC quadrature grid using
 IXCGrd= 2 IRadAn=           0 IRanWt=          -1 IRanGd=           0 AccXCQ= 1.00D-10.
 NRdTot=     492 NPtTot=       62472 NUsed=       66033 NTot=       66065
 NSgBfM=    60    60    60    60    60 NAtAll=     8     8.
 Leave Link  302 at Tue Aug 20 22:11:44 2024, MaxMem=   13107200 cpu:       0.4
 (Enter /programs/64bit/g09/g09-gfortran/bin/l303.exe)
 DipDrv:  MaxL=1.
 Leave Link  303 at Tue Aug 20 22:11:44 2024, MaxMem=   13107200 cpu:       0.1
 (Enter /programs/64bit/g09/g09-gfortran/bin/l401.exe)
 Harris functional with IExCor=  402 diagonalized for initial guess.
 ExpMin= 1.61D-01 ExpMax= 3.05D+03 ExpMxC= 4.57D+02 IAcc=1 IRadAn=         1 AccDes= 0.00D+00
 HarFok:  IExCor=  402 AccDes= 0.00D+00 IRadAn=         1 IDoV= 1
 ScaDFX=  1.000000  1.000000  1.000000  1.000000
 FoFCou: FMM=F IPFlag=           0 FMFlag=      100000 FMFlg1=           0
         NFxFlg=           0 DoJE=T BraDBF=F KetDBF=T FulRan=T
         Omega=  0.000000  0.000000  1.000000  0.000000  0.000000 ICntrl=     500 IOpCl=  0
         NMat0=    1 NMatS0=    1 NMatT0=    0 NMatD0=    1 NMtDS0=    0 NMtDT0=    0
         I1Cent=           4 NGrid=           0.
 Petite list used in FoFCou.
 Harris En= -79.9022502219762    
 Initial guess orbital symmetries:
       Occupied  (A1G) (A2U) (A1G) (A2U) (EU) (EU) (A1G) (EG) (EG)
       Virtual   (A1G) (EU) (EU) (A2U) (EG) (EG) (A2U) (A1G) (EU)
                 (EU) (EG) (EG) (A2U) (A1G) (EU) (EU) (EG) (EG)
                 (A2U) (A1G) (EU) (EU) (A2U) (EG) (EG) (A1G) (EG)
                 (EG) (EU) (EU) (A1U) (A2G) (EU) (EU) (A2U) (EG)
                 (EG) (A1G) (A2U) (EU) (EU) (EG) (EG) (A1G) (A2U)
                 (EG) (EG) (EU) (EU) (A1G) (A2U)
 The electronic state of the initial guess is 1-A1G.
 Leave Link  401 at Tue Aug 20 22:11:45 2024, MaxMem=   13107200 cpu:       0.5
 (Enter /programs/64bit/g09/g09-gfortran/bin/l502.exe)
 Closed shell SCF:
 Requested convergence on RMS density matrix=1.00D-08 within 128 cycles.
 Requested convergence on MAX density matrix=1.00D-06.
 Requested convergence on             energy=1.00D-06.
 No special actions if energy rises.
 Using DIIS extrapolation, IDIIS=  1040.
 Integral symmetry usage will be decided dynamically.
        65948 words used for storage of precomputed grid.
 Keep R1 ints in memory in canonical form, NReq=2651759.
 IEnd=       96182 IEndB=       96182 NGot=    13107200 MDV=    11355926
 LenX=    11355926 LenY=    11351885
 Symmetry not used in FoFDir.
 MinBra= 0 MaxBra= 2 Meth= 1.
 IRaf=       0 NMat=   1 IRICut=       1 DoRegI=T DoRafI=F ISym2E= 0 JSym2E=0.
 Integral accuracy reduced to 1.0D-05 until final iterations.

 Cycle   1  Pass 0  IDiag  1:
 E= -79.6964004013367    
 DIIS: error= 5.64D-02 at cycle   1 NSaved=   1.
 NSaved= 1 IEnMin= 1 EnMin= -79.6964004013367     IErMin= 1 ErrMin= 5.64D-02
 ErrMax= 5.64D-02 EMaxC= 1.00D-01 BMatC= 1.25D-01 BMatP= 1.25D-01
 IDIUse=3 WtCom= 4.36D-01 WtEn= 5.64D-01
 Coeff-Com:  0.100D+01
 Coeff-En:   0.100D+01
 Coeff:      0.100D+01
 Gap=     0.373 Goal=   None    Shift=    0.000
 GapD=    0.373 DampG=1.000 DampE=0.500 DampFc=0.5000 IDamp=-1.
 Damping current iteration by 5.00D-01
 RMSDP=1.20D-02 MaxDP=1.45D-01              OVMax= 1.96D-01

 Cycle   2  Pass 0  IDiag  1:
 E= -79.7589322447663     Delta-E=       -0.062531843430 Rises=F Damp=T
 DIIS: error= 1.05D-02 at cycle   2 NSaved=   2.
 NSaved= 2 IEnMin= 2 EnMin= -79.7589322447663     IErMin= 2 ErrMin= 1.05D-02
 ErrMax= 1.05D-02 EMaxC= 1.00D-01 BMatC= 3.80D-03 BMatP= 1.25D-01
 IDIUse=3 WtCom= 8.95D-01 WtEn= 1.05D-01
 Coeff-Com:  0.875D-01 0.912D+00
 Coeff-En:   0.136D+00 0.864D+00
 Coeff:      0.926D-01 0.907D+00
 Gap=     0.433 Goal=   None    Shift=    0.000
 RMSDP=1.28D-03 MaxDP=1.39D-02 DE=-6.25D-02 OVMax= 1.01D-01

 Cycle   3  Pass 0  IDiag  1:
 E= -79.8366111850999     Delta-E=       -0.077678940334 Rises=F Damp=F
 DIIS: error= 1.84D-03 at cycle   3 NSaved=   3.
 NSaved= 3 IEnMin= 3 EnMin= -79.8366111850999     IErMin= 3 ErrMin= 1.84D-03
 ErrMax= 1.84D-03 EMaxC= 1.00D-01 BMatC= 1.06D-04 BMatP= 3.80D-03
 IDIUse=3 WtCom= 9.82D-01 WtEn= 1.84D-02
 Coeff-Com:  0.108D-01 0.818D-01 0.907D+00
 Coeff-En:   0.000D+00 0.000D+00 0.100D+01
 Coeff:      0.106D-01 0.803D-01 0.909D+00
 Gap=     0.441 Goal=   None    Shift=    0.000
 RMSDP=1.87D-04 MaxDP=1.71D-03 DE=-7.77D-02 OVMax= 4.04D-03

 Cycle   4  Pass 0  IDiag  1:
 E= -79.8366993715277     Delta-E=       -0.000088186428 Rises=F Damp=F
 DIIS: error= 5.36D-04 at cycle   4 NSaved=   4.
 NSaved= 4 IEnMin= 4 EnMin= -79.8366993715277     IErMin= 4 ErrMin= 5.36D-04
 ErrMax= 5.36D-04 EMaxC= 1.00D-01 BMatC= 8.91D-06 BMatP= 1.06D-04
 IDIUse=3 WtCom= 9.95D-01 WtEn= 5.36D-03
 Coeff-Com:  0.174D-02-0.650D-02 0.211D+00 0.794D+00
 Coeff-En:   0.000D+00 0.000D+00 0.000D+00 0.100D+01
 Coeff:      0.173D-02-0.647D-02 0.210D+00 0.795D+00
 Gap=     0.441 Goal=   None    Shift=    0.000
 RMSDP=4.31D-05 MaxDP=3.42D-04 DE=-8.82D-05 OVMax= 1.04D-03

 Cycle   5  Pass 0  IDiag  1:
 E= -79.8367075910848     Delta-E=       -0.000008219557 Rises=F Damp=F
 DIIS: error= 1.38D-05 at cycle   5 NSaved=   5.
 NSaved= 5 IEnMin= 5 EnMin= -79.8367075910848     IErMin= 5 ErrMin= 1.38D-05
 ErrMax= 1.38D-05 EMaxC= 1.00D-01 BMatC= 9.01D-09 BMatP= 8.91D-06
 IDIUse=1 WtCom= 1.00D+00 WtEn= 0.00D+00
 Coeff-Com:  0.134D-03-0.259D-03-0.100D-01-0.213D-01 0.103D+01
 Coeff:      0.134D-03-0.259D-03-0.100D-01-0.213D-01 0.103D+01
 Gap=     0.441 Goal=   None    Shift=    0.000
 RMSDP=1.51D-06 MaxDP=2.25D-05 DE=-8.22D-06 OVMax= 3.72D-05

 Initial convergence to 1.0D-05 achieved.  Increase integral accuracy.
 Cycle   6  Pass 1  IDiag  1:
 E= -79.8367422367638     Delta-E=       -0.000034645679 Rises=F Damp=F
 DIIS: error= 4.64D-06 at cycle   1 NSaved=   1.
 NSaved= 1 IEnMin= 1 EnMin= -79.8367422367638     IErMin= 1 ErrMin= 4.64D-06
 ErrMax= 4.64D-06 EMaxC= 1.00D-01 BMatC= 9.33D-10 BMatP= 9.33D-10
 IDIUse=1 WtCom= 1.00D+00 WtEn= 0.00D+00
 Coeff-Com:  0.100D+01
 Coeff:      0.100D+01
 Gap=     0.441 Goal=   None    Shift=    0.000
 RMSDP=1.51D-06 MaxDP=2.25D-05 DE=-3.46D-05 OVMax= 1.26D-05

 Cycle   7  Pass 1  IDiag  1:
 E= -79.8367422379976     Delta-E=       -0.000000001234 Rises=F Damp=F
 DIIS: error= 2.63D-07 at cycle   2 NSaved=   2.
 NSaved= 2 IEnMin= 2 EnMin= -79.8367422379976     IErMin= 2 ErrMin= 2.63D-07
 ErrMax= 2.63D-07 EMaxC= 1.00D-01 BMatC= 5.15D-12 BMatP= 9.33D-10
 IDIUse=1 WtCom= 1.00D+00 WtEn= 0.00D+00
 Coeff-Com: -0.251D-01 0.103D+01
 Coeff:     -0.251D-01 0.103D+01
 Gap=     0.441 Goal=   None    Shift=    0.000
 RMSDP=7.37D-08 MaxDP=7.11D-07 DE=-1.23D-09 OVMax= 1.06D-06

 Cycle   8  Pass 1  IDiag  1:
 E= -79.8367422380007     Delta-E=       -0.000000000003 Rises=F Damp=F
 DIIS: error= 2.29D-07 at cycle   3 NSaved=   3.
 NSaved= 3 IEnMin= 3 EnMin= -79.8367422380007     IErMin= 3 ErrMin= 2.29D-07
 ErrMax= 2.29D-07 EMaxC= 1.00D-01 BMatC= 2.18D-12 BMatP= 5.15D-12
 IDIUse=1 WtCom= 1.00D+00 WtEn= 0.00D+00
 Coeff-Com: -0.117D-01 0.396D+00 0.616D+00
 Coeff:     -0.117D-01 0.396D+00 0.616D+00
 Gap=     0.441 Goal=   None    Shift=    0.000
 RMSDP=2.82D-08 MaxDP=3.71D-07 DE=-3.01D-12 OVMax= 4.78D-07

 Cycle   9  Pass 1  IDiag  1:
 E= -79.8367422380024     Delta-E=       -0.000000000002 Rises=F Damp=F
 DIIS: error= 8.14D-08 at cycle   4 NSaved=   4.
 NSaved= 4 IEnMin= 4 EnMin= -79.8367422380024     IErMin= 4 ErrMin= 8.14D-08
 ErrMax= 8.14D-08 EMaxC= 1.00D-01 BMatC= 2.66D-13 BMatP= 2.18D-12
 IDIUse=1 WtCom= 1.00D+00 WtEn= 0.00D+00
 Coeff-Com: -0.891D-03-0.571D-02 0.256D+00 0.751D+00
 Coeff:     -0.891D-03-0.571D-02 0.256D+00 0.751D+00
 Gap=     0.441 Goal=   None    Shift=    0.000
 RMSDP=7.12D-09 MaxDP=9.34D-08 DE=-1.79D-12 OVMax= 1.22D-07

 SCF Done:  E(RB3LYP) =  -79.8367422380     A.U. after    9 cycles
             Convg  =    0.7120D-08             -V/T =  2.0093
 KE= 7.909939097913D+01 PE=-2.694268403861D+02 EE= 6.773648327794D+01
 Leave Link  502 at Tue Aug 20 22:11:49 2024, MaxMem=   13107200 cpu:       4.1
 (Enter /programs/64bit/g09/g09-gfortran/bin/l601.exe)
 Copying SCF densities to generalized density rwf, IOpCl= 0 IROHF=0.

 **********************************************************************

            Population analysis using the SCF density.

 **********************************************************************

 Orbital symmetries:
       Occupied  (A1G) (A2U) (A1G) (A2U) (EU) (EU) (A1G) (EG) (EG)
       Virtual   (A1G) (A2U) (EU) (EU) (EG) (EG) (A2U) (A1G) (EU)
                 (EU) (EG) (EG) (A2U) (EU) (EU) (A1G) (EG) (EG)
                 (A2U) (A1G) (EU) (EU) (A2U) (EG) (EG) (A1G) (A1U)
                 (A2G) (EG) (EG) (EU) (EU) (EU) (EU) (A2U) (EG)
                 (EG) (A1G) (A2U) (EU) (EU) (EG) (EG) (A1G) (A2U)
                 (EG) (EG) (EU) (EU) (A1G) (A2U)
 The electronic state is 1-A1G.
 Alpha  occ. eigenvalues --  -10.16736 -10.16710  -0.75662  -0.60627  -0.43794
 Alpha  occ. eigenvalues --   -0.43794  -0.35817  -0.33890  -0.33890
 Alpha virt. eigenvalues --    0.10236   0.16510   0.16722   0.16722   0.18835
 Alpha virt. eigenvalues --    0.18835   0.24751   0.49723   0.55054   0.55054
 Alpha virt. eigenvalues --    0.60499   0.60499   0.68289   0.86386   0.86386
 Alpha virt. eigenvalues --    0.88076   0.90823   0.90823   0.96484   1.07279
 Alpha virt. eigenvalues --    1.32198   1.32198   1.44938   1.70797   1.70797
 Alpha virt. eigenvalues --    1.91053   2.05001   2.05098   2.06081   2.06081
 Alpha virt. eigenvalues --    2.07317   2.07317   2.30097   2.30097   2.33894
 Alpha virt. eigenvalues --    2.51169   2.51169   2.67585   2.72689   2.81802
 Alpha virt. eigenvalues --    2.81802   2.94281   2.94281   3.17793   3.27033
 Alpha virt. eigenvalues --    3.38031   3.38031   3.54810   3.54810   4.33524
 Alpha virt. eigenvalues --    4.59535
     Molecular Orbital Coefficients:
                           1         2         3         4         5
                       (A1G)--O  (A2U)--O  (A1G)--O  (A2U)--O   (EU)--O
     Eigenvalues --   -10.16736 -10.16710  -0.75662  -0.60627  -0.43794
   1 1   C  1S          0.70201   0.70219  -0.14988  -0.13053   0.00000
   2        2S          0.03512   0.03547   0.28560   0.26025   0.00000
   3        2PX         0.00000   0.00000   0.00000   0.00000   0.00000
   4        2PY         0.00000  -0.00000   0.00000   0.00000   0.31663
   5        2PZ         0.00011  -0.00010  -0.06849   0.12763  -0.00000
   6        3S         -0.00883  -0.01549   0.22914   0.25473  -0.00000
   7        3PX         0.00000   0.00000   0.00000   0.00000   0.00000
   8        3PY         0.00000   0.00000  -0.00000  -0.00000   0.13538
   9        3PZ        -0.00069   0.00257  -0.01211   0.03542   0.00000
  10        4XX        -0.00642  -0.00619  -0.00953  -0.00155  -0.00961
  11        4YY        -0.00642  -0.00619  -0.00953  -0.00155   0.00961
  12        4ZZ        -0.00677  -0.00616   0.00244  -0.01877  -0.00000
  13        4XY         0.00000   0.00000   0.00000   0.00000   0.00000
  14        4XZ         0.00000   0.00000   0.00000   0.00000   0.00000
  15        4YZ        -0.00000   0.00000   0.00000  -0.00000  -0.00088
  16 2   H  1S         -0.00019   0.00001   0.08709   0.12050   0.17816
  17        2S          0.00193   0.00181   0.02155   0.05307   0.13943
  18        3PX         0.00000   0.00000   0.00000   0.00000   0.00000
  19        3PY         0.00011   0.00018  -0.00835  -0.00955  -0.00385
  20        3PZ        -0.00002   0.00005  -0.00387  -0.00161  -0.00490
  21 3   C  1S          0.70201  -0.70219  -0.14988   0.13053  -0.00000
  22        2S          0.03512  -0.03547   0.28560  -0.26025  -0.00000
  23        2PX         0.00000   0.00000   0.00000   0.00000   0.00000
  24        2PY        -0.00000  -0.00000  -0.00000   0.00000   0.31663
  25        2PZ        -0.00011  -0.00010   0.06849   0.12763  -0.00000
  26        3S         -0.00883   0.01549   0.22914  -0.25473   0.00000
  27        3PX         0.00000   0.00000   0.00000   0.00000   0.00000
  28        3PY        -0.00000   0.00000   0.00000  -0.00000   0.13538
  29        3PZ         0.00069   0.00257   0.01211   0.03542   0.00000
  30        4XX        -0.00642   0.00619  -0.00953   0.00155   0.00961
  31        4YY        -0.00642   0.00619  -0.00953   0.00155  -0.00961
  32        4ZZ        -0.00677   0.00616   0.00244   0.01877   0.00000
  33        4XY         0.00000   0.00000   0.00000   0.00000   0.00000
  34        4XZ         0.00000   0.00000   0.00000   0.00000   0.00000
  35        4YZ        -0.00000  -0.00000   0.00000   0.00000   0.00088
  36 4   H  1S         -0.00019   0.00001   0.08709   0.12050  -0.08908
  37        2S          0.00193   0.00181   0.02155   0.05307  -0.06972
  38        3PX         0.00010   0.00015  -0.00723  -0.00827   0.00416
  39        3PY        -0.00006  -0.00009   0.00417   0.00478   0.00336
  40        3PZ        -0.00002   0.00005  -0.00387  -0.00161   0.00245
  41 5   H  1S         -0.00019   0.00001   0.08709   0.12050  -0.08908
  42        2S          0.00193   0.00181   0.02155   0.05307  -0.06972
  43        3PX        -0.00010  -0.00015   0.00723   0.00827  -0.00416
  44        3PY        -0.00006  -0.00009   0.00417   0.00478   0.00336
  45        3PZ        -0.00002   0.00005  -0.00387  -0.00161   0.00245
  46 6   H  1S         -0.00019  -0.00001   0.08709  -0.12050  -0.17816
  47        2S          0.00193  -0.00181   0.02155  -0.05307  -0.13943
  48        3PX         0.00000   0.00000   0.00000   0.00000   0.00000
  49        3PY        -0.00011   0.00018   0.00835  -0.00955  -0.00385
  50        3PZ         0.00002   0.00005   0.00387  -0.00161  -0.00490
  51 7   H  1S         -0.00019  -0.00001   0.08709  -0.12050   0.08908
  52        2S          0.00193  -0.00181   0.02155  -0.05307   0.06972
  53        3PX        -0.00010   0.00015   0.00723  -0.00827   0.00416
  54        3PY         0.00006  -0.00009  -0.00417   0.00478   0.00336
  55        3PZ         0.00002   0.00005   0.00387  -0.00161   0.00245
  56 8   H  1S         -0.00019  -0.00001   0.08709  -0.12050   0.08908
  57        2S          0.00193  -0.00181   0.02155  -0.05307   0.06972
  58        3PX         0.00010  -0.00015  -0.00723   0.00827  -0.00416
  59        3PY         0.00006  -0.00009  -0.00417   0.00478   0.00336
  60        3PZ         0.00002   0.00005   0.00387  -0.00161   0.00245
                           6         7         8         9        10
                        (EU)--O  (A1G)--O   (EG)--O   (EG)--O  (A1G)--V
     Eigenvalues --    -0.43794  -0.35817  -0.33890  -0.33890   0.10236
   1 1   C  1S          0.00000   0.01568  -0.00000   0.00000  -0.09934
   2        2S          0.00000  -0.03697   0.00000   0.00000   0.12666
   3        2PX         0.31663   0.00000   0.00000   0.31317   0.00000
   4        2PY         0.00000   0.00000   0.31317   0.00000  -0.00000
   5        2PZ         0.00000   0.41519  -0.00000   0.00000   0.12158
   6        3S          0.00000  -0.05158   0.00000   0.00000   1.57317
   7        3PX         0.13538   0.00000   0.00000   0.14017   0.00000
   8        3PY         0.00000   0.00000   0.14017   0.00000  -0.00000
   9        3PZ         0.00000   0.18694  -0.00000   0.00000   0.45821
  10        4XX         0.00000   0.01091  -0.01404   0.00000  -0.01427
  11        4YY         0.00000   0.01091   0.01404   0.00000  -0.01427
  12        4ZZ         0.00000  -0.01413  -0.00000   0.00000   0.00045
  13        4XY        -0.01110   0.00000   0.00000  -0.01621   0.00000
  14        4XZ        -0.00088   0.00000   0.00000   0.01899   0.00000
  15        4YZ         0.00000   0.00000   0.01899   0.00000  -0.00000
  16 2   H  1S          0.00000   0.08159   0.21843   0.00000  -0.01425
  17        2S          0.00000   0.08615   0.22113   0.00000  -0.76938
  18        3PX         0.00576   0.00000   0.00000   0.00616   0.00000
  19        3PY         0.00000  -0.00383  -0.00395   0.00000  -0.00431
  20        3PZ         0.00000   0.00661  -0.00243   0.00000   0.00374
  21 3   C  1S          0.00000   0.01568  -0.00000   0.00000  -0.09934
  22        2S          0.00000  -0.03697   0.00000   0.00000   0.12666
  23        2PX         0.31663   0.00000   0.00000  -0.31317   0.00000
  24        2PY         0.00000  -0.00000  -0.31317   0.00000   0.00000
  25        2PZ         0.00000  -0.41519   0.00000   0.00000  -0.12158
  26        3S          0.00000  -0.05158   0.00000   0.00000   1.57317
  27        3PX         0.13538   0.00000   0.00000  -0.14017   0.00000
  28        3PY         0.00000  -0.00000  -0.14017   0.00000   0.00000
  29        3PZ         0.00000  -0.18694   0.00000   0.00000  -0.45821
  30        4XX         0.00000   0.01091  -0.01404   0.00000  -0.01427
  31        4YY         0.00000   0.01091   0.01404   0.00000  -0.01427
  32        4ZZ         0.00000  -0.01413  -0.00000   0.00000   0.00045
  33        4XY         0.01110   0.00000   0.00000  -0.01621   0.00000
  34        4XZ         0.00088   0.00000   0.00000   0.01899   0.00000
  35        4YZ         0.00000   0.00000   0.01899   0.00000  -0.00000
  36 4   H  1S          0.15429   0.08159  -0.10921   0.18917  -0.01425
  37        2S          0.12075   0.08615  -0.11056   0.19150  -0.76938
  38        3PX        -0.00145  -0.00332   0.00438  -0.00142  -0.00373
  39        3PY         0.00416   0.00192   0.00363   0.00438   0.00215
  40        3PZ        -0.00424   0.00661   0.00121  -0.00210   0.00374
  41 5   H  1S         -0.15429   0.08159  -0.10921  -0.18917  -0.01425
  42        2S         -0.12075   0.08615  -0.11056  -0.19150  -0.76938
  43        3PX        -0.00145   0.00332  -0.00438  -0.00142   0.00373
  44        3PY        -0.00416   0.00192   0.00363  -0.00438   0.00215
  45        3PZ         0.00424   0.00661   0.00121   0.00210   0.00374
  46 6   H  1S          0.00000   0.08159   0.21843   0.00000  -0.01425
  47        2S          0.00000   0.08615   0.22113   0.00000  -0.76938
  48        3PX         0.00576   0.00000   0.00000  -0.00616   0.00000
  49        3PY         0.00000   0.00383   0.00395   0.00000   0.00431
  50        3PZ         0.00000  -0.00661   0.00243   0.00000  -0.00374
  51 7   H  1S         -0.15429   0.08159  -0.10921   0.18917  -0.01425
  52        2S         -0.12075   0.08615  -0.11056   0.19150  -0.76938
  53        3PX        -0.00145   0.00332  -0.00438   0.00142   0.00373
  54        3PY         0.00416  -0.00192  -0.00363  -0.00438  -0.00215
  55        3PZ        -0.00424  -0.00661  -0.00121   0.00210  -0.00374
  56 8   H  1S          0.15429   0.08159  -0.10921  -0.18917  -0.01425
  57        2S          0.12075   0.08615  -0.11056  -0.19150  -0.76938
  58        3PX        -0.00145  -0.00332   0.00438   0.00142  -0.00373
  59        3PY        -0.00416  -0.00192  -0.00363   0.00438  -0.00215
  60        3PZ         0.00424  -0.00661  -0.00121  -0.00210  -0.00374
                          11        12        13        14        15
                       (A2U)--V   (EU)--V   (EU)--V   (EG)--V   (EG)--V
     Eigenvalues --     0.16510   0.16722   0.16722   0.18835   0.18835
   1 1   C  1S         -0.12882   0.00000   0.00000   0.00000   0.00000
   2        2S          0.11586   0.00000  -0.00000   0.00000  -0.00000
   3        2PX         0.00000  -0.29409   0.00000   0.26410   0.00000
   4        2PY        -0.00000   0.00000  -0.29409   0.00000  -0.26410
   5        2PZ         0.05377   0.00000  -0.00000   0.00000  -0.00000
   6        3S          2.39297   0.00000  -0.00000   0.00000  -0.00000
   7        3PX         0.00000  -0.78269   0.00000   1.29423   0.00000
   8        3PY        -0.00000   0.00000  -0.78269   0.00000  -1.29423
   9        3PZ        -0.26176   0.00000   0.00000   0.00000  -0.00000
  10        4XX        -0.01095   0.00000  -0.00572   0.00000  -0.01277
  11        4YY        -0.01095   0.00000   0.00572   0.00000   0.01277
  12        4ZZ        -0.01599   0.00000   0.00000   0.00000  -0.00000
  13        4XY         0.00000  -0.00661   0.00000   0.01474   0.00000
  14        4XZ         0.00000   0.02078   0.00000   0.00970   0.00000
  15        4YZ         0.00000   0.00000   0.02078   0.00000  -0.00970
  16 2   H  1S         -0.01674   0.00000   0.08498   0.00000   0.05530
  17        2S         -0.82271   0.00000   1.21984   0.00000   1.34745
  18        3PX         0.00000  -0.00480   0.00000   0.01072   0.00000
  19        3PY        -0.00458   0.00000   0.00166   0.00000   0.00132
  20        3PZ        -0.00182   0.00000   0.00702   0.00000  -0.00693
  21 3   C  1S          0.12882   0.00000  -0.00000   0.00000   0.00000
  22        2S         -0.11586   0.00000   0.00000   0.00000  -0.00000
  23        2PX         0.00000  -0.29409   0.00000  -0.26410   0.00000
  24        2PY        -0.00000   0.00000  -0.29409   0.00000   0.26410
  25        2PZ         0.05377   0.00000  -0.00000   0.00000   0.00000
  26        3S         -2.39297   0.00000   0.00000   0.00000  -0.00000
  27        3PX         0.00000  -0.78269   0.00000  -1.29423   0.00000
  28        3PY        -0.00000   0.00000  -0.78269   0.00000   1.29423
  29        3PZ        -0.26176   0.00000   0.00000   0.00000   0.00000
  30        4XX         0.01095   0.00000   0.00572   0.00000  -0.01277
  31        4YY         0.01095   0.00000  -0.00572   0.00000   0.01277
  32        4ZZ         0.01599   0.00000  -0.00000   0.00000  -0.00000
  33        4XY         0.00000   0.00661   0.00000   0.01474   0.00000
  34        4XZ         0.00000  -0.02078   0.00000   0.00970   0.00000
  35        4YZ        -0.00000   0.00000  -0.02078   0.00000  -0.00970
  36 4   H  1S         -0.01674   0.07360  -0.04249  -0.04789  -0.02765
  37        2S         -0.82271   1.05641  -0.60992  -1.16693  -0.67373
  38        3PX        -0.00397   0.00004  -0.00280   0.00169  -0.00522
  39        3PY         0.00229  -0.00280  -0.00319   0.00522  -0.00771
  40        3PZ        -0.00182   0.00608  -0.00351   0.00600   0.00346
  41 5   H  1S         -0.01674  -0.07360  -0.04249   0.04789  -0.02765
  42        2S         -0.82271  -1.05641  -0.60992   1.16693  -0.67373
  43        3PX         0.00397   0.00004   0.00280   0.00169   0.00522
  44        3PY         0.00229   0.00280  -0.00319  -0.00522  -0.00771
  45        3PZ        -0.00182  -0.00608  -0.00351  -0.00600   0.00346
  46 6   H  1S          0.01674   0.00000  -0.08498   0.00000   0.05530
  47        2S          0.82271   0.00000  -1.21984   0.00000   1.34745
  48        3PX         0.00000  -0.00480   0.00000  -0.01072   0.00000
  49        3PY        -0.00458   0.00000   0.00166   0.00000  -0.00132
  50        3PZ        -0.00182   0.00000   0.00702   0.00000   0.00693
  51 7   H  1S          0.01674  -0.07360   0.04249  -0.04789  -0.02765
  52        2S          0.82271  -1.05641   0.60992  -1.16693  -0.67373
  53        3PX        -0.00397   0.00004  -0.00280  -0.00169   0.00522
  54        3PY         0.00229  -0.00280  -0.00319  -0.00522   0.00771
  55        3PZ        -0.00182   0.00608  -0.00351  -0.00600  -0.00346
  56 8   H  1S          0.01674   0.07360   0.04249   0.04789  -0.02765
  57        2S          0.82271   1.05641   0.60992   1.16693  -0.67373
  58        3PX         0.00397   0.00004   0.00280  -0.00169  -0.00522
  59        3PY         0.00229   0.00280  -0.00319   0.00522   0.00771
  60        3PZ        -0.00182  -0.00608  -0.00351   0.00600  -0.00346
                          16        17        18        19        20
                       (A2U)--V  (A1G)--V   (EU)--V   (EU)--V   (EG)--V
     Eigenvalues --     0.24751   0.49723   0.55054   0.55054   0.60499
   1 1   C  1S          0.04908   0.01318   0.00000   0.00000   0.00000
   2        2S         -0.03295   0.04863   0.00000  -0.00000   0.00000
   3        2PX         0.00000   0.00000  -0.42851   0.00000  -0.63784
   4        2PY         0.00000  -0.00000   0.00000  -0.42851   0.00000
   5        2PZ         0.34081  -0.58670   0.00000   0.00000   0.00000
   6        3S         -1.11573   0.29277   0.00000   0.00000   0.00000
   7        3PX         0.00000   0.00000   0.78376   0.00000   1.72033
   8        3PY         0.00000   0.00000   0.00000   0.78376   0.00000
   9        3PZ         1.73814   0.89401   0.00000  -0.00000   0.00000
  10        4XX        -0.01258  -0.02257   0.00000   0.05453   0.00000
  11        4YY        -0.01258  -0.02257   0.00000  -0.05453   0.00000
  12        4ZZ         0.02675   0.10041   0.00000   0.00000   0.00000
  13        4XY         0.00000   0.00000   0.06297   0.00000   0.04904
  14        4XZ         0.00000   0.00000  -0.05278   0.00000   0.01226
  15        4YZ        -0.00000   0.00000   0.00000  -0.05278   0.00000
  16 2   H  1S         -0.06568  -0.12705   0.00000  -0.42351   0.00000
  17        2S         -0.36395   0.00605   0.00000  -0.09164   0.00000
  18        3PX         0.00000   0.00000   0.02398   0.00000   0.02499
  19        3PY        -0.00492   0.00629   0.00000   0.02015   0.00000
  20        3PZ         0.00991   0.01871   0.00000  -0.02022   0.00000
  21 3   C  1S         -0.04908   0.01318   0.00000  -0.00000   0.00000
  22        2S          0.03295   0.04863   0.00000   0.00000   0.00000
  23        2PX         0.00000   0.00000  -0.42851   0.00000   0.63784
  24        2PY         0.00000   0.00000   0.00000  -0.42851   0.00000
  25        2PZ         0.34081   0.58670   0.00000   0.00000   0.00000
  26        3S          1.11573   0.29277   0.00000  -0.00000   0.00000
  27        3PX         0.00000   0.00000   0.78376   0.00000  -1.72033
  28        3PY         0.00000  -0.00000   0.00000   0.78376   0.00000
  29        3PZ         1.73814  -0.89401   0.00000  -0.00000   0.00000
  30        4XX         0.01258  -0.02257   0.00000  -0.05453   0.00000
  31        4YY         0.01258  -0.02257   0.00000   0.05453   0.00000
  32        4ZZ        -0.02675   0.10041   0.00000  -0.00000   0.00000
  33        4XY         0.00000   0.00000  -0.06297   0.00000   0.04904
  34        4XZ         0.00000   0.00000   0.05278   0.00000   0.01226
  35        4YZ         0.00000   0.00000   0.00000   0.05278   0.00000
  36 4   H  1S         -0.06568  -0.12705  -0.36677   0.21175  -0.19252
  37        2S         -0.36395   0.00605  -0.07937   0.04582  -0.41868
  38        3PX        -0.00426   0.00545   0.02110   0.00166   0.03325
  39        3PY         0.00246  -0.00315   0.00166   0.02302  -0.00477
  40        3PZ         0.00991   0.01871  -0.01751   0.01011   0.04391
  41 5   H  1S         -0.06568  -0.12705   0.36677   0.21175   0.19252
  42        2S         -0.36395   0.00605   0.07937   0.04582   0.41868
  43        3PX         0.00426  -0.00545   0.02110  -0.00166   0.03325
  44        3PY         0.00246  -0.00315  -0.00166   0.02302   0.00477
  45        3PZ         0.00991   0.01871   0.01751   0.01011  -0.04391
  46 6   H  1S          0.06568  -0.12705   0.00000   0.42351   0.00000
  47        2S          0.36395   0.00605   0.00000   0.09164   0.00000
  48        3PX         0.00000   0.00000   0.02398   0.00000  -0.02499
  49        3PY        -0.00492  -0.00629   0.00000   0.02015   0.00000
  50        3PZ         0.00991  -0.01871   0.00000  -0.02022   0.00000
  51 7   H  1S          0.06568  -0.12705   0.36677  -0.21175  -0.19252
  52        2S          0.36395   0.00605   0.07937  -0.04582  -0.41868
  53        3PX        -0.00426  -0.00545   0.02110   0.00166  -0.03325
  54        3PY         0.00246   0.00315   0.00166   0.02302   0.00477
  55        3PZ         0.00991  -0.01871  -0.01751   0.01011  -0.04391
  56 8   H  1S          0.06568  -0.12705  -0.36677  -0.21175   0.19252
  57        2S          0.36395   0.00605  -0.07937  -0.04582   0.41868
  58        3PX         0.00426   0.00545   0.02110  -0.00166  -0.03325
  59        3PY         0.00246   0.00315  -0.00166   0.02302  -0.00477
  60        3PZ         0.00991  -0.01871   0.01751   0.01011   0.04391
                          21        22        23        24        25
                        (EG)--V  (A2U)--V   (EU)--V   (EU)--V  (A1G)--V
     Eigenvalues --     0.60499   0.68289   0.86386   0.86386   0.88076
   1 1   C  1S          0.00000  -0.04801  -0.00000   0.00000   0.05189
   2        2S          0.00000   0.30881  -0.00000   0.00000  -0.43594
   3        2PX         0.00000   0.00000   0.00000   0.63073   0.00000
   4        2PY        -0.63784   0.00000   0.63073   0.00000   0.00000
   5        2PZ         0.00000  -0.80162  -0.00000   0.00000  -0.34173
   6        3S         -0.00000  -0.89945   0.00000   0.00000   0.79697
   7        3PX         0.00000   0.00000   0.00000  -1.14389   0.00000
   8        3PY         1.72033   0.00000  -1.14389   0.00000  -0.00000
   9        3PZ        -0.00000   1.74774  -0.00000   0.00000   0.29873
  10        4XX         0.04247   0.03327   0.10258   0.00000   0.06932
  11        4YY        -0.04247   0.03327  -0.10258   0.00000   0.06932
  12        4ZZ         0.00000  -0.09085  -0.00000   0.00000  -0.07771
  13        4XY         0.00000   0.00000   0.00000   0.11845   0.00000
  14        4XZ         0.00000   0.00000   0.00000  -0.13678   0.00000
  15        4YZ         0.01226  -0.00000  -0.13678   0.00000  -0.00000
  16 2   H  1S         -0.22230  -0.11044  -0.48042   0.00000   0.46789
  17        2S         -0.48345  -0.28756   1.36054   0.00000  -0.46741
  18        3PX         0.00000   0.00000   0.00000   0.02054   0.00000
  19        3PY         0.03601   0.00532  -0.07395   0.00000   0.06308
  20        3PZ         0.05070  -0.02266  -0.01877   0.00000   0.00331
  21 3   C  1S          0.00000   0.04801   0.00000   0.00000   0.05189
  22        2S          0.00000  -0.30881   0.00000   0.00000  -0.43594
  23        2PX         0.00000   0.00000   0.00000   0.63073   0.00000
  24        2PY         0.63784   0.00000   0.63073   0.00000  -0.00000
  25        2PZ        -0.00000  -0.80162  -0.00000   0.00000   0.34173
  26        3S         -0.00000   0.89945  -0.00000   0.00000   0.79697
  27        3PX         0.00000   0.00000   0.00000  -1.14389   0.00000
  28        3PY        -1.72033   0.00000  -1.14389   0.00000   0.00000
  29        3PZ         0.00000   1.74774  -0.00000   0.00000  -0.29873
  30        4XX         0.04247  -0.03327  -0.10258   0.00000   0.06932
  31        4YY        -0.04247  -0.03327   0.10258   0.00000   0.06932
  32        4ZZ         0.00000   0.09085   0.00000   0.00000  -0.07771
  33        4XY         0.00000   0.00000   0.00000  -0.11845   0.00000
  34        4XZ         0.00000   0.00000   0.00000   0.13678   0.00000
  35        4YZ         0.01226   0.00000   0.13678   0.00000  -0.00000
  36 4   H  1S          0.11115  -0.11044   0.24021  -0.41606   0.46789
  37        2S          0.24173  -0.28756  -0.68027   1.17827  -0.46741
  38        3PX        -0.00477   0.00461   0.04091  -0.05032   0.05463
  39        3PY         0.02774  -0.00266  -0.00308   0.04091  -0.03154
  40        3PZ        -0.02535  -0.02266   0.00939  -0.01626   0.00331
  41 5   H  1S          0.11115  -0.11044   0.24021   0.41606   0.46789
  42        2S          0.24173  -0.28756  -0.68027  -1.17827  -0.46741
  43        3PX         0.00477  -0.00461  -0.04091  -0.05032  -0.05463
  44        3PY         0.02774  -0.00266  -0.00308  -0.04091  -0.03154
  45        3PZ        -0.02535  -0.02266   0.00939   0.01626   0.00331
  46 6   H  1S         -0.22230   0.11044   0.48042   0.00000   0.46789
  47        2S         -0.48345   0.28756  -1.36054   0.00000  -0.46741
  48        3PX         0.00000   0.00000   0.00000   0.02054   0.00000
  49        3PY        -0.03601   0.00532  -0.07395   0.00000  -0.06308
  50        3PZ        -0.05070  -0.02266  -0.01877   0.00000  -0.00331
  51 7   H  1S          0.11115   0.11044  -0.24021   0.41606   0.46789
  52        2S          0.24173   0.28756   0.68027  -1.17827  -0.46741
  53        3PX         0.00477   0.00461   0.04091  -0.05032  -0.05463
  54        3PY        -0.02774  -0.00266  -0.00308   0.04091   0.03154
  55        3PZ         0.02535  -0.02266   0.00939  -0.01626  -0.00331
  56 8   H  1S          0.11115   0.11044  -0.24021  -0.41606   0.46789
  57        2S          0.24173   0.28756   0.68027   1.17827  -0.46741
  58        3PX        -0.00477  -0.00461  -0.04091  -0.05032   0.05463
  59        3PY        -0.02774  -0.00266  -0.00308  -0.04091   0.03154
  60        3PZ         0.02535  -0.02266   0.00939   0.01626  -0.00331
                          26        27        28        29        30
                        (EG)--V   (EG)--V  (A2U)--V  (A1G)--V   (EU)--V
     Eigenvalues --     0.90823   0.90823   0.96484   1.07279   1.32198
   1 1   C  1S         -0.00000   0.00000   0.04059  -0.06577   0.00000
   2        2S         -0.00000   0.00000  -0.97089  -1.44202   0.00000
   3        2PX         0.00000   0.43075   0.00000   0.00000   0.03155
   4        2PY         0.43075   0.00000  -0.00000  -0.00000   0.00000
   5        2PZ         0.00000   0.00000  -0.25840   0.04636   0.00000
   6        3S          0.00000   0.00000   2.16987   3.17024   0.00000
   7        3PX         0.00000  -0.59659   0.00000   0.00000   0.06826
   8        3PY        -0.59659   0.00000   0.00000   0.00000   0.00000
   9        3PZ        -0.00000   0.00000   0.54673   0.45300   0.00000
  10        4XX         0.16424   0.00000   0.02421  -0.04805   0.00000
  11        4YY        -0.16424   0.00000   0.02421  -0.04805   0.00000
  12        4ZZ        -0.00000   0.00000  -0.05445  -0.14507   0.00000
  13        4XY         0.00000   0.18965   0.00000   0.00000   0.25166
  14        4XZ         0.00000  -0.05136   0.00000   0.00000   0.43521
  15        4YZ        -0.05136   0.00000   0.00000   0.00000   0.00000
  16 2   H  1S         -0.62500   0.00000   0.38221  -0.19639   0.00000
  17        2S          1.03419   0.00000  -0.88136  -0.77106   0.00000
  18        3PX         0.00000   0.06126   0.00000   0.00000   0.18331
  19        3PY        -0.05732   0.00000   0.06368   0.01095   0.00000
  20        3PZ        -0.03080   0.00000   0.01670  -0.01930   0.00000
  21 3   C  1S         -0.00000   0.00000  -0.04059  -0.06577   0.00000
  22        2S         -0.00000   0.00000   0.97089  -1.44202   0.00000
  23        2PX         0.00000  -0.43075   0.00000   0.00000   0.03155
  24        2PY        -0.43075   0.00000  -0.00000   0.00000   0.00000
  25        2PZ        -0.00000   0.00000  -0.25840  -0.04636   0.00000
  26        3S          0.00000   0.00000  -2.16987   3.17024   0.00000
  27        3PX         0.00000   0.59659   0.00000   0.00000   0.06826
  28        3PY         0.59659   0.00000   0.00000  -0.00000   0.00000
  29        3PZ         0.00000   0.00000   0.54673  -0.45300   0.00000
  30        4XX         0.16424   0.00000  -0.02421  -0.04805   0.00000
  31        4YY        -0.16424   0.00000  -0.02421  -0.04805   0.00000
  32        4ZZ        -0.00000   0.00000   0.05445  -0.14507   0.00000
  33        4XY         0.00000   0.18965   0.00000   0.00000  -0.25166
  34        4XZ         0.00000  -0.05136   0.00000   0.00000  -0.43521
  35        4YZ        -0.05136   0.00000  -0.00000   0.00000   0.00000
  36 4   H  1S          0.31250  -0.54126   0.38221  -0.19639  -0.05640
  37        2S         -0.51709   0.89563  -0.88136  -0.77106  -0.02683
  38        3PX         0.05135  -0.02768   0.05515   0.00948  -0.00038
  39        3PY         0.03161   0.05135  -0.03184  -0.00547   0.10605
  40        3PZ         0.01540  -0.02668   0.01670  -0.01930   0.12732
  41 5   H  1S          0.31250   0.54126   0.38221  -0.19639   0.05640
  42        2S         -0.51709  -0.89563  -0.88136  -0.77106   0.02683
  43        3PX        -0.05135  -0.02768  -0.05515  -0.00948  -0.00038
  44        3PY         0.03161  -0.05135  -0.03184  -0.00547  -0.10605
  45        3PZ         0.01540   0.02668   0.01670  -0.01930  -0.12732
  46 6   H  1S         -0.62500   0.00000  -0.38221  -0.19639   0.00000
  47        2S          1.03419   0.00000   0.88136  -0.77106   0.00000
  48        3PX         0.00000  -0.06126   0.00000   0.00000   0.18331
  49        3PY         0.05732   0.00000   0.06368  -0.01095   0.00000
  50        3PZ         0.03080   0.00000   0.01670   0.01930   0.00000
  51 7   H  1S          0.31250  -0.54126  -0.38221  -0.19639   0.05640
  52        2S         -0.51709   0.89563   0.88136  -0.77106   0.02683
  53        3PX        -0.05135   0.02768   0.05515  -0.00948  -0.00038
  54        3PY        -0.03161  -0.05135  -0.03184   0.00547   0.10605
  55        3PZ        -0.01540   0.02668   0.01670   0.01930   0.12732
  56 8   H  1S          0.31250   0.54126  -0.38221  -0.19639  -0.05640
  57        2S         -0.51709  -0.89563   0.88136  -0.77106  -0.02683
  58        3PX         0.05135   0.02768  -0.05515   0.00948  -0.00038
  59        3PY        -0.03161   0.05135  -0.03184   0.00547  -0.10605
  60        3PZ        -0.01540  -0.02668   0.01670   0.01930  -0.12732
                          31        32        33        34        35
                        (EU)--V  (A2U)--V   (EG)--V   (EG)--V  (A1G)--V
     Eigenvalues --     1.32198   1.44938   1.70797   1.70797   1.91053
   1 1   C  1S         -0.00000  -0.13869   0.00000   0.00000   0.01987
   2        2S         -0.00000  -1.55482   0.00000  -0.00000  -0.40924
   3        2PX         0.00000   0.00000  -0.07922   0.00000   0.00000
   4        2PY         0.03155  -0.00000   0.00000  -0.07922  -0.00000
   5        2PZ        -0.00000  -0.00135   0.00000   0.00000   0.30838
   6        3S          0.00000   6.14415   0.00000   0.00000   0.15341
   7        3PX         0.00000   0.00000   0.71276   0.00000   0.00000
   8        3PY         0.06826   0.00000   0.00000   0.71276   0.00000
   9        3PZ        -0.00000  -1.73561   0.00000   0.00000  -0.42628
  10        4XX         0.21794  -0.09030   0.00000  -0.23129  -0.25450
  11        4YY        -0.21794  -0.09030   0.00000   0.23129  -0.25450
  12        4ZZ        -0.00000   0.00433   0.00000   0.00000   0.61031
  13        4XY         0.00000   0.00000  -0.26707   0.00000   0.00000
  14        4XZ         0.00000   0.00000  -0.37872   0.00000   0.00000
  15        4YZ         0.43521  -0.00000   0.00000  -0.37872  -0.00000
  16 2   H  1S         -0.06512  -0.47559   0.00000  -0.15274   0.15693
  17        2S         -0.03098  -0.43612   0.00000  -0.25554  -0.08270
  18        3PX         0.00000   0.00000  -0.06144   0.00000   0.00000
  19        3PY        -0.06161  -0.00470   0.00000   0.11449   0.04446
  20        3PZ         0.14702   0.00683   0.00000  -0.33829   0.12960
  21 3   C  1S          0.00000   0.13869   0.00000   0.00000   0.01987
  22        2S          0.00000   1.55482   0.00000  -0.00000  -0.40924
  23        2PX         0.00000   0.00000   0.07922   0.00000   0.00000
  24        2PY         0.03155  -0.00000   0.00000   0.07922   0.00000
  25        2PZ        -0.00000  -0.00135   0.00000  -0.00000  -0.30838
  26        3S         -0.00000  -6.14415   0.00000   0.00000   0.15341
  27        3PX         0.00000   0.00000  -0.71276   0.00000   0.00000
  28        3PY         0.06826   0.00000   0.00000  -0.71276  -0.00000
  29        3PZ        -0.00000  -1.73561   0.00000  -0.00000   0.42628
  30        4XX        -0.21794   0.09030   0.00000  -0.23129  -0.25450
  31        4YY         0.21794   0.09030   0.00000   0.23129  -0.25450
  32        4ZZ         0.00000  -0.00433   0.00000   0.00000   0.61031
  33        4XY         0.00000   0.00000  -0.26707   0.00000   0.00000
  34        4XZ         0.00000   0.00000  -0.37872   0.00000   0.00000
  35        4YZ        -0.43521   0.00000   0.00000  -0.37872  -0.00000
  36 4   H  1S          0.03256  -0.47559  -0.13227   0.07637   0.15693
  37        2S          0.01549  -0.43612  -0.22130   0.12777  -0.08270
  38        3PX         0.10605  -0.00407   0.07051  -0.07618   0.03851
  39        3PY         0.12208   0.00235  -0.07618  -0.01746  -0.02223
  40        3PZ        -0.07351   0.00683  -0.29297   0.16915   0.12960
  41 5   H  1S          0.03256  -0.47559   0.13227   0.07637   0.15693
  42        2S          0.01549  -0.43612   0.22130   0.12777  -0.08270
  43        3PX        -0.10605   0.00407   0.07051   0.07618  -0.03851
  44        3PY         0.12208   0.00235   0.07618  -0.01746  -0.02223
  45        3PZ        -0.07351   0.00683   0.29297   0.16915   0.12960
  46 6   H  1S          0.06512   0.47559   0.00000  -0.15274   0.15693
  47        2S          0.03098   0.43612   0.00000  -0.25554  -0.08270
  48        3PX         0.00000   0.00000   0.06144   0.00000   0.00000
  49        3PY        -0.06161  -0.00470   0.00000  -0.11449  -0.04446
  50        3PZ         0.14702   0.00683   0.00000   0.33829  -0.12960
  51 7   H  1S         -0.03256   0.47559  -0.13227   0.07637   0.15693
  52        2S         -0.01549   0.43612  -0.22130   0.12777  -0.08270
  53        3PX         0.10605  -0.00407  -0.07051   0.07618  -0.03851
  54        3PY         0.12208   0.00235   0.07618   0.01746   0.02223
  55        3PZ        -0.07351   0.00683   0.29297  -0.16915  -0.12960
  56 8   H  1S         -0.03256   0.47559   0.13227   0.07637   0.15693
  57        2S         -0.01549   0.43612   0.22130   0.12777  -0.08270
  58        3PX        -0.10605   0.00407  -0.07051  -0.07618   0.03851
  59        3PY         0.12208   0.00235  -0.07618   0.01746   0.02223
  60        3PZ        -0.07351   0.00683  -0.29297  -0.16915  -0.12960
                          36        37        38        39        40
                       (A1U)--V  (A2G)--V   (EG)--V   (EG)--V   (EU)--V
     Eigenvalues --     2.05001   2.05098   2.06081   2.06081   2.07317
   1 1   C  1S          0.00000   0.00000   0.00000   0.00000   0.00000
   2        2S          0.00000   0.00000   0.00000  -0.00000   0.00000
   3        2PX        -0.00000  -0.00000  -0.08673   0.00000   0.07970
   4        2PY         0.00000   0.00000   0.00000  -0.08673   0.00000
   5        2PZ         0.00000   0.00000   0.00000   0.00000   0.00000
   6        3S          0.00000   0.00000   0.00000   0.00000   0.00000
   7        3PX         0.00000   0.00000   0.74405   0.00000  -0.28758
   8        3PY         0.00000   0.00000   0.00000   0.74405   0.00000
   9        3PZ         0.00000   0.00000   0.00000   0.00000   0.00000
  10        4XX         0.00000   0.00000   0.00000  -0.41081   0.00000
  11        4YY         0.00000   0.00000   0.00000   0.41081   0.00000
  12        4ZZ         0.00000   0.00000   0.00000   0.00000   0.00000
  13        4XY        -0.00000  -0.00000  -0.47437   0.00000   0.36229
  14        4XZ         0.00000   0.00000   0.15026   0.00000  -0.32966
  15        4YZ         0.00000   0.00000   0.00000   0.15026   0.00000
  16 2   H  1S          0.00000   0.00000   0.00000  -0.46725   0.00000
  17        2S          0.00000   0.00000   0.00000  -0.03432   0.00000
  18        3PX         0.41123   0.41124  -0.18757   0.00000   0.19806
  19        3PY         0.00000   0.00000   0.00000  -0.25302   0.00000
  20        3PZ         0.00000   0.00000   0.00000   0.11533   0.00000
  21 3   C  1S          0.00000   0.00000   0.00000   0.00000   0.00000
  22        2S          0.00000   0.00000   0.00000  -0.00000   0.00000
  23        2PX        -0.00000   0.00000   0.08673   0.00000   0.07970
  24        2PY         0.00000   0.00000   0.00000   0.08673   0.00000
  25        2PZ         0.00000   0.00000   0.00000  -0.00000   0.00000
  26        3S          0.00000   0.00000   0.00000   0.00000   0.00000
  27        3PX         0.00000  -0.00000  -0.74405   0.00000  -0.28758
  28        3PY         0.00000   0.00000   0.00000  -0.74405   0.00000
  29        3PZ         0.00000   0.00000   0.00000  -0.00000   0.00000
  30        4XX         0.00000   0.00000   0.00000  -0.41081   0.00000
  31        4YY         0.00000   0.00000   0.00000   0.41081   0.00000
  32        4ZZ         0.00000   0.00000   0.00000   0.00000   0.00000
  33        4XY         0.00000  -0.00000  -0.47437   0.00000  -0.36229
  34        4XZ        -0.00000   0.00000   0.15026   0.00000   0.32966
  35        4YZ         0.00000   0.00000   0.00000   0.15026   0.00000
  36 4   H  1S         -0.00000  -0.00000  -0.40465   0.23362   0.34176
  37        2S         -0.00000  -0.00000  -0.02972   0.01716  -0.07205
  38        3PX        -0.20561  -0.20562  -0.23666   0.02834   0.23741
  39        3PY        -0.35613  -0.35615   0.02834  -0.20394  -0.02272
  40        3PZ         0.00000   0.00000   0.09988  -0.05767   0.06735
  41 5   H  1S          0.00000   0.00000   0.40465   0.23362  -0.34176
  42        2S          0.00000   0.00000   0.02972   0.01716   0.07205
  43        3PX        -0.20561  -0.20562  -0.23666  -0.02834   0.23741
  44        3PY         0.35613   0.35615  -0.02834  -0.20394   0.02272
  45        3PZ        -0.00000  -0.00000  -0.09988  -0.05767  -0.06735
  46 6   H  1S          0.00000   0.00000   0.00000  -0.46725   0.00000
  47        2S          0.00000   0.00000   0.00000  -0.03432   0.00000
  48        3PX         0.41123  -0.41124   0.18757   0.00000   0.19806
  49        3PY         0.00000   0.00000   0.00000   0.25302   0.00000
  50        3PZ         0.00000   0.00000   0.00000  -0.11533   0.00000
  51 7   H  1S          0.00000  -0.00000  -0.40465   0.23362  -0.34176
  52        2S          0.00000  -0.00000  -0.02972   0.01716   0.07205
  53        3PX        -0.20561   0.20562   0.23666  -0.02834   0.23741
  54        3PY        -0.35613   0.35615  -0.02834   0.20394  -0.02272
  55        3PZ         0.00000  -0.00000  -0.09988   0.05767   0.06735
  56 8   H  1S         -0.00000   0.00000   0.40465   0.23362   0.34176
  57        2S         -0.00000   0.00000   0.02972   0.01716  -0.07205
  58        3PX        -0.20561   0.20562   0.23666   0.02834   0.23741
  59        3PY         0.35613  -0.35615   0.02834   0.20394   0.02272
  60        3PZ        -0.00000   0.00000   0.09988   0.05767  -0.06735
                          41        42        43        44        45
                        (EU)--V   (EU)--V   (EU)--V  (A2U)--V   (EG)--V
     Eigenvalues --     2.07317   2.30097   2.30097   2.33894   2.51169
   1 1   C  1S         -0.00000   0.00000   0.00000  -0.07532   0.00000
   2        2S          0.00000   0.00000  -0.00000   0.05845   0.00000
   3        2PX         0.00000  -0.09695   0.00000   0.00000   0.15164
   4        2PY         0.07970   0.00000  -0.09695  -0.00000   0.00000
   5        2PZ         0.00000   0.00000   0.00000  -0.29850   0.00000
   6        3S          0.00000   0.00000  -0.00000   1.81131   0.00000
   7        3PX         0.00000   0.36582   0.00000   0.00000   0.63236
   8        3PY        -0.28758   0.00000   0.36582   0.00000   0.00000
   9        3PZ        -0.00000   0.00000   0.00000  -1.34124   0.00000
  10        4XX         0.31375   0.00000   0.01957  -0.27295   0.00000
  11        4YY        -0.31375   0.00000  -0.01957  -0.27295   0.00000
  12        4ZZ        -0.00000   0.00000  -0.00000   0.47574   0.00000
  13        4XY         0.00000   0.02260   0.00000   0.00000   0.17923
  14        4XZ         0.00000  -0.23793   0.00000   0.00000  -0.39920
  15        4YZ        -0.32966   0.00000  -0.23793  -0.00000   0.00000
  16 2   H  1S          0.39463   0.00000   0.04284   0.00283   0.00000
  17        2S         -0.08319   0.00000  -0.29818   0.02346   0.00000
  18        3PX         0.00000  -0.21234   0.00000   0.00000  -0.46614
  19        3PY         0.25052   0.00000  -0.19094  -0.01161   0.00000
  20        3PZ         0.07777   0.00000   0.52684   0.35633   0.00000
  21 3   C  1S          0.00000   0.00000  -0.00000   0.07532   0.00000
  22        2S         -0.00000   0.00000   0.00000  -0.05845   0.00000
  23        2PX         0.00000  -0.09695   0.00000   0.00000  -0.15164
  24        2PY         0.07970   0.00000  -0.09695  -0.00000   0.00000
  25        2PZ         0.00000   0.00000   0.00000  -0.29850   0.00000
  26        3S         -0.00000   0.00000   0.00000  -1.81131   0.00000
  27        3PX         0.00000   0.36582   0.00000   0.00000  -0.63236
  28        3PY        -0.28758   0.00000   0.36582   0.00000   0.00000
  29        3PZ        -0.00000   0.00000   0.00000  -1.34124   0.00000
  30        4XX        -0.31375   0.00000  -0.01957   0.27295   0.00000
  31        4YY         0.31375   0.00000   0.01957   0.27295   0.00000
  32        4ZZ         0.00000   0.00000   0.00000  -0.47574   0.00000
  33        4XY         0.00000  -0.02260   0.00000   0.00000   0.17923
  34        4XZ         0.00000   0.23793   0.00000   0.00000  -0.39920
  35        4YZ         0.32966   0.00000   0.23793   0.00000   0.00000
  36 4   H  1S         -0.19732   0.03710  -0.02142   0.00283   0.00943
  37        2S          0.04160  -0.25823   0.14909   0.02346  -0.31576
  38        3PX        -0.02272  -0.19629  -0.00927  -0.01005  -0.07600
  39        3PY         0.21118  -0.00927  -0.20699   0.00580  -0.22525
  40        3PZ        -0.03888   0.45626  -0.26342   0.35633   0.26055
  41 5   H  1S         -0.19732  -0.03710  -0.02142   0.00283  -0.00943
  42        2S          0.04160   0.25823   0.14909   0.02346   0.31576
  43        3PX         0.02272  -0.19629   0.00927   0.01005  -0.07600
  44        3PY         0.21118   0.00927  -0.20699   0.00580   0.22525
  45        3PZ        -0.03888  -0.45626  -0.26342   0.35633  -0.26055
  46 6   H  1S         -0.39463   0.00000  -0.04284  -0.00283   0.00000
  47        2S          0.08319   0.00000   0.29818  -0.02346   0.00000
  48        3PX         0.00000  -0.21234   0.00000   0.00000   0.46614
  49        3PY         0.25052   0.00000  -0.19094  -0.01161   0.00000
  50        3PZ         0.07777   0.00000   0.52684   0.35633   0.00000
  51 7   H  1S          0.19732  -0.03710   0.02142  -0.00283   0.00943
  52        2S         -0.04160   0.25823  -0.14909  -0.02346  -0.31576
  53        3PX        -0.02272  -0.19629  -0.00927  -0.01005   0.07600
  54        3PY         0.21118  -0.00927  -0.20699   0.00580   0.22525
  55        3PZ        -0.03888   0.45626  -0.26342   0.35633  -0.26055
  56 8   H  1S          0.19732   0.03710   0.02142  -0.00283  -0.00943
  57        2S         -0.04160  -0.25823  -0.14909  -0.02346   0.31576
  58        3PX         0.02272  -0.19629   0.00927   0.01005   0.07600
  59        3PY         0.21118   0.00927  -0.20699   0.00580  -0.22525
  60        3PZ        -0.03888  -0.45626  -0.26342   0.35633   0.26055
                          46        47        48        49        50
                        (EG)--V  (A1G)--V  (A2U)--V   (EU)--V   (EU)--V
     Eigenvalues --     2.51169   2.67585   2.72689   2.81802   2.81802
   1 1   C  1S         -0.00000   0.01553  -0.04069   0.00000  -0.00000
   2        2S         -0.00000  -0.15046   0.24164   0.00000   0.00000
   3        2PX         0.00000   0.00000   0.00000  -0.15072   0.00000
   4        2PY         0.15164   0.00000  -0.00000   0.00000   0.15072
   5        2PZ         0.00000  -0.06185  -0.12467   0.00000  -0.00000
   6        3S          0.00000  -0.28625   0.28841   0.00000   0.00000
   7        3PX         0.00000   0.00000   0.00000  -0.29340   0.00000
   8        3PY         0.63236   0.00000  -0.00000   0.00000   0.29340
   9        3PZ         0.00000  -0.37423   0.20099   0.00000   0.00000
  10        4XX         0.15522   0.20186  -0.33941   0.00000   0.37926
  11        4YY        -0.15522   0.20186  -0.33941   0.00000  -0.37926
  12        4ZZ         0.00000  -0.23441   0.69778   0.00000   0.00000
  13        4XY         0.00000   0.00000   0.00000  -0.43794   0.00000
  14        4XZ         0.00000   0.00000   0.00000  -0.30398   0.00000
  15        4YZ        -0.39920  -0.00000  -0.00000   0.00000   0.30398
  16 2   H  1S          0.01088   0.00173   0.03288   0.00000  -0.00665
  17        2S         -0.36460   0.09522  -0.16703   0.00000  -0.28431
  18        3PX         0.00000   0.00000   0.00000   0.55115   0.00000
  19        3PY         0.05405  -0.18019   0.24507   0.00000   0.21444
  20        3PZ         0.30086   0.42062  -0.25627   0.00000  -0.10939
  21 3   C  1S         -0.00000   0.01553   0.04069   0.00000   0.00000
  22        2S         -0.00000  -0.15046  -0.24164   0.00000  -0.00000
  23        2PX         0.00000   0.00000   0.00000  -0.15072   0.00000
  24        2PY        -0.15164  -0.00000  -0.00000   0.00000   0.15072
  25        2PZ        -0.00000   0.06185  -0.12467   0.00000  -0.00000
  26        3S          0.00000  -0.28625  -0.28841   0.00000  -0.00000
  27        3PX         0.00000   0.00000   0.00000  -0.29340   0.00000
  28        3PY        -0.63236  -0.00000  -0.00000   0.00000   0.29340
  29        3PZ        -0.00000   0.37423   0.20099   0.00000   0.00000
  30        4XX         0.15522   0.20186   0.33941   0.00000  -0.37926
  31        4YY        -0.15522   0.20186   0.33941   0.00000   0.37926
  32        4ZZ         0.00000  -0.23441  -0.69778   0.00000  -0.00000
  33        4XY         0.00000   0.00000   0.00000   0.43794   0.00000
  34        4XZ         0.00000   0.00000   0.00000   0.30398   0.00000
  35        4YZ        -0.39920  -0.00000   0.00000   0.00000  -0.30398
  36 4   H  1S         -0.00544   0.00173   0.03288   0.00576   0.00333
  37        2S          0.18230   0.09522  -0.16703   0.24622   0.14216
  38        3PX        -0.22525  -0.15605   0.21224  -0.02305  -0.33151
  39        3PY        -0.33609   0.09009  -0.12254   0.33151  -0.35975
  40        3PZ        -0.15043   0.42062  -0.25627   0.09473   0.05469
  41 5   H  1S         -0.00544   0.00173   0.03288  -0.00576   0.00333
  42        2S          0.18230   0.09522  -0.16703  -0.24622   0.14216
  43        3PX         0.22525   0.15605  -0.21224  -0.02305   0.33151
  44        3PY        -0.33609   0.09009  -0.12254  -0.33151  -0.35975
  45        3PZ        -0.15043   0.42062  -0.25627  -0.09473   0.05469
  46 6   H  1S          0.01088   0.00173  -0.03288   0.00000   0.00665
  47        2S         -0.36460   0.09522   0.16703   0.00000   0.28431
  48        3PX         0.00000   0.00000   0.00000   0.55115   0.00000
  49        3PY        -0.05405   0.18019   0.24507   0.00000   0.21444
  50        3PZ        -0.30086  -0.42062  -0.25627   0.00000  -0.10939
  51 7   H  1S         -0.00544   0.00173  -0.03288  -0.00576  -0.00333
  52        2S          0.18230   0.09522   0.16703  -0.24622  -0.14216
  53        3PX         0.22525   0.15605   0.21224  -0.02305  -0.33151
  54        3PY         0.33609  -0.09009  -0.12254   0.33151  -0.35975
  55        3PZ         0.15043  -0.42062  -0.25627   0.09473   0.05469
  56 8   H  1S         -0.00544   0.00173  -0.03288   0.00576  -0.00333
  57        2S          0.18230   0.09522   0.16703   0.24622  -0.14216
  58        3PX        -0.22525  -0.15605  -0.21224  -0.02305   0.33151
  59        3PY         0.33609  -0.09009  -0.12254  -0.33151  -0.35975
  60        3PZ         0.15043  -0.42062  -0.25627  -0.09473   0.05469
                          51        52        53        54        55
                        (EG)--V   (EG)--V  (A1G)--V  (A2U)--V   (EG)--V
     Eigenvalues --     2.94281   2.94281   3.17793   3.27033   3.38031
   1 1   C  1S          0.00000  -0.00000  -0.08354   0.06976   0.00000
   2        2S          0.00000   0.00000   0.63062  -0.60682   0.00000
   3        2PX        -0.21008   0.00000   0.00000   0.00000   0.62016
   4        2PY         0.00000  -0.21008  -0.00000   0.00000   0.00000
   5        2PZ         0.00000  -0.00000   0.24818  -0.46885   0.00000
   6        3S          0.00000  -0.00000   0.62861  -0.36311   0.00000
   7        3PX         0.22838   0.00000   0.00000   0.00000   0.45671
   8        3PY         0.00000   0.22838   0.00000   0.00000   0.00000
   9        3PZ         0.00000  -0.00000   0.14768  -0.48026   0.00000
  10        4XX         0.00000   0.40703   0.14600  -0.24303   0.00000
  11        4YY         0.00000  -0.40703   0.14600  -0.24303   0.00000
  12        4ZZ         0.00000  -0.00000  -0.36560   0.76710   0.00000
  13        4XY         0.47000   0.00000   0.00000   0.00000  -0.55650
  14        4XZ         0.45480   0.00000   0.00000   0.00000   0.61538
  15        4YZ         0.00000   0.45480  -0.00000   0.00000   0.00000
  16 2   H  1S          0.00000   0.05195  -0.25565   0.24799   0.00000
  17        2S          0.00000  -0.04316  -0.23020   0.30399   0.00000
  18        3PX        -0.42576   0.00000   0.00000   0.00000  -0.08123
  19        3PY         0.00000  -0.07374   0.50488  -0.48509   0.00000
  20        3PZ         0.00000  -0.40679   0.19700  -0.18351   0.00000
  21 3   C  1S          0.00000  -0.00000  -0.08354  -0.06976   0.00000
  22        2S          0.00000   0.00000   0.63062   0.60682   0.00000
  23        2PX         0.21008   0.00000   0.00000   0.00000  -0.62016
  24        2PY         0.00000   0.21008   0.00000   0.00000   0.00000
  25        2PZ         0.00000   0.00000  -0.24818  -0.46885   0.00000
  26        3S          0.00000  -0.00000   0.62861   0.36311   0.00000
  27        3PX        -0.22838   0.00000   0.00000   0.00000  -0.45671
  28        3PY         0.00000  -0.22838  -0.00000   0.00000   0.00000
  29        3PZ         0.00000   0.00000  -0.14768  -0.48026   0.00000
  30        4XX         0.00000   0.40703   0.14600   0.24303   0.00000
  31        4YY         0.00000  -0.40703   0.14600   0.24303   0.00000
  32        4ZZ         0.00000  -0.00000  -0.36560  -0.76710   0.00000
  33        4XY         0.47000   0.00000   0.00000   0.00000  -0.55650
  34        4XZ         0.45480   0.00000   0.00000   0.00000   0.61538
  35        4YZ         0.00000   0.45480  -0.00000  -0.00000   0.00000
  36 4   H  1S          0.04499  -0.02597  -0.25565   0.24799  -0.46690
  37        2S         -0.03738   0.02158  -0.23020   0.30399  -0.31810
  38        3PX        -0.16174  -0.15243   0.43724  -0.42010   0.56380
  39        3PY        -0.15243  -0.33776  -0.25244   0.24255  -0.37241
  40        3PZ        -0.35229   0.20339   0.19700  -0.18351   0.13183
  41 5   H  1S         -0.04499  -0.02597  -0.25565   0.24799   0.46690
  42        2S          0.03738   0.02158  -0.23020   0.30399   0.31810
  43        3PX        -0.16174   0.15243  -0.43724   0.42010   0.56380
  44        3PY         0.15243  -0.33776  -0.25244   0.24255   0.37241
  45        3PZ         0.35229   0.20339   0.19700  -0.18351  -0.13183
  46 6   H  1S          0.00000   0.05195  -0.25565  -0.24799   0.00000
  47        2S          0.00000  -0.04316  -0.23020  -0.30399   0.00000
  48        3PX         0.42576   0.00000   0.00000   0.00000   0.08123
  49        3PY         0.00000   0.07374  -0.50488  -0.48509   0.00000
  50        3PZ         0.00000   0.40679  -0.19700  -0.18351   0.00000
  51 7   H  1S          0.04499  -0.02597  -0.25565  -0.24799  -0.46690
  52        2S         -0.03738   0.02158  -0.23020  -0.30399  -0.31810
  53        3PX         0.16174   0.15243  -0.43724  -0.42010  -0.56380
  54        3PY         0.15243   0.33776   0.25244   0.24255   0.37241
  55        3PZ         0.35229  -0.20339  -0.19700  -0.18351  -0.13183
  56 8   H  1S         -0.04499  -0.02597  -0.25565  -0.24799   0.46690
  57        2S          0.03738   0.02158  -0.23020  -0.30399   0.31810
  58        3PX         0.16174  -0.15243   0.43724   0.42010  -0.56380
  59        3PY        -0.15243   0.33776   0.25244   0.24255  -0.37241
  60        3PZ        -0.35229  -0.20339  -0.19700  -0.18351   0.13183
                          56        57        58        59        60
                        (EG)--V   (EU)--V   (EU)--V  (A1G)--V  (A2U)--V
     Eigenvalues --     3.38031   3.54810   3.54810   4.33524   4.59535
   1 1   C  1S          0.00000   0.00000   0.00000  -0.34668  -0.34810
   2        2S         -0.00000   0.00000  -0.00000   1.95638   1.93973
   3        2PX         0.00000  -0.62627   0.00000   0.00000   0.00000
   4        2PY         0.62016   0.00000   0.62627   0.00000   0.00000
   5        2PZ         0.00000   0.00000   0.00000  -0.14975  -0.01529
   6        3S          0.00000   0.00000   0.00000   1.27021   2.36881
   7        3PX         0.00000  -0.44266   0.00000   0.00000   0.00000
   8        3PY         0.45671   0.00000   0.44266   0.00000   0.00000
   9        3PZ         0.00000   0.00000   0.00000   0.03264  -0.41957
  10        4XX        -0.48195   0.00000  -0.66841  -1.50541  -1.49357
  11        4YY         0.48195   0.00000   0.66841  -1.50541  -1.49357
  12        4ZZ         0.00000   0.00000   0.00000  -1.17757  -1.50286
  13        4XY         0.00000   0.77182   0.00000   0.00000   0.00000
  14        4XZ         0.00000  -0.43263   0.00000   0.00000   0.00000
  15        4YZ         0.61538   0.00000   0.43263   0.00000   0.00000
  16 2   H  1S         -0.53913   0.00000  -0.58279   0.20907   0.14813
  17        2S         -0.36731   0.00000  -0.43229  -0.28779  -0.26244
  18        3PX         0.00000  -0.04167   0.00000   0.00000   0.00000
  19        3PY         0.77882   0.00000   0.74386  -0.21920  -0.22794
  20        3PZ         0.15222   0.00000   0.33545  -0.03697  -0.08624
  21 3   C  1S          0.00000   0.00000  -0.00000  -0.34668   0.34810
  22        2S         -0.00000   0.00000   0.00000   1.95638  -1.93973
  23        2PX         0.00000  -0.62627   0.00000   0.00000   0.00000
  24        2PY        -0.62016   0.00000   0.62627  -0.00000   0.00000
  25        2PZ        -0.00000   0.00000   0.00000   0.14975  -0.01529
[...]
     22 -0.344654D-03 -0.709794D-03 -0.597334D-02 -0.716547D-03  0.290371D-02
     23  0.767413D-03 -0.254146D-03 -0.716547D-03  0.157090D-02 -0.971828D-04
     24  0.254146D-03  0.164557D-03  0.290371D-02 -0.971828D-04  0.313991D-04
               16            17            18            19            20 
     16  0.525414D-01
     17  0.000000D+00  0.473844D-01
     18 -0.663635D-02  0.000000D+00  0.338188D+00
     19 -0.204569D-03  0.115858D-02 -0.199189D-03  0.120803D+00
     20  0.144967D-02  0.782932D-03  0.384087D-03  0.114302D+00  0.238555D+00
     21 -0.160023D-01 -0.278110D-01 -0.959633D-02  0.440382D-01  0.766556D-01
     22 -0.204569D-03 -0.115858D-02 -0.199189D-03  0.851499D-02 -0.130487D-01
     23 -0.144967D-02  0.782932D-03 -0.384087D-03  0.130487D-01 -0.208581D-01
     24 -0.160023D-01  0.278110D-01 -0.959633D-02  0.651479D-02 -0.953558D-02
               21            22            23            24 
     21  0.787564D-01
     22  0.651479D-02  0.120803D+00
     23  0.953558D-02 -0.114302D+00  0.238555D+00
     24  0.332517D-02  0.440382D-01 -0.766556D-01  0.787564D-01
 Force constants in internal coordinates: 
                1             2             3             4             5 
      1  0.338308D+00
      2  0.561574D-02  0.287896D+00
      3  0.270966D-02  0.561558D-02  0.338308D+00
      4  0.270966D-02  0.561558D-02  0.270984D-02  0.338308D+00
      5 -0.109572D-02  0.561574D-02  0.582396D-03  0.582396D-03  0.338308D+00
      6  0.582396D-03  0.561558D-02 -0.109514D-02  0.582204D-03  0.270966D-02
      7  0.582396D-03  0.561558D-02  0.582204D-03 -0.109514D-02  0.270966D-02
      8  0.216533D-03  0.152261D-01 -0.541809D-02 -0.541809D-02  0.394920D-02
      9  0.554130D-02 -0.162413D-01  0.554176D-02  0.244257D-03 -0.109419D-02
     10  0.554130D-02 -0.162413D-01  0.244257D-03  0.554176D-02 -0.109419D-02
     11 -0.541772D-02  0.152264D-01  0.216353D-03 -0.541805D-02 -0.108157D-02
     12 -0.541772D-02  0.152264D-01 -0.541805D-02  0.216353D-03 -0.108157D-02
     13  0.244117D-03 -0.162410D-01  0.554164D-02  0.554164D-02  0.283269D-03
     14  0.394920D-02  0.152261D-01 -0.108132D-02 -0.108132D-02  0.216533D-03
     15 -0.108157D-02  0.152264D-01  0.394927D-02 -0.108117D-02 -0.541772D-02
     16 -0.108157D-02  0.152264D-01 -0.108117D-02  0.394927D-02 -0.541772D-02
     17 -0.109419D-02 -0.162413D-01 -0.109453D-02  0.283130D-03  0.554130D-02
     18 -0.109419D-02 -0.162413D-01  0.283130D-03 -0.109453D-02  0.554130D-02
     19  0.283269D-03 -0.162410D-01 -0.109448D-02 -0.109448D-02  0.244117D-03
     20  0.000000D+00  0.000000D+00  0.296039D-02 -0.296039D-02  0.000000D+00
     21  0.552368D-03  0.000000D+00  0.351254D-02 -0.406486D-02  0.351243D-02
     22 -0.552368D-03  0.000000D+00  0.406486D-02 -0.351254D-02 -0.351243D-02
     23 -0.351243D-02  0.000000D+00 -0.552249D-03  0.406477D-02 -0.552368D-03
     24 -0.296007D-02  0.000000D+00  0.000000D+00  0.296031D-02  0.296007D-02
     25 -0.406480D-02  0.000000D+00  0.552217D-03  0.351262D-02 -0.406480D-02
     26  0.351243D-02  0.000000D+00 -0.406477D-02  0.552249D-03  0.552368D-03
     27  0.406480D-02  0.000000D+00 -0.351262D-02 -0.552217D-03  0.406480D-02
     28  0.296007D-02  0.000000D+00 -0.296031D-02  0.000000D+00 -0.296007D-02
                6             7             8             9            10 
      6  0.338308D+00
      7  0.270984D-02  0.338308D+00
      8 -0.108132D-02 -0.108132D-02  0.103070D+00
      9 -0.109453D-02  0.283130D-03 -0.404531D-01  0.524712D-01
     10  0.283130D-03 -0.109453D-02 -0.404531D-01  0.943033D-02  0.524712D-01
     11  0.394927D-02 -0.108117D-02 -0.201874D-01 -0.404534D-01  0.140322D-01
     12 -0.108117D-02  0.394927D-02 -0.201874D-01  0.140322D-01 -0.404534D-01
     13 -0.109448D-02 -0.109448D-02  0.140322D-01  0.943026D-02  0.943026D-02
     14 -0.541809D-02 -0.541809D-02  0.174545D-01 -0.392743D-02 -0.392743D-02
     15  0.216353D-03 -0.541805D-02 -0.712605D-02 -0.392758D-02  0.443909D-02
     16 -0.541805D-02  0.216353D-03 -0.712605D-02  0.443909D-02 -0.392758D-02
     17  0.554176D-02  0.244257D-03 -0.392743D-02  0.300076D-02  0.321352D-03
     18  0.244257D-03  0.554176D-02 -0.392743D-02  0.321352D-03  0.300076D-02
     19  0.554164D-02  0.554164D-02  0.443900D-02  0.321488D-03  0.321488D-03
     20 -0.296039D-02  0.296039D-02  0.000000D+00  0.666981D-02 -0.666981D-02
     21  0.552249D-03 -0.406477D-02  0.200669D-02  0.516128D-02 -0.591558D-02
     22  0.406477D-02 -0.552249D-03 -0.200669D-02  0.591558D-02 -0.516128D-02
     23 -0.351254D-02  0.406486D-02 -0.476012D-02 -0.516141D-02 -0.754358D-03
     24  0.000000D+00 -0.296031D-02 -0.275343D-02 -0.666994D-02  0.000000D+00
     25  0.351262D-02  0.552217D-03 -0.676681D-02 -0.591564D-02  0.754167D-03
     26 -0.406486D-02  0.351254D-02  0.476012D-02  0.754358D-03  0.516141D-02
     27 -0.552217D-03 -0.351262D-02  0.676681D-02 -0.754167D-03  0.591564D-02
     28  0.296031D-02  0.000000D+00  0.275343D-02  0.000000D+00  0.666994D-02
               11            12            13            14            15 
     11  0.103071D+00
     12 -0.201878D-01  0.103071D+00
     13 -0.404532D-01 -0.404532D-01  0.524711D-01
     14 -0.712605D-02 -0.712605D-02  0.443900D-02  0.103070D+00
     15  0.174550D-01 -0.712637D-02 -0.392756D-02 -0.201874D-01  0.103071D+00
     16 -0.712637D-02  0.174550D-01 -0.392756D-02 -0.201874D-01 -0.201878D-01
     17 -0.392758D-02  0.443909D-02  0.321488D-03 -0.404531D-01 -0.404534D-01
     18  0.443909D-02 -0.392758D-02  0.321488D-03 -0.404531D-01  0.140322D-01
     19 -0.392756D-02 -0.392756D-02  0.300086D-02  0.140322D-01 -0.404532D-01
     20  0.275351D-02 -0.275351D-02  0.000000D+00  0.000000D+00 -0.275351D-02
     21  0.476034D-02 -0.676698D-02  0.754243D-03  0.476012D-02  0.200676D-02
     22  0.676698D-02 -0.476034D-02 -0.754243D-03 -0.476012D-02  0.676704D-02
     23 -0.200676D-02  0.676704D-02  0.591560D-02 -0.200669D-02 -0.476034D-02
     24  0.000000D+00  0.275357D-02  0.666984D-02  0.275343D-02  0.000000D+00
     25  0.200671D-02  0.476021D-02  0.516135D-02 -0.676681D-02  0.476021D-02
     26 -0.676704D-02  0.200676D-02 -0.591560D-02  0.200669D-02 -0.676698D-02
     27 -0.476021D-02 -0.200671D-02 -0.516135D-02  0.676681D-02 -0.200671D-02
     28 -0.275357D-02  0.000000D+00 -0.666984D-02 -0.275343D-02  0.275357D-02
               16            17            18            19            20 
     16  0.103071D+00
     17  0.140322D-01  0.524712D-01
     18 -0.404534D-01  0.943033D-02  0.524712D-01
     19 -0.404532D-01  0.943026D-02  0.943026D-02  0.524711D-01
     20  0.275351D-02 -0.666981D-02  0.666981D-02  0.000000D+00  0.140282D-01
     21 -0.676704D-02  0.516141D-02  0.754358D-03 -0.591560D-02  0.369875D-02
     22 -0.200676D-02 -0.754358D-03 -0.516141D-02  0.591560D-02  0.369875D-02
     23  0.676698D-02 -0.516128D-02  0.591558D-02 -0.754243D-03  0.369875D-02
     24 -0.275357D-02  0.666994D-02  0.000000D+00 -0.666984D-02 -0.663071D-02
     25  0.200671D-02  0.754167D-03 -0.591564D-02  0.516135D-02 -0.663071D-02
     26  0.476034D-02 -0.591558D-02  0.516128D-02  0.754243D-03  0.369875D-02
     27 -0.476021D-02  0.591564D-02 -0.754167D-03 -0.516135D-02 -0.663071D-02
     28  0.000000D+00  0.000000D+00 -0.666994D-02  0.666984D-02 -0.663071D-02
               21            22            23            24            25 
     21  0.148304D-01
     22  0.409981D-02  0.148304D-01
     23 -0.743286D-02 -0.703184D-02  0.148304D-01
     24  0.369881D-02 -0.663078D-02  0.369881D-02  0.140283D-01
     25 -0.703180D-02  0.409983D-02  0.409983D-02  0.369874D-02  0.148304D-01
     26 -0.703184D-02 -0.743286D-02  0.409981D-02 -0.663078D-02 -0.703180D-02
     27  0.409983D-02 -0.703180D-02 -0.703180D-02  0.369874D-02 -0.743289D-02
     28 -0.663078D-02  0.369881D-02 -0.663078D-02 -0.663085D-02  0.369874D-02
               26            27            28 
     26  0.148304D-01
     27  0.409983D-02  0.148304D-01
     28  0.369881D-02  0.369874D-02  0.140283D-01
 Leave Link  716 at Tue Aug 20 22:13:13 2024, MaxMem=   13107200 cpu:       0.1
 (Enter /programs/64bit/g09/g09-gfortran/bin/l103.exe)

 GradGradGradGradGradGradGradGradGradGradGradGradGradGradGradGradGradGrad
 Berny optimization.
 Internal  Forces:  Max     0.000179540 RMS     0.000059292
 Search for a local minimum.
 Step number   1 out of a maximum of    2
 All quantities printed in internal units (Hartrees-Bohrs-Radians)
 Second derivative matrix not updated -- analytic derivatives used.
     Eigenvalues ---    0.00230   0.04548   0.04549   0.04755   0.04755
     Eigenvalues ---    0.12162   0.12411   0.12411   0.12567   0.17820
     Eigenvalues ---    0.17820   0.30395   0.33512   0.33512   0.33771
     Eigenvalues ---    0.33771   0.34517   0.347001000.000001000.00000
     Eigenvalues --- 1000.000001000.000001000.000001000.000001000.00000
     Eigenvalues --- 1000.000001000.000001000.00000
 Angle between quadratic step and forces=  10.69 degrees.
 Linear search not attempted -- first point.
 Iteration  1 RMS(Cart)=  0.00039237 RMS(Int)=  0.00000021
 Iteration  2 RMS(Cart)=  0.00000020 RMS(Int)=  0.00000012
 ClnCor:  largest displacement from symmetrization is 4.98D-09 for atom     7.
 Variable       Old X    -DE/DX   Delta X   Delta X   Delta X     New X
                                 (Linear)    (Quad)   (Total)
    R1        2.06926   0.00002   0.00000   0.00012   0.00012   2.06938
    R2        2.89232  -0.00018   0.00000  -0.00106  -0.00106   2.89127
    R3        2.06926   0.00002   0.00000   0.00012   0.00012   2.06938
    R4        2.06926   0.00002   0.00000   0.00012   0.00012   2.06938
    R5        2.06926   0.00002   0.00000   0.00012   0.00012   2.06938
    R6        2.06926   0.00002   0.00000   0.00012   0.00012   2.06938
    R7        2.06926   0.00002   0.00000   0.00012   0.00012   2.06938
    A1        1.94336   0.00007   0.00000   0.00062   0.00062   1.94398
    A2        1.87680  -0.00007   0.00000  -0.00066  -0.00066   1.87614
    A3        1.87680  -0.00007   0.00000  -0.00066  -0.00066   1.87614
    A4        1.94336   0.00007   0.00000   0.00062   0.00062   1.94398
    A5        1.94336   0.00007   0.00000   0.00062   0.00062   1.94398
    A6        1.87680  -0.00007   0.00000  -0.00066  -0.00066   1.87614
    A7        1.94336   0.00007   0.00000   0.00062   0.00062   1.94398
    A8        1.94336   0.00007   0.00000   0.00062   0.00062   1.94398
    A9        1.94336   0.00007   0.00000   0.00062   0.00062   1.94398
   A10        1.87680  -0.00007   0.00000  -0.00066  -0.00066   1.87614
   A11        1.87680  -0.00007   0.00000  -0.00066  -0.00066   1.87614
   A12        1.87680  -0.00007   0.00000  -0.00066  -0.00066   1.87614
    D1        3.14159  -0.00000   0.00000  -0.00000   0.00000   3.14159
    D2       -1.04720  -0.00000   0.00000  -0.00000  -0.00000  -1.04720
    D3        1.04720  -0.00000   0.00000   0.00000   0.00000   1.04720
    D4        1.04720   0.00000   0.00000   0.00000   0.00000   1.04720
    D5        3.14159   0.00000   0.00000  -0.00000   0.00000   3.14159
    D6       -1.04720   0.00000   0.00000   0.00000   0.00000  -1.04720
    D7       -1.04720  -0.00000   0.00000  -0.00000   0.00000  -1.04720
    D8        1.04720  -0.00000   0.00000  -0.00000   0.00000   1.04720
    D9        3.14159  -0.00000   0.00000  -0.00000   0.00000   3.14159
         Item               Value     Threshold  Converged?
 Maximum Force            0.000180     0.000450     YES
 RMS     Force            0.000059     0.000300     YES
 Maximum Displacement     0.000785     0.001800     YES
 RMS     Displacement     0.000392     0.001200     YES
 Predicted change in Energy=-3.811381D-07
 Optimization completed.
    -- Stationary point found.
                           ----------------------------
                           !   Optimized Parameters   !
                           ! (Angstroms and Degrees)  !
 --------------------------                            --------------------------
 ! Name  Definition              Value          Derivative Info.                !
 --------------------------------------------------------------------------------
 ! R1    R(1,2)                  1.095          -DE/DX =    0.0                 !
 ! R2    R(1,3)                  1.5306         -DE/DX =   -0.0002              !
 ! R3    R(1,4)                  1.095          -DE/DX =    0.0                 !
 ! R4    R(1,5)                  1.095          -DE/DX =    0.0                 !
 ! R5    R(3,6)                  1.095          -DE/DX =    0.0                 !
 ! R6    R(3,7)                  1.095          -DE/DX =    0.0                 !
 ! R7    R(3,8)                  1.095          -DE/DX =    0.0                 !
 ! A1    A(2,1,3)              111.3465         -DE/DX =    0.0001              !
 ! A2    A(2,1,4)              107.5326         -DE/DX =   -0.0001              !
 ! A3    A(2,1,5)              107.5326         -DE/DX =   -0.0001              !
 ! A4    A(3,1,4)              111.3465         -DE/DX =    0.0001              !
 ! A5    A(3,1,5)              111.3465         -DE/DX =    0.0001              !
 ! A6    A(4,1,5)              107.5326         -DE/DX =   -0.0001              !
 ! A7    A(1,3,6)              111.3465         -DE/DX =    0.0001              !
 ! A8    A(1,3,7)              111.3465         -DE/DX =    0.0001              !
 ! A9    A(1,3,8)              111.3465         -DE/DX =    0.0001              !
 ! A10   A(6,3,7)              107.5326         -DE/DX =   -0.0001              !
 ! A11   A(6,3,8)              107.5326         -DE/DX =   -0.0001              !
 ! A12   A(7,3,8)              107.5326         -DE/DX =   -0.0001              !
 ! D1    D(2,1,3,6)            180.0            -DE/DX =    0.0                 !
 ! D2    D(2,1,3,7)            -60.0            -DE/DX =    0.0                 !
 ! D3    D(2,1,3,8)             60.0            -DE/DX =    0.0                 !
 ! D4    D(4,1,3,6)             60.0            -DE/DX =    0.0                 !
 ! D5    D(4,1,3,7)            180.0            -DE/DX =    0.0                 !
 ! D6    D(4,1,3,8)            -60.0            -DE/DX =    0.0                 !
 ! D7    D(5,1,3,6)            -60.0            -DE/DX =    0.0                 !
 ! D8    D(5,1,3,7)             60.0            -DE/DX =    0.0                 !
 ! D9    D(5,1,3,8)            180.0            -DE/DX =    0.0                 !
 --------------------------------------------------------------------------------
 GradGradGradGradGradGradGradGradGradGradGradGradGradGradGradGradGradGrad

 Leave Link  103 at Tue Aug 20 22:13:13 2024, MaxMem=   13107200 cpu:       0.0
 (Enter /programs/64bit/g09/g09-gfortran/bin/l9999.exe)
 1\1\GINC-MOLMOD\Freq\RB3LYP\6-31G(d,p)\C2H6\OSPITE\20-Aug-2024\0\\#P G
 eom=AllCheck Guess=TCheck SCRF=Check GenChk RB3LYP/6-31G(d,p) Freq\\et
 hane\\0,1\C,-0.0144024734,0.,0.0050920433\H,-0.0502354195,0.,1.0995085
 402\C,1.4286160358,0.,-0.5050920433\H,-0.5601761461,-0.8832432473,-0.3
 428216429\H,-0.5601761461,0.8832432473,-0.3428216429\H,1.4644489819,0.
 ,-1.5995085402\H,1.9743897085,0.8832432473,-0.1571783571\H,1.974389708
 5,-0.8832432473,-0.1571783571\\Version=EM64L-G09RevA.02\State=1-A1G\HF
 =-79.8387381\RMSD=5.494e-11\RMSF=1.236e-04\ZeroPoint=0.0749315\Thermal
 =0.0784089\Dipole=0.,0.,0.\DipoleDeriv=0.0899436,0.,0.0089782,0.,0.115
 3457,0.,0.0089336,0.,0.1121635,0.0103784,0.,0.0169053,0.,0.0608177,0.,
 0.0419314,0.,-0.1770174,0.0899436,0.,0.0089782,0.,0.1153457,0.,0.00893
 36,0.,0.1121635,-0.050168,-0.0852144,-0.0129387,-0.1056303,-0.0880781,
 -0.0538307,-0.0254406,-0.0610481,0.0324275,-0.050168,0.0852144,-0.0129
 387,0.1056303,-0.0880781,0.0538307,-0.0254406,0.0610481,0.0324275,0.01
 03784,0.,0.0169053,0.,0.0608177,0.,0.0419314,0.,-0.1770174,-0.050168,-
 0.0852144,-0.0129387,-0.1056303,-0.0880781,-0.0538307,-0.0254406,-0.06
 10481,0.0324275,-0.050168,0.0852144,-0.0129387,0.1056303,-0.0880781,0.
 0538307,-0.0254406,0.0610481,0.0324275\Polar=24.3013055,0.,22.8190036,
 -0.5241538,0.,23.0039618\PG=D03D [C3(C1.C1),3SGD(H2)]\NImag=0\\0.48680
 784,0.,0.57217753,0.03018237,0.,0.56150881,-0.04776641,0.,0.00327203,0
 .05254145,0.,-0.04947606,0.,0.,0.04738444,0.00407026,0.,-0.31208760,-0
 .00663635,0.,0.33818816,-0.18706487,0.,0.03772564,-0.00061642,0.,0.000
 41943,0.48680784,0.,-0.08035928,0.,0.,-0.00059110,0.,0.,0.57217753,0.0
 3772564,0.,-0.09369049,0.03424312,0.,-0.00925753,0.03018237,0.,0.56150
 881,-0.10953075,-0.10316162,-0.04194105,-0.00020457,0.00115858,-0.0001
 9919,-0.01615055,-0.02657174,-0.01077076,0.12080276,-0.10381392,-0.222
 67681,-0.06935945,0.00144967,0.00078293,0.00038409,0.00104535,0.001799
 97,0.00109437,0.11430219,0.23855493,-0.04234082,-0.06959030,-0.0771222
 5,-0.01600229,-0.02781100,-0.00959633,0.00614174,0.01085871,0.00388674
 ,0.04403822,0.07665561,0.07875636,-0.10953075,0.10316162,-0.04194105,-
 0.00020457,-0.00115858,-0.00019919,-0.01615055,0.02657174,-0.01077076,
 0.00851499,-0.01304872,0.00651479,0.12080276,0.10381392,-0.22267681,0.
 06935945,-0.00144967,0.00078293,-0.00038409,-0.00104535,0.00179997,-0.
 00109437,0.01304872,-0.02085812,0.00953558,-0.11430219,0.23855493,-0.0
 4234082,0.06959030,-0.07712225,-0.01600229,0.02781100,-0.00959633,0.00
 614174,-0.01085871,0.00388674,0.00651479,-0.00953558,0.00332517,0.0440
 3822,-0.07665561,0.07875636,-0.00061642,0.,0.03424312,-0.00660993,0.,0
 .00221715,-0.04776641,0.,0.00327203,0.00143044,-0.00030611,-0.00054546
 ,0.00143044,0.00030611,-0.00054546,0.05254145,0.,-0.00059110,0.,0.,0.0
 0099850,0.,0.,-0.04947606,0.,0.00016327,0.00005963,0.00050799,-0.00016
 327,0.00005963,-0.00050799,0.,0.04738444,0.00041943,0.,-0.00925753,0.0
 0221715,0.,0.00124039,0.00407026,0.,-0.31208760,0.00016409,0.00040936,
 0.00055395,0.00016409,-0.00040936,0.00055395,-0.00663635,0.,0.33818816
 ,-0.01615055,-0.02657174,-0.01077076,0.00143044,0.00016327,0.00016409,
 -0.10953075,-0.10316162,-0.04194105,-0.00597334,0.00071655,0.00290371,
 0.00111205,0.00034465,-0.00070979,-0.00020457,0.00115858,-0.00019919,0
 .12080276,0.00104535,0.00179997,0.00109437,-0.00030611,0.00005963,0.00
 040936,-0.10381392,-0.22267681,-0.06935945,0.00071655,0.00157090,0.000
 09718,-0.00034465,0.00076741,0.00025415,0.00144967,0.00078293,0.000384
 09,0.11430219,0.23855493,0.00614174,0.01085871,0.00388674,-0.00054546,
 0.00050799,0.00055395,-0.04234082,-0.06959030,-0.07712225,0.00290371,0
 .00009718,0.00003140,-0.00070979,-0.00025415,0.00016456,-0.01600229,-0
 .02781100,-0.00959633,0.04403822,0.07665561,0.07875636,-0.01615055,0.0
 2657174,-0.01077076,0.00143044,-0.00016327,0.00016409,-0.10953075,0.10
 316162,-0.04194105,0.00111205,-0.00034465,-0.00070979,-0.00597334,-0.0
 0071655,0.00290371,-0.00020457,-0.00115858,-0.00019919,0.00851499,-0.0
 1304872,0.00651479,0.12080276,-0.00104535,0.00179997,-0.00109437,0.000
 30611,0.00005963,-0.00040936,0.10381392,-0.22267681,0.06935945,0.00034
 465,0.00076741,-0.00025415,-0.00071655,0.00157090,-0.00009718,-0.00144
 967,0.00078293,-0.00038409,0.01304872,-0.02085812,0.00953558,-0.114302
 19,0.23855493,0.00614174,-0.01085871,0.00388674,-0.00054546,-0.0005079
 9,0.00055395,-0.04234082,0.06959030,-0.07712225,-0.00070979,0.00025415
 ,0.00016456,0.00290371,-0.00009718,0.00003140,-0.01600229,0.02781100,-
 0.00959633,0.00651479,-0.00953558,0.00332517,0.04403822,-0.07665561,0.
 07875636\\-0.00038418,0.,0.00013583,0.00007304,0.,-0.00002135,0.000384
 18,0.,-0.00013583,0.00007093,-0.00000365,-0.00002731,0.00007093,0.0000
 0365,-0.00002731,-0.00007304,0.,0.00002135,-0.00007093,0.00000365,0.00
 002731,-0.00007093,-0.00000365,0.00002731\\\@


 DIATOMIC MOLECULES ARE PECULIAR BECAUSE THEY ONLY HAVE TWO ENDS,
 AND THESE ENDS ARE VERY CLOSE TOGETHER.
 KLAUS RUEDENBERG, REV.MOD.PHYS. PG 176, 32, (1960)
 Job cpu time:  0 days  0 hours  0 minutes 54.4 seconds.
 File lengths (MBytes):  RWF=      5 Int=      0 D2E=      0 Chk=      1 Scr=      1
 Normal termination of Gaussian 09 at Tue Aug 20 22:13:13 2024.
