 ethene                                                  
GAUSSIAN              8 MOL ORBITALS     84 PRIMITIVES        6 NUCLEI
  C    1    (CENTRE  1)  -0.00000000  0.00000000  1.25674432  CHARGE =  6.0
  C    2    (CENTRE  2)   0.00000000  0.00000000 -1.25674432  CHARGE =  6.0
  H    3    (CENTRE  3)  -0.00000000  1.74471231  2.33915120  CHARGE =  1.0
  H    4    (CENTRE  4)   0.00000000  1.74471231 -2.33915120  CHARGE =  1.0
  H    5    (CENTRE  5)  -0.00000000 -1.74471231 -2.33915120  CHARGE =  1.0
  H    6    (CENTRE  6)  -0.00000000 -1.74471231  2.33915120  CHARGE =  1.0
CENTRE ASSIGNMENTS    1  1  1  1  1  1  1  1  1  1  1  1  1  1  1  1  1  1  1  1
CENTRE ASSIGNMENTS    1  1  1  1  1  1  1  1  2  2  2  2  2  2  2  2  2  2  2  2
CENTRE ASSIGNMENTS    2  2  2  2  2  2  2  2  2  2  2  2  2  2  2  2  3  3  3  3
CENTRE ASSIGNMENTS    3  3  3  4  4  4  4  4  4  4  5  5  5  5  5  5  5  6  6  6
CENTRE ASSIGNMENTS    6  6  6  6
TYPE ASSIGNMENTS      1  1  1  1  1  1  1  1  1  2  2  2  3  3  3  4  4  4  1  2
TYPE ASSIGNMENTS      3  4  5  6  7  8  9 10  1  1  1  1  1  1  1  1  1  2  2  2
TYPE ASSIGNMENTS      3  3  3  4  4  4  1  2  3  4  5  6  7  8  9 10  1  1  1  1
TYPE ASSIGNMENTS      2  3  4  1  1  1  1  2  3  4  1  1  1  1  2  3  4  1  1  1
TYPE ASSIGNMENTS      1  2  3  4
EXPONENTS  0.3047525D+04 0.4573695D+03 0.1039487D+03 0.2921016D+02 0.9286663D+01
EXPONENTS  0.3163927D+01 0.7868272D+01 0.1881289D+01 0.5442493D+00 0.7868272D+01
EXPONENTS  0.1881289D+01 0.5442493D+00 0.7868272D+01 0.1881289D+01 0.5442493D+00
EXPONENTS  0.7868272D+01 0.1881289D+01 0.5442493D+00 0.1687145D+00 0.1687145D+00
EXPONENTS  0.1687145D+00 0.1687145D+00 0.8000000D+00 0.8000000D+00 0.8000000D+00
EXPONENTS  0.8000000D+00 0.8000000D+00 0.8000000D+00 0.3047525D+04 0.4573695D+03
EXPONENTS  0.1039487D+03 0.2921016D+02 0.9286663D+01 0.3163927D+01 0.7868272D+01
EXPONENTS  0.1881289D+01 0.5442493D+00 0.7868272D+01 0.1881289D+01 0.5442493D+00
EXPONENTS  0.7868272D+01 0.1881289D+01 0.5442493D+00 0.7868272D+01 0.1881289D+01
EXPONENTS  0.5442493D+00 0.1687145D+00 0.1687145D+00 0.1687145D+00 0.1687145D+00
EXPONENTS  0.8000000D+00 0.8000000D+00 0.8000000D+00 0.8000000D+00 0.8000000D+00
EXPONENTS  0.8000000D+00 0.1873114D+02 0.2825394D+01 0.6401217D+00 0.1612778D+00
EXPONENTS  0.1100000D+01 0.1100000D+01 0.1100000D+01 0.1873114D+02 0.2825394D+01
EXPONENTS  0.6401217D+00 0.1612778D+00 0.1100000D+01 0.1100000D+01 0.1100000D+01
EXPONENTS  0.1873114D+02 0.2825394D+01 0.6401217D+00 0.1612778D+00 0.1100000D+01
EXPONENTS  0.1100000D+01 0.1100000D+01 0.1873114D+02 0.2825394D+01 0.6401217D+00
EXPONENTS  0.1612778D+00 0.1100000D+01 0.1100000D+01 0.1100000D+01
MO    1     MO 0.0        OCC NO =    2.0000000  ORB. ENERGY =  -10.184355
  0.37640197D+00  0.69438814D+00  0.11209578D+01  0.14591539D+01  0.12450987D+01
  0.42990266D+00 -0.13717231D-01 -0.63222590D-02  0.17728274D-01  0.00000000D+00
  0.00000000D+00  0.00000000D+00  0.00000000D+00  0.00000000D+00  0.00000000D+00
  0.43031938D-03  0.32994161D-03  0.16466399D-03 -0.11137292D-02  0.00000000D+00
  0.00000000D+00 -0.98520080D-04 -0.77831578D-02 -0.75252306D-02 -0.73823993D-02
  0.00000000D+00  0.00000000D+00  0.00000000D+00  0.37640197D+00  0.69438814D+00
  0.11209578D+01  0.14591539D+01  0.12450987D+01  0.42990266D+00 -0.13717231D-01
 -0.63222590D-02  0.17728274D-01  0.00000000D+00  0.00000000D+00  0.00000000D+00
  0.00000000D+00  0.00000000D+00  0.00000000D+00 -0.43031938D-03 -0.32994161D-03
 -0.16466399D-03 -0.11137292D-02  0.00000000D+00  0.00000000D+00  0.98520080D-04
 -0.77831578D-02 -0.75252306D-02 -0.73823993D-02  0.00000000D+00  0.00000000D+00
  0.00000000D+00 -0.70167188D-04 -0.11901683D-03 -0.13549646D-03  0.27285739D-03
  0.00000000D+00  0.16638693D-03 -0.13360310D-04 -0.70167188D-04 -0.11901683D-03
 -0.13549646D-03  0.27285739D-03  0.00000000D+00  0.16638693D-03  0.13360310D-04
 -0.70167188D-04 -0.11901683D-03 -0.13549646D-03  0.27285739D-03  0.00000000D+00
 -0.16638693D-03  0.13360310D-04 -0.70167188D-04 -0.11901683D-03 -0.13549646D-03
  0.27285739D-03  0.00000000D+00 -0.16638693D-03 -0.13360310D-04
MO    2     MO 0.0        OCC NO =    2.0000000  ORB. ENERGY =  -10.183457
  0.37659685D+00  0.69474764D+00  0.11215381D+01  0.14599094D+01  0.12457433D+01
  0.43012523D+00 -0.14011351D-01 -0.64578188D-02  0.18108398D-01  0.00000000D+00
  0.00000000D+00  0.00000000D+00  0.00000000D+00  0.00000000D+00  0.00000000D+00
 -0.31350541D-03 -0.24037606D-03 -0.11996450D-03 -0.23408508D-02  0.00000000D+00
  0.00000000D+00  0.34756288D-03 -0.75730285D-02 -0.69997118D-02 -0.67895280D-02
  0.00000000D+00  0.00000000D+00  0.00000000D+00 -0.37659685D+00 -0.69474764D+00
 -0.11215381D+01 -0.14599094D+01 -0.12457433D+01 -0.43012523D+00  0.14011351D-01
  0.64578188D-02 -0.18108398D-01  0.00000000D+00  0.00000000D+00  0.00000000D+00
  0.00000000D+00  0.00000000D+00  0.00000000D+00 -0.31350541D-03 -0.24037606D-03
 -0.11996450D-03  0.23408508D-02  0.00000000D+00  0.00000000D+00  0.34756288D-03
  0.75730285D-02  0.69997118D-02  0.67895280D-02  0.00000000D+00  0.00000000D+00
  0.00000000D+00 -0.60160158D-04 -0.10204301D-03 -0.11617236D-03  0.25251974D-03
  0.00000000D+00  0.37263403D-03  0.14452611D-03  0.60160158D-04  0.10204301D-03
  0.11617236D-03 -0.25251974D-03  0.00000000D+00 -0.37263403D-03  0.14452611D-03
  0.60160158D-04  0.10204301D-03  0.11617236D-03 -0.25251974D-03  0.00000000D+00
  0.37263403D-03  0.14452611D-03 -0.60160158D-04 -0.10204301D-03 -0.11617236D-03
  0.25251974D-03  0.00000000D+00 -0.37263403D-03  0.14452611D-03
MO    3     MO 0.0        OCC NO =    2.0000000  ORB. ENERGY =   -0.755209
 -0.86301625D-01 -0.15920965D+00 -0.25701374D+00 -0.33455552D+00 -0.28547683D+00
 -0.98568289D-01 -0.12460848D+00 -0.57431935D-01  0.16104514D+00  0.00000000D+00
  0.00000000D+00  0.00000000D+00  0.00000000D+00  0.00000000D+00  0.00000000D+00
 -0.13648514D+00 -0.10464815D+00 -0.52226761D-01  0.42442585D-01  0.00000000D+00
  0.00000000D+00 -0.11674189D-02 -0.18618668D-01 -0.10716540D-01  0.57724693D-02
  0.00000000D+00  0.00000000D+00  0.00000000D+00 -0.86301625D-01 -0.15920965D+00
 -0.25701374D+00 -0.33455552D+00 -0.28547683D+00 -0.98568289D-01 -0.12460848D+00
 -0.57431935D-01  0.16104514D+00  0.00000000D+00  0.00000000D+00  0.00000000D+00
  0.00000000D+00  0.00000000D+00  0.00000000D+00  0.13648514D+00  0.10464815D+00
  0.52226761D-01  0.42442585D-01  0.00000000D+00  0.00000000D+00  0.11674189D-02
 -0.18618668D-01 -0.10716540D-01  0.57724693D-02  0.00000000D+00  0.00000000D+00
  0.00000000D+00  0.18643013D-01  0.31622078D-01  0.36000618D-01  0.41103537D-02
  0.00000000D+00 -0.12161324D-01 -0.99679257D-02  0.18643013D-01  0.31622078D-01
  0.36000618D-01  0.41103537D-02  0.00000000D+00 -0.12161324D-01  0.99679257D-02
  0.18643013D-01  0.31622078D-01  0.36000618D-01  0.41103537D-02  0.00000000D+00
  0.12161324D-01  0.99679257D-02  0.18643013D-01  0.31622078D-01  0.36000618D-01
  0.41103537D-02  0.00000000D+00  0.12161324D-01 -0.99679257D-02
MO    4     MO 0.0        OCC NO =    2.0000000  ORB. ENERGY =   -0.576563
 -0.66270022D-01 -0.12225525D+00 -0.19735788D+00 -0.25690132D+00 -0.21921436D+00
 -0.75689451D-01 -0.10004033D+00 -0.46108496D-01  0.12929304D+00  0.00000000D+00
  0.00000000D+00  0.00000000D+00  0.00000000D+00  0.00000000D+00  0.00000000D+00
  0.21864280D+00  0.16764143D+00  0.83664823D-01  0.42817300D-01  0.00000000D+00
  0.00000000D+00  0.91985646D-02 -0.12228567D-01  0.45221027D-02 -0.15156891D-01
  0.00000000D+00  0.00000000D+00  0.00000000D+00  0.66270022D-01  0.12225525D+00
  0.19735788D+00  0.25690132D+00  0.21921436D+00  0.75689451D-01  0.10004033D+00
  0.46108496D-01 -0.12929304D+00  0.00000000D+00  0.00000000D+00  0.00000000D+00
  0.00000000D+00  0.00000000D+00  0.00000000D+00  0.21864280D+00  0.16764143D+00
  0.83664823D-01 -0.42817300D-01  0.00000000D+00  0.00000000D+00  0.91985646D-02
  0.12228567D-01 -0.45221027D-02  0.15156891D-01  0.00000000D+00  0.00000000D+00
  0.00000000D+00  0.31864531D-01  0.54048276D-01  0.61532052D-01  0.13528259D-01
  0.00000000D+00 -0.15908674D-01 -0.60948948D-02 -0.31864531D-01 -0.54048276D-01
 -0.61532052D-01 -0.13528259D-01  0.00000000D+00  0.15908674D-01 -0.60948948D-02
 -0.31864531D-01 -0.54048276D-01 -0.61532052D-01 -0.13528259D-01  0.00000000D+00
 -0.15908674D-01 -0.60948948D-02  0.31864531D-01  0.54048276D-01  0.61532052D-01
  0.13528259D-01  0.00000000D+00  0.15908674D-01 -0.60948948D-02
MO    5     MO 0.0        OCC NO =    2.0000000  ORB. ENERGY =   -0.464035
  0.00000000D+00  0.00000000D+00  0.00000000D+00  0.00000000D+00  0.00000000D+00
  0.00000000D+00 -0.00000000D+00 -0.00000000D+00  0.00000000D+00  0.00000000D+00
  0.00000000D+00  0.00000000D+00  0.42444362D+00  0.32543645D+00  0.16241559D+00
  0.00000000D+00  0.00000000D+00  0.00000000D+00  0.00000000D+00  0.00000000D+00
  0.17741520D-01  0.00000000D+00  0.00000000D+00  0.00000000D+00  0.00000000D+00
  0.00000000D+00  0.00000000D+00  0.47164074D-02  0.00000000D+00  0.00000000D+00
  0.00000000D+00  0.00000000D+00  0.00000000D+00  0.00000000D+00 -0.00000000D+00
 -0.00000000D+00  0.00000000D+00  0.00000000D+00  0.00000000D+00  0.00000000D+00
  0.42444362D+00  0.32543645D+00  0.16241559D+00  0.00000000D+00  0.00000000D+00
  0.00000000D+00  0.00000000D+00  0.00000000D+00  0.17741520D-01  0.00000000D+00
  0.00000000D+00  0.00000000D+00  0.00000000D+00  0.00000000D+00  0.00000000D+00
 -0.47164074D-02  0.33565803D-01  0.56933955D-01  0.64817295D-01  0.21467618D-01
  0.00000000D+00 -0.50811293D-02 -0.98743664D-02  0.33565803D-01  0.56933955D-01
  0.64817295D-01  0.21467618D-01  0.00000000D+00 -0.50811293D-02  0.98743664D-02
 -0.33565803D-01 -0.56933955D-01 -0.64817295D-01 -0.21467618D-01  0.00000000D+00
 -0.50811293D-02 -0.98743664D-02 -0.33565803D-01 -0.56933955D-01 -0.64817295D-01
 -0.21467618D-01  0.00000000D+00 -0.50811293D-02  0.98743664D-02
MO    6     MO 0.0        OCC NO =    2.0000000  ORB. ENERGY =   -0.415791
  0.76539220D-02  0.14119992D-01  0.22794045D-01  0.29671073D-01  0.25318381D-01
  0.87418284D-02  0.12512720D-01  0.57671011D-02 -0.16171554D-01  0.00000000D+00
  0.00000000D+00  0.00000000D+00  0.00000000D+00  0.00000000D+00  0.00000000D+00
  0.53548859D+00  0.41057868D+00  0.20490754D+00 -0.17154149D-02  0.00000000D+00
  0.00000000D+00  0.20986431D-01  0.68833940D-03  0.20513355D-01 -0.80546115D-02
  0.00000000D+00  0.00000000D+00  0.00000000D+00  0.76539220D-02  0.14119992D-01
  0.22794045D-01  0.29671073D-01  0.25318381D-01  0.87418284D-02  0.12512720D-01
  0.57671011D-02 -0.16171554D-01  0.00000000D+00  0.00000000D+00  0.00000000D+00
  0.00000000D+00  0.00000000D+00  0.00000000D+00 -0.53548859D+00 -0.41057868D+00
 -0.20490754D+00 -0.17154149D-02  0.00000000D+00  0.00000000D+00 -0.20986431D-01
  0.68833940D-03  0.20513355D-01 -0.80546115D-02  0.00000000D+00  0.00000000D+00
  0.00000000D+00  0.26911182D-01  0.45646458D-01  0.51966879D-01  0.20334468D-01
  0.00000000D+00 -0.84821502D-02  0.71019482D-02  0.26911182D-01  0.45646458D-01
  0.51966879D-01  0.20334468D-01  0.00000000D+00 -0.84821502D-02 -0.71019482D-02
  0.26911182D-01  0.45646458D-01  0.51966879D-01  0.20334468D-01  0.00000000D+00
  0.84821502D-02 -0.71019482D-02  0.26911182D-01  0.45646458D-01  0.51966879D-01
  0.20334468D-01  0.00000000D+00  0.84821502D-02  0.71019482D-02
MO    7     MO 0.0        OCC NO =    2.0000000  ORB. ENERGY =   -0.351850
  0.00000000D+00  0.00000000D+00  0.00000000D+00  0.00000000D+00  0.00000000D+00
  0.00000000D+00 -0.00000000D+00 -0.00000000D+00  0.00000000D+00  0.00000000D+00
  0.00000000D+00  0.00000000D+00  0.39823027D+00  0.30533772D+00  0.15238492D+00
  0.00000000D+00  0.00000000D+00  0.00000000D+00  0.00000000D+00  0.00000000D+00
  0.16117178D-01  0.00000000D+00  0.00000000D+00  0.00000000D+00  0.00000000D+00
  0.00000000D+00  0.00000000D+00  0.52734384D-01  0.00000000D+00  0.00000000D+00
  0.00000000D+00  0.00000000D+00  0.00000000D+00  0.00000000D+00 -0.00000000D+00
 -0.00000000D+00  0.00000000D+00  0.00000000D+00  0.00000000D+00  0.00000000D+00
 -0.39823027D+00 -0.30533772D+00 -0.15238492D+00  0.00000000D+00  0.00000000D+00
  0.00000000D+00  0.00000000D+00  0.00000000D+00 -0.16117178D-01  0.00000000D+00
  0.00000000D+00  0.00000000D+00  0.00000000D+00  0.00000000D+00  0.00000000D+00
  0.52734384D-01  0.42644970D-01  0.72333941D-01  0.82349636D-01  0.37297654D-01
  0.00000000D+00 -0.45771577D-02 -0.69708963D-02 -0.42644970D-01 -0.72333941D-01
 -0.82349636D-01 -0.37297654D-01  0.00000000D+00  0.45771577D-02 -0.69708963D-02
  0.42644970D-01  0.72333941D-01  0.82349636D-01  0.37297654D-01  0.00000000D+00
  0.45771577D-02  0.69708963D-02 -0.42644970D-01 -0.72333941D-01 -0.82349636D-01
 -0.37297654D-01  0.00000000D+00 -0.45771577D-02  0.69708963D-02
MO    8     MO 0.0        OCC NO =    2.0000000  ORB. ENERGY =   -0.267458
  0.00000000D+00  0.00000000D+00  0.00000000D+00  0.00000000D+00  0.00000000D+00
  0.00000000D+00 -0.00000000D+00 -0.00000000D+00  0.00000000D+00  0.51917976D+00
  0.39807411D+00  0.19866688D+00  0.00000000D+00  0.00000000D+00  0.00000000D+00
  0.00000000D+00  0.00000000D+00  0.00000000D+00  0.00000000D+00  0.43409658D-01
  0.00000000D+00  0.00000000D+00  0.00000000D+00  0.00000000D+00  0.00000000D+00
  0.00000000D+00 -0.33571880D-01  0.00000000D+00  0.00000000D+00  0.00000000D+00
  0.00000000D+00  0.00000000D+00  0.00000000D+00  0.00000000D+00 -0.00000000D+00
 -0.00000000D+00  0.00000000D+00  0.51917976D+00  0.39807411D+00  0.19866688D+00
  0.00000000D+00  0.00000000D+00  0.00000000D+00  0.00000000D+00  0.00000000D+00
  0.00000000D+00  0.00000000D+00  0.43409658D-01  0.00000000D+00  0.00000000D+00
  0.00000000D+00  0.00000000D+00  0.00000000D+00  0.00000000D+00  0.33571880D-01
  0.00000000D+00  0.00000000D+00  0.00000000D+00  0.00000000D+00  0.00000000D+00
  0.15638721D-01  0.00000000D+00  0.00000000D+00  0.00000000D+00  0.00000000D+00
  0.00000000D+00  0.00000000D+00  0.15638721D-01  0.00000000D+00  0.00000000D+00
  0.00000000D+00  0.00000000D+00  0.00000000D+00  0.00000000D+00  0.15638721D-01
  0.00000000D+00  0.00000000D+00  0.00000000D+00  0.00000000D+00  0.00000000D+00
  0.00000000D+00  0.15638721D-01  0.00000000D+00  0.00000000D+00
END DATA
 THE  HF ENERGY =    -78.593807539527 THE VIRIAL(-V/T)=   2.01043902
