 Entering Gaussian System, Link 0=/programs/64bit/g09/g09-gfortran/bin/g09
 Input=ch4_++.com
 Output=ch4_++.log
 Initial command:
 /programs/64bit/g09/g09-gfortran/bin/l1.exe /home/ospite/Desktop/MMfP/Project6/CH4/g09/DFT/B3PW91/Gau-19387.inp -scrdir=/home/ospite/Desktop/MMfP/Project6/CH4/g09/DFT/B3PW91/
 Entering Link 1 = /programs/64bit/g09/g09-gfortran/bin/l1.exe PID=     19388.
  
 Copyright (c) 1988,1990,1992,1993,1995,1998,2003,2009, Gaussian, Inc.
                  All Rights Reserved.
  
 This is part of the Gaussian(R) 09 program.  It is based on
 the Gaussian(R) 03 system (copyright 2003, Gaussian, Inc.),
 the Gaussian(R) 98 system (copyright 1998, Gaussian, Inc.),
 the Gaussian(R) 94 system (copyright 1995, Gaussian, Inc.),
 the Gaussian 92(TM) system (copyright 1992, Gaussian, Inc.),
 the Gaussian 90(TM) system (copyright 1990, Gaussian, Inc.),
 the Gaussian 88(TM) system (copyright 1988, Gaussian, Inc.),
 the Gaussian 86(TM) system (copyright 1986, Carnegie Mellon
 University), and the Gaussian 82(TM) system (copyright 1983,
 Carnegie Mellon University). Gaussian is a federally registered
 trademark of Gaussian, Inc.
  
 This software contains proprietary and confidential information,
 including trade secrets, belonging to Gaussian, Inc.
  
 This software is provided under written license and may be
 used, copied, transmitted, or stored only in accord with that
 written license.
  
 The following legend is applicable only to US Government
 contracts under FAR:
  
                    RESTRICTED RIGHTS LEGEND
  
 Use, reproduction and disclosure by the US Government is
 subject to restrictions as set forth in subparagraphs (a)
 and (c) of the Commercial Computer Software - Restricted
 Rights clause in FAR 52.227-19.
  
 Gaussian, Inc.
 340 Quinnipiac St., Bldg. 40, Wallingford CT 06492
  
  
 ---------------------------------------------------------------
 Warning -- This program may not be used in any manner that
 competes with the business of Gaussian, Inc. or will provide
 assistance to any competitor of Gaussian, Inc.  The licensee
 of this program is prohibited from giving any competitor of
 Gaussian, Inc. access to this program.  By using this program,
 the user acknowledges that Gaussian, Inc. is engaged in the
 business of creating and licensing software in the field of
 computational chemistry and represents and warrants to the
 licensee that it is not a competitor of Gaussian, Inc. and that
 it will not use this program in any manner prohibited above.
 ---------------------------------------------------------------
  

 Cite this work as:
 Gaussian 09, Revision A.02,
 M. J. Frisch, G. W. Trucks, H. B. Schlegel, G. E. Scuseria, 
 M. A. Robb, J. R. Cheeseman, G. Scalmani, V. Barone, B. Mennucci, 
 G. A. Petersson, H. Nakatsuji, M. Caricato, X. Li, H. P. Hratchian, 
 A. F. Izmaylov, J. Bloino, G. Zheng, J. L. Sonnenberg, M. Hada, 
 M. Ehara, K. Toyota, R. Fukuda, J. Hasegawa, M. Ishida, T. Nakajima, 
 Y. Honda, O. Kitao, H. Nakai, T. Vreven, J. A. Montgomery, Jr., 
 J. E. Peralta, F. Ogliaro, M. Bearpark, J. J. Heyd, E. Brothers, 
 K. N. Kudin, V. N. Staroverov, R. Kobayashi, J. Normand, 
 K. Raghavachari, A. Rendell, J. C. Burant, S. S. Iyengar, J. Tomasi, 
 M. Cossi, N. Rega, J. M. Millam, M. Klene, J. E. Knox, J. B. Cross, 
 V. Bakken, C. Adamo, J. Jaramillo, R. Gomperts, R. E. Stratmann, 
 O. Yazyev, A. J. Austin, R. Cammi, C. Pomelli, J. W. Ochterski, 
 R. L. Martin, K. Morokuma, V. G. Zakrzewski, G. A. Voth, 
 P. Salvador, J. J. Dannenberg, S. Dapprich, A. D. Daniels, 
 O. Farkas, J. B. Foresman, J. V. Ortiz, J. Cioslowski, 
 and D. J. Fox, Gaussian, Inc., Wallingford CT, 2009.
 
 ******************************************
 Gaussian 09:  EM64L-G09RevA.02 11-Jun-2009
                18-Aug-2024 
 ******************************************
 %mem=100MB
 -------------------------------------------------------------------
 #p b3pw91/6-31++G opt freq symmetry=(follow,pg=Td) pop=full gfinput
 -------------------------------------------------------------------
 1/14=-1,18=20,19=15,26=3,38=1/1,3;
 2/9=110,12=2,17=6,18=5,19=2314885530818462804,40=1/2;
 3/5=1,6=6,7=1010,11=2,16=1,24=10,25=1,30=1,71=1,74=-6/1,2,3;
 4//1;
 5/5=2,38=5/2;
 6/7=3,28=1/1;
 7//1,2,3,16;
 1/14=-1,18=20,19=15/3(2);
 2/9=110,15=5,19=2314885530818462804/2;
 99//99;
 2/9=110,15=5,19=2314885530818462804/2;
 3/5=1,6=6,7=1010,11=2,16=1,25=1,30=1,71=1,74=-6/1,2,3;
 4/5=5,16=3/1;
 5/5=2,38=5/2;
 7//1,2,3,16;
 1/14=-1,18=20,19=15/3(-5);
 2/9=110,15=5,19=2314885530818462804/2;
 6/7=3,19=2,28=1/1;
 99/9=1/99;
 Leave Link    1 at Sun Aug 18 00:36:28 2024, MaxMem=   13107200 cpu:       0.1
 (Enter /programs/64bit/g09/g09-gfortran/bin/l101.exe)
 ---------------------------------------------------
 methane with imposed symmetry and 6-31++G basis set
 ---------------------------------------------------
 Symbolic Z-matrix:
 Charge =  0 Multiplicity = 1
 C1
 H2                   1    d
 H3                   1    d        2    a
 H4                   1    d        2    a        3    t        0
 H5                   1    d        2    a        3    -t       0
       Variables:
  d                     1.09                     
  a                   109.471                    
  t                   120.                       
 
     3 tetrahedral angles replaced.
 NAtoms=      5 NQM=      5 NQMF=      0 NMic=      0 NMicF=      0 NTot=      5.
                    Isotopes and Nuclear Properties:
 (Nuclear quadrupole moments (NQMom) in fm**2, nuclear magnetic moments (NMagM)
  in nuclear magnetons)

  Atom         1           2           3           4           5
 IAtWgt=          12           1           1           1           1
 AtmWgt=  12.0000000   1.0078250   1.0078250   1.0078250   1.0078250
 NucSpn=           0           1           1           1           1
 AtZEff=   0.0000000   0.0000000   0.0000000   0.0000000   0.0000000
 NQMom=    0.0000000   0.0000000   0.0000000   0.0000000   0.0000000
 NMagM=    0.0000000   2.7928460   2.7928460   2.7928460   2.7928460
 Leave Link  101 at Sun Aug 18 00:36:28 2024, MaxMem=   13107200 cpu:       0.1
 (Enter /programs/64bit/g09/g09-gfortran/bin/l103.exe)

 GradGradGradGradGradGradGradGradGradGradGradGradGradGradGradGradGradGrad
 Berny optimization.
 Initialization pass.
                           ----------------------------
                           !    Initial Parameters    !
                           ! (Angstroms and Degrees)  !
 --------------------------                            --------------------------
 ! Name  Definition              Value          Derivative Info.                !
 --------------------------------------------------------------------------------
 ! R1    R(1,2)                  1.09           estimate D2E/DX2                !
 ! R2    R(1,3)                  1.09           estimate D2E/DX2                !
 ! R3    R(1,4)                  1.09           estimate D2E/DX2                !
 ! R4    R(1,5)                  1.09           estimate D2E/DX2                !
 ! A1    A(2,1,3)              109.4712         estimate D2E/DX2                !
 ! A2    A(2,1,4)              109.4712         estimate D2E/DX2                !
 ! A3    A(2,1,5)              109.4712         estimate D2E/DX2                !
 ! A4    A(3,1,4)              109.4712         estimate D2E/DX2                !
 ! A5    A(3,1,5)              109.4712         estimate D2E/DX2                !
 ! A6    A(4,1,5)              109.4712         estimate D2E/DX2                !
 ! D1    D(2,1,4,3)           -120.0            estimate D2E/DX2                !
 ! D2    D(2,1,5,3)            120.0            estimate D2E/DX2                !
 ! D3    D(2,1,5,4)           -120.0            estimate D2E/DX2                !
 ! D4    D(3,1,5,4)            120.0            estimate D2E/DX2                !
 --------------------------------------------------------------------------------
 Trust Radius=3.00D-01 FncErr=1.00D-07 GrdErr=1.00D-06
 Number of steps in this run=  24 maximum allowed number of steps= 100.
 GradGradGradGradGradGradGradGradGradGradGradGradGradGradGradGradGradGrad

 Leave Link  103 at Sun Aug 18 00:36:28 2024, MaxMem=   13107200 cpu:       0.0
 (Enter /programs/64bit/g09/g09-gfortran/bin/l202.exe)
                          Input orientation:                          
 ---------------------------------------------------------------------
 Center     Atomic      Atomic             Coordinates (Angstroms)
 Number     Number       Type             X           Y           Z
 ---------------------------------------------------------------------
      1          6           0        0.000000    0.000000    0.000000
      2          1           0        0.000000    0.000000    1.090000
      3          1           0        1.027662    0.000000   -0.363333
      4          1           0       -0.513831   -0.889981   -0.363333
      5          1           0       -0.513831    0.889981   -0.363333
 ---------------------------------------------------------------------
                    Distance matrix (angstroms):
                    1          2          3          4          5
     1  C    0.000000
     2  H    1.090000   0.000000
     3  H    1.090000   1.779963   0.000000
     4  H    1.090000   1.779963   1.779963   0.000000
     5  H    1.090000   1.779963   1.779963   1.779963   0.000000
 Symm:  InNGrp=TD   InAxis=0.
 Stoichiometry    CH4
 Framework group  TD[O(C),4C3(H)]
 Deg. of freedom     1
 Full point group                 TD      NOp  24
 Largest Abelian subgroup         D2      NOp   4
 Largest concise Abelian subgroup D2      NOp   4
                         Standard orientation:                         
 ---------------------------------------------------------------------
 Center     Atomic      Atomic             Coordinates (Angstroms)
 Number     Number       Type             X           Y           Z
 ---------------------------------------------------------------------
      1          6           0        0.000000    0.000000    0.000000
      2          1           0        0.629312    0.629312    0.629312
      3          1           0       -0.629312   -0.629312    0.629312
      4          1           0       -0.629312    0.629312   -0.629312
      5          1           0        0.629312   -0.629312   -0.629312
 ---------------------------------------------------------------------
 Rotational constants (GHZ):    158.2742720    158.2742720    158.2742720
 Leave Link  202 at Sun Aug 18 00:36:28 2024, MaxMem=   13107200 cpu:       0.0
 (Enter /programs/64bit/g09/g09-gfortran/bin/l301.exe)
 Standard basis: 6-31++G (6D, 7F)
 Ernie: Thresh=  0.10000D-02 Tol=  0.10000D-05 Strict=F.
 AO basis set in the form of general basis input (Overlap normalization):
      1 0
 S   6 1.00       0.000000000000
      0.3047524880D+04  0.1834737132D-02
      0.4573695180D+03  0.1403732281D-01
      0.1039486850D+03  0.6884262226D-01
      0.2921015530D+02  0.2321844432D+00
      0.9286662960D+01  0.4679413484D+00
      0.3163926960D+01  0.3623119853D+00
 SP   3 1.00       0.000000000000
      0.7868272350D+01 -0.1193324198D+00  0.6899906659D-01
      0.1881288540D+01 -0.1608541517D+00  0.3164239610D+00
      0.5442492580D+00  0.1143456438D+01  0.7443082909D+00
 SP   1 1.00       0.000000000000
      0.1687144782D+00  0.1000000000D+01  0.1000000000D+01
 SP   1 1.00       0.000000000000
      0.4380000000D-01  0.1000000000D+01  0.1000000000D+01
 ****
      2 0
 S   3 1.00       0.000000000000
      0.1873113696D+02  0.3349460434D-01
      0.2825394365D+01  0.2347269535D+00
      0.6401216923D+00  0.8137573261D+00
 S   1 1.00       0.000000000000
      0.1612777588D+00  0.1000000000D+01
 S   1 1.00       0.000000000000
      0.3600000000D-01  0.1000000000D+01
 ****
      3 0
 S   3 1.00       0.000000000000
      0.1873113696D+02  0.3349460434D-01
      0.2825394365D+01  0.2347269535D+00
      0.6401216923D+00  0.8137573261D+00
 S   1 1.00       0.000000000000
      0.1612777588D+00  0.1000000000D+01
 S   1 1.00       0.000000000000
      0.3600000000D-01  0.1000000000D+01
 ****
      4 0
 S   3 1.00       0.000000000000
      0.1873113696D+02  0.3349460434D-01
      0.2825394365D+01  0.2347269535D+00
      0.6401216923D+00  0.8137573261D+00
 S   1 1.00       0.000000000000
      0.1612777588D+00  0.1000000000D+01
 S   1 1.00       0.000000000000
      0.3600000000D-01  0.1000000000D+01
 ****
      5 0
 S   3 1.00       0.000000000000
      0.1873113696D+02  0.3349460434D-01
      0.2825394365D+01  0.2347269535D+00
      0.6401216923D+00  0.8137573261D+00
 S   1 1.00       0.000000000000
      0.1612777588D+00  0.1000000000D+01
 S   1 1.00       0.000000000000
      0.3600000000D-01  0.1000000000D+01
 ****

 There are     7 symmetry adapted basis functions of A   symmetry.
 There are     6 symmetry adapted basis functions of B1  symmetry.
 There are     6 symmetry adapted basis functions of B2  symmetry.
 There are     6 symmetry adapted basis functions of B3  symmetry.
 Integral buffers will be    131072 words long.
 Raffenetti 2 integral format.
 Two-electron integral symmetry is turned on.
    25 basis functions,    46 primitive gaussians,    25 cartesian basis functions
     5 alpha electrons        5 beta electrons
       nuclear repulsion energy        13.4353891954 Hartrees.
 IExCor=  408 DFT=T Ex+Corr=B3PW91 ExCW=0 ScaHFX=  0.200000
 ScaDFX=  0.800000  0.720000  1.000000  0.810000 ScalE2=  1.000000  1.000000
 IRadAn=      0 IRanWt=     -1 IRanGd=            0 ICorTp=0
 NAtoms=    5 NActive=    5 NUniq=    2 SFac= 3.00D+00 NAtFMM=   80 NAOKFM=F Big=F
 Leave Link  301 at Sun Aug 18 00:36:28 2024, MaxMem=   13107200 cpu:       0.1
 (Enter /programs/64bit/g09/g09-gfortran/bin/l302.exe)
 NPDir=0 NMtPBC=     1 NCelOv=     1 NCel=       1 NClECP=     1 NCelD=      1
         NCelK=      1 NCelE2=     1 NClLst=     1 CellRange=     0.0.
 One-electron integrals computed using PRISM.
 One-electron integral symmetry used in STVInt
 NBasis=    25 RedAO= T  NBF=     7     6     6     6
 NBsUse=    25 1.00D-06 NBFU=     7     6     6     6
 Precomputing XC quadrature grid using
 IXCGrd= 2 IRadAn=           0 IRanWt=          -1 IRanGd=           0 AccXCQ= 1.00D-10.
 NRdTot=     319 NPtTot=       40718 NUsed=       43029 NTot=       43061
 NSgBfM=    25    25    25    25    25 NAtAll=     5     5.
 Leave Link  302 at Sun Aug 18 00:36:28 2024, MaxMem=   13107200 cpu:       0.2
 (Enter /programs/64bit/g09/g09-gfortran/bin/l303.exe)
 DipDrv:  MaxL=1.
 Leave Link  303 at Sun Aug 18 00:36:28 2024, MaxMem=   13107200 cpu:       0.0
 (Enter /programs/64bit/g09/g09-gfortran/bin/l401.exe)
 Harris functional with IExCor=  408 diagonalized for initial guess.
 ExpMin= 3.60D-02 ExpMax= 3.05D+03 ExpMxC= 4.57D+02 IAcc=3 IRadAn=         0 AccDes= 0.00D+00
 HarFok:  IExCor=  408 AccDes= 0.00D+00 IRadAn=         0 IDoV= 1
 ScaDFX=  1.000000  1.000000  1.000000  1.000000
 FoFCou: FMM=F IPFlag=           0 FMFlag=      100000 FMFlg1=           0
         NFxFlg=           0 DoJE=T BraDBF=F KetDBF=T FulRan=T
         Omega=  0.000000  0.000000  1.000000  0.000000  0.000000 ICntrl=     500 IOpCl=  0
         NMat0=    1 NMatS0=    1 NMatT0=    0 NMatD0=    1 NMtDS0=    0 NMtDT0=    0
         I1Cent=           4 NGrid=           0.
 Petite list used in FoFCou.
 Harris En= -40.5763091548641    
 Initial guess orbital symmetries:
       Occupied  (A1) (A1) (T2) (T2) (T2)
       Virtual   (A1) (T2) (T2) (T2) (T2) (T2) (T2) (A1) (T2) (T2)
                 (T2) (A1) (T2) (T2) (T2) (T2) (T2) (T2) (A1) (A1)
 The electronic state of the initial guess is 1-A1.
 Leave Link  401 at Sun Aug 18 00:36:29 2024, MaxMem=   13107200 cpu:       0.3
 (Enter /programs/64bit/g09/g09-gfortran/bin/l502.exe)
 Closed shell SCF:
 Requested convergence on RMS density matrix=1.00D-08 within 128 cycles.
 Requested convergence on MAX density matrix=1.00D-06.
 Requested convergence on             energy=1.00D-06.
 No special actions if energy rises.
 Using DIIS extrapolation, IDIIS=  1040.
 Integral symmetry usage will be decided dynamically.
        42971 words used for storage of precomputed grid.
 Keep R1 ints in memory in canonical form, NReq=975201.
 IEnd=       63786 IEndB=       63786 NGot=    13107200 MDV=    13007702
 LenX=    13007702 LenY=    13006636
 Symmetry not used in FoFDir.
 MinBra= 0 MaxBra= 1 Meth= 1.
 IRaf=       0 NMat=   1 IRICut=       1 DoRegI=T DoRafI=F ISym2E= 0 JSym2E=0.

 Cycle   1  Pass 1  IDiag  1:
 E= -40.4158827674627    
 DIIS: error= 4.57D-02 at cycle   1 NSaved=   1.
 NSaved= 1 IEnMin= 1 EnMin= -40.4158827674627     IErMin= 1 ErrMin= 4.57D-02
 ErrMax= 4.57D-02 EMaxC= 1.00D-01 BMatC= 7.36D-02 BMatP= 7.36D-02
 IDIUse=3 WtCom= 5.43D-01 WtEn= 4.57D-01
 Coeff-Com:  0.100D+01
 Coeff-En:   0.100D+01
 Coeff:      0.100D+01
 Gap=     0.308 Goal=   None    Shift=    0.000
 GapD=    0.308 DampG=1.000 DampE=0.500 DampFc=0.5000 IDamp=-1.
 Damping current iteration by 5.00D-01
 RMSDP=1.75D-02 MaxDP=1.47D-01              OVMax= 1.87D-01

 Cycle   2  Pass 1  IDiag  1:
 E= -40.4541476966783     Delta-E=       -0.038264929216 Rises=F Damp=T
 DIIS: error= 5.92D-03 at cycle   2 NSaved=   2.
 NSaved= 2 IEnMin= 2 EnMin= -40.4541476966783     IErMin= 2 ErrMin= 5.92D-03
 ErrMax= 5.92D-03 EMaxC= 1.00D-01 BMatC= 8.28D-04 BMatP= 7.36D-02
 IDIUse=3 WtCom= 9.41D-01 WtEn= 5.92D-02
 Coeff-Com:  0.605D-01 0.939D+00
 Coeff-En:   0.995D-01 0.900D+00
 Coeff:      0.628D-01 0.937D+00
 Gap=     0.393 Goal=   None    Shift=    0.000
 RMSDP=1.37D-03 MaxDP=5.64D-03 DE=-3.83D-02 OVMax= 9.33D-02

 Cycle   3  Pass 1  IDiag  1:
 E= -40.4976324416970     Delta-E=       -0.043484745019 Rises=F Damp=F
 DIIS: error= 3.55D-04 at cycle   3 NSaved=   3.
 NSaved= 3 IEnMin= 3 EnMin= -40.4976324416970     IErMin= 3 ErrMin= 3.55D-04
 ErrMax= 3.55D-04 EMaxC= 1.00D-01 BMatC= 3.17D-06 BMatP= 8.28D-04
 IDIUse=3 WtCom= 9.96D-01 WtEn= 3.55D-03
 Coeff-Com:  0.357D-02-0.379D-01 0.103D+01
 Coeff-En:   0.000D+00 0.000D+00 0.100D+01
 Coeff:      0.356D-02-0.377D-01 0.103D+01
 Gap=     0.400 Goal=   None    Shift=    0.000
 RMSDP=9.19D-05 MaxDP=5.46D-04 DE=-4.35D-02 OVMax= 4.36D-04

 Cycle   4  Pass 1  IDiag  1:
 E= -40.4976353066081     Delta-E=       -0.000002864911 Rises=F Damp=F
 DIIS: error= 1.05D-05 at cycle   4 NSaved=   4.
 NSaved= 4 IEnMin= 4 EnMin= -40.4976353066081     IErMin= 4 ErrMin= 1.05D-05
 ErrMax= 1.05D-05 EMaxC= 1.00D-01 BMatC= 3.38D-09 BMatP= 3.17D-06
 IDIUse=1 WtCom= 1.00D+00 WtEn= 0.00D+00
 Coeff-Com:  0.157D-03 0.160D-02-0.211D-01 0.102D+01
 Coeff:      0.157D-03 0.160D-02-0.211D-01 0.102D+01
 Gap=     0.400 Goal=   None    Shift=    0.000
 RMSDP=3.49D-06 MaxDP=2.06D-05 DE=-2.86D-06 OVMax= 2.39D-05

 Cycle   5  Pass 1  IDiag  1:
 E= -40.4976353109237     Delta-E=       -0.000000004316 Rises=F Damp=F
 DIIS: error= 7.22D-07 at cycle   5 NSaved=   5.
 NSaved= 5 IEnMin= 5 EnMin= -40.4976353109237     IErMin= 5 ErrMin= 7.22D-07
 ErrMax= 7.22D-07 EMaxC= 1.00D-01 BMatC= 1.71D-11 BMatP= 3.38D-09
 IDIUse=1 WtCom= 1.00D+00 WtEn= 0.00D+00
 Coeff-Com: -0.156D-04-0.862D-04-0.140D-03 0.626D-02 0.994D+00
 Coeff:     -0.156D-04-0.862D-04-0.140D-03 0.626D-02 0.994D+00
 Gap=     0.400 Goal=   None    Shift=    0.000
 RMSDP=3.92D-07 MaxDP=1.33D-06 DE=-4.32D-09 OVMax= 1.97D-06

 Cycle   6  Pass 1  IDiag  1:
 E= -40.4976353109490     Delta-E=       -0.000000000025 Rises=F Damp=F
 DIIS: error= 9.01D-08 at cycle   6 NSaved=   6.
 NSaved= 6 IEnMin= 6 EnMin= -40.4976353109490     IErMin= 6 ErrMin= 9.01D-08
 ErrMax= 9.01D-08 EMaxC= 1.00D-01 BMatC= 2.55D-13 BMatP= 1.71D-11
 IDIUse=1 WtCom= 1.00D+00 WtEn= 0.00D+00
 Coeff-Com:  0.616D-06 0.847D-06-0.643D-04-0.414D-02 0.956D-02 0.995D+00
 Coeff:      0.616D-06 0.847D-06-0.643D-04-0.414D-02 0.956D-02 0.995D+00
 Gap=     0.400 Goal=   None    Shift=    0.000
 RMSDP=1.61D-08 MaxDP=1.35D-07 DE=-2.53D-11 OVMax= 1.73D-07

 Cycle   7  Pass 1  IDiag  1:
 E= -40.4976353109492     Delta-E=       -0.000000000000 Rises=F Damp=F
 DIIS: error= 2.28D-09 at cycle   7 NSaved=   7.
 NSaved= 7 IEnMin= 7 EnMin= -40.4976353109492     IErMin= 7 ErrMin= 2.28D-09
 ErrMax= 2.28D-09 EMaxC= 1.00D-01 BMatC= 1.67D-16 BMatP= 2.55D-13
 IDIUse=1 WtCom= 1.00D+00 WtEn= 0.00D+00
 Coeff-Com:  0.528D-07-0.109D-06 0.941D-05 0.293D-03-0.368D-02-0.728D-01
 Coeff-Com:  0.108D+01
 Coeff:      0.528D-07-0.109D-06 0.941D-05 0.293D-03-0.368D-02-0.728D-01
 Coeff:      0.108D+01
 Gap=     0.400 Goal=   None    Shift=    0.000
 RMSDP=1.65D-09 MaxDP=5.35D-09 DE=-1.85D-13 OVMax= 4.26D-09

 SCF Done:  E(RB3PW91) =  -40.4976353109     A.U. after    7 cycles
             Convg  =    0.1645D-08             -V/T =  2.0064
 KE= 4.024137944798D+01 PE=-1.200408230680D+02 EE= 2.586641911363D+01
 Leave Link  502 at Sun Aug 18 00:36:30 2024, MaxMem=   13107200 cpu:       1.2
 (Enter /programs/64bit/g09/g09-gfortran/bin/l601.exe)
 Copying SCF densities to generalized density rwf, IOpCl= 0 IROHF=0.

 **********************************************************************

            Population analysis using the SCF density.

 **********************************************************************

 Orbital symmetries:
       Occupied  (A1) (A1) (T2) (T2) (T2)
       Virtual   (A1) (T2) (T2) (T2) (T2) (T2) (T2) (A1) (T2) (T2)
                 (T2) (A1) (T2) (T2) (T2) (T2) (T2) (T2) (A1) (A1)
 The electronic state is 1-A1.
 Alpha  occ. eigenvalues --  -10.14849  -0.70162  -0.39568  -0.39568  -0.39568
 Alpha virt. eigenvalues --    0.00391   0.04814   0.04814   0.04814   0.11329
 Alpha virt. eigenvalues --    0.11329   0.11329   0.14571   0.22023   0.22023
 Alpha virt. eigenvalues --    0.22023   0.35530   0.71720   0.71720   0.71720
 Alpha virt. eigenvalues --    1.01232   1.01232   1.01232   1.13750   1.18417
     Molecular Orbital Coefficients:
                           1         2         3         4         5
                        (A1)--O   (A1)--O   (T2)--O   (T2)--O   (T2)--O
     Eigenvalues --   -10.14849  -0.70162  -0.39568  -0.39568  -0.39568
   1 1   C  1S          0.99526  -0.20017   0.00000   0.00000   0.00000
   2        2S          0.03637   0.37670   0.00000   0.00000   0.00000
   3        2PX         0.00000   0.00000   0.44792   0.00000   0.00000
   4        2PY         0.00000   0.00000   0.00000   0.44792   0.00000
   5        2PZ         0.00000   0.00000   0.00000   0.00000   0.44792
   6        3S         -0.03066   0.40781   0.00000   0.00000   0.00000
   7        3PX         0.00000   0.00000   0.21656   0.00000   0.00000
   8        3PY         0.00000   0.00000   0.00000   0.21656   0.00000
   9        3PZ         0.00000   0.00000   0.00000   0.00000   0.21656
  10        4S          0.00348   0.04292   0.00000   0.00000   0.00000
  11        4PX         0.00000   0.00000   0.02638   0.00000   0.00000
  12        4PY         0.00000   0.00000   0.00000   0.02638   0.00000
  13        4PZ         0.00000   0.00000   0.00000   0.00000   0.02638
  14 2   H  1S         -0.00080   0.13498   0.17471   0.17471   0.17471
  15        2S          0.00612   0.01640   0.12741   0.12741   0.12741
  16        3S         -0.00113  -0.00417   0.00358   0.00358   0.00358
  17 3   H  1S         -0.00080   0.13498  -0.17471  -0.17471   0.17471
  18        2S          0.00612   0.01640  -0.12741  -0.12741   0.12741
  19        3S         -0.00113  -0.00417  -0.00358  -0.00358   0.00358
  20 4   H  1S         -0.00080   0.13498  -0.17471   0.17471  -0.17471
  21        2S          0.00612   0.01640  -0.12741   0.12741  -0.12741
  22        3S         -0.00113  -0.00417  -0.00358   0.00358  -0.00358
  23 5   H  1S         -0.00080   0.13498   0.17471  -0.17471  -0.17471
  24        2S          0.00612   0.01640   0.12741  -0.12741  -0.12741
  25        3S         -0.00113  -0.00417   0.00358  -0.00358  -0.00358
                           6         7         8         9        10
                        (A1)--V   (T2)--V   (T2)--V   (T2)--V   (T2)--V
     Eigenvalues --     0.00391   0.04814   0.04814   0.04814   0.11329
   1 1   C  1S         -0.06398   0.00000   0.00000   0.00000   0.00000
   2        2S          0.14541   0.00000   0.00000   0.00000   0.00000
   3        2PX         0.00000   0.00000  -0.17276   0.00000   0.00000
   4        2PY         0.00000  -0.17276   0.00000   0.00000  -0.02437
   5        2PZ         0.00000   0.00000   0.00000  -0.17276   0.00000
   6        3S          0.55023   0.00000   0.00000   0.00000   0.00000
   7        3PX         0.00000   0.00000  -0.12850   0.00000   0.00000
   8        3PY         0.00000  -0.12850   0.00000   0.00000   0.23382
   9        3PZ         0.00000   0.00000   0.00000  -0.12850   0.00000
  10        4S          3.03951   0.00000   0.00000   0.00000   0.00000
  11        4PX         0.00000   0.00000  -1.13169   0.00000   0.00000
  12        4PY         0.00000  -1.13169   0.00000   0.00000   3.20405
  13        4PZ         0.00000   0.00000   0.00000  -1.13169   0.00000
  14 2   H  1S          0.00033  -0.00979  -0.00979  -0.00979  -0.06085
  15        2S         -0.22023   0.01553   0.01553   0.01553  -0.49583
  16        3S         -0.98529   2.36212   2.36212   2.36212  -2.78894
  17 3   H  1S          0.00033   0.00979   0.00979  -0.00979   0.06085
  18        2S         -0.22023  -0.01553  -0.01553   0.01553   0.49583
  19        3S         -0.98529  -2.36212  -2.36212   2.36212   2.78894
  20 4   H  1S          0.00033  -0.00979   0.00979   0.00979  -0.06085
  21        2S         -0.22023   0.01553  -0.01553  -0.01553  -0.49583
  22        3S         -0.98529   2.36212  -2.36212  -2.36212  -2.78894
  23 5   H  1S          0.00033   0.00979  -0.00979   0.00979   0.06085
  24        2S         -0.22023  -0.01553   0.01553  -0.01553   0.49583
  25        3S         -0.98529  -2.36212   2.36212  -2.36212   2.78894
                          11        12        13        14        15
                        (T2)--V   (T2)--V   (A1)--V   (T2)--V   (T2)--V
     Eigenvalues --     0.11329   0.11329   0.14571   0.22023   0.22023
   1 1   C  1S          0.00000   0.00000   0.10757   0.00000   0.00000
   2        2S          0.00000   0.00000  -0.17820   0.00000   0.00000
   3        2PX        -0.02437   0.00000   0.00000   0.00000   0.39576
   4        2PY         0.00000   0.00000   0.00000   0.39576   0.00000
   5        2PZ         0.00000  -0.02437   0.00000   0.00000   0.00000
   6        3S          0.00000   0.00000  -1.17346   0.00000   0.00000
   7        3PX         0.23382   0.00000   0.00000   0.00000   1.42269
   8        3PY         0.00000   0.00000   0.00000   1.42269   0.00000
   9        3PZ         0.00000   0.23382   0.00000   0.00000   0.00000
  10        4S          0.00000   0.00000   8.44178   0.00000   0.00000
  11        4PX         3.20405   0.00000   0.00000   0.00000  -1.67826
  12        4PY         0.00000   0.00000   0.00000  -1.67826   0.00000
  13        4PZ         0.00000   3.20405   0.00000   0.00000   0.00000
  14 2   H  1S         -0.06085  -0.06085   0.03543  -0.09260  -0.09260
  15        2S         -0.49583  -0.49583  -0.12710  -1.06847  -1.06847
  16        3S         -2.78894  -2.78894  -1.89087   2.15205   2.15205
  17 3   H  1S          0.06085  -0.06085   0.03543   0.09260   0.09260
  18        2S          0.49583  -0.49583  -0.12710   1.06847   1.06847
  19        3S          2.78894  -2.78894  -1.89087  -2.15205  -2.15205
  20 4   H  1S          0.06085   0.06085   0.03543  -0.09260   0.09260
  21        2S          0.49583   0.49583  -0.12710  -1.06847   1.06847
  22        3S          2.78894   2.78894  -1.89087   2.15205  -2.15205
  23 5   H  1S         -0.06085   0.06085   0.03543   0.09260  -0.09260
  24        2S         -0.49583   0.49583  -0.12710   1.06847  -1.06847
  25        3S         -2.78894   2.78894  -1.89087  -2.15205   2.15205
                          16        17        18        19        20
                        (T2)--V   (A1)--V   (T2)--V   (T2)--V   (T2)--V
     Eigenvalues --     0.22023   0.35530   0.71720   0.71720   0.71720
   1 1   C  1S          0.00000  -0.13106   0.00000   0.00000   0.00000
   2        2S          0.00000   0.11214   0.00000   0.00000   0.00000
   3        2PX         0.00000   0.00000  -0.96396   0.00000   0.00000
   4        2PY         0.00000   0.00000   0.00000  -0.96396   0.00000
   5        2PZ         0.39576   0.00000   0.00000   0.00000  -0.96396
   6        3S          0.00000   3.19787   0.00000   0.00000   0.00000
   7        3PX         0.00000   0.00000   2.01655   0.00000   0.00000
   8        3PY         0.00000   0.00000   0.00000   2.01655   0.00000
   9        3PZ         1.42269   0.00000   0.00000   0.00000   2.01655
  10        4S          0.00000   8.45255   0.00000   0.00000   0.00000
  11        4PX         0.00000   0.00000  -1.80415   0.00000   0.00000
  12        4PY         0.00000   0.00000   0.00000  -1.80415   0.00000
  13        4PZ        -1.67826   0.00000   0.00000   0.00000  -1.80415
  14 2   H  1S         -0.09260  -0.10840  -0.22341  -0.22341  -0.22341
  15        2S         -1.06847  -2.07238  -0.20816  -0.20816  -0.20816
  16        3S          2.15205  -1.44819   1.39689   1.39689   1.39689
  17 3   H  1S         -0.09260  -0.10840   0.22341   0.22341  -0.22341
  18        2S         -1.06847  -2.07238   0.20816   0.20816  -0.20816
  19        3S          2.15205  -1.44819  -1.39689  -1.39689   1.39689
  20 4   H  1S          0.09260  -0.10840   0.22341  -0.22341   0.22341
  21        2S          1.06847  -2.07238   0.20816  -0.20816   0.20816
  22        3S         -2.15205  -1.44819  -1.39689   1.39689  -1.39689
  23 5   H  1S          0.09260  -0.10840  -0.22341   0.22341   0.22341
  24        2S          1.06847  -2.07238  -0.20816   0.20816   0.20816
  25        3S         -2.15205  -1.44819   1.39689  -1.39689  -1.39689
                          21        22        23        24        25
                        (T2)--V   (T2)--V   (T2)--V   (A1)--V   (A1)--V
     Eigenvalues --     1.01232   1.01232   1.01232   1.13750   1.18417
   1 1   C  1S          0.00000   0.00000   0.00000  -0.02076   0.09788
   2        2S          0.00000   0.00000   0.00000  -2.37379   0.55094
   3        2PX         0.66368   0.00000   0.00000   0.00000   0.00000
   4        2PY         0.00000   0.00000   0.66368   0.00000   0.00000
   5        2PZ         0.00000   0.66368   0.00000   0.00000   0.00000
   6        3S          0.00000   0.00000   0.00000   5.89387  -0.74751
   7        3PX        -0.85837   0.00000   0.00000   0.00000   0.00000
   8        3PY         0.00000   0.00000  -0.85837   0.00000   0.00000
   9        3PZ         0.00000  -0.85837   0.00000   0.00000   0.00000
  10        4S          0.00000   0.00000   0.00000   0.67969   5.26070
  11        4PX        -0.04994   0.00000   0.00000   0.00000   0.00000
  12        4PY         0.00000   0.00000  -0.04994   0.00000   0.00000
  13        4PZ         0.00000  -0.04994   0.00000   0.00000   0.00000
  14 2   H  1S         -0.66581  -0.66581  -0.66581   0.14299   0.75606
  15        2S          1.12755   1.12755   1.12755  -1.63216  -0.95959
  16        3S         -0.37194  -0.37194  -0.37194   0.01104  -0.92704
  17 3   H  1S          0.66581  -0.66581   0.66581   0.14299   0.75606
  18        2S         -1.12755   1.12755  -1.12755  -1.63216  -0.95959
  19        3S          0.37194  -0.37194   0.37194   0.01104  -0.92704
  20 4   H  1S          0.66581   0.66581  -0.66581   0.14299   0.75606
  21        2S         -1.12755  -1.12755   1.12755  -1.63216  -0.95959
  22        3S          0.37194   0.37194  -0.37194   0.01104  -0.92704
  23 5   H  1S         -0.66581   0.66581   0.66581   0.14299   0.75606
  24        2S          1.12755  -1.12755  -1.12755  -1.63216  -0.95959
  25        3S         -0.37194   0.37194   0.37194   0.01104  -0.92704
     Density Matrix:
                           1         2         3         4         5
   1 1   C  1S          2.06123
   2        2S         -0.07842   0.28645
   3        2PX         0.00000   0.00000   0.40126
   4        2PY         0.00000   0.00000   0.00000   0.40126
   5        2PZ         0.00000   0.00000   0.00000   0.00000   0.40126
   6        3S         -0.22430   0.30501   0.00000   0.00000   0.00000
   7        3PX         0.00000   0.00000   0.19400   0.00000   0.00000
   8        3PY         0.00000   0.00000   0.00000   0.19400   0.00000
   9        3PZ         0.00000   0.00000   0.00000   0.00000   0.19400
  10        4S         -0.01026   0.03259   0.00000   0.00000   0.00000
  11        4PX         0.00000   0.00000   0.02363   0.00000   0.00000
  12        4PY         0.00000   0.00000   0.00000   0.02363   0.00000
  13        4PZ         0.00000   0.00000   0.00000   0.00000   0.02363
  14 2   H  1S         -0.05563   0.10163   0.15651   0.15651   0.15651
  15        2S          0.00562   0.01280   0.11414   0.11414   0.11414
  16        3S         -0.00058  -0.00322   0.00321   0.00321   0.00321
  17 3   H  1S         -0.05563   0.10163  -0.15651  -0.15651   0.15651
  18        2S          0.00562   0.01280  -0.11414  -0.11414   0.11414
  19        3S         -0.00058  -0.00322  -0.00321  -0.00321   0.00321
  20 4   H  1S         -0.05563   0.10163  -0.15651   0.15651  -0.15651
  21        2S          0.00562   0.01280  -0.11414   0.11414  -0.11414
  22        3S         -0.00058  -0.00322  -0.00321   0.00321  -0.00321
  23 5   H  1S         -0.05563   0.10163   0.15651  -0.15651  -0.15651
  24        2S          0.00562   0.01280   0.11414  -0.11414  -0.11414
  25        3S         -0.00058  -0.00322   0.00321  -0.00321  -0.00321
                           6         7         8         9        10
   6        3S          0.33450
   7        3PX         0.00000   0.09379
   8        3PY         0.00000   0.00000   0.09379
   9        3PZ         0.00000   0.00000   0.00000   0.09379
  10        4S          0.03479   0.00000   0.00000   0.00000   0.00371
  11        4PX         0.00000   0.01142   0.00000   0.00000   0.00000
  12        4PY         0.00000   0.00000   0.01142   0.00000   0.00000
  13        4PZ         0.00000   0.00000   0.00000   0.01142   0.00000
  14 2   H  1S          0.11014   0.07567   0.07567   0.07567   0.01158
  15        2S          0.01300   0.05518   0.05518   0.05518   0.00145
  16        3S         -0.00333   0.00155   0.00155   0.00155  -0.00037
  17 3   H  1S          0.11014  -0.07567  -0.07567   0.07567   0.01158
  18        2S          0.01300  -0.05518  -0.05518   0.05518   0.00145
  19        3S         -0.00333  -0.00155  -0.00155   0.00155  -0.00037
  20 4   H  1S          0.11014  -0.07567   0.07567  -0.07567   0.01158
  21        2S          0.01300  -0.05518   0.05518  -0.05518   0.00145
  22        3S         -0.00333  -0.00155   0.00155  -0.00155  -0.00037
  23 5   H  1S          0.11014   0.07567  -0.07567  -0.07567   0.01158
  24        2S          0.01300   0.05518  -0.05518  -0.05518   0.00145
  25        3S         -0.00333   0.00155  -0.00155  -0.00155  -0.00037
                          11        12        13        14        15
  11        4PX         0.00139
  12        4PY         0.00000   0.00139
  13        4PZ         0.00000   0.00000   0.00139
  14 2   H  1S          0.00922   0.00922   0.00922   0.21957
  15        2S          0.00672   0.00672   0.00672   0.13797   0.09801
  16        3S          0.00019   0.00019   0.00019   0.00263   0.00259
  17 3   H  1S         -0.00922  -0.00922   0.00922  -0.02460  -0.04010
  18        2S         -0.00672  -0.00672   0.00672  -0.04010  -0.03185
  19        3S         -0.00019  -0.00019   0.00019  -0.00238  -0.00106
  20 4   H  1S         -0.00922   0.00922  -0.00922  -0.02460  -0.04010
  21        2S         -0.00672   0.00672  -0.00672  -0.04010  -0.03185
  22        3S         -0.00019   0.00019  -0.00019  -0.00238  -0.00106
  23 5   H  1S          0.00922  -0.00922  -0.00922  -0.02460  -0.04010
  24        2S          0.00672  -0.00672  -0.00672  -0.04010  -0.03185
  25        3S          0.00019  -0.00019  -0.00019  -0.00238  -0.00106
                          16        17        18        19        20
  16        3S          0.00011
  17 3   H  1S         -0.00238   0.21957
  18        2S         -0.00106   0.13797   0.09801
  19        3S          0.00001   0.00263   0.00259   0.00011
  20 4   H  1S         -0.00238  -0.02460  -0.04010  -0.00238   0.21957
  21        2S         -0.00106  -0.04010  -0.03185  -0.00106   0.13797
  22        3S          0.00001  -0.00238  -0.00106   0.00001   0.00263
  23 5   H  1S         -0.00238  -0.02460  -0.04010  -0.00238  -0.02460
  24        2S         -0.00106  -0.04010  -0.03185  -0.00106  -0.04010
  25        3S          0.00001  -0.00238  -0.00106   0.00001  -0.00238
                          21        22        23        24        25
  21        2S          0.09801
  22        3S          0.00259   0.00011
  23 5   H  1S         -0.04010  -0.00238   0.21957
  24        2S         -0.03185  -0.00106   0.13797   0.09801
  25        3S         -0.00106   0.00001   0.00263   0.00259   0.00011
    Full Mulliken population analysis:
                           1         2         3         4         5
   1 1   C  1S          2.06123
   2        2S         -0.01718   0.28645
   3        2PX         0.00000   0.00000   0.40126
   4        2PY         0.00000   0.00000   0.00000   0.40126
   5        2PZ         0.00000   0.00000   0.00000   0.00000   0.40126
   6        3S         -0.04133   0.24775   0.00000   0.00000   0.00000
   7        3PX         0.00000   0.00000   0.11053   0.00000   0.00000
   8        3PY         0.00000   0.00000   0.00000   0.11053   0.00000
   9        3PZ         0.00000   0.00000   0.00000   0.00000   0.11053
  10        4S         -0.00072   0.01310   0.00000   0.00000   0.00000
  11        4PX         0.00000   0.00000   0.00389   0.00000   0.00000
  12        4PY         0.00000   0.00000   0.00000   0.00389   0.00000
  13        4PZ         0.00000   0.00000   0.00000   0.00000   0.00389
  14 2   H  1S         -0.00182   0.02782   0.03337   0.03337   0.03337
  15        2S          0.00052   0.00610   0.01751   0.01751   0.01751
  16        3S         -0.00003  -0.00099   0.00008   0.00008   0.00008
  17 3   H  1S         -0.00182   0.02782   0.03337   0.03337   0.03337
  18        2S          0.00052   0.00610   0.01751   0.01751   0.01751
  19        3S         -0.00003  -0.00099   0.00008   0.00008   0.00008
  20 4   H  1S         -0.00182   0.02782   0.03337   0.03337   0.03337
  21        2S          0.00052   0.00610   0.01751   0.01751   0.01751
  22        3S         -0.00003  -0.00099   0.00008   0.00008   0.00008
  23 5   H  1S         -0.00182   0.02782   0.03337   0.03337   0.03337
  24        2S          0.00052   0.00610   0.01751   0.01751   0.01751
  25        3S         -0.00003  -0.00099   0.00008   0.00008   0.00008
                           6         7         8         9        10
   6        3S          0.33450
   7        3PX         0.00000   0.09379
   8        3PY         0.00000   0.00000   0.09379
   9        3PZ         0.00000   0.00000   0.00000   0.09379
  10        4S          0.02532   0.00000   0.00000   0.00000   0.00371
  11        4PX         0.00000   0.00673   0.00000   0.00000   0.00000
  12        4PY         0.00000   0.00000   0.00673   0.00000   0.00000
  13        4PZ         0.00000   0.00000   0.00000   0.00673   0.00000
  14 2   H  1S          0.04153   0.02250   0.02250   0.02250   0.00300
  15        2S          0.00916   0.01856   0.01856   0.01856   0.00093
  16        3S         -0.00195   0.00016   0.00016   0.00016  -0.00033
  17 3   H  1S          0.04153   0.02250   0.02250   0.02250   0.00300
  18        2S          0.00916   0.01856   0.01856   0.01856   0.00093
  19        3S         -0.00195   0.00016   0.00016   0.00016  -0.00033
  20 4   H  1S          0.04153   0.02250   0.02250   0.02250   0.00300
  21        2S          0.00916   0.01856   0.01856   0.01856   0.00093
  22        3S         -0.00195   0.00016   0.00016   0.00016  -0.00033
  23 5   H  1S          0.04153   0.02250   0.02250   0.02250   0.00300
  24        2S          0.00916   0.01856   0.01856   0.01856   0.00093
  25        3S         -0.00195   0.00016   0.00016   0.00016  -0.00033
                          11        12        13        14        15
  11        4PX         0.00139
  12        4PY         0.00000   0.00139
  13        4PZ         0.00000   0.00000   0.00139
  14 2   H  1S          0.00112   0.00112   0.00112   0.21957
  15        2S          0.00169   0.00169   0.00169   0.09083   0.09801
  16        3S          0.00004   0.00004   0.00004   0.00071   0.00176
  17 3   H  1S          0.00112   0.00112   0.00112  -0.00045  -0.00598
  18        2S          0.00169   0.00169   0.00169  -0.00598  -0.01279
  19        3S          0.00004   0.00004   0.00004  -0.00044  -0.00052
  20 4   H  1S          0.00112   0.00112   0.00112  -0.00045  -0.00598
  21        2S          0.00169   0.00169   0.00169  -0.00598  -0.01279
  22        3S          0.00004   0.00004   0.00004  -0.00044  -0.00052
  23 5   H  1S          0.00112   0.00112   0.00112  -0.00045  -0.00598
  24        2S          0.00169   0.00169   0.00169  -0.00598  -0.01279
  25        3S          0.00004   0.00004   0.00004  -0.00044  -0.00052
                          16        17        18        19        20
  16        3S          0.00011
  17 3   H  1S         -0.00044   0.21957
  18        2S         -0.00052   0.09083   0.09801
  19        3S          0.00001   0.00071   0.00176   0.00011
  20 4   H  1S         -0.00044  -0.00045  -0.00598  -0.00044   0.21957
  21        2S         -0.00052  -0.00598  -0.01279  -0.00052   0.09083
  22        3S          0.00001  -0.00044  -0.00052   0.00001   0.00071
  23 5   H  1S         -0.00044  -0.00045  -0.00598  -0.00044  -0.00045
  24        2S         -0.00052  -0.00598  -0.01279  -0.00052  -0.00598
  25        3S          0.00001  -0.00044  -0.00052   0.00001  -0.00044
                          21        22        23        24        25
  21        2S          0.09801
  22        3S          0.00176   0.00011
  23 5   H  1S         -0.00598  -0.00044   0.21957
  24        2S         -0.01279  -0.00052   0.09083   0.09801
  25        3S         -0.00052   0.00001   0.00071   0.00176   0.00011
     Gross orbital populations:
                           1
   1 1   C  1S          1.99667
   2        2S          0.66181
   3        2PX         0.71957
   4        2PY         0.71957
   5        2PZ         0.71957
   6        3S          0.76119
   7        3PX         0.37592
   8        3PY         0.37592
   9        3PZ         0.37592
  10        4S          0.05579
  11        4PX         0.02338
  12        4PY         0.02338
  13        4PZ         0.02338
  14 2   H  1S          0.53199
  15        2S          0.26272
  16        3S         -0.00272
  17 3   H  1S          0.53199
  18        2S          0.26272
  19        3S         -0.00272
  20 4   H  1S          0.53199
  21        2S          0.26272
  22        3S         -0.00272
  23 5   H  1S          0.53199
  24        2S          0.26272
  25        3S         -0.00272
          Condensed to atoms (all electrons):
              1          2          3          4          5
     1  C    5.356011   0.369013   0.369013   0.369013   0.369013
     2  H    0.369013   0.504291  -0.027107  -0.027107  -0.027107
     3  H    0.369013  -0.027107   0.504291  -0.027107  -0.027107
     4  H    0.369013  -0.027107  -0.027107   0.504291  -0.027107
     5  H    0.369013  -0.027107  -0.027107  -0.027107   0.504291
 Mulliken atomic charges:
              1
     1  C   -0.832063
     2  H    0.208016
     3  H    0.208016
     4  H    0.208016
     5  H    0.208016
 Sum of Mulliken atomic charges =   0.00000
 Mulliken charges with hydrogens summed into heavy atoms:
              1
     1  C    0.000000
 Sum of Mulliken charges with hydrogens summed into heavy atoms =   0.00000
 Electronic spatial extent (au):  <R**2>=             35.7721
 Charge=             -0.0000 electrons
 Dipole moment (field-independent basis, Debye):
    X=             -0.0000    Y=             -0.0000    Z=             -0.0000  Tot=              0.0000
 Quadrupole moment (field-independent basis, Debye-Ang):
   XX=             -8.4293   YY=             -8.4293   ZZ=             -8.4293
   XY=             -0.0000   XZ=             -0.0000   YZ=             -0.0000
 Traceless Quadrupole moment (field-independent basis, Debye-Ang):
   XX=             -0.0000   YY=              0.0000   ZZ=              0.0000
   XY=             -0.0000   XZ=             -0.0000   YZ=             -0.0000
 Octapole moment (field-independent basis, Debye-Ang**2):
  XXX=             -0.0000  YYY=             -0.0000  ZZZ=             -0.0000  XYY=              0.0000
  XXY=              0.0000  XXZ=              0.0000  XZZ=              0.0000  YZZ=             -0.0000
  YYZ=             -0.0000  XYZ=              0.7499
 Hexadecapole moment (field-independent basis, Debye-Ang**3):
 XXXX=            -16.8874 YYYY=            -16.8874 ZZZZ=            -16.8874 XXXY=              0.0000
 XXXZ=             -0.0000 YYYX=             -0.0000 YYYZ=             -0.0000 ZZZX=             -0.0000
 ZZZY=             -0.0000 XXYY=             -5.1761 XXZZ=             -5.1761 YYZZ=             -5.1761
 XXYZ=             -0.0000 YYXZ=             -0.0000 ZZXY=             -0.0000
 N-N= 1.343538919541D+01 E-N=-1.200408231141D+02  KE= 4.024137944798D+01
 Symmetry A    KE= 3.447173795020D+01
 Symmetry B1   KE= 1.923213832596D+00
 Symmetry B2   KE= 1.923213832596D+00
 Symmetry B3   KE= 1.923213832596D+00
 Orbital energies and kinetic energies (alpha):
                                 1                 2
   1         (A1)--O         -10.148490         15.960776
   2         (A1)--O          -0.701618          1.275093
   3         (T2)--O          -0.395681          0.961607
   4         (T2)--O          -0.395681          0.961607
   5         (T2)--O          -0.395681          0.961607
   6         (A1)--V           0.003906          0.192105
   7         (T2)--V           0.048140          0.162626
   8         (T2)--V           0.048140          0.162626
   9         (T2)--V           0.048140          0.162626
  10         (T2)--V           0.113294          0.240072
  11         (T2)--V           0.113294          0.240072
  12         (T2)--V           0.113294          0.240072
  13         (A1)--V           0.145714          0.551576
  14         (T2)--V           0.220231          0.873386
  15         (T2)--V           0.220231          0.873386
  16         (T2)--V           0.220231          0.873386
  17         (A1)--V           0.355296          1.018817
  18         (T2)--V           0.717200          1.921443
  19         (T2)--V           0.717200          1.921443
  20         (T2)--V           0.717200          1.921443
  21         (T2)--V           1.012320          2.579512
  22         (T2)--V           1.012320          2.579512
  23         (T2)--V           1.012320          2.579512
  24         (A1)--V           1.137499          2.502844
  25         (A1)--V           1.184167          2.411540
 Total kinetic energy from orbitals= 4.024137944798D+01
 No NMR shielding tensors so no spin-rotation constants.
 Leave Link  601 at Sun Aug 18 00:36:30 2024, MaxMem=   13107200 cpu:       0.1
 (Enter /programs/64bit/g09/g09-gfortran/bin/l701.exe)
 Compute integral first derivatives.
 ... and contract with generalized density number  0.
 Leave Link  701 at Sun Aug 18 00:36:30 2024, MaxMem=   13107200 cpu:       0.1
 (Enter /programs/64bit/g09/g09-gfortran/bin/l702.exe)
 L702 exits ... SP integral derivatives will be done elsewhere.
 Leave Link  702 at Sun Aug 18 00:36:30 2024, MaxMem=   13107200 cpu:       0.0
 (Enter /programs/64bit/g09/g09-gfortran/bin/l703.exe)
 Compute integral first derivatives, UseDBF=F ICtDFT=           0.
 Integral derivatives from FoFDir, PRISM(SPDF).
 Calling FoFJK, ICntrl=      2127 FMM=F ISym2X=1 I1Cent= 0 IOpClX= 0 NMat=1 NMatS=1 NMatT=0.
 FoFCou: FMM=F IPFlag=           0 FMFlag=      100000 FMFlg1=         800
         NFxFlg=           0 DoJE=F BraDBF=F KetDBF=F FulRan=T
         Omega=  0.000000  0.000000  1.000000  0.000000  0.000000 ICntrl=    2127 IOpCl=  0
         NMat0=    1 NMatS0=    1 NMatT0=    0 NMatD0=    1 NMtDS0=    0 NMtDT0=    0
         I1Cent=           0 NGrid=           0.
 Petite list used in FoFCou.
 Leave Link  703 at Sun Aug 18 00:36:31 2024, MaxMem=   13107200 cpu:       0.4
 (Enter /programs/64bit/g09/g09-gfortran/bin/l716.exe)
 Dipole        =-2.22044605D-16-4.44089210D-16-2.22044605D-16
 ***** Axes restored to original set *****
 -------------------------------------------------------------------
 Center     Atomic                   Forces (Hartrees/Bohr)
 Number     Number              X              Y              Z
 -------------------------------------------------------------------
      1        6           0.000000000   -0.000000000   -0.000000000
      2        1          -0.000000000   -0.000000000    0.002071943
      3        1           0.001953447   -0.000000000   -0.000690648
      4        1          -0.000976724   -0.001691735   -0.000690648
      5        1          -0.000976724    0.001691735   -0.000690648
 -------------------------------------------------------------------
 Cartesian Forces:  Max     0.002071943 RMS     0.001069947
 Leave Link  716 at Sun Aug 18 00:36:31 2024, MaxMem=   13107200 cpu:       0.0
 (Enter /programs/64bit/g09/g09-gfortran/bin/l103.exe)

 GradGradGradGradGradGradGradGradGradGradGradGradGradGradGradGradGradGrad
 Berny optimization.
 Internal  Forces:  Max     0.002071943 RMS     0.001107500
 Search for a local minimum.
 Step number   1 out of a maximum of   24
 All quantities printed in internal units (Hartrees-Bohrs-Radians)
 RMS Force = .11075D-02 SwitMx=.10000D-02 MixMth= 1
 Mixed Optimization -- RFO/linear search
 Second derivative matrix not updated -- first step.
 The second derivative matrix:
                          R1        R2        R3        R4        A1
           R1           0.34813
           R2           0.00000   0.34813
           R3           0.00000   0.00000   0.34813
           R4           0.00000   0.00000   0.00000   0.34813
           A1           0.00000   0.00000   0.00000   0.00000   0.16000
           A2           0.00000   0.00000   0.00000   0.00000   0.00000
           A3           0.00000   0.00000   0.00000   0.00000   0.00000
           A4           0.00000   0.00000   0.00000   0.00000   0.00000
           A5           0.00000   0.00000   0.00000   0.00000   0.00000
           A6           0.00000   0.00000   0.00000   0.00000   0.00000
           D1           0.00000   0.00000   0.00000   0.00000   0.00000
           D2           0.00000   0.00000   0.00000   0.00000   0.00000
           D3           0.00000   0.00000   0.00000   0.00000   0.00000
           D4           0.00000   0.00000   0.00000   0.00000   0.00000
                          A2        A3        A4        A5        A6
           A2           0.16000
           A3           0.00000   0.16000
           A4           0.00000   0.00000   0.16000
           A5           0.00000   0.00000   0.00000   0.16000
           A6           0.00000   0.00000   0.00000   0.00000   0.16000
           D1           0.00000   0.00000   0.00000   0.00000   0.00000
           D2           0.00000   0.00000   0.00000   0.00000   0.00000
           D3           0.00000   0.00000   0.00000   0.00000   0.00000
           D4           0.00000   0.00000   0.00000   0.00000   0.00000
                          D1        D2        D3        D4
           D1           0.00235
           D2           0.00000   0.00235
           D3           0.00000   0.00000   0.00235
           D4           0.00000   0.00000   0.00000   0.00235
     Eigenvalues ---    0.05086   0.05718   0.08643   0.16000   0.16000
     Eigenvalues ---    0.34813   0.34813   0.34813   0.348131000.00000
     Eigenvalues --- 1000.000001000.000001000.000001000.00000
 RFO step:  Lambda=-4.93263354D-05 EMin= 5.08565158D-02
 Linear search not attempted -- first point.
 Iteration  1 RMS(Cart)=  0.00318087 RMS(Int)=  0.00000000
 Iteration  2 RMS(Cart)=  0.00000000 RMS(Int)=  0.00000000
 ClnCor:  largest displacement from symmetrization is 1.19D-14 for atom     4.
 Variable       Old X    -DE/DX   Delta X   Delta X   Delta X     New X
                                 (Linear)    (Quad)   (Total)
    R1        2.05980   0.00207   0.00000   0.00595   0.00595   2.06575
    R2        2.05980   0.00207   0.00000   0.00595   0.00595   2.06575
    R3        2.05980   0.00207   0.00000   0.00595   0.00595   2.06575
    R4        2.05980   0.00207   0.00000   0.00595   0.00595   2.06575
    A1        1.91063   0.00000   0.00000   0.00000   0.00000   1.91063
    A2        1.91063  -0.00000   0.00000  -0.00000   0.00000   1.91063
    A3        1.91063  -0.00000   0.00000  -0.00000   0.00000   1.91063
    A4        1.91063  -0.00000   0.00000  -0.00000   0.00000   1.91063
    A5        1.91063   0.00000   0.00000   0.00000   0.00000   1.91063
    A6        1.91063   0.00000   0.00000   0.00000   0.00000   1.91063
    D1       -2.09440  -0.00000   0.00000  -0.00000   0.00000  -2.09440
    D2        2.09440   0.00000   0.00000   0.00000   0.00000   2.09440
    D3       -2.09440   0.00000   0.00000   0.00000   0.00000  -2.09440
    D4        2.09440  -0.00000   0.00000  -0.00000   0.00000   2.09440
         Item               Value     Threshold  Converged?
 Maximum Force            0.002072     0.000450     NO 
 RMS     Force            0.001108     0.000300     NO 
 Maximum Displacement     0.005951     0.001800     NO 
 RMS     Displacement     0.003181     0.001200     NO 
 Predicted change in Energy=-2.466317D-05
 GradGradGradGradGradGradGradGradGradGradGradGradGradGradGradGradGradGrad

 Leave Link  103 at Sun Aug 18 00:36:31 2024, MaxMem=   13107200 cpu:       0.0
 (Enter /programs/64bit/g09/g09-gfortran/bin/l202.exe)
                          Input orientation:                          
 ---------------------------------------------------------------------
 Center     Atomic      Atomic             Coordinates (Angstroms)
 Number     Number       Type             X           Y           Z
 ---------------------------------------------------------------------
      1          6           0        0.000000    0.000000   -0.000000
      2          1           0        0.000000    0.000000    1.093149
      3          1           0        1.030631   -0.000000   -0.364383
      4          1           0       -0.515315   -0.892552   -0.364383
      5          1           0       -0.515315    0.892552   -0.364383
 ---------------------------------------------------------------------
                    Distance matrix (angstroms):
                    1          2          3          4          5
     1  C    0.000000
     2  H    1.093149   0.000000
     3  H    1.093149   1.785105   0.000000
     4  H    1.093149   1.785105   1.785105   0.000000
     5  H    1.093149   1.785105   1.785105   1.785105   0.000000
 Stoichiometry    CH4
 Framework group  TD[O(C),4C3(H)]
 Deg. of freedom     1
 Prev. full point group           TD      NOp  24
 Prev. largest Abelian subgroup   D2      NOp   4
       concise Abelian subgroup   D2      NOp   4
                   Standard orientation:
 ---------------------------------------------------------------------
 Center     Atomic                     Coordinates (Angstroms)
 Number     Number                        X           Y           Z
 ---------------------------------------------------------------------
      1          6                    0.000000    0.000000    0.000000
      2          1                    0.597626    0.549715    0.731868
      3          1                   -0.518960   -0.823269    0.497880
      4          1                   -0.733498    0.673398   -0.451099
      5          1                    0.654831   -0.399845   -0.778649
 ---------------------------------------------------------------------
 TstSym:  Max error for IOp=  3 IAt=    3 Err= 8.00D-01
 TstSym:  IOp= 25 I=    6 IP=    4 Err= 8.00D-01
  CI=  0.000000000000D+00  0.000000000000D+00  0.000000000000D+00
   T=  9.806914068923D-01 -1.555752148136D+00 -9.408572427486D-01
 CIP= -1.386110583871D+00  1.272538447052D+00 -8.524529800929D-01
 Unable to use previous symmetry information.  Redetermining point group.
 No symmetry information on checkpoint file.  Reassigning symmetry.
 Symm:  InNGrp=TD   InAxis=0.
 Stoichiometry    CH4
 Framework group  TD[O(C),4C3(H)]
 Deg. of freedom     1
 Full point group                 TD      NOp  24
 Largest Abelian subgroup         D2      NOp   4
 Largest concise Abelian subgroup D2      NOp   4
                         Standard orientation:                         
 ---------------------------------------------------------------------
 Center     Atomic      Atomic             Coordinates (Angstroms)
 Number     Number       Type             X           Y           Z
 ---------------------------------------------------------------------
      1          6           0        0.000000    0.000000    0.000000
      2          1           0        0.631130    0.631130    0.631130
      3          1           0       -0.631130   -0.631130    0.631130
      4          1           0       -0.631130    0.631130   -0.631130
      5          1           0        0.631130   -0.631130   -0.631130
 ---------------------------------------------------------------------
 Rotational constants (GHZ):    157.3636975    157.3636975    157.3636975
 Leave Link  202 at Sun Aug 18 00:36:31 2024, MaxMem=   13107200 cpu:       0.0
 (Enter /programs/64bit/g09/g09-gfortran/bin/l301.exe)
 Standard basis: 6-31++G (6D, 7F)
 Ernie: Thresh=  0.10000D-02 Tol=  0.10000D-05 Strict=F.
 There are     7 symmetry adapted basis functions of A   symmetry.
 There are     6 symmetry adapted basis functions of B1  symmetry.
 There are     6 symmetry adapted basis functions of B2  symmetry.
 There are     6 symmetry adapted basis functions of B3  symmetry.
 Integral buffers will be    131072 words long.
 Raffenetti 2 integral format.
 Two-electron integral symmetry is turned on.
    25 basis functions,    46 primitive gaussians,    25 cartesian basis functions
     5 alpha electrons        5 beta electrons
       nuclear repulsion energy        13.3966855894 Hartrees.
 IExCor=  408 DFT=T Ex+Corr=B3PW91 ExCW=0 ScaHFX=  0.200000
 ScaDFX=  0.800000  0.720000  1.000000  0.810000 ScalE2=  1.000000  1.000000
 IRadAn=      0 IRanWt=     -1 IRanGd=            0 ICorTp=0
 NAtoms=    5 NActive=    5 NUniq=    2 SFac= 3.00D+00 NAtFMM=   80 NAOKFM=F Big=F
 Leave Link  301 at Sun Aug 18 00:36:31 2024, MaxMem=   13107200 cpu:       0.1
 (Enter /programs/64bit/g09/g09-gfortran/bin/l302.exe)
 NPDir=0 NMtPBC=     1 NCelOv=     1 NCel=       1 NClECP=     1 NCelD=      1
         NCelK=      1 NCelE2=     1 NClLst=     1 CellRange=     0.0.
 One-electron integrals computed using PRISM.
 One-electron integral symmetry used in STVInt
 NBasis=    25 RedAO= T  NBF=     7     6     6     6
 NBsUse=    25 1.00D-06 NBFU=     7     6     6     6
 Precomputing XC quadrature grid using
 IXCGrd= 2 IRadAn=           0 IRanWt=          -1 IRanGd=           0 AccXCQ= 1.00D-10.
 NRdTot=     319 NPtTot=       40718 NUsed=       43029 NTot=       43061
 NSgBfM=    25    25    25    25    25 NAtAll=     5     5.
 Leave Link  302 at Sun Aug 18 00:36:31 2024, MaxMem=   13107200 cpu:       0.2
 (Enter /programs/64bit/g09/g09-gfortran/bin/l303.exe)
 DipDrv:  MaxL=1.
 Leave Link  303 at Sun Aug 18 00:36:31 2024, MaxMem=   13107200 cpu:       0.0
 (Enter /programs/64bit/g09/g09-gfortran/bin/l401.exe)
 Initial guess read from the read-write file.
 B after Tr=     0.000000    0.000000    0.000000
         Rot=    1.000000    0.000000    0.000000    0.000000 Ang=   0.00 deg.
 Guess basis will be translated and rotated to current coordinates.
 Initial guess orbital symmetries:
       Occupied  (A1) (A1) (T2) (T2) (T2)
       Virtual   (A1) (T2) (T2) (T2) (T2) (T2) (T2) (A1) (T2) (T2)
                 (T2) (A1) (T2) (T2) (T2) (T2) (T2) (T2) (A1) (A1)
 The electronic state of the initial guess is 1-A1.
 Leave Link  401 at Sun Aug 18 00:36:31 2024, MaxMem=   13107200 cpu:       0.1
 (Enter /programs/64bit/g09/g09-gfortran/bin/l502.exe)
 Closed shell SCF:
 Requested convergence on RMS density matrix=1.00D-08 within 128 cycles.
 Requested convergence on MAX density matrix=1.00D-06.
 Requested convergence on             energy=1.00D-06.
 No special actions if energy rises.
 Using DIIS extrapolation, IDIIS=  1040.
 Integral symmetry usage will be decided dynamically.
        42971 words used for storage of precomputed grid.
 Keep R1 ints in memory in canonical form, NReq=975201.
 IEnd=       63786 IEndB=       63786 NGot=    13107200 MDV=    13007702
 LenX=    13007702 LenY=    13006636
 Symmetry not used in FoFDir.
 MinBra= 0 MaxBra= 1 Meth= 1.
 IRaf=       0 NMat=   1 IRICut=       1 DoRegI=T DoRafI=F ISym2E= 0 JSym2E=0.

 Cycle   1  Pass 1  IDiag  1:
 E= -40.4976535776790    
 DIIS: error= 4.39D-04 at cycle   1 NSaved=   1.
 NSaved= 1 IEnMin= 1 EnMin= -40.4976535776790     IErMin= 1 ErrMin= 4.39D-04
 ErrMax= 4.39D-04 EMaxC= 1.00D-01 BMatC= 4.62D-06 BMatP= 4.62D-06
 IDIUse=3 WtCom= 9.96D-01 WtEn= 4.39D-03
 Coeff-Com:  0.100D+01
 Coeff-En:   0.100D+01
 Coeff:      0.100D+01
 Gap=     0.398 Goal=   None    Shift=    0.000
 RMSDP=1.35D-04 MaxDP=1.04D-03              OVMax= 1.33D-03

 Cycle   2  Pass 1  IDiag  1:
 E= -40.4976549865496     Delta-E=       -0.000001408871 Rises=F Damp=F
 DIIS: error= 3.34D-04 at cycle   2 NSaved=   2.
 NSaved= 2 IEnMin= 2 EnMin= -40.4976549865496     IErMin= 2 ErrMin= 3.34D-04
 ErrMax= 3.34D-04 EMaxC= 1.00D-01 BMatC= 3.98D-06 BMatP= 4.62D-06
 IDIUse=3 WtCom= 9.97D-01 WtEn= 3.34D-03
 Coeff-Com:  0.479D+00 0.521D+00
 Coeff-En:   0.413D+00 0.587D+00
 Coeff:      0.479D+00 0.521D+00
 Gap=     0.399 Goal=   None    Shift=    0.000
 RMSDP=6.46D-05 MaxDP=5.75D-04 DE=-1.41D-06 OVMax= 6.90D-04

 Cycle   3  Pass 1  IDiag  1:
 E= -40.4976592047131     Delta-E=       -0.000004218164 Rises=F Damp=F
 DIIS: error= 4.40D-05 at cycle   3 NSaved=   3.
 NSaved= 3 IEnMin= 3 EnMin= -40.4976592047131     IErMin= 3 ErrMin= 4.40D-05
 ErrMax= 4.40D-05 EMaxC= 1.00D-01 BMatC= 6.36D-08 BMatP= 3.98D-06
 IDIUse=1 WtCom= 1.00D+00 WtEn= 0.00D+00
 Coeff-Com:  0.123D-01 0.119D+00 0.869D+00
 Coeff:      0.123D-01 0.119D+00 0.869D+00
 Gap=     0.399 Goal=   None    Shift=    0.000
 RMSDP=6.65D-06 MaxDP=6.69D-05 DE=-4.22D-06 OVMax= 6.84D-05

 Cycle   4  Pass 1  IDiag  1:
 E= -40.4976592697222     Delta-E=       -0.000000065009 Rises=F Damp=F
 DIIS: error= 9.72D-07 at cycle   4 NSaved=   4.
 NSaved= 4 IEnMin= 4 EnMin= -40.4976592697222     IErMin= 4 ErrMin= 9.72D-07
 ErrMax= 9.72D-07 EMaxC= 1.00D-01 BMatC= 3.16D-11 BMatP= 6.36D-08
 IDIUse=1 WtCom= 1.00D+00 WtEn= 0.00D+00
 Coeff-Com: -0.156D-02 0.725D-03-0.487D-02 0.101D+01
 Coeff:     -0.156D-02 0.725D-03-0.487D-02 0.101D+01
 Gap=     0.399 Goal=   None    Shift=    0.000
 RMSDP=2.12D-07 MaxDP=1.65D-06 DE=-6.50D-08 OVMax= 2.04D-06

 Cycle   5  Pass 1  IDiag  1:
 E= -40.4976592697601     Delta-E=       -0.000000000038 Rises=F Damp=F
 DIIS: error= 2.21D-08 at cycle   5 NSaved=   5.
 NSaved= 5 IEnMin= 5 EnMin= -40.4976592697601     IErMin= 5 ErrMin= 2.21D-08
 ErrMax= 2.21D-08 EMaxC= 1.00D-01 BMatC= 9.74D-15 BMatP= 3.16D-11
 IDIUse=1 WtCom= 1.00D+00 WtEn= 0.00D+00
 Coeff-Com:  0.724D-04-0.104D-03 0.154D-03-0.526D-01 0.105D+01
 Coeff:      0.724D-04-0.104D-03 0.154D-03-0.526D-01 0.105D+01
 Gap=     0.399 Goal=   None    Shift=    0.000
 RMSDP=6.07D-09 MaxDP=4.40D-08 DE=-3.79D-11 OVMax= 5.08D-08

 SCF Done:  E(RB3PW91) =  -40.4976592698     A.U. after    5 cycles
             Convg  =    0.6068D-08             -V/T =  2.0068
 KE= 4.022466738414D+01 PE=-1.199513470601D+02 EE= 2.583233481687D+01
 Leave Link  502 at Sun Aug 18 00:36:32 2024, MaxMem=   13107200 cpu:       0.8
 (Enter /programs/64bit/g09/g09-gfortran/bin/l701.exe)
 Compute integral first derivatives.
 ... and contract with generalized density number  0.
 Leave Link  701 at Sun Aug 18 00:36:32 2024, MaxMem=   13107200 cpu:       0.1
 (Enter /programs/64bit/g09/g09-gfortran/bin/l702.exe)
 L702 exits ... SP integral derivatives will be done elsewhere.
 Leave Link  702 at Sun Aug 18 00:36:32 2024, MaxMem=   13107200 cpu:       0.0
 (Enter /programs/64bit/g09/g09-gfortran/bin/l703.exe)
 Compute integral first derivatives, UseDBF=F ICtDFT=           0.
 Integral derivatives from FoFDir, PRISM(SPDF).
 Calling FoFJK, ICntrl=      2127 FMM=F ISym2X=1 I1Cent= 0 IOpClX= 0 NMat=1 NMatS=1 NMatT=0.
 FoFCou: FMM=F IPFlag=           0 FMFlag=      100000 FMFlg1=         800
         NFxFlg=           0 DoJE=F BraDBF=F KetDBF=F FulRan=T
         Omega=  0.000000  0.000000  1.000000  0.000000  0.000000 ICntrl=    2127 IOpCl=  0
         NMat0=    1 NMatS0=    1 NMatT0=    0 NMatD0=    1 NMtDS0=    0 NMtDT0=    0
         I1Cent=           0 NGrid=           0.
 Petite list used in FoFCou.
 Leave Link  703 at Sun Aug 18 00:36:33 2024, MaxMem=   13107200 cpu:       0.4
 (Enter /programs/64bit/g09/g09-gfortran/bin/l716.exe)
 Dipole        = 6.66133815D-16-2.22044605D-16 4.44089210D-16
 ***** Axes restored to original set *****
 -------------------------------------------------------------------
 Center     Atomic                   Forces (Hartrees/Bohr)
 Number     Number              X              Y              Z
 -------------------------------------------------------------------
      1        6          -0.000000000   -0.000000000   -0.000000000
      2        1           0.000000000   -0.000000000   -0.000052720
      3        1          -0.000049705    0.000000000    0.000017573
      4        1           0.000024852    0.000043046    0.000017573
      5        1           0.000024852   -0.000043046    0.000017573
 -------------------------------------------------------------------
 Cartesian Forces:  Max     0.000052720 RMS     0.000027224
 Leave Link  716 at Sun Aug 18 00:36:33 2024, MaxMem=   13107200 cpu:       0.0
 (Enter /programs/64bit/g09/g09-gfortran/bin/l103.exe)

 GradGradGradGradGradGradGradGradGradGradGradGradGradGradGradGradGradGrad
 Berny optimization.
 Using GEDIIS/GDIIS optimizer.
 Internal  Forces:  Max     0.000052720 RMS     0.000028180
 Search for a local minimum.
 Step number   2 out of a maximum of   24
 All quantities printed in internal units (Hartrees-Bohrs-Radians)
 RMS Force = .28180D-04 SwitMx=.10000D-02 MixMth= 2
 Mixed Optimization -- En-DIIS/RFO-DIIS
 Update second derivatives using D2CorX and points    1    2
 DE= -2.40D-05 DEPred=-2.47D-05 R= 9.71D-01
 SS=  1.41D+00  RLast= 1.19D-02 DXNew= 5.0454D-01 3.5705D-02
 Trust test= 9.71D-01 RLast= 1.19D-02 DXMaxT set to 3.00D-01
 The second derivative matrix:
                          R1        R2        R3        R4        A1
           R1           0.35035
           R2           0.00223   0.35035
           R3           0.00223   0.00223   0.35035
           R4           0.00223   0.00223   0.00223   0.35035
           A1           0.00000   0.00000   0.00000   0.00000   0.16000
           A2           0.00000   0.00000   0.00000   0.00000   0.00000
           A3          -0.00000  -0.00000  -0.00000  -0.00000  -0.00000
           A4          -0.00000  -0.00000  -0.00000  -0.00000  -0.00000
           A5           0.00000   0.00000   0.00000   0.00000   0.00000
           A6           0.00000   0.00000   0.00000   0.00000   0.00000
           D1          -0.00000  -0.00000  -0.00000  -0.00000  -0.00000
           D2           0.00000   0.00000   0.00000   0.00000   0.00000
           D3           0.00000   0.00000   0.00000   0.00000   0.00000
           D4          -0.00000  -0.00000  -0.00000  -0.00000  -0.00000
                          A2        A3        A4        A5        A6
           A2           0.16000
           A3          -0.00000   0.16000
           A4          -0.00000   0.00000   0.16000
           A5           0.00000  -0.00000  -0.00000   0.16000
           A6           0.00000  -0.00000  -0.00000   0.00000   0.16000
           D1          -0.00000   0.00000   0.00000  -0.00000  -0.00000
           D2           0.00000  -0.00000  -0.00000   0.00000   0.00000
           D3           0.00000  -0.00000  -0.00000   0.00000   0.00000
           D4          -0.00000   0.00000   0.00000  -0.00000  -0.00000
                          D1        D2        D3        D4
           D1           0.00235
           D2          -0.00000   0.00235
           D3          -0.00000   0.00000   0.00235
           D4           0.00000  -0.00000  -0.00000   0.00235
 Use linear search instead of GDIIS.
     Eigenvalues ---    0.05086   0.05718   0.08643   0.16000   0.16000
     Eigenvalues ---    0.34813   0.34813   0.34813   0.357031000.00000
     Eigenvalues --- 1000.000001000.000001000.000001000.00000
 RFO step:  Lambda= 0.00000000D+00 EMin= 5.08565158D-02
 Quartic linear search produced a step of -0.02503.
 Iteration  1 RMS(Cart)=  0.00007960 RMS(Int)=  0.00000000
 Iteration  2 RMS(Cart)=  0.00000000 RMS(Int)=  0.00000000
 ClnCor:  largest displacement from symmetrization is 1.37D-14 for atom     2.
 Variable       Old X    -DE/DX   Delta X   Delta X   Delta X     New X
                                 (Linear)    (Quad)   (Total)
    R1        2.06575  -0.00005  -0.00015   0.00000  -0.00015   2.06560
    R2        2.06575  -0.00005  -0.00015  -0.00000  -0.00015   2.06560
    R3        2.06575  -0.00005  -0.00015  -0.00000  -0.00015   2.06560
    R4        2.06575  -0.00005  -0.00015   0.00000  -0.00015   2.06560
    A1        1.91063   0.00000  -0.00000  -0.00000   0.00000   1.91063
    A2        1.91063  -0.00000  -0.00000  -0.00000   0.00000   1.91063
    A3        1.91063   0.00000   0.00000   0.00000   0.00000   1.91063
    A4        1.91063   0.00000   0.00000   0.00000   0.00000   1.91063
    A5        1.91063  -0.00000  -0.00000  -0.00000   0.00000   1.91063
    A6        1.91063   0.00000   0.00000   0.00000   0.00000   1.91063
    D1       -2.09440   0.00000   0.00000   0.00000   0.00000  -2.09440
    D2        2.09440  -0.00000  -0.00000  -0.00000   0.00000   2.09440
    D3       -2.09440   0.00000   0.00000   0.00000   0.00000  -2.09440
    D4        2.09440   0.00000   0.00000   0.00000   0.00000   2.09440
         Item               Value     Threshold  Converged?
 Maximum Force            0.000053     0.000450     YES
 RMS     Force            0.000028     0.000300     YES
 Maximum Displacement     0.000149     0.001800     YES
 RMS     Displacement     0.000080     0.001200     YES
 Predicted change in Energy=-1.556808D-08
 Optimization completed.
    -- Stationary point found.
                           ----------------------------
                           !   Optimized Parameters   !
                           ! (Angstroms and Degrees)  !
 --------------------------                            --------------------------
 ! Name  Definition              Value          Derivative Info.                !
 --------------------------------------------------------------------------------
 ! R1    R(1,2)                  1.0931         -DE/DX =   -0.0001              !
 ! R2    R(1,3)                  1.0931         -DE/DX =   -0.0001              !
 ! R3    R(1,4)                  1.0931         -DE/DX =   -0.0001              !
 ! R4    R(1,5)                  1.0931         -DE/DX =   -0.0001              !
 ! A1    A(2,1,3)              109.4712         -DE/DX =    0.0                 !
 ! A2    A(2,1,4)              109.4712         -DE/DX =    0.0                 !
 ! A3    A(2,1,5)              109.4712         -DE/DX =    0.0                 !
 ! A4    A(3,1,4)              109.4712         -DE/DX =    0.0                 !
 ! A5    A(3,1,5)              109.4712         -DE/DX =    0.0                 !
 ! A6    A(4,1,5)              109.4712         -DE/DX =    0.0                 !
 ! D1    D(2,1,4,3)           -120.0            -DE/DX =    0.0                 !
 ! D2    D(2,1,5,3)            120.0            -DE/DX =    0.0                 !
 ! D3    D(2,1,5,4)           -120.0            -DE/DX =    0.0                 !
 ! D4    D(3,1,5,4)            120.0            -DE/DX =    0.0                 !
 --------------------------------------------------------------------------------
 GradGradGradGradGradGradGradGradGradGradGradGradGradGradGradGradGradGrad

 Largest change from initial coordinates is atom    2       0.003 Angstoms.
 Leave Link  103 at Sun Aug 18 00:36:33 2024, MaxMem=   13107200 cpu:       0.0
 (Enter /programs/64bit/g09/g09-gfortran/bin/l202.exe)
                          Input orientation:                          
 ---------------------------------------------------------------------
 Center     Atomic      Atomic             Coordinates (Angstroms)
 Number     Number       Type             X           Y           Z
 ---------------------------------------------------------------------
      1          6           0        0.000000    0.000000   -0.000000
      2          1           0        0.000000    0.000000    1.093149
      3          1           0        1.030631   -0.000000   -0.364383
      4          1           0       -0.515315   -0.892552   -0.364383
      5          1           0       -0.515315    0.892552   -0.364383
 ---------------------------------------------------------------------
                    Distance matrix (angstroms):
                    1          2          3          4          5
     1  C    0.000000
     2  H    1.093149   0.000000
     3  H    1.093149   1.785105   0.000000
     4  H    1.093149   1.785105   1.785105   0.000000
     5  H    1.093149   1.785105   1.785105   1.785105   0.000000
 Stoichiometry    CH4
 Framework group  TD[O(C),4C3(H)]
 Deg. of freedom     1
 Prev. full point group           TD      NOp  24
 Prev. largest Abelian subgroup   D2      NOp   4
       concise Abelian subgroup   D2      NOp   4
                   Standard orientation:
 ---------------------------------------------------------------------
 Center     Atomic                     Coordinates (Angstroms)
 Number     Number                        X           Y           Z
 ---------------------------------------------------------------------
      1          6                    0.000000    0.000000    0.000000
      2          1                    0.987040    0.310173    0.352874
      3          1                   -0.598618   -0.343634    0.847671
      4          1                   -0.498573    0.846926   -0.478661
      5          1                    0.110151   -0.813465   -0.721884
 ---------------------------------------------------------------------
 TstSym:  Max error for IOp=  2 IAt=    2 Err= 1.66D+00
 TstSym:  IOp= 25 I=    6 IP=    4 Err= 1.66D+00
  CI=  0.000000000000D+00  0.000000000000D+00  0.000000000000D+00
   T=  1.865234941399D+00 -5.861419329754D-01 -6.668350478251D-01
 CIP= -9.421662582028D-01  1.600457730125D+00 -9.045388489194D-01
 Unable to use previous symmetry information.  Redetermining point group.
 No symmetry information on checkpoint file.  Reassigning symmetry.
 Symm:  InNGrp=TD   InAxis=0.
 Stoichiometry    CH4
 Framework group  TD[O(C),4C3(H)]
 Deg. of freedom     1
 Full point group                 TD      NOp  24
 Largest Abelian subgroup         D2      NOp   4
 Largest concise Abelian subgroup D2      NOp   4
                         Standard orientation:                         
 ---------------------------------------------------------------------
 Center     Atomic      Atomic             Coordinates (Angstroms)
 Number     Number       Type             X           Y           Z
 ---------------------------------------------------------------------
      1          6           0        0.000000    0.000000    0.000000
      2          1           0        0.631130    0.631130    0.631130
      3          1           0       -0.631130   -0.631130    0.631130
      4          1           0       -0.631130    0.631130   -0.631130
      5          1           0        0.631130   -0.631130   -0.631130
 ---------------------------------------------------------------------
 Rotational constants (GHZ):    157.3636975    157.3636975    157.3636975
 Leave Link  202 at Sun Aug 18 00:36:33 2024, MaxMem=   13107200 cpu:       0.0
 (Enter /programs/64bit/g09/g09-gfortran/bin/l601.exe)
 Copying SCF densities to generalized density rwf, IOpCl= 0 IROHF=0.

 **********************************************************************

            Population analysis using the SCF density.

 **********************************************************************

 Orbital symmetries:
       Occupied  (A1) (A1) (T2) (T2) (T2)
       Virtual   (A1) (T2) (T2) (T2) (T2) (T2) (T2) (A1) (T2) (T2)
                 (T2) (A1) (T2) (T2) (T2) (T2) (T2) (T2) (A1) (A1)
 The electronic state is 1-A1.
 Alpha  occ. eigenvalues --  -10.14987  -0.70069  -0.39519  -0.39519  -0.39519
 Alpha virt. eigenvalues --    0.00375   0.04807   0.04807   0.04807   0.11307
 Alpha virt. eigenvalues --    0.11307   0.11307   0.14544   0.21928   0.21928
 Alpha virt. eigenvalues --    0.21928   0.35371   0.71789   0.71789   0.71789
 Alpha virt. eigenvalues --    1.01034   1.01034   1.01034   1.13487   1.18231
     Molecular Orbital Coefficients:
                           1         2         3         4         5
                        (A1)--O   (A1)--O   (T2)--O   (T2)--O   (T2)--O
     Eigenvalues --   -10.14987  -0.70069  -0.39519  -0.39519  -0.39519
   1 1   C  1S          0.99527  -0.20006   0.00000   0.00000   0.00000
   2        2S          0.03631   0.37655   0.00000   0.00000   0.00000
   3        2PX         0.00000   0.00000   0.00000   0.00000   0.44739
   4        2PY         0.00000   0.00000   0.00000   0.44739   0.00000
   5        2PZ         0.00000   0.00000   0.44739   0.00000   0.00000
   6        3S         -0.03048   0.40876   0.00000   0.00000   0.00000
   7        3PX         0.00000   0.00000   0.00000   0.00000   0.21692
   8        3PY         0.00000   0.00000   0.00000   0.21692   0.00000
   9        3PZ         0.00000   0.00000   0.21692   0.00000   0.00000
  10        4S          0.00361   0.04208   0.00000   0.00000   0.00000
  11        4PX         0.00000   0.00000   0.00000   0.00000   0.02635
  12        4PY         0.00000   0.00000   0.00000   0.02635   0.00000
  13        4PZ         0.00000   0.00000   0.02635   0.00000   0.00000
  14 2   H  1S         -0.00079   0.13467   0.17456   0.17456   0.17456
  15        2S          0.00606   0.01666   0.12777   0.12777   0.12777
  16        3S         -0.00115  -0.00398   0.00372   0.00372   0.00372
  17 3   H  1S         -0.00079   0.13467   0.17456  -0.17456  -0.17456
  18        2S          0.00606   0.01666   0.12777  -0.12777  -0.12777
  19        3S         -0.00115  -0.00398   0.00372  -0.00372  -0.00372
  20 4   H  1S         -0.00079   0.13467  -0.17456   0.17456  -0.17456
  21        2S          0.00606   0.01666  -0.12777   0.12777  -0.12777
  22        3S         -0.00115  -0.00398  -0.00372   0.00372  -0.00372
  23 5   H  1S         -0.00079   0.13467  -0.17456  -0.17456   0.17456
  24        2S          0.00606   0.01666  -0.12777  -0.12777   0.12777
  25        3S         -0.00115  -0.00398  -0.00372  -0.00372   0.00372
                           6         7         8         9        10
                        (A1)--V   (T2)--V   (T2)--V   (T2)--V   (T2)--V
     Eigenvalues --     0.00375   0.04807   0.04807   0.04807   0.11307
   1 1   C  1S         -0.06435   0.00000   0.00000   0.00000   0.00000
[...]
     Eigenvalues --    11.46860  11.46860  11.46860
           X            0.15314  -0.02225   0.98795
           Y            0.94250   0.30383  -0.13925
           Z           -0.29707   0.95247   0.06750
 This molecule is a spherical top.
 Rotational symmetry number 12.
 Rotational temperatures (Kelvin)      7.55226     7.55226     7.55226
 Rotational constants (GHZ):         157.36370   157.36370   157.36370
 Zero-point vibrational energy     119374.5 (Joules/Mol)
                                   28.53120 (Kcal/Mol)
 Vibrational temperatures:   2006.50  2006.50  2006.50  2295.02  2295.02
          (Kelvin)           4383.00  4574.11  4574.11  4574.11
 
 Zero-point correction=                           0.045467 (Hartree/Particle)
 Thermal correction to Energy=                    0.048329
 Thermal correction to Enthalpy=                  0.049274
 Thermal correction to Gibbs Free Energy=         0.028145
 Sum of electronic and zero-point Energies=            -40.452192
 Sum of electronic and thermal Energies=               -40.449330
 Sum of electronic and thermal Enthalpies=             -40.448386
 Sum of electronic and thermal Free Energies=          -40.469514
 
                     E (Thermal)             CV                S
                      KCal/Mol        Cal/Mol-Kelvin    Cal/Mol-Kelvin
 Total                   30.327              6.392             44.469
 Electronic               0.000              0.000              0.000
 Translational            0.889              2.981             34.261
 Rotational               0.889              2.981             10.137
 Vibrational             28.550              0.431              0.071
                       Q            Log10(Q)             Ln(Q)
 Total Bot       0.113318D-12        -12.945699        -29.808574
 Total V=0       0.928520D+08          7.967791         18.346518
 Vib (Bot)       0.122592D-20        -20.911538        -48.150597
 Vib (V=0)       0.100451D+01          0.001952          0.004495
 Electronic      0.100000D+01          0.000000          0.000000
 Translational   0.252295D+07          6.401908         14.740939
 Rotational      0.366379D+02          1.563931          3.601084
 
                                         methane with imposed symmetry and 6-31++
 G basis set
                                                             IR Spectrum
 
      3    3                                                         1       1                                                       
      1    0                                                         5       3                                                       
      7    4                                                         9       9                                                       
      9    6                                                         5       5                                                       
 
      X                                                                      X                                                       
      X                                                                      X                                                       
      X                                                                      X                                                       
      X                                                                      X                                                       
      X                                                                      X                                                       
      X                                                                      X                                                       
      X                                                                      X                                                       
      X                                                                      X                                                       
      X                                                                      X                                                       
      X                                                                      X                                                       
      X                                                                      X                                                       
      X                                                                      X                                                       
      X                                                                      X                                                       
      X                                                                      X                                                       
      X                                                                      X                                                       
      X                                                                      X                                                       
      X                                                                      X                                                       
      X                                                                      X                                                       
                                                                             X                                                       
                                                                             X                                                       
 
 ***** Axes restored to original set *****
 -------------------------------------------------------------------
 Center     Atomic                   Forces (Hartrees/Bohr)
 Number     Number              X              Y              Z
 -------------------------------------------------------------------
      1        6          -0.000000000    0.000000000    0.000000000
      2        1           0.000000000    0.000000000   -0.000052720
      3        1          -0.000049704   -0.000000000    0.000017573
      4        1           0.000024852    0.000043045    0.000017573
      5        1           0.000024852   -0.000043045    0.000017573
 -------------------------------------------------------------------
 Cartesian Forces:  Max     0.000052720 RMS     0.000027224
 Force constants in Cartesian coordinates: 
                1             2             3             4             5 
      1  0.556195D+00
      2  0.000000D+00  0.556195D+00
      3  0.000000D+00  0.000000D+00  0.556195D+00
      4 -0.477209D-01  0.000000D+00  0.000000D+00  0.476727D-01
      5  0.000000D+00 -0.477209D-01  0.000000D+00  0.000000D+00  0.476727D-01
      6  0.000000D+00  0.000000D+00 -0.321704D+00  0.000000D+00  0.000000D+00
      7 -0.291262D+00  0.000000D+00  0.861047D-01  0.982918D-03  0.000000D+00
      8  0.000000D+00 -0.477209D-01  0.000000D+00  0.000000D+00 -0.950748D-03
      9  0.861047D-01  0.000000D+00 -0.781635D-01  0.335542D-01  0.000000D+00
     10 -0.108606D+00 -0.105456D+00 -0.430523D-01 -0.467331D-03  0.837302D-03
     11 -0.105456D+00 -0.230377D+00 -0.745688D-01  0.837302D-03  0.499502D-03
     12 -0.430523D-01 -0.745688D-01 -0.781635D-01 -0.167771D-01 -0.290588D-01
     13 -0.108606D+00  0.105456D+00 -0.430523D-01 -0.467331D-03 -0.837302D-03
     14  0.105456D+00 -0.230377D+00  0.745688D-01 -0.837302D-03  0.499502D-03
     15 -0.430523D-01  0.745688D-01 -0.781635D-01 -0.167771D-01  0.290588D-01
                6             7             8             9            10 
      6  0.351525D+00
      7 -0.265918D-02  0.317763D+00
      8  0.000000D+00  0.000000D+00  0.476727D-01
      9 -0.994014D-02 -0.954915D-01  0.000000D+00  0.814340D-01
     10  0.132959D-02 -0.137423D-01 -0.271178D-01 -0.120837D-01  0.115195D+00
     11  0.230292D-02  0.245031D-02  0.499502D-03  0.217762D-04  0.116953D+00
     12 -0.994014D-02  0.602300D-02  0.104757D-01  0.333483D-02  0.477458D-01
     13  0.132959D-02 -0.137423D-01  0.271178D-01 -0.120837D-01  0.762040D-02
     14 -0.230292D-02 -0.245031D-02  0.499502D-03 -0.217762D-04  0.147841D-01
     15 -0.994014D-02  0.602300D-02 -0.104757D-01  0.333483D-02  0.606072D-02
               11            12            13            14            15 
     11  0.250241D+00
     12  0.826981D-01  0.814340D-01
     13 -0.147841D-01  0.606072D-02  0.115195D+00
     14 -0.208632D-01  0.104539D-01 -0.116953D+00  0.250241D+00
     15 -0.104539D-01  0.333483D-02  0.477458D-01 -0.826981D-01  0.814340D-01
 Force constants in internal coordinates: 
                1             2             3             4             5 
      1  0.351525D+00
      2  0.806279D-03  0.351525D+00
      3  0.806279D-03  0.806279D-03  0.351525D+00
      4  0.806279D-03  0.806279D-03  0.806279D-03  0.351525D+00
      5  0.233640D-02  0.233640D-02 -0.146704D-02 -0.320575D-02  0.205814D-01
      6  0.366169D-02 -0.944953D-03  0.407511D-02 -0.679185D-02 -0.896444D-02
      7  0.715566D-02 -0.574295D-02 -0.635717D-02  0.494447D-02 -0.135768D-01
      8 -0.944953D-03  0.366169D-02  0.407511D-02 -0.679185D-02 -0.896444D-02
      9 -0.574295D-02  0.715566D-02 -0.635717D-02  0.494447D-02 -0.135768D-01
     10 -0.646584D-02 -0.646584D-02  0.603116D-02  0.690052D-02  0.245010D-01
     11 -0.452515D-02 -0.452515D-02 -0.319422D-02  0.122445D-01 -0.142279D-01
     12  0.372659D-02  0.372659D-02 -0.958267D-02  0.212948D-02  0.857889D-02
     13 -0.490707D-02  0.863366D-02 -0.479133D-02  0.106474D-02  0.428944D-02
     14 -0.863366D-02  0.490707D-02  0.479133D-02 -0.106474D-02 -0.428944D-02
                6             7             8             9            10 
      6  0.389731D-01
      7 -0.235862D-01  0.761318D-01
      8 -0.185921D-02  0.252858D-01  0.389731D-01
      9  0.252858D-01 -0.366304D-01 -0.235862D-01  0.761318D-01
     10 -0.298490D-01 -0.276241D-01 -0.298490D-01 -0.276241D-01  0.904451D-01
     11 -0.117484D-01  0.155874D-01 -0.117484D-01  0.155874D-01  0.654987D-02
     12 -0.993841D-02  0.756143D-02 -0.993841D-02  0.756143D-02 -0.382492D-02
     13 -0.150099D-01 -0.817649D-03  0.507145D-02  0.837908D-02 -0.191246D-02
     14 -0.507145D-02 -0.837908D-02  0.150099D-01  0.817649D-03  0.191246D-02
               11            12            13            14 
     11  0.318143D-01
     12  0.166507D-02  0.197678D-01
     13  0.832533D-03  0.988388D-02  0.200551D-01
     14 -0.832533D-03 -0.988388D-02  0.101712D-01  0.200551D-01
 Leave Link  716 at Sun Aug 18 00:36:44 2024, MaxMem=   13107200 cpu:       0.0
 (Enter /programs/64bit/g09/g09-gfortran/bin/l103.exe)

 GradGradGradGradGradGradGradGradGradGradGradGradGradGradGradGradGradGrad
 Berny optimization.
 Internal  Forces:  Max     0.000052720 RMS     0.000028180
 Search for a local minimum.
 Step number   1 out of a maximum of    2
 All quantities printed in internal units (Hartrees-Bohrs-Radians)
 Second derivative matrix not updated -- analytic derivatives used.
 The second derivative matrix:
                          R1        R2        R3        R4        A1
           R1           0.35152
           R2           0.00081   0.35152
           R3           0.00081   0.00081   0.35152
           R4           0.00081   0.00081   0.00081   0.35152
           A1           0.00234   0.00234  -0.00147  -0.00321   0.02058
           A2           0.00366  -0.00094   0.00408  -0.00679  -0.00896
           A3           0.00716  -0.00574  -0.00636   0.00494  -0.01358
           A4          -0.00094   0.00366   0.00408  -0.00679  -0.00896
           A5          -0.00574   0.00716  -0.00636   0.00494  -0.01358
           A6          -0.00647  -0.00647   0.00603   0.00690   0.02450
           D1          -0.00453  -0.00453  -0.00319   0.01224  -0.01423
           D2           0.00373   0.00373  -0.00958   0.00213   0.00858
           D3          -0.00491   0.00863  -0.00479   0.00106   0.00429
           D4          -0.00863   0.00491   0.00479  -0.00106  -0.00429
                          A2        A3        A4        A5        A6
           A2           0.03897
           A3          -0.02359   0.07613
           A4          -0.00186   0.02529   0.03897
           A5           0.02529  -0.03663  -0.02359   0.07613
           A6          -0.02985  -0.02762  -0.02985  -0.02762   0.09045
           D1          -0.01175   0.01559  -0.01175   0.01559   0.00655
           D2          -0.00994   0.00756  -0.00994   0.00756  -0.00382
           D3          -0.01501  -0.00082   0.00507   0.00838  -0.00191
           D4          -0.00507  -0.00838   0.01501   0.00082   0.00191
                          D1        D2        D3        D4
           D1           0.03181
           D2           0.00167   0.01977
           D3           0.00083   0.00988   0.02006
           D4          -0.00083  -0.00988   0.01017   0.02006
     Eigenvalues ---    0.04026   0.04540   0.06911   0.13669   0.13708
     Eigenvalues ---    0.35203   0.35205   0.35245   0.353941000.00000
     Eigenvalues --- 1000.000001000.000001000.000001000.00000
 Angle between quadratic step and forces=   0.00 degrees.
 Linear search not attempted -- first point.
 Iteration  1 RMS(Cart)=  0.00007962 RMS(Int)=  0.00000000
 Iteration  2 RMS(Cart)=  0.00000000 RMS(Int)=  0.00000000
 ClnCor:  largest displacement from symmetrization is 1.92D-13 for atom     2.
 Variable       Old X    -DE/DX   Delta X   Delta X   Delta X     New X
                                 (Linear)    (Quad)   (Total)
    R1        2.06575  -0.00005   0.00000  -0.00015  -0.00015   2.06560
    R2        2.06575  -0.00005   0.00000  -0.00015  -0.00015   2.06560
    R3        2.06575  -0.00005   0.00000  -0.00015  -0.00015   2.06560
    R4        2.06575  -0.00005   0.00000  -0.00015  -0.00015   2.06560
    A1        1.91063  -0.00000   0.00000  -0.00000  -0.00000   1.91063
    A2        1.91063   0.00000   0.00000  -0.00000   0.00000   1.91063
    A3        1.91063  -0.00000   0.00000   0.00000   0.00000   1.91063
    A4        1.91063  -0.00000   0.00000   0.00000   0.00000   1.91063
    A5        1.91063   0.00000   0.00000  -0.00000   0.00000   1.91063
    A6        1.91063  -0.00000   0.00000  -0.00000  -0.00000   1.91063
    D1       -2.09440  -0.00000   0.00000   0.00000   0.00000  -2.09440
    D2        2.09440  -0.00000   0.00000  -0.00000   0.00000   2.09440
    D3       -2.09440  -0.00000   0.00000   0.00000   0.00000  -2.09440
    D4        2.09440  -0.00000   0.00000   0.00000   0.00000   2.09440
         Item               Value     Threshold  Converged?
 Maximum Force            0.000053     0.000450     YES
 RMS     Force            0.000028     0.000300     YES
 Maximum Displacement     0.000149     0.001800     YES
 RMS     Displacement     0.000080     0.001200     YES
 Predicted change in Energy=-1.570506D-08
 Optimization completed.
    -- Stationary point found.
                           ----------------------------
                           !   Optimized Parameters   !
                           ! (Angstroms and Degrees)  !
 --------------------------                            --------------------------
 ! Name  Definition              Value          Derivative Info.                !
 --------------------------------------------------------------------------------
 ! R1    R(1,2)                  1.0931         -DE/DX =   -0.0001              !
 ! R2    R(1,3)                  1.0931         -DE/DX =   -0.0001              !
 ! R3    R(1,4)                  1.0931         -DE/DX =   -0.0001              !
 ! R4    R(1,5)                  1.0931         -DE/DX =   -0.0001              !
 ! A1    A(2,1,3)              109.4712         -DE/DX =    0.0                 !
 ! A2    A(2,1,4)              109.4712         -DE/DX =    0.0                 !
 ! A3    A(2,1,5)              109.4712         -DE/DX =    0.0                 !
 ! A4    A(3,1,4)              109.4712         -DE/DX =    0.0                 !
 ! A5    A(3,1,5)              109.4712         -DE/DX =    0.0                 !
 ! A6    A(4,1,5)              109.4712         -DE/DX =    0.0                 !
 ! D1    D(2,1,4,3)           -120.0            -DE/DX =    0.0                 !
 ! D2    D(2,1,5,3)            120.0            -DE/DX =    0.0                 !
 ! D3    D(2,1,5,4)           -120.0            -DE/DX =    0.0                 !
 ! D4    D(3,1,5,4)            120.0            -DE/DX =    0.0                 !
 --------------------------------------------------------------------------------
 GradGradGradGradGradGradGradGradGradGradGradGradGradGradGradGradGradGrad

 Leave Link  103 at Sun Aug 18 00:36:44 2024, MaxMem=   13107200 cpu:       0.0
 (Enter /programs/64bit/g09/g09-gfortran/bin/l9999.exe)
 1\1\GINC-MOLMOD\Freq\RB3PW91\6-31++G\C1H4\OSPITE\18-Aug-2024\0\\#P Geo
 m=AllCheck Guess=TCheck SCRF=Check GenChk RB3PW91/6-31++G Freq\\methan
 e with imposed symmetry and 6-31++G basis set\\0,1\C,0.,0.,0.\H,0.,0.,
 1.0931490573\H,1.030630815,0.,-0.3643830191\H,-0.5153154075,-0.8925524
 677,-0.3643830191\H,-0.5153154075,0.8925524677,-0.3643830191\\Version=
 EM64L-G09RevA.02\State=1-A1\HF=-40.4976593\RMSD=4.295e-10\RMSF=2.722e-
 05\ZeroPoint=0.0454674\Thermal=0.0483293\Dipole=0.,0.,0.\DipoleDeriv=-
 0.0769504,0.,0.,0.,-0.0769504,0.,0.,0.,-0.0769504,0.1097967,0.,0.,0.,0
 .1097967,0.,0.,0.,-0.1618806,-0.1316942,0.,0.0853799,0.,0.1097967,0.,0
 .0853799,0.,0.0796103,0.049424,-0.1045686,-0.04269,-0.1045686,-0.07132
 15,-0.0739412,-0.04269,-0.0739412,0.0796103,0.049424,0.1045686,-0.0426
 9,0.1045686,-0.0713215,0.0739412,-0.04269,0.0739412,0.0796103\Polar=13
 .4908179,0.,13.4908179,0.,0.,13.4908179\PG=TD [O(C1),4C3(H1)]\NImag=0\
 \0.55619489,0.,0.55619489,0.,0.,0.55619489,-0.04772091,0.,0.,0.0476726
 5,0.,-0.04772091,0.,0.,0.04767265,0.,0.,-0.32170435,0.,0.,0.35152476,-
 0.29126175,0.,0.08610469,0.00098292,0.,-0.00265918,0.31776341,0.,-0.04
 772091,0.,0.,-0.00095075,0.,0.,0.04767265,0.08610469,0.,-0.07816351,0.
 03355424,0.,-0.00994014,-0.09549150,0.,0.08143400,-0.10860612,-0.10545
 628,-0.04305234,-0.00046733,0.00083730,0.00132959,-0.01374229,-0.02711
 782,-0.01208371,0.11519534,-0.10545628,-0.23037654,-0.07456885,0.00083
 730,0.00049950,0.00230292,0.00245031,0.00049950,0.00002178,0.11695273,
 0.25024072,-0.04305234,-0.07456885,-0.07816351,-0.01677712,-0.02905883
 ,-0.00994014,0.00602300,0.01047569,0.00333483,0.04774575,0.08269807,0.
 08143400,-0.10860612,0.10545628,-0.04305234,-0.00046733,-0.00083730,0.
 00132959,-0.01374229,0.02711782,-0.01208371,0.00762040,-0.01478407,0.0
 0606072,0.11519534,0.10545628,-0.23037654,0.07456885,-0.00083730,0.000
 49950,-0.00230292,-0.00245031,0.00049950,-0.00002178,0.01478407,-0.020
 86319,0.01045391,-0.11695273,0.25024072,-0.04305234,0.07456885,-0.0781
 6351,-0.01677712,0.02905883,-0.00994014,0.00602300,-0.01047569,0.00333
 483,0.00606072,-0.01045391,0.00333483,0.04774575,-0.08269807,0.0814340
 0\\0.,0.,0.,0.,0.,0.00005272,0.00004970,0.,-0.00001757,-0.00002485,-0.
 00004305,-0.00001757,-0.00002485,0.00004305,-0.00001757\\\@


 I MET A TRAVELLER FROM AN ANTIQUE LAND
 WHO SAID... TWO VAST AND TRUNKLESS LEGS OF STONE
 STAND IN THE DESERT..... NEAR THEM,  ON THE SAND,
 HALF SUNK,  A SHATTERED VISAGE LIES,  WHOSE FROWN,
 AND WRINKLED LIP,  AND SNEER OF COLD COMMAND
 TELL THAT ITS SCULPTOR WELL THOSE PASSIONS READ
 WHICH YET SURVIVE,  STAMPED ON THESE LIFELESS THINGS
 THE HAND THAT MOCKED THEM,  AND THE HEART THAT FED-
 AND ON THE PEDESTAL THESE WORDS APPEAR 
 MY NAME IS OZYMANDIAS, KING OF KINGS--   
 LOOK ON MY WORKS YE MIGHTY AND DESPAIR. 
 NOTHING BESIDE REMAINS,  ROUND THE DECAY 
 OF THAT COLOSSAL WRECK,  BOUNDLESS AND BARE
 THE LONE AND LEVEL SANDS STRETCH FAR AWAY.
                                    SHELLEY
 Job cpu time:  0 days  0 hours  0 minutes  9.2 seconds.
 File lengths (MBytes):  RWF=      5 Int=      0 D2E=      0 Chk=      1 Scr=      1
 Normal termination of Gaussian 09 at Sun Aug 18 00:36:44 2024.
