 Entering Gaussian System, Link 0=/programs/64bit/g09/g09-gfortran/bin/g09
 Input=ch4_+.com
 Output=ch4_+.log
 Initial command:
 /programs/64bit/g09/g09-gfortran/bin/l1.exe /home/ospite/Desktop/MMfP/Project6/CH4/g09/DFT/B3PW91/Gau-19330.inp -scrdir=/home/ospite/Desktop/MMfP/Project6/CH4/g09/DFT/B3PW91/
 Entering Link 1 = /programs/64bit/g09/g09-gfortran/bin/l1.exe PID=     19331.
  
 Copyright (c) 1988,1990,1992,1993,1995,1998,2003,2009, Gaussian, Inc.
                  All Rights Reserved.
  
 This is part of the Gaussian(R) 09 program.  It is based on
 the Gaussian(R) 03 system (copyright 2003, Gaussian, Inc.),
 the Gaussian(R) 98 system (copyright 1998, Gaussian, Inc.),
 the Gaussian(R) 94 system (copyright 1995, Gaussian, Inc.),
 the Gaussian 92(TM) system (copyright 1992, Gaussian, Inc.),
 the Gaussian 90(TM) system (copyright 1990, Gaussian, Inc.),
 the Gaussian 88(TM) system (copyright 1988, Gaussian, Inc.),
 the Gaussian 86(TM) system (copyright 1986, Carnegie Mellon
 University), and the Gaussian 82(TM) system (copyright 1983,
 Carnegie Mellon University). Gaussian is a federally registered
 trademark of Gaussian, Inc.
  
 This software contains proprietary and confidential information,
 including trade secrets, belonging to Gaussian, Inc.
  
 This software is provided under written license and may be
 used, copied, transmitted, or stored only in accord with that
 written license.
  
 The following legend is applicable only to US Government
 contracts under FAR:
  
                    RESTRICTED RIGHTS LEGEND
  
 Use, reproduction and disclosure by the US Government is
 subject to restrictions as set forth in subparagraphs (a)
 and (c) of the Commercial Computer Software - Restricted
 Rights clause in FAR 52.227-19.
  
 Gaussian, Inc.
 340 Quinnipiac St., Bldg. 40, Wallingford CT 06492
  
  
 ---------------------------------------------------------------
 Warning -- This program may not be used in any manner that
 competes with the business of Gaussian, Inc. or will provide
 assistance to any competitor of Gaussian, Inc.  The licensee
 of this program is prohibited from giving any competitor of
 Gaussian, Inc. access to this program.  By using this program,
 the user acknowledges that Gaussian, Inc. is engaged in the
 business of creating and licensing software in the field of
 computational chemistry and represents and warrants to the
 licensee that it is not a competitor of Gaussian, Inc. and that
 it will not use this program in any manner prohibited above.
 ---------------------------------------------------------------
  

 Cite this work as:
 Gaussian 09, Revision A.02,
 M. J. Frisch, G. W. Trucks, H. B. Schlegel, G. E. Scuseria, 
 M. A. Robb, J. R. Cheeseman, G. Scalmani, V. Barone, B. Mennucci, 
 G. A. Petersson, H. Nakatsuji, M. Caricato, X. Li, H. P. Hratchian, 
 A. F. Izmaylov, J. Bloino, G. Zheng, J. L. Sonnenberg, M. Hada, 
 M. Ehara, K. Toyota, R. Fukuda, J. Hasegawa, M. Ishida, T. Nakajima, 
 Y. Honda, O. Kitao, H. Nakai, T. Vreven, J. A. Montgomery, Jr., 
 J. E. Peralta, F. Ogliaro, M. Bearpark, J. J. Heyd, E. Brothers, 
 K. N. Kudin, V. N. Staroverov, R. Kobayashi, J. Normand, 
 K. Raghavachari, A. Rendell, J. C. Burant, S. S. Iyengar, J. Tomasi, 
 M. Cossi, N. Rega, J. M. Millam, M. Klene, J. E. Knox, J. B. Cross, 
 V. Bakken, C. Adamo, J. Jaramillo, R. Gomperts, R. E. Stratmann, 
 O. Yazyev, A. J. Austin, R. Cammi, C. Pomelli, J. W. Ochterski, 
 R. L. Martin, K. Morokuma, V. G. Zakrzewski, G. A. Voth, 
 P. Salvador, J. J. Dannenberg, S. Dapprich, A. D. Daniels, 
 O. Farkas, J. B. Foresman, J. V. Ortiz, J. Cioslowski, 
 and D. J. Fox, Gaussian, Inc., Wallingford CT, 2009.
 
 ******************************************
 Gaussian 09:  EM64L-G09RevA.02 11-Jun-2009
                18-Aug-2024 
 ******************************************
 %mem=100MB
 ------------------------------------------------------------------
 #p b3pw91/6-31+G opt freq symmetry=(follow,pg=Td) pop=full gfinput
 ------------------------------------------------------------------
 1/14=-1,18=20,19=15,26=3,38=1/1,3;
 2/9=110,12=2,17=6,18=5,19=2314885530818462804,40=1/2;
 3/5=1,6=6,7=10,11=2,16=1,24=10,25=1,30=1,71=1,74=-6/1,2,3;
 4//1;
 5/5=2,38=5/2;
 6/7=3,28=1/1;
 7//1,2,3,16;
 1/14=-1,18=20,19=15/3(2);
 2/9=110,15=5,19=2314885530818462804/2;
 99//99;
 2/9=110,15=5,19=2314885530818462804/2;
 3/5=1,6=6,7=10,11=2,16=1,25=1,30=1,71=1,74=-6/1,2,3;
 4/5=5,16=3/1;
 5/5=2,38=5/2;
 7//1,2,3,16;
 1/14=-1,18=20,19=15/3(-5);
 2/9=110,15=5,19=2314885530818462804/2;
 6/7=3,19=2,28=1/1;
 99/9=1/99;
 Leave Link    1 at Sun Aug 18 00:35:29 2024, MaxMem=   13107200 cpu:       0.1
 (Enter /programs/64bit/g09/g09-gfortran/bin/l101.exe)
 --------------------------------------------------
 methane with imposed symmetry and 6-31+G basis set
 --------------------------------------------------
 Symbolic Z-matrix:
 Charge =  0 Multiplicity = 1
 C1
 H2                   1    d
 H3                   1    d        2    a
 H4                   1    d        2    a        3    t        0
 H5                   1    d        2    a        3    -t       0
       Variables:
  d                     1.09                     
  a                   109.471                    
  t                   120.                       
 
     3 tetrahedral angles replaced.
 NAtoms=      5 NQM=      5 NQMF=      0 NMic=      0 NMicF=      0 NTot=      5.
                    Isotopes and Nuclear Properties:
 (Nuclear quadrupole moments (NQMom) in fm**2, nuclear magnetic moments (NMagM)
  in nuclear magnetons)

  Atom         1           2           3           4           5
 IAtWgt=          12           1           1           1           1
 AtmWgt=  12.0000000   1.0078250   1.0078250   1.0078250   1.0078250
 NucSpn=           0           1           1           1           1
 AtZEff=   0.0000000   0.0000000   0.0000000   0.0000000   0.0000000
 NQMom=    0.0000000   0.0000000   0.0000000   0.0000000   0.0000000
 NMagM=    0.0000000   2.7928460   2.7928460   2.7928460   2.7928460
 Leave Link  101 at Sun Aug 18 00:35:29 2024, MaxMem=   13107200 cpu:       0.1
 (Enter /programs/64bit/g09/g09-gfortran/bin/l103.exe)

 GradGradGradGradGradGradGradGradGradGradGradGradGradGradGradGradGradGrad
 Berny optimization.
 Initialization pass.
                           ----------------------------
                           !    Initial Parameters    !
                           ! (Angstroms and Degrees)  !
 --------------------------                            --------------------------
 ! Name  Definition              Value          Derivative Info.                !
 --------------------------------------------------------------------------------
 ! R1    R(1,2)                  1.09           estimate D2E/DX2                !
 ! R2    R(1,3)                  1.09           estimate D2E/DX2                !
 ! R3    R(1,4)                  1.09           estimate D2E/DX2                !
 ! R4    R(1,5)                  1.09           estimate D2E/DX2                !
 ! A1    A(2,1,3)              109.4712         estimate D2E/DX2                !
 ! A2    A(2,1,4)              109.4712         estimate D2E/DX2                !
 ! A3    A(2,1,5)              109.4712         estimate D2E/DX2                !
 ! A4    A(3,1,4)              109.4712         estimate D2E/DX2                !
 ! A5    A(3,1,5)              109.4712         estimate D2E/DX2                !
 ! A6    A(4,1,5)              109.4712         estimate D2E/DX2                !
 ! D1    D(2,1,4,3)           -120.0            estimate D2E/DX2                !
 ! D2    D(2,1,5,3)            120.0            estimate D2E/DX2                !
 ! D3    D(2,1,5,4)           -120.0            estimate D2E/DX2                !
 ! D4    D(3,1,5,4)            120.0            estimate D2E/DX2                !
 --------------------------------------------------------------------------------
 Trust Radius=3.00D-01 FncErr=1.00D-07 GrdErr=1.00D-06
 Number of steps in this run=  24 maximum allowed number of steps= 100.
 GradGradGradGradGradGradGradGradGradGradGradGradGradGradGradGradGradGrad

 Leave Link  103 at Sun Aug 18 00:35:29 2024, MaxMem=   13107200 cpu:       0.0
 (Enter /programs/64bit/g09/g09-gfortran/bin/l202.exe)
                          Input orientation:                          
 ---------------------------------------------------------------------
 Center     Atomic      Atomic             Coordinates (Angstroms)
 Number     Number       Type             X           Y           Z
 ---------------------------------------------------------------------
      1          6           0        0.000000    0.000000    0.000000
      2          1           0        0.000000    0.000000    1.090000
      3          1           0        1.027662    0.000000   -0.363333
      4          1           0       -0.513831   -0.889981   -0.363333
      5          1           0       -0.513831    0.889981   -0.363333
 ---------------------------------------------------------------------
                    Distance matrix (angstroms):
                    1          2          3          4          5
     1  C    0.000000
     2  H    1.090000   0.000000
     3  H    1.090000   1.779963   0.000000
     4  H    1.090000   1.779963   1.779963   0.000000
     5  H    1.090000   1.779963   1.779963   1.779963   0.000000
 Symm:  InNGrp=TD   InAxis=0.
 Stoichiometry    CH4
 Framework group  TD[O(C),4C3(H)]
 Deg. of freedom     1
 Full point group                 TD      NOp  24
 Largest Abelian subgroup         D2      NOp   4
 Largest concise Abelian subgroup D2      NOp   4
                         Standard orientation:                         
 ---------------------------------------------------------------------
 Center     Atomic      Atomic             Coordinates (Angstroms)
 Number     Number       Type             X           Y           Z
 ---------------------------------------------------------------------
      1          6           0        0.000000    0.000000    0.000000
      2          1           0        0.629312    0.629312    0.629312
      3          1           0       -0.629312   -0.629312    0.629312
      4          1           0       -0.629312    0.629312   -0.629312
      5          1           0        0.629312   -0.629312   -0.629312
 ---------------------------------------------------------------------
 Rotational constants (GHZ):    158.2742720    158.2742720    158.2742720
 Leave Link  202 at Sun Aug 18 00:35:29 2024, MaxMem=   13107200 cpu:       0.0
 (Enter /programs/64bit/g09/g09-gfortran/bin/l301.exe)
 Standard basis: 6-31+G (6D, 7F)
 Ernie: Thresh=  0.10000D-02 Tol=  0.10000D-05 Strict=F.
 AO basis set in the form of general basis input (Overlap normalization):
      1 0
 S   6 1.00       0.000000000000
      0.3047524880D+04  0.1834737132D-02
      0.4573695180D+03  0.1403732281D-01
      0.1039486850D+03  0.6884262226D-01
      0.2921015530D+02  0.2321844432D+00
      0.9286662960D+01  0.4679413484D+00
      0.3163926960D+01  0.3623119853D+00
 SP   3 1.00       0.000000000000
      0.7868272350D+01 -0.1193324198D+00  0.6899906659D-01
      0.1881288540D+01 -0.1608541517D+00  0.3164239610D+00
      0.5442492580D+00  0.1143456438D+01  0.7443082909D+00
 SP   1 1.00       0.000000000000
      0.1687144782D+00  0.1000000000D+01  0.1000000000D+01
 SP   1 1.00       0.000000000000
      0.4380000000D-01  0.1000000000D+01  0.1000000000D+01
 ****
      2 0
 S   3 1.00       0.000000000000
      0.1873113696D+02  0.3349460434D-01
      0.2825394365D+01  0.2347269535D+00
      0.6401216923D+00  0.8137573261D+00
 S   1 1.00       0.000000000000
      0.1612777588D+00  0.1000000000D+01
 ****
      3 0
 S   3 1.00       0.000000000000
      0.1873113696D+02  0.3349460434D-01
      0.2825394365D+01  0.2347269535D+00
      0.6401216923D+00  0.8137573261D+00
 S   1 1.00       0.000000000000
      0.1612777588D+00  0.1000000000D+01
 ****
      4 0
 S   3 1.00       0.000000000000
      0.1873113696D+02  0.3349460434D-01
      0.2825394365D+01  0.2347269535D+00
      0.6401216923D+00  0.8137573261D+00
 S   1 1.00       0.000000000000
      0.1612777588D+00  0.1000000000D+01
 ****
      5 0
 S   3 1.00       0.000000000000
      0.1873113696D+02  0.3349460434D-01
      0.2825394365D+01  0.2347269535D+00
      0.6401216923D+00  0.8137573261D+00
 S   1 1.00       0.000000000000
      0.1612777588D+00  0.1000000000D+01
 ****

 There are     6 symmetry adapted basis functions of A   symmetry.
 There are     5 symmetry adapted basis functions of B1  symmetry.
 There are     5 symmetry adapted basis functions of B2  symmetry.
 There are     5 symmetry adapted basis functions of B3  symmetry.
 Integral buffers will be    131072 words long.
 Raffenetti 2 integral format.
 Two-electron integral symmetry is turned on.
    21 basis functions,    42 primitive gaussians,    21 cartesian basis functions
     5 alpha electrons        5 beta electrons
       nuclear repulsion energy        13.4353891954 Hartrees.
 IExCor=  408 DFT=T Ex+Corr=B3PW91 ExCW=0 ScaHFX=  0.200000
 ScaDFX=  0.800000  0.720000  1.000000  0.810000 ScalE2=  1.000000  1.000000
 IRadAn=      0 IRanWt=     -1 IRanGd=            0 ICorTp=0
 NAtoms=    5 NActive=    5 NUniq=    2 SFac= 3.00D+00 NAtFMM=   80 NAOKFM=F Big=F
 Leave Link  301 at Sun Aug 18 00:35:29 2024, MaxMem=   13107200 cpu:       0.1
 (Enter /programs/64bit/g09/g09-gfortran/bin/l302.exe)
 NPDir=0 NMtPBC=     1 NCelOv=     1 NCel=       1 NClECP=     1 NCelD=      1
         NCelK=      1 NCelE2=     1 NClLst=     1 CellRange=     0.0.
 One-electron integrals computed using PRISM.
 One-electron integral symmetry used in STVInt
 NBasis=    21 RedAO= T  NBF=     6     5     5     5
 NBsUse=    21 1.00D-06 NBFU=     6     5     5     5
 Precomputing XC quadrature grid using
 IXCGrd= 2 IRadAn=           0 IRanWt=          -1 IRanGd=           0 AccXCQ= 1.00D-10.
 NRdTot=     319 NPtTot=       40572 NUsed=       42883 NTot=       42915
 NSgBfM=    21    21    21    21    21 NAtAll=     5     5.
 Leave Link  302 at Sun Aug 18 00:35:29 2024, MaxMem=   13107200 cpu:       0.1
 (Enter /programs/64bit/g09/g09-gfortran/bin/l303.exe)
 DipDrv:  MaxL=1.
 Leave Link  303 at Sun Aug 18 00:35:29 2024, MaxMem=   13107200 cpu:       0.0
 (Enter /programs/64bit/g09/g09-gfortran/bin/l401.exe)
 Harris functional with IExCor=  408 diagonalized for initial guess.
 ExpMin= 4.38D-02 ExpMax= 3.05D+03 ExpMxC= 4.57D+02 IAcc=2 IRadAn=         0 AccDes= 0.00D+00
 HarFok:  IExCor=  408 AccDes= 0.00D+00 IRadAn=         0 IDoV= 1
 ScaDFX=  1.000000  1.000000  1.000000  1.000000
 FoFCou: FMM=F IPFlag=           0 FMFlag=      100000 FMFlg1=           0
         NFxFlg=           0 DoJE=T BraDBF=F KetDBF=T FulRan=T
         Omega=  0.000000  0.000000  1.000000  0.000000  0.000000 ICntrl=     500 IOpCl=  0
         NMat0=    1 NMatS0=    1 NMatT0=    0 NMatD0=    1 NMtDS0=    0 NMtDT0=    0
         I1Cent=           4 NGrid=           0.
 Petite list used in FoFCou.
 Harris En= -40.5762904646385    
 Initial guess orbital symmetries:
       Occupied  (A1) (A1) (T2) (T2) (T2)
       Virtual   (A1) (T2) (T2) (T2) (T2) (T2) (T2) (A1) (T2) (T2)
                 (T2) (T2) (T2) (T2) (A1) (A1)
 The electronic state of the initial guess is 1-A1.
 Leave Link  401 at Sun Aug 18 00:35:30 2024, MaxMem=   13107200 cpu:       0.3
 (Enter /programs/64bit/g09/g09-gfortran/bin/l502.exe)
 Closed shell SCF:
 Requested convergence on RMS density matrix=1.00D-08 within 128 cycles.
 Requested convergence on MAX density matrix=1.00D-06.
 Requested convergence on             energy=1.00D-06.
 No special actions if energy rises.
 Using DIIS extrapolation, IDIIS=  1040.
 Integral symmetry usage will be decided dynamically.
        42825 words used for storage of precomputed grid.
 Keep R1 ints in memory in canonical form, NReq=947876.
 IEnd=       62928 IEndB=       62928 NGot=    13107200 MDV=    13034551
 LenX=    13034551 LenY=    13033669
 Symmetry not used in FoFDir.
 MinBra= 0 MaxBra= 1 Meth= 1.
 IRaf=       0 NMat=   1 IRICut=       1 DoRegI=T DoRafI=F ISym2E= 0 JSym2E=0.

 Cycle   1  Pass 1  IDiag  1:
 E= -40.4158745136418    
 DIIS: error= 4.65D-02 at cycle   1 NSaved=   1.
 NSaved= 1 IEnMin= 1 EnMin= -40.4158745136418     IErMin= 1 ErrMin= 4.65D-02
 ErrMax= 4.65D-02 EMaxC= 1.00D-01 BMatC= 7.33D-02 BMatP= 7.33D-02
 IDIUse=3 WtCom= 5.35D-01 WtEn= 4.65D-01
 Coeff-Com:  0.100D+01
 Coeff-En:   0.100D+01
 Coeff:      0.100D+01
 Gap=     0.338 Goal=   None    Shift=    0.000
 GapD=    0.338 DampG=1.000 DampE=0.500 DampFc=0.5000 IDamp=-1.
 Damping current iteration by 5.00D-01
 RMSDP=2.08D-02 MaxDP=1.47D-01              OVMax= 1.87D-01

 Cycle   2  Pass 1  IDiag  1:
 E= -40.4541423865736     Delta-E=       -0.038267872932 Rises=F Damp=T
 DIIS: error= 6.32D-03 at cycle   2 NSaved=   2.
 NSaved= 2 IEnMin= 2 EnMin= -40.4541423865736     IErMin= 2 ErrMin= 6.32D-03
 ErrMax= 6.32D-03 EMaxC= 1.00D-01 BMatC= 8.26D-04 BMatP= 7.33D-02
 IDIUse=3 WtCom= 9.37D-01 WtEn= 6.32D-02
 Coeff-Com:  0.607D-01 0.939D+00
 Coeff-En:   0.995D-01 0.901D+00
 Coeff:      0.632D-01 0.937D+00
 Gap=     0.419 Goal=   None    Shift=    0.000
 RMSDP=1.62D-03 MaxDP=5.67D-03 DE=-3.83D-02 OVMax= 9.37D-02

 Cycle   3  Pass 1  IDiag  1:
 E= -40.4976223936934     Delta-E=       -0.043480007120 Rises=F Damp=F
 DIIS: error= 3.25D-04 at cycle   3 NSaved=   3.
 NSaved= 3 IEnMin= 3 EnMin= -40.4976223936934     IErMin= 3 ErrMin= 3.25D-04
 ErrMax= 3.25D-04 EMaxC= 1.00D-01 BMatC= 3.57D-06 BMatP= 8.26D-04
 IDIUse=3 WtCom= 9.97D-01 WtEn= 3.25D-03
 Coeff-Com:  0.396D-02-0.391D-01 0.104D+01
 Coeff-En:   0.000D+00 0.000D+00 0.100D+01
 Coeff:      0.394D-02-0.389D-01 0.104D+01
 Gap=     0.425 Goal=   None    Shift=    0.000
 RMSDP=6.74D-05 MaxDP=5.66D-04 DE=-4.35D-02 OVMax= 4.40D-04

 Cycle   4  Pass 1  IDiag  1:
 E= -40.4976256123694     Delta-E=       -0.000003218676 Rises=F Damp=F
 DIIS: error= 1.40D-05 at cycle   4 NSaved=   4.
 NSaved= 4 IEnMin= 4 EnMin= -40.4976256123694     IErMin= 4 ErrMin= 1.40D-05
 ErrMax= 1.40D-05 EMaxC= 1.00D-01 BMatC= 3.12D-09 BMatP= 3.57D-06
 IDIUse=1 WtCom= 1.00D+00 WtEn= 0.00D+00
 Coeff-Com:  0.146D-03 0.162D-02-0.199D-01 0.102D+01
 Coeff:      0.146D-03 0.162D-02-0.199D-01 0.102D+01
 Gap=     0.425 Goal=   None    Shift=    0.000
 RMSDP=2.38D-06 MaxDP=2.01D-05 DE=-3.22D-06 OVMax= 2.19D-05

 Cycle   5  Pass 1  IDiag  1:
 E= -40.4976256163158     Delta-E=       -0.000000003946 Rises=F Damp=F
 DIIS: error= 5.23D-07 at cycle   5 NSaved=   5.
 NSaved= 5 IEnMin= 5 EnMin= -40.4976256163158     IErMin= 5 ErrMin= 5.23D-07
 ErrMax= 5.23D-07 EMaxC= 1.00D-01 BMatC= 1.25D-11 BMatP= 3.12D-09
 IDIUse=1 WtCom= 1.00D+00 WtEn= 0.00D+00
 Coeff-Com: -0.106D-04-0.125D-03 0.521D-03-0.805D-03 0.100D+01
 Coeff:     -0.106D-04-0.125D-03 0.521D-03-0.805D-03 0.100D+01
 Gap=     0.425 Goal=   None    Shift=    0.000
 RMSDP=3.48D-07 MaxDP=1.50D-06 DE=-3.95D-09 OVMax= 1.70D-06

 Cycle   6  Pass 1  IDiag  1:
 E= -40.4976256163349     Delta-E=       -0.000000000019 Rises=F Damp=F
 DIIS: error= 1.43D-07 at cycle   6 NSaved=   6.
 NSaved= 6 IEnMin= 6 EnMin= -40.4976256163349     IErMin= 6 ErrMin= 1.43D-07
 ErrMax= 1.43D-07 EMaxC= 1.00D-01 BMatC= 4.46D-13 BMatP= 1.25D-11
 IDIUse=1 WtCom= 1.00D+00 WtEn= 0.00D+00
 Coeff-Com:  0.121D-05 0.260D-05-0.761D-04-0.558D-02-0.843D-02 0.101D+01
 Coeff:      0.121D-05 0.260D-05-0.761D-04-0.558D-02-0.843D-02 0.101D+01
 Gap=     0.425 Goal=   None    Shift=    0.000
 RMSDP=2.63D-08 MaxDP=1.81D-07 DE=-1.91D-11 OVMax= 2.29D-07

 Cycle   7  Pass 1  IDiag  1:
 E= -40.4976256163355     Delta-E=       -0.000000000001 Rises=F Damp=F
 DIIS: error= 2.22D-09 at cycle   7 NSaved=   7.
 NSaved= 7 IEnMin= 7 EnMin= -40.4976256163355     IErMin= 7 ErrMin= 2.22D-09
 ErrMax= 2.22D-09 EMaxC= 1.00D-01 BMatC= 2.07D-16 BMatP= 4.46D-13
 IDIUse=1 WtCom= 1.00D+00 WtEn= 0.00D+00
 Coeff-Com:  0.619D-07-0.354D-07 0.760D-05 0.265D-03-0.389D-02-0.389D-01
 Coeff-Com:  0.104D+01
 Coeff:      0.619D-07-0.354D-07 0.760D-05 0.265D-03-0.389D-02-0.389D-01
 Coeff:      0.104D+01
 Gap=     0.425 Goal=   None    Shift=    0.000
 RMSDP=1.48D-09 MaxDP=5.56D-09 DE=-6.11D-13 OVMax= 3.64D-09

 SCF Done:  E(RB3PW91) =  -40.4976256163     A.U. after    7 cycles
             Convg  =    0.1475D-08             -V/T =  2.0064
 KE= 4.024160483187D+01 PE=-1.200411149803D+02 EE= 2.586649533667D+01
 Leave Link  502 at Sun Aug 18 00:35:31 2024, MaxMem=   13107200 cpu:       1.0
 (Enter /programs/64bit/g09/g09-gfortran/bin/l601.exe)
 Copying SCF densities to generalized density rwf, IOpCl= 0 IROHF=0.

 **********************************************************************

            Population analysis using the SCF density.

 **********************************************************************

 Orbital symmetries:
       Occupied  (A1) (A1) (T2) (T2) (T2)
       Virtual   (A1) (T2) (T2) (T2) (T2) (T2) (T2) (A1) (T2) (T2)
                 (T2) (T2) (T2) (T2) (A1) (A1)
 The electronic state is 1-A1.
 Alpha  occ. eigenvalues --  -10.14844  -0.70162  -0.39568  -0.39568  -0.39568
 Alpha virt. eigenvalues --    0.02949   0.07278   0.07278   0.07278   0.18742
 Alpha virt. eigenvalues --    0.18742   0.18742   0.28226   0.65905   0.65905
 Alpha virt. eigenvalues --    0.65905   1.00723   1.00723   1.00723   1.07241
 Alpha virt. eigenvalues --    1.13752
     Molecular Orbital Coefficients:
                           1         2         3         4         5
                        (A1)--O   (A1)--O   (T2)--O   (T2)--O   (T2)--O
     Eigenvalues --   -10.14844  -0.70162  -0.39568  -0.39568  -0.39568
   1 1   C  1S          0.99526  -0.20018   0.00000   0.00000   0.00000
   2        2S          0.03630   0.37658   0.00000   0.00000   0.00000
   3        2PX         0.00000   0.00000   0.44799   0.00000   0.00000
   4        2PY         0.00000   0.00000   0.00000   0.44799   0.00000
   5        2PZ         0.00000   0.00000   0.00000   0.00000   0.44799
   6        3S         -0.03100   0.40668   0.00000   0.00000   0.00000
   7        3PX         0.00000   0.00000   0.21601   0.00000   0.00000
   8        3PY         0.00000   0.00000   0.00000   0.21601   0.00000
   9        3PZ         0.00000   0.00000   0.00000   0.00000   0.21601
  10        4S         -0.00194   0.02359   0.00000   0.00000   0.00000
  11        4PX         0.00000   0.00000   0.02942   0.00000   0.00000
  12        4PY         0.00000   0.00000   0.00000   0.02942   0.00000
  13        4PZ         0.00000   0.00000   0.00000   0.00000   0.02942
  14 2   H  1S         -0.00089   0.13483   0.17472   0.17472   0.17472
  15        2S          0.00677   0.01843   0.12755   0.12755   0.12755
  16 3   H  1S         -0.00089   0.13483  -0.17472  -0.17472   0.17472
  17        2S          0.00677   0.01843  -0.12755  -0.12755   0.12755
  18 4   H  1S         -0.00089   0.13483  -0.17472   0.17472  -0.17472
  19        2S          0.00677   0.01843  -0.12755   0.12755  -0.12755
  20 5   H  1S         -0.00089   0.13483   0.17472  -0.17472  -0.17472
  21        2S          0.00677   0.01843   0.12755  -0.12755  -0.12755
                           6         7         8         9        10
                        (A1)--V   (T2)--V   (T2)--V   (T2)--V   (T2)--V
     Eigenvalues --     0.02949   0.07278   0.07278   0.07278   0.18742
   1 1   C  1S          0.08826   0.00000   0.00000   0.00000   0.00000
   2        2S         -0.17924   0.00000   0.00000   0.00000   0.00000
   3        2PX         0.00000   0.00000   0.00000  -0.18212   0.00000
   4        2PY         0.00000  -0.18212   0.00000   0.00000   0.00000
   5        2PZ         0.00000   0.00000  -0.18212   0.00000   0.32406
   6        3S         -0.63561   0.00000   0.00000   0.00000   0.00000
   7        3PX         0.00000   0.00000   0.00000  -0.18235   0.00000
   8        3PY         0.00000  -0.18235   0.00000   0.00000   0.00000
   9        3PZ         0.00000   0.00000  -0.18235   0.00000   1.41852
  10        4S          1.47618   0.00000   0.00000   0.00000   0.00000
  11        4PX         0.00000   0.00000   0.00000   1.17998   0.00000
  12        4PY         0.00000   1.17998   0.00000   0.00000   0.00000
  13        4PZ         0.00000   0.00000   1.17998   0.00000   0.32162
  14 2   H  1S          0.01633  -0.02987  -0.02987  -0.02987  -0.10946
  15        2S         -0.08448  -0.13577  -0.13577  -0.13577  -1.16143
  16 3   H  1S          0.01633   0.02987  -0.02987   0.02987  -0.10946
  17        2S         -0.08448   0.13577  -0.13577   0.13577  -1.16143
  18 4   H  1S          0.01633  -0.02987   0.02987   0.02987   0.10946
  19        2S         -0.08448  -0.13577   0.13577   0.13577   1.16143
  20 5   H  1S          0.01633   0.02987   0.02987  -0.02987   0.10946
  21        2S         -0.08448   0.13577   0.13577  -0.13577   1.16143
                          11        12        13        14        15
                        (T2)--V   (T2)--V   (A1)--V   (T2)--V   (T2)--V
     Eigenvalues --     0.18742   0.18742   0.28226   0.65905   0.65905
   1 1   C  1S          0.00000   0.00000  -0.15370   0.00000   0.00000
   2        2S          0.00000   0.00000   0.19505   0.00000   0.00000
   3        2PX         0.00000   0.32406   0.00000   0.00000  -0.99569
   4        2PY         0.32406   0.00000   0.00000   0.00000   0.00000
   5        2PZ         0.00000   0.00000   0.00000  -0.99569   0.00000
   6        3S          0.00000   0.00000   3.14196   0.00000   0.00000
   7        3PX         0.00000   1.41852   0.00000   0.00000   1.73706
   8        3PY         1.41852   0.00000   0.00000   0.00000   0.00000
   9        3PZ         0.00000   0.00000   0.00000   1.73706   0.00000
  10        4S          0.00000   0.00000   1.85405   0.00000   0.00000
  11        4PX         0.00000   0.32162   0.00000   0.00000  -0.56382
  12        4PY         0.32162   0.00000   0.00000   0.00000   0.00000
  13        4PZ         0.00000   0.00000   0.00000  -0.56382   0.00000
  14 2   H  1S         -0.10946  -0.10946  -0.07629  -0.17684  -0.17684
  15        2S         -1.16143  -1.16143  -1.61539  -0.13963  -0.13963
  16 3   H  1S          0.10946   0.10946  -0.07629  -0.17684   0.17684
  17        2S          1.16143   1.16143  -1.61539  -0.13963   0.13963
  18 4   H  1S         -0.10946   0.10946  -0.07629   0.17684   0.17684
  19        2S         -1.16143   1.16143  -1.61539   0.13963   0.13963
  20 5   H  1S          0.10946  -0.10946  -0.07629   0.17684  -0.17684
  21        2S          1.16143  -1.16143  -1.61539   0.13963  -0.13963
                          16        17        18        19        20
                        (T2)--V   (T2)--V   (T2)--V   (T2)--V   (A1)--V
     Eigenvalues --     0.65905   1.00723   1.00723   1.00723   1.07241
   1 1   C  1S          0.00000   0.00000   0.00000   0.00000  -0.10422
   2        2S          0.00000   0.00000   0.00000   0.00000  -0.56347
   3        2PX         0.00000   0.00000   0.00000   0.60745   0.00000
   4        2PY        -0.99569   0.60745   0.00000   0.00000   0.00000
   5        2PZ         0.00000   0.00000   0.60745   0.00000   0.00000
   6        3S          0.00000   0.00000   0.00000   0.00000   1.33338
   7        3PX         0.00000   0.00000   0.00000  -0.68325   0.00000
   8        3PY         1.73706  -0.68325   0.00000   0.00000   0.00000
   9        3PZ         0.00000   0.00000  -0.68325   0.00000   0.00000
  10        4S          0.00000   0.00000   0.00000   0.00000  -0.72766
  11        4PX         0.00000   0.00000   0.00000  -0.40545   0.00000
  12        4PY        -0.56382  -0.40545   0.00000   0.00000   0.00000
  13        4PZ         0.00000   0.00000  -0.40545   0.00000   0.00000
  14 2   H  1S         -0.17684  -0.67880  -0.67880  -0.67880  -0.72423
  15        2S         -0.13963   1.09073   1.09073   1.09073   0.34389
  16 3   H  1S          0.17684   0.67880  -0.67880   0.67880  -0.72423
  17        2S          0.13963  -1.09073   1.09073  -1.09073   0.34389
  18 4   H  1S         -0.17684  -0.67880   0.67880   0.67880  -0.72423
  19        2S         -0.13963   1.09073  -1.09073  -1.09073   0.34389
  20 5   H  1S          0.17684   0.67880   0.67880  -0.67880  -0.72423
  21        2S          0.13963  -1.09073  -1.09073   1.09073   0.34389
                          21
                        (A1)--V
     Eigenvalues --     1.13752
   1 1   C  1S         -0.01877
   2        2S         -2.36263
   3        2PX         0.00000
   4        2PY         0.00000
   5        2PZ         0.00000
   6        3S          5.87416
   7        3PX         0.00000
   8        3PY         0.00000
   9        3PZ         0.00000
  10        4S          0.74818
  11        4PX         0.00000
  12        4PY         0.00000
  13        4PZ         0.00000
  14 2   H  1S          0.15778
  15        2S         -1.64632
  16 3   H  1S          0.15778
  17        2S         -1.64632
  18 4   H  1S          0.15778
  19        2S         -1.64632
  20 5   H  1S          0.15778
  21        2S         -1.64632
     Density Matrix:
                           1         2         3         4         5
   1 1   C  1S          2.06121
   2        2S         -0.07851   0.28626
   3        2PX         0.00000   0.00000   0.40140
   4        2PY         0.00000   0.00000   0.00000   0.40140
   5        2PZ         0.00000   0.00000   0.00000   0.00000   0.40140
   6        3S         -0.22452   0.30404   0.00000   0.00000   0.00000
   7        3PX         0.00000   0.00000   0.19355   0.00000   0.00000
   8        3PY         0.00000   0.00000   0.00000   0.19355   0.00000
   9        3PZ         0.00000   0.00000   0.00000   0.00000   0.19355
  10        4S         -0.01330   0.01763   0.00000   0.00000   0.00000
  11        4PX         0.00000   0.00000   0.02636   0.00000   0.00000
  12        4PY         0.00000   0.00000   0.00000   0.02636   0.00000
  13        4PZ         0.00000   0.00000   0.00000   0.00000   0.02636
  14 2   H  1S         -0.05574   0.10148   0.15655   0.15655   0.15655
  15        2S          0.00609   0.01437   0.11428   0.11428   0.11428
  16 3   H  1S         -0.05574   0.10148  -0.15655  -0.15655   0.15655
  17        2S          0.00609   0.01437  -0.11428  -0.11428   0.11428
  18 4   H  1S         -0.05574   0.10148  -0.15655   0.15655  -0.15655
  19        2S          0.00609   0.01437  -0.11428   0.11428  -0.11428
  20 5   H  1S         -0.05574   0.10148   0.15655  -0.15655  -0.15655
  21        2S          0.00609   0.01437   0.11428  -0.11428  -0.11428
                           6         7         8         9        10
   6        3S          0.33269
   7        3PX         0.00000   0.09332
   8        3PY         0.00000   0.00000   0.09332
   9        3PZ         0.00000   0.00000   0.00000   0.09332
  10        4S          0.01931   0.00000   0.00000   0.00000   0.00112
  11        4PX         0.00000   0.01271   0.00000   0.00000   0.00000
  12        4PY         0.00000   0.00000   0.01271   0.00000   0.00000
  13        4PZ         0.00000   0.00000   0.00000   0.01271   0.00000
  14 2   H  1S          0.10972   0.07548   0.07548   0.07548   0.00637
  15        2S          0.01457   0.05510   0.05510   0.05510   0.00084
  16 3   H  1S          0.10972  -0.07548  -0.07548   0.07548   0.00637
  17        2S          0.01457  -0.05510  -0.05510   0.05510   0.00084
  18 4   H  1S          0.10972  -0.07548   0.07548  -0.07548   0.00637
  19        2S          0.01457  -0.05510   0.05510  -0.05510   0.00084
  20 5   H  1S          0.10972   0.07548  -0.07548  -0.07548   0.00637
  21        2S          0.01457   0.05510  -0.05510  -0.05510   0.00084
                          11        12        13        14        15
  11        4PX         0.00173
  12        4PY         0.00000   0.00173
  13        4PZ         0.00000   0.00000   0.00173
  14 2   H  1S          0.01028   0.01028   0.01028   0.21952
  15        2S          0.00751   0.00751   0.00751   0.13867   0.09838
  16 3   H  1S         -0.01028  -0.01028   0.01028  -0.02470  -0.03961
  17        2S         -0.00751  -0.00751   0.00751  -0.03961  -0.03177
  18 4   H  1S         -0.01028   0.01028  -0.01028  -0.02470  -0.03961
  19        2S         -0.00751   0.00751  -0.00751  -0.03961  -0.03177
  20 5   H  1S          0.01028  -0.01028  -0.01028  -0.02470  -0.03961
  21        2S          0.00751  -0.00751  -0.00751  -0.03961  -0.03177
                          16        17        18        19        20
  16 3   H  1S          0.21952
  17        2S          0.13867   0.09838
  18 4   H  1S         -0.02470  -0.03961   0.21952
  19        2S         -0.03961  -0.03177   0.13867   0.09838
  20 5   H  1S         -0.02470  -0.03961  -0.02470  -0.03961   0.21952
  21        2S         -0.03961  -0.03177  -0.03961  -0.03177   0.13867
                          21
  21        2S          0.09838
    Full Mulliken population analysis:
                           1         2         3         4         5
   1 1   C  1S          2.06121
   2        2S         -0.01720   0.28626
   3        2PX         0.00000   0.00000   0.40140
   4        2PY         0.00000   0.00000   0.00000   0.40140
   5        2PZ         0.00000   0.00000   0.00000   0.00000   0.40140
   6        3S         -0.04137   0.24696   0.00000   0.00000   0.00000
   7        3PX         0.00000   0.00000   0.11027   0.00000   0.00000
   8        3PY         0.00000   0.00000   0.00000   0.11027   0.00000
   9        3PZ         0.00000   0.00000   0.00000   0.00000   0.11027
  10        4S         -0.00093   0.00709   0.00000   0.00000   0.00000
  11        4PX         0.00000   0.00000   0.00434   0.00000   0.00000
  12        4PY         0.00000   0.00000   0.00000   0.00434   0.00000
  13        4PZ         0.00000   0.00000   0.00000   0.00000   0.00434
  14 2   H  1S         -0.00182   0.02777   0.03338   0.03338   0.03338
  15        2S          0.00056   0.00684   0.01753   0.01753   0.01753
  16 3   H  1S         -0.00182   0.02777   0.03338   0.03338   0.03338
  17        2S          0.00056   0.00684   0.01753   0.01753   0.01753
  18 4   H  1S         -0.00182   0.02777   0.03338   0.03338   0.03338
  19        2S          0.00056   0.00684   0.01753   0.01753   0.01753
  20 5   H  1S         -0.00182   0.02777   0.03338   0.03338   0.03338
  21        2S          0.00056   0.00684   0.01753   0.01753   0.01753
                           6         7         8         9        10
   6        3S          0.33269
   7        3PX         0.00000   0.09332
   8        3PY         0.00000   0.00000   0.09332
   9        3PZ         0.00000   0.00000   0.00000   0.09332
  10        4S          0.01405   0.00000   0.00000   0.00000   0.00112
  11        4PX         0.00000   0.00748   0.00000   0.00000   0.00000
  12        4PY         0.00000   0.00000   0.00748   0.00000   0.00000
  13        4PZ         0.00000   0.00000   0.00000   0.00748   0.00000
  14 2   H  1S          0.04137   0.02244   0.02244   0.02244   0.00165
  15        2S          0.01026   0.01854   0.01854   0.01854   0.00054
  16 3   H  1S          0.04137   0.02244   0.02244   0.02244   0.00165
  17        2S          0.01026   0.01854   0.01854   0.01854   0.00054
  18 4   H  1S          0.04137   0.02244   0.02244   0.02244   0.00165
  19        2S          0.01026   0.01854   0.01854   0.01854   0.00054
  20 5   H  1S          0.04137   0.02244   0.02244   0.02244   0.00165
  21        2S          0.01026   0.01854   0.01854   0.01854   0.00054
                          11        12        13        14        15
  11        4PX         0.00173
  12        4PY         0.00000   0.00173
  13        4PZ         0.00000   0.00000   0.00173
  14 2   H  1S          0.00125   0.00125   0.00125   0.21952
  15        2S          0.00188   0.00188   0.00188   0.09128   0.09838
  16 3   H  1S          0.00125   0.00125   0.00125  -0.00046  -0.00591
  17        2S          0.00188   0.00188   0.00188  -0.00591  -0.01276
  18 4   H  1S          0.00125   0.00125   0.00125  -0.00046  -0.00591
  19        2S          0.00188   0.00188   0.00188  -0.00591  -0.01276
  20 5   H  1S          0.00125   0.00125   0.00125  -0.00046  -0.00591
  21        2S          0.00188   0.00188   0.00188  -0.00591  -0.01276
                          16        17        18        19        20
  16 3   H  1S          0.21952
  17        2S          0.09128   0.09838
  18 4   H  1S         -0.00046  -0.00591   0.21952
  19        2S         -0.00591  -0.01276   0.09128   0.09838
  20 5   H  1S         -0.00046  -0.00591  -0.00046  -0.00591   0.21952
  21        2S         -0.00591  -0.01276  -0.00591  -0.01276   0.09128
                          21
  21        2S          0.09838
     Gross orbital populations:
                           1
   1 1   C  1S          1.99666
   2        2S          0.66158
   3        2PX         0.71968
   4        2PY         0.71968
   5        2PZ         0.71968
   6        3S          0.75886
   7        3PX         0.37500
   8        3PY         0.37500
   9        3PZ         0.37500
  10        4S          0.03009
  11        4PX         0.02608
  12        4PY         0.02608
  13        4PZ         0.02608
  14 2   H  1S          0.53189
  15        2S          0.26574
  16 3   H  1S          0.53189
  17        2S          0.26574
  18 4   H  1S          0.53189
  19        2S          0.26574
  20 5   H  1S          0.53189
  21        2S          0.26574
          Condensed to atoms (all electrons):
              1          2          3          4          5
     1  C    5.320434   0.372257   0.372257   0.372257   0.372257
     2  H    0.372257   0.500467  -0.025030  -0.025030  -0.025030
     3  H    0.372257  -0.025030   0.500467  -0.025030  -0.025030
     4  H    0.372257  -0.025030  -0.025030   0.500467  -0.025030
     5  H    0.372257  -0.025030  -0.025030  -0.025030   0.500467
 Mulliken atomic charges:
              1
     1  C   -0.809462
     2  H    0.202365
     3  H    0.202365
     4  H    0.202365
     5  H    0.202365
 Sum of Mulliken atomic charges =   0.00000
 Mulliken charges with hydrogens summed into heavy atoms:
              1
     1  C    0.000000
 Sum of Mulliken charges with hydrogens summed into heavy atoms =   0.00000
 Electronic spatial extent (au):  <R**2>=             35.7689
 Charge=              0.0000 electrons
 Dipole moment (field-independent basis, Debye):
    X=             -0.0000    Y=             -0.0000    Z=             -0.0000  Tot=              0.0000
 Quadrupole moment (field-independent basis, Debye-Ang):
   XX=             -8.4279   YY=             -8.4279   ZZ=             -8.4279
   XY=             -0.0000   XZ=             -0.0000   YZ=             -0.0000
 Traceless Quadrupole moment (field-independent basis, Debye-Ang):
   XX=             -0.0000   YY=              0.0000   ZZ=              0.0000
   XY=             -0.0000   XZ=             -0.0000   YZ=             -0.0000
 Octapole moment (field-independent basis, Debye-Ang**2):
  XXX=             -0.0000  YYY=              0.0000  ZZZ=             -0.0000  XYY=              0.0000
  XXY=              0.0000  XXZ=              0.0000  XZZ=              0.0000  YZZ=             -0.0000
  YYZ=             -0.0000  XYZ=              0.7533
 Hexadecapole moment (field-independent basis, Debye-Ang**3):
 XXXX=            -16.8654 YYYY=            -16.8654 ZZZZ=            -16.8654 XXXY=             -0.0000
 XXXZ=             -0.0000 YYYX=             -0.0000 YYYZ=             -0.0000 ZZZX=             -0.0000
 ZZZY=             -0.0000 XXYY=             -5.1672 XXZZ=             -5.1672 YYZZ=             -5.1672
 XXYZ=             -0.0000 YYXZ=             -0.0000 ZZXY=             -0.0000
 N-N= 1.343538919541D+01 E-N=-1.200411150184D+02  KE= 4.024160483187D+01
 Symmetry A    KE= 3.447170772402D+01
 Symmetry B1   KE= 1.923299035950D+00
 Symmetry B2   KE= 1.923299035950D+00
 Symmetry B3   KE= 1.923299035950D+00
 Orbital energies and kinetic energies (alpha):
                                 1                 2
   1         (A1)--O         -10.148438         15.960796
   2         (A1)--O          -0.701619          1.275058
   3         (T2)--O          -0.395683          0.961650
   4         (T2)--O          -0.395683          0.961650
   5         (T2)--O          -0.395683          0.961650
   6         (A1)--V           0.029495          0.350107
   7         (T2)--V           0.072784          0.226601
   8         (T2)--V           0.072784          0.226601
   9         (T2)--V           0.072784          0.226601
  10         (T2)--V           0.187419          0.804175
  11         (T2)--V           0.187419          0.804175
  12         (T2)--V           0.187419          0.804175
  13         (A1)--V           0.282265          1.105086
  14         (T2)--V           0.659046          1.954334
  15         (T2)--V           0.659046          1.954334
  16         (T2)--V           0.659046          1.954334
  17         (T2)--V           1.007226          2.531328
  18         (T2)--V           1.007226          2.531328
  19         (T2)--V           1.007226          2.531328
  20         (A1)--V           1.072410          2.313289
  21         (A1)--V           1.137516          2.519238
 Total kinetic energy from orbitals= 4.024160483187D+01
 No NMR shielding tensors so no spin-rotation constants.
 Leave Link  601 at Sun Aug 18 00:35:31 2024, MaxMem=   13107200 cpu:       0.1
 (Enter /programs/64bit/g09/g09-gfortran/bin/l701.exe)
 Compute integral first derivatives.
 ... and contract with generalized density number  0.
 Leave Link  701 at Sun Aug 18 00:35:32 2024, MaxMem=   13107200 cpu:       0.1
 (Enter /programs/64bit/g09/g09-gfortran/bin/l702.exe)
 L702 exits ... SP integral derivatives will be done elsewhere.
 Leave Link  702 at Sun Aug 18 00:35:32 2024, MaxMem=   13107200 cpu:       0.0
 (Enter /programs/64bit/g09/g09-gfortran/bin/l703.exe)
 Compute integral first derivatives, UseDBF=F ICtDFT=           0.
 Integral derivatives from FoFDir, PRISM(SPDF).
 Calling FoFJK, ICntrl=      2127 FMM=F ISym2X=1 I1Cent= 0 IOpClX= 0 NMat=1 NMatS=1 NMatT=0.
 FoFCou: FMM=F IPFlag=           0 FMFlag=      100000 FMFlg1=         800
         NFxFlg=           0 DoJE=F BraDBF=F KetDBF=F FulRan=T
         Omega=  0.000000  0.000000  1.000000  0.000000  0.000000 ICntrl=    2127 IOpCl=  0
         NMat0=    1 NMatS0=    1 NMatT0=    0 NMatD0=    1 NMtDS0=    0 NMtDT0=    0
         I1Cent=           0 NGrid=           0.
 Petite list used in FoFCou.
 Leave Link  703 at Sun Aug 18 00:35:32 2024, MaxMem=   13107200 cpu:       0.4
 (Enter /programs/64bit/g09/g09-gfortran/bin/l716.exe)
 Dipole        =-2.22044605D-16-4.44089210D-16-2.22044605D-16
 ***** Axes restored to original set *****
 -------------------------------------------------------------------
 Center     Atomic                   Forces (Hartrees/Bohr)
 Number     Number              X              Y              Z
 -------------------------------------------------------------------
      1        6           0.000000000   -0.000000000    0.000000000
      2        1          -0.000000000    0.000000000    0.002072762
      3        1           0.001954218   -0.000000000   -0.000690921
      4        1          -0.000977109   -0.001692403   -0.000690921
      5        1          -0.000977109    0.001692403   -0.000690921
 -------------------------------------------------------------------
 Cartesian Forces:  Max     0.002072762 RMS     0.001070370
 Leave Link  716 at Sun Aug 18 00:35:32 2024, MaxMem=   13107200 cpu:       0.0
 (Enter /programs/64bit/g09/g09-gfortran/bin/l103.exe)

 GradGradGradGradGradGradGradGradGradGradGradGradGradGradGradGradGradGrad
 Berny optimization.
 Internal  Forces:  Max     0.002072762 RMS     0.001107938
 Search for a local minimum.
 Step number   1 out of a maximum of   24
 All quantities printed in internal units (Hartrees-Bohrs-Radians)
 RMS Force = .11079D-02 SwitMx=.10000D-02 MixMth= 1
 Mixed Optimization -- RFO/linear search
 Second derivative matrix not updated -- first step.
 The second derivative matrix:
                          R1        R2        R3        R4        A1
           R1           0.34813
           R2           0.00000   0.34813
           R3           0.00000   0.00000   0.34813
           R4           0.00000   0.00000   0.00000   0.34813
           A1           0.00000   0.00000   0.00000   0.00000   0.16000
           A2           0.00000   0.00000   0.00000   0.00000   0.00000
           A3           0.00000   0.00000   0.00000   0.00000   0.00000
           A4           0.00000   0.00000   0.00000   0.00000   0.00000
           A5           0.00000   0.00000   0.00000   0.00000   0.00000
           A6           0.00000   0.00000   0.00000   0.00000   0.00000
           D1           0.00000   0.00000   0.00000   0.00000   0.00000
           D2           0.00000   0.00000   0.00000   0.00000   0.00000
           D3           0.00000   0.00000   0.00000   0.00000   0.00000
           D4           0.00000   0.00000   0.00000   0.00000   0.00000
                          A2        A3        A4        A5        A6
           A2           0.16000
           A3           0.00000   0.16000
           A4           0.00000   0.00000   0.16000
           A5           0.00000   0.00000   0.00000   0.16000
           A6           0.00000   0.00000   0.00000   0.00000   0.16000
           D1           0.00000   0.00000   0.00000   0.00000   0.00000
           D2           0.00000   0.00000   0.00000   0.00000   0.00000
           D3           0.00000   0.00000   0.00000   0.00000   0.00000
           D4           0.00000   0.00000   0.00000   0.00000   0.00000
                          D1        D2        D3        D4
           D1           0.00235
           D2           0.00000   0.00235
           D3           0.00000   0.00000   0.00235
           D4           0.00000   0.00000   0.00000   0.00235
     Eigenvalues ---    0.05086   0.05718   0.08643   0.16000   0.16000
     Eigenvalues ---    0.34813   0.34813   0.34813   0.348131000.00000
     Eigenvalues --- 1000.000001000.000001000.000001000.00000
 RFO step:  Lambda=-4.93653045D-05 EMin= 5.08565158D-02
 Linear search not attempted -- first point.
 Iteration  1 RMS(Cart)=  0.00318212 RMS(Int)=  0.00000000
 Iteration  2 RMS(Cart)=  0.00000000 RMS(Int)=  0.00000000
 ClnCor:  largest displacement from symmetrization is 1.29D-14 for atom     2.
 Variable       Old X    -DE/DX   Delta X   Delta X   Delta X     New X
                                 (Linear)    (Quad)   (Total)
    R1        2.05980   0.00207   0.00000   0.00595   0.00595   2.06575
    R2        2.05980   0.00207   0.00000   0.00595   0.00595   2.06575
    R3        2.05980   0.00207   0.00000   0.00595   0.00595   2.06575
    R4        2.05980   0.00207   0.00000   0.00595   0.00595   2.06575
    A1        1.91063   0.00000   0.00000   0.00000   0.00000   1.91063
    A2        1.91063  -0.00000   0.00000  -0.00000  -0.00000   1.91063
    A3        1.91063  -0.00000   0.00000  -0.00000  -0.00000   1.91063
    A4        1.91063  -0.00000   0.00000  -0.00000  -0.00000   1.91063
    A5        1.91063   0.00000   0.00000   0.00000  -0.00000   1.91063
    A6        1.91063   0.00000   0.00000   0.00000   0.00000   1.91063
    D1       -2.09440  -0.00000   0.00000  -0.00000  -0.00000  -2.09440
    D2        2.09440   0.00000   0.00000   0.00000   0.00000   2.09440
    D3       -2.09440   0.00000   0.00000   0.00000   0.00000  -2.09440
    D4        2.09440  -0.00000   0.00000  -0.00000  -0.00000   2.09440
         Item               Value     Threshold  Converged?
 Maximum Force            0.002073     0.000450     NO 
 RMS     Force            0.001108     0.000300     NO 
 Maximum Displacement     0.005953     0.001800     NO 
 RMS     Displacement     0.003182     0.001200     NO 
 Predicted change in Energy=-2.468265D-05
 GradGradGradGradGradGradGradGradGradGradGradGradGradGradGradGradGradGrad

 Leave Link  103 at Sun Aug 18 00:35:32 2024, MaxMem=   13107200 cpu:       0.0
 (Enter /programs/64bit/g09/g09-gfortran/bin/l202.exe)
                          Input orientation:                          
 ---------------------------------------------------------------------
 Center     Atomic      Atomic             Coordinates (Angstroms)
 Number     Number       Type             X           Y           Z
 ---------------------------------------------------------------------
      1          6           0        0.000000    0.000000   -0.000000
      2          1           0        0.000000    0.000000    1.093150
      3          1           0        1.030632   -0.000000   -0.364383
      4          1           0       -0.515316   -0.892553   -0.364383
      5          1           0       -0.515316    0.892553   -0.364383
 ---------------------------------------------------------------------
                    Distance matrix (angstroms):
                    1          2          3          4          5
     1  C    0.000000
     2  H    1.093150   0.000000
     3  H    1.093150   1.785107   0.000000
     4  H    1.093150   1.785107   1.785107   0.000000
     5  H    1.093150   1.785107   1.785107   1.785107   0.000000
 Stoichiometry    CH4
 Framework group  TD[O(C),4C3(H)]
 Deg. of freedom     1
 Prev. full point group           TD      NOp  24
 Prev. largest Abelian subgroup   D2      NOp   4
       concise Abelian subgroup   D2      NOp   4
                   Standard orientation:
 ---------------------------------------------------------------------
 Center     Atomic                     Coordinates (Angstroms)
 Number     Number                        X           Y           Z
 ---------------------------------------------------------------------
      1          6                    0.000000    0.000000    0.000000
      2          1                    0.193492    0.949285    0.506356
      3          1                   -0.401152   -0.720570    0.717519
      4          1                   -0.724837    0.156553   -0.803168
      5          1                    0.932498   -0.385268   -0.420707
 ---------------------------------------------------------------------
 TstSym:  Max error for IOp=  3 IAt=    2 Err= 1.50D+00
 TstSym:  IOp= 25 I=    6 IP=    4 Err= 1.50D+00
  CI=  0.000000000000D+00  0.000000000000D+00  0.000000000000D+00
   T= -3.656466134225D-01  1.793888876566D+00 -9.568739169708D-01
 CIP= -1.369744114824D+00  2.958420846755D-01 -1.517768414875D+00
 Unable to use previous symmetry information.  Redetermining point group.
 No symmetry information on checkpoint file.  Reassigning symmetry.
 Symm:  InNGrp=TD   InAxis=0.
 Stoichiometry    CH4
 Framework group  TD[O(C),4C3(H)]
 Deg. of freedom     1
 Full point group                 TD      NOp  24
 Largest Abelian subgroup         D2      NOp   4
 Largest concise Abelian subgroup D2      NOp   4
                         Standard orientation:                         
 ---------------------------------------------------------------------
 Center     Atomic      Atomic             Coordinates (Angstroms)
 Number     Number       Type             X           Y           Z
 ---------------------------------------------------------------------
      1          6           0        0.000000    0.000000    0.000000
      2          1           0        0.631131    0.631131    0.631131
      3          1           0       -0.631131   -0.631131    0.631131
      4          1           0       -0.631131    0.631131   -0.631131
      5          1           0        0.631131   -0.631131   -0.631131
 ---------------------------------------------------------------------
 Rotational constants (GHZ):    157.3633395    157.3633395    157.3633395
 Leave Link  202 at Sun Aug 18 00:35:32 2024, MaxMem=   13107200 cpu:       0.0
 (Enter /programs/64bit/g09/g09-gfortran/bin/l301.exe)
 Standard basis: 6-31+G (6D, 7F)
 Ernie: Thresh=  0.10000D-02 Tol=  0.10000D-05 Strict=F.
 There are     6 symmetry adapted basis functions of A   symmetry.
 There are     5 symmetry adapted basis functions of B1  symmetry.
 There are     5 symmetry adapted basis functions of B2  symmetry.
 There are     5 symmetry adapted basis functions of B3  symmetry.
 Integral buffers will be    131072 words long.
 Raffenetti 2 integral format.
 Two-electron integral symmetry is turned on.
    21 basis functions,    42 primitive gaussians,    21 cartesian basis functions
     5 alpha electrons        5 beta electrons
       nuclear repulsion energy        13.3966703523 Hartrees.
 IExCor=  408 DFT=T Ex+Corr=B3PW91 ExCW=0 ScaHFX=  0.200000
 ScaDFX=  0.800000  0.720000  1.000000  0.810000 ScalE2=  1.000000  1.000000
 IRadAn=      0 IRanWt=     -1 IRanGd=            0 ICorTp=0
 NAtoms=    5 NActive=    5 NUniq=    2 SFac= 3.00D+00 NAtFMM=   80 NAOKFM=F Big=F
 Leave Link  301 at Sun Aug 18 00:35:32 2024, MaxMem=   13107200 cpu:       0.1
 (Enter /programs/64bit/g09/g09-gfortran/bin/l302.exe)
 NPDir=0 NMtPBC=     1 NCelOv=     1 NCel=       1 NClECP=     1 NCelD=      1
         NCelK=      1 NCelE2=     1 NClLst=     1 CellRange=     0.0.
 One-electron integrals computed using PRISM.
 One-electron integral symmetry used in STVInt
 NBasis=    21 RedAO= T  NBF=     6     5     5     5
 NBsUse=    21 1.00D-06 NBFU=     6     5     5     5
 Precomputing XC quadrature grid using
 IXCGrd= 2 IRadAn=           0 IRanWt=          -1 IRanGd=           0 AccXCQ= 1.00D-10.
 NRdTot=     319 NPtTot=       40572 NUsed=       42883 NTot=       42915
 NSgBfM=    21    21    21    21    21 NAtAll=     5     5.
 Leave Link  302 at Sun Aug 18 00:35:33 2024, MaxMem=   13107200 cpu:       0.2
 (Enter /programs/64bit/g09/g09-gfortran/bin/l303.exe)
 DipDrv:  MaxL=1.
 Leave Link  303 at Sun Aug 18 00:35:33 2024, MaxMem=   13107200 cpu:       0.0
 (Enter /programs/64bit/g09/g09-gfortran/bin/l401.exe)
 Initial guess read from the read-write file.
 B after Tr=     0.000000    0.000000    0.000000
         Rot=    1.000000    0.000000    0.000000    0.000000 Ang=   0.00 deg.
 Guess basis will be translated and rotated to current coordinates.
 Initial guess orbital symmetries:
       Occupied  (A1) (A1) (T2) (T2) (T2)
       Virtual   (A1) (T2) (T2) (T2) (T2) (T2) (T2) (A1) (T2) (T2)
                 (T2) (T2) (T2) (T2) (A1) (A1)
 The electronic state of the initial guess is 1-A1.
 Leave Link  401 at Sun Aug 18 00:35:33 2024, MaxMem=   13107200 cpu:       0.1
 (Enter /programs/64bit/g09/g09-gfortran/bin/l502.exe)
 Closed shell SCF:
 Requested convergence on RMS density matrix=1.00D-08 within 128 cycles.
 Requested convergence on MAX density matrix=1.00D-06.
 Requested convergence on             energy=1.00D-06.
 No special actions if energy rises.
 Using DIIS extrapolation, IDIIS=  1040.
 Integral symmetry usage will be decided dynamically.
        42825 words used for storage of precomputed grid.
 Keep R1 ints in memory in canonical form, NReq=947876.
 IEnd=       62928 IEndB=       62928 NGot=    13107200 MDV=    13034551
 LenX=    13034551 LenY=    13033669
 Symmetry not used in FoFDir.
 MinBra= 0 MaxBra= 1 Meth= 1.
 IRaf=       0 NMat=   1 IRICut=       1 DoRegI=T DoRafI=F ISym2E= 0 JSym2E=0.

 Cycle   1  Pass 1  IDiag  1:
 E= -40.4976438481295    
 DIIS: error= 4.50D-04 at cycle   1 NSaved=   1.
 NSaved= 1 IEnMin= 1 EnMin= -40.4976438481295     IErMin= 1 ErrMin= 4.50D-04
 ErrMax= 4.50D-04 EMaxC= 1.00D-01 BMatC= 4.58D-06 BMatP= 4.58D-06
 IDIUse=3 WtCom= 9.96D-01 WtEn= 4.50D-03
 Coeff-Com:  0.100D+01
 Coeff-En:   0.100D+01
 Coeff:      0.100D+01
 Gap=     0.424 Goal=   None    Shift=    0.000
 RMSDP=1.52D-04 MaxDP=1.04D-03              OVMax= 1.33D-03

 Cycle   2  Pass 1  IDiag  1:
 E= -40.4976452673813     Delta-E=       -0.000001419252 Rises=F Damp=F
 DIIS: error= 3.41D-04 at cycle   2 NSaved=   2.
 NSaved= 2 IEnMin= 2 EnMin= -40.4976452673813     IErMin= 2 ErrMin= 3.41D-04
 ErrMax= 3.41D-04 EMaxC= 1.00D-01 BMatC= 4.00D-06 BMatP= 4.58D-06
 IDIUse=3 WtCom= 9.97D-01 WtEn= 3.41D-03
 Coeff-Com:  0.481D+00 0.519D+00
 Coeff-En:   0.413D+00 0.587D+00
 Coeff:      0.480D+00 0.520D+00
 Gap=     0.424 Goal=   None    Shift=    0.000
 RMSDP=7.68D-05 MaxDP=5.75D-04 DE=-1.42D-06 OVMax= 6.92D-04

 Cycle   3  Pass 1  IDiag  1:
 E= -40.4976495216627     Delta-E=       -0.000004254281 Rises=F Damp=F
 DIIS: error= 4.27D-05 at cycle   3 NSaved=   3.
 NSaved= 3 IEnMin= 3 EnMin= -40.4976495216627     IErMin= 3 ErrMin= 4.27D-05
 ErrMax= 4.27D-05 EMaxC= 1.00D-01 BMatC= 5.99D-08 BMatP= 4.00D-06
 IDIUse=1 WtCom= 1.00D+00 WtEn= 0.00D+00
 Coeff-Com:  0.128D-01 0.116D+00 0.871D+00
 Coeff:      0.128D-01 0.116D+00 0.871D+00
 Gap=     0.424 Goal=   None    Shift=    0.000
 RMSDP=7.61D-06 MaxDP=6.50D-05 DE=-4.25D-06 OVMax= 6.64D-05

 Cycle   4  Pass 1  IDiag  1:
 E= -40.4976495830038     Delta-E=       -0.000000061341 Rises=F Damp=F
 DIIS: error= 9.83D-07 at cycle   4 NSaved=   4.
 NSaved= 4 IEnMin= 4 EnMin= -40.4976495830038     IErMin= 4 ErrMin= 9.83D-07
 ErrMax= 9.83D-07 EMaxC= 1.00D-01 BMatC= 3.11D-11 BMatP= 5.99D-08
 IDIUse=1 WtCom= 1.00D+00 WtEn= 0.00D+00
 Coeff-Com: -0.161D-02 0.429D-03-0.706D-02 0.101D+01
 Coeff:     -0.161D-02 0.429D-03-0.706D-02 0.101D+01
 Gap=     0.424 Goal=   None    Shift=    0.000
 RMSDP=2.37D-07 MaxDP=1.66D-06 DE=-6.13D-08 OVMax= 1.98D-06

 Cycle   5  Pass 1  IDiag  1:
 E= -40.4976495830410     Delta-E=       -0.000000000037 Rises=F Damp=F
 DIIS: error= 1.96D-08 at cycle   5 NSaved=   5.
 NSaved= 5 IEnMin= 5 EnMin= -40.4976495830410     IErMin= 5 ErrMin= 1.96D-08
 ErrMax= 1.96D-08 EMaxC= 1.00D-01 BMatC= 4.22D-15 BMatP= 3.11D-11
 IDIUse=1 WtCom= 1.00D+00 WtEn= 0.00D+00
 Coeff-Com:  0.691D-04-0.684D-04 0.219D-03-0.481D-01 0.105D+01
 Coeff:      0.691D-04-0.684D-04 0.219D-03-0.481D-01 0.105D+01
 Gap=     0.424 Goal=   None    Shift=    0.000
 RMSDP=4.53D-09 MaxDP=3.43D-08 DE=-3.72D-11 OVMax= 4.05D-08

 SCF Done:  E(RB3PW91) =  -40.4976495830     A.U. after    5 cycles
             Convg  =    0.4533D-08             -V/T =  2.0068
 KE= 4.022490299024D+01 PE=-1.199516227567D+02 EE= 2.583239983113D+01
 Leave Link  502 at Sun Aug 18 00:35:34 2024, MaxMem=   13107200 cpu:       0.7
 (Enter /programs/64bit/g09/g09-gfortran/bin/l701.exe)
 Compute integral first derivatives.
 ... and contract with generalized density number  0.
 Leave Link  701 at Sun Aug 18 00:35:34 2024, MaxMem=   13107200 cpu:       0.1
 (Enter /programs/64bit/g09/g09-gfortran/bin/l702.exe)
 L702 exits ... SP integral derivatives will be done elsewhere.
 Leave Link  702 at Sun Aug 18 00:35:34 2024, MaxMem=   13107200 cpu:       0.0
 (Enter /programs/64bit/g09/g09-gfortran/bin/l703.exe)
 Compute integral first derivatives, UseDBF=F ICtDFT=           0.
 Integral derivatives from FoFDir, PRISM(SPDF).
 Calling FoFJK, ICntrl=      2127 FMM=F ISym2X=1 I1Cent= 0 IOpClX= 0 NMat=1 NMatS=1 NMatT=0.
 FoFCou: FMM=F IPFlag=           0 FMFlag=      100000 FMFlg1=         800
         NFxFlg=           0 DoJE=F BraDBF=F KetDBF=F FulRan=T
         Omega=  0.000000  0.000000  1.000000  0.000000  0.000000 ICntrl=    2127 IOpCl=  0
         NMat0=    1 NMatS0=    1 NMatT0=    0 NMatD0=    1 NMtDS0=    0 NMtDT0=    0
         I1Cent=           0 NGrid=           0.
 Petite list used in FoFCou.
 Leave Link  703 at Sun Aug 18 00:35:34 2024, MaxMem=   13107200 cpu:       0.4
 (Enter /programs/64bit/g09/g09-gfortran/bin/l716.exe)
 Dipole        = 2.22044605D-16 4.44089210D-16 0.00000000D+00
 ***** Axes restored to original set *****
 -------------------------------------------------------------------
 Center     Atomic                   Forces (Hartrees/Bohr)
 Number     Number              X              Y              Z
 -------------------------------------------------------------------
      1        6           0.000000000   -0.000000000   -0.000000000
      2        1           0.000000000   -0.000000000   -0.000053665
      3        1          -0.000050596    0.000000000    0.000017888
      4        1           0.000025298    0.000043817    0.000017888
      5        1           0.000025298   -0.000043817    0.000017888
 -------------------------------------------------------------------
 Cartesian Forces:  Max     0.000053665 RMS     0.000027712
 Leave Link  716 at Sun Aug 18 00:35:34 2024, MaxMem=   13107200 cpu:       0.0
 (Enter /programs/64bit/g09/g09-gfortran/bin/l103.exe)

 GradGradGradGradGradGradGradGradGradGradGradGradGradGradGradGradGradGrad
 Berny optimization.
 Using GEDIIS/GDIIS optimizer.
 Internal  Forces:  Max     0.000053665 RMS     0.000028685
 Search for a local minimum.
 Step number   2 out of a maximum of   24
 All quantities printed in internal units (Hartrees-Bohrs-Radians)
 RMS Force = .28685D-04 SwitMx=.10000D-02 MixMth= 2
 Mixed Optimization -- En-DIIS/RFO-DIIS
 Update second derivatives using D2CorX and points    1    2
 DE= -2.40D-05 DEPred=-2.47D-05 R= 9.71D-01
 SS=  1.41D+00  RLast= 1.19D-02 DXNew= 5.0454D-01 3.5719D-02
 Trust test= 9.71D-01 RLast= 1.19D-02 DXMaxT set to 3.00D-01
 The second derivative matrix:
                          R1        R2        R3        R4        A1
           R1           0.35039
           R2           0.00227   0.35039
           R3           0.00227   0.00227   0.35039
           R4           0.00227   0.00227   0.00227   0.35039
           A1           0.00000   0.00000   0.00000   0.00000   0.16000
           A2          -0.00000  -0.00000  -0.00000  -0.00000  -0.00000
           A3          -0.00000  -0.00000  -0.00000  -0.00000  -0.00000
           A4          -0.00000  -0.00000  -0.00000  -0.00000  -0.00000
           A5           0.00000   0.00000   0.00000   0.00000   0.00000
           A6           0.00000   0.00000   0.00000   0.00000   0.00000
           D1          -0.00000  -0.00000  -0.00000  -0.00000  -0.00000
           D2           0.00000   0.00000   0.00000   0.00000   0.00000
           D3           0.00000   0.00000   0.00000   0.00000   0.00000
           D4          -0.00000  -0.00000  -0.00000  -0.00000  -0.00000
                          A2        A3        A4        A5        A6
           A2           0.16000
           A3           0.00000   0.16000
           A4           0.00000   0.00000   0.16000
           A5          -0.00000  -0.00000  -0.00000   0.16000
           A6          -0.00000  -0.00000  -0.00000   0.00000   0.16000
           D1           0.00000   0.00000   0.00000  -0.00000  -0.00000
           D2          -0.00000  -0.00000  -0.00000   0.00000   0.00000
           D3          -0.00000  -0.00000  -0.00000   0.00000   0.00000
           D4           0.00000   0.00000   0.00000  -0.00000  -0.00000
                          D1        D2        D3        D4
           D1           0.00235
           D2          -0.00000   0.00235
           D3          -0.00000   0.00000   0.00235
           D4           0.00000  -0.00000  -0.00000   0.00235
 Use linear search instead of GDIIS.
     Eigenvalues ---    0.05086   0.05718   0.08643   0.16000   0.16000
     Eigenvalues ---    0.34813   0.34813   0.34813   0.357191000.00000
     Eigenvalues --- 1000.000001000.000001000.000001000.00000
 RFO step:  Lambda= 0.00000000D+00 EMin= 5.08565158D-02
 Quartic linear search produced a step of -0.02545.
 Iteration  1 RMS(Cart)=  0.00008099 RMS(Int)=  0.00000000
 Iteration  2 RMS(Cart)=  0.00000000 RMS(Int)=  0.00000000
 ClnCor:  largest displacement from symmetrization is 1.59D-14 for atom     3.
 Variable       Old X    -DE/DX   Delta X   Delta X   Delta X     New X
                                 (Linear)    (Quad)   (Total)
    R1        2.06575  -0.00005  -0.00015  -0.00000  -0.00015   2.06560
    R2        2.06575  -0.00005  -0.00015  -0.00000  -0.00015   2.06560
    R3        2.06575  -0.00005  -0.00015  -0.00000  -0.00015   2.06560
    R4        2.06575  -0.00005  -0.00015   0.00000  -0.00015   2.06560
    A1        1.91063  -0.00000  -0.00000  -0.00000   0.00000   1.91063
    A2        1.91063   0.00000   0.00000  -0.00000   0.00000   1.91063
    A3        1.91063   0.00000   0.00000   0.00000  -0.00000   1.91063
    A4        1.91063   0.00000   0.00000   0.00000  -0.00000   1.91063
    A5        1.91063  -0.00000   0.00000   0.00000   0.00000   1.91063
    A6        1.91063  -0.00000  -0.00000  -0.00000  -0.00000   1.91063
    D1       -2.09440  -0.00000   0.00000   0.00000   0.00000  -2.09440
    D2        2.09440  -0.00000  -0.00000  -0.00000  -0.00000   2.09440
    D3       -2.09440   0.00000  -0.00000   0.00000  -0.00000  -2.09440
    D4        2.09440   0.00000   0.00000   0.00000   0.00000   2.09440
         Item               Value     Threshold  Converged?
 Maximum Force            0.000054     0.000450     YES
 RMS     Force            0.000029     0.000300     YES
 Maximum Displacement     0.000152     0.001800     YES
 RMS     Displacement     0.000081     0.001200     YES
 Predicted change in Energy=-1.612425D-08
 Optimization completed.
    -- Stationary point found.
                           ----------------------------
                           !   Optimized Parameters   !
                           ! (Angstroms and Degrees)  !
 --------------------------                            --------------------------
 ! Name  Definition              Value          Derivative Info.                !
 --------------------------------------------------------------------------------
 ! R1    R(1,2)                  1.0932         -DE/DX =   -0.0001              !
 ! R2    R(1,3)                  1.0932         -DE/DX =   -0.0001              !
 ! R3    R(1,4)                  1.0932         -DE/DX =   -0.0001              !
 ! R4    R(1,5)                  1.0932         -DE/DX =   -0.0001              !
 ! A1    A(2,1,3)              109.4712         -DE/DX =    0.0                 !
 ! A2    A(2,1,4)              109.4712         -DE/DX =    0.0                 !
 ! A3    A(2,1,5)              109.4712         -DE/DX =    0.0                 !
 ! A4    A(3,1,4)              109.4712         -DE/DX =    0.0                 !
 ! A5    A(3,1,5)              109.4712         -DE/DX =    0.0                 !
 ! A6    A(4,1,5)              109.4712         -DE/DX =    0.0                 !
 ! D1    D(2,1,4,3)           -120.0            -DE/DX =    0.0                 !
 ! D2    D(2,1,5,3)            120.0            -DE/DX =    0.0                 !
 ! D3    D(2,1,5,4)           -120.0            -DE/DX =    0.0                 !
 ! D4    D(3,1,5,4)            120.0            -DE/DX =    0.0                 !
 --------------------------------------------------------------------------------
 GradGradGradGradGradGradGradGradGradGradGradGradGradGradGradGradGradGrad

 Largest change from initial coordinates is atom    4       0.003 Angstoms.
 Leave Link  103 at Sun Aug 18 00:35:34 2024, MaxMem=   13107200 cpu:       0.0
 (Enter /programs/64bit/g09/g09-gfortran/bin/l202.exe)
                          Input orientation:                          
 ---------------------------------------------------------------------
 Center     Atomic      Atomic             Coordinates (Angstroms)
 Number     Number       Type             X           Y           Z
 ---------------------------------------------------------------------
      1          6           0        0.000000    0.000000   -0.000000
      2          1           0       -0.000000    0.000000    1.093150
      3          1           0        1.030632   -0.000000   -0.364383
      4          1           0       -0.515316   -0.892553   -0.364383
      5          1           0       -0.515316    0.892553   -0.364383
 ---------------------------------------------------------------------
                    Distance matrix (angstroms):
                    1          2          3          4          5
     1  C    0.000000
     2  H    1.093150   0.000000
     3  H    1.093150   1.785107   0.000000
     4  H    1.093150   1.785107   1.785107   0.000000
     5  H    1.093150   1.785107   1.785107   1.785107   0.000000
 Stoichiometry    CH4
 Framework group  TD[O(C),4C3(H)]
 Deg. of freedom     1
 Prev. full point group           TD      NOp  24
 Prev. largest Abelian subgroup   D2      NOp   4
       concise Abelian subgroup   D2      NOp   4
                   Standard orientation:
 ---------------------------------------------------------------------
 Center     Atomic                     Coordinates (Angstroms)
 Number     Number                        X           Y           Z
 ---------------------------------------------------------------------
      1          6                    0.000000    0.000000    0.000000
      2          1                   -0.075305    0.943159    0.547502
      3          1                   -0.311380   -0.823408    0.648089
      4          1                   -0.648059    0.036521   -0.879581
      5          1                    1.034744   -0.156272   -0.316010
 ---------------------------------------------------------------------
 TstSym:  Max error for IOp=  2 IAt=    2 Err= 2.10D+00
 TstSym:  IOp= 25 I=    6 IP=    4 Err= 2.10D+00
  CI=  0.000000000000D+00  0.000000000000D+00  0.000000000000D+00
   T= -1.423049422055D-01 -1.782311489453D+00 -1.034629159816D+00
 CIP= -1.224654119325D+00  6.901455647573D-02 -1.662167777141D+00
 Unable to use previous symmetry information.  Redetermining point group.
 No symmetry information on checkpoint file.  Reassigning symmetry.
 Symm:  InNGrp=TD   InAxis=0.
 Stoichiometry    CH4
 Framework group  TD[O(C),4C3(H)]
 Deg. of freedom     1
 Full point group                 TD      NOp  24
 Largest Abelian subgroup         D2      NOp   4
 Largest concise Abelian subgroup D2      NOp   4
                         Standard orientation:                         
 ---------------------------------------------------------------------
 Center     Atomic      Atomic             Coordinates (Angstroms)
 Number     Number       Type             X           Y           Z
 ---------------------------------------------------------------------
      1          6           0        0.000000    0.000000    0.000000
      2          1           0        0.631131    0.631131    0.631131
      3          1           0       -0.631131   -0.631131    0.631131
      4          1           0       -0.631131    0.631131   -0.631131
      5          1           0        0.631131   -0.631131   -0.631131
 ---------------------------------------------------------------------
 Rotational constants (GHZ):    157.3633395    157.3633395    157.3633395
 Leave Link  202 at Sun Aug 18 00:35:34 2024, MaxMem=   13107200 cpu:       0.0
 (Enter /programs/64bit/g09/g09-gfortran/bin/l601.exe)
 Copying SCF densities to generalized density rwf, IOpCl= 0 IROHF=0.

 **********************************************************************

            Population analysis using the SCF density.

 **********************************************************************

 Orbital symmetries:
       Occupied  (A1) (A1) (T2) (T2) (T2)
       Virtual   (A1) (T2) (T2) (T2) (T2) (T2) (T2) (A1) (T2) (T2)
                 (T2) (T2) (T2) (T2) (A1) (A1)
 The electronic state is 1-A1.
 Alpha  occ. eigenvalues --  -10.14982  -0.70069  -0.39519  -0.39519  -0.39519
 Alpha virt. eigenvalues --    0.02930   0.07277   0.07277   0.07277   0.18632
 Alpha virt. eigenvalues --    0.18632   0.18632   0.28101   0.65963   0.65963
 Alpha virt. eigenvalues --    0.65963   1.00533   1.00533   1.00533   1.06992
 Alpha virt. eigenvalues --    1.13493
     Molecular Orbital Coefficients:
                           1         2         3         4         5
                        (A1)--O   (A1)--O   (T2)--O   (T2)--O   (T2)--O
     Eigenvalues --   -10.14982  -0.70069  -0.39519  -0.39519  -0.39519
   1 1   C  1S          0.99526  -0.20007   0.00000   0.00000   0.00000
   2        2S          0.03624   0.37643   0.00000   0.00000   0.00000
   3        2PX         0.00000   0.00000   0.00000   0.00000   0.44747
   4        2PY         0.00000   0.00000   0.00000   0.44747   0.00000
   5        2PZ         0.00000   0.00000   0.44747   0.00000   0.00000
   6        3S         -0.03081   0.40771   0.00000   0.00000   0.00000
   7        3PX         0.00000   0.00000   0.00000   0.00000   0.21635
   8        3PY         0.00000   0.00000   0.00000   0.21635   0.00000
   9        3PZ         0.00000   0.00000   0.21635   0.00000   0.00000
  10        4S         -0.00191   0.02361   0.00000   0.00000   0.00000
  11        4PX         0.00000   0.00000   0.00000   0.00000   0.02952
  12        4PY         0.00000   0.00000   0.00000   0.02952   0.00000
  13        4PZ         0.00000   0.00000   0.02952   0.00000   0.00000
  14 2   H  1S         -0.00087   0.13453   0.17458   0.17458   0.17458
  15        2S          0.00671   0.01859   0.12791   0.12791   0.12791
  16 3   H  1S         -0.00087   0.13453   0.17458  -0.17458  -0.17458
  17        2S          0.00671   0.01859   0.12791  -0.12791  -0.12791
  18 4   H  1S         -0.00087   0.13453  -0.17458   0.17458  -0.17458
  19        2S          0.00671   0.01859  -0.12791   0.12791  -0.12791
  20 5   H  1S         -0.00087   0.13453  -0.17458  -0.17458   0.17458
  21        2S          0.00671   0.01859  -0.12791  -0.12791   0.12791
                           6         7         8         9        10
                        (A1)--V   (T2)--V   (T2)--V   (T2)--V   (T2)--V
     Eigenvalues --     0.02930   0.07277   0.07277   0.07277   0.18632
   1 1   C  1S          0.08879   0.00000   0.00000   0.00000   0.00000
   2        2S         -0.17936   0.00000   0.00000   0.00000   0.00000
   3        2PX         0.00000  -0.18273   0.00000   0.00000   0.32513
   4        2PY         0.00000   0.00000  -0.18273   0.00000   0.00000
   5        2PZ         0.00000   0.00000   0.00000  -0.18273   0.00000
   6        3S         -0.64379   0.00000   0.00000   0.00000   0.00000
   7        3PX         0.00000  -0.18420   0.00000   0.00000   1.41105
   8        3PY         0.00000   0.00000  -0.18420   0.00000   0.00000
   9        3PZ         0.00000   0.00000   0.00000  -0.18420   0.00000
  10        4S          1.47342   0.00000   0.00000   0.00000   0.00000
  11        4PX         0.00000   1.18023   0.00000   0.00000   0.32287
  12        4PY         0.00000   0.00000   1.18023   0.00000   0.00000
  13        4PZ         0.00000   0.00000   0.00000   1.18023   0.00000
  14 2   H  1S          0.01694  -0.02969  -0.02969  -0.02969  -0.10969
  15        2S         -0.08162  -0.13506  -0.13506  -0.13506  -1.15490
  16 3   H  1S          0.01694   0.02969   0.02969  -0.02969   0.10969
  17        2S         -0.08162   0.13506   0.13506  -0.13506   1.15490
  18 4   H  1S          0.01694   0.02969  -0.02969   0.02969   0.10969
  19        2S         -0.08162   0.13506  -0.13506   0.13506   1.15490
  20 5   H  1S          0.01694  -0.02969   0.02969   0.02969  -0.10969
  21        2S         -0.08162  -0.13506   0.13506   0.13506  -1.15490
                          11        12        13        14        15
                        (T2)--V   (T2)--V   (A1)--V   (T2)--V   (T2)--V
     Eigenvalues --     0.18632   0.18632   0.28101   0.65963   0.65963
   1 1   C  1S          0.00000   0.00000  -0.15355   0.00000   0.00000
   2        2S          0.00000   0.00000   0.19563   0.00000   0.00000
   3        2PX         0.00000   0.00000   0.00000   0.00000  -0.99941
   4        2PY         0.00000   0.32513   0.00000  -0.99941   0.00000
   5        2PZ         0.32513   0.00000   0.00000   0.00000   0.00000
   6        3S          0.00000   0.00000   3.11117   0.00000   0.00000
   7        3PX         0.00000   0.00000   0.00000   0.00000   1.73945
   8        3PY         0.00000   1.41105   0.00000   1.73945   0.00000
   9        3PZ         1.41105   0.00000   0.00000   0.00000   0.00000
  10        4S          0.00000   0.00000   1.85455   0.00000   0.00000
  11        4PX         0.00000   0.00000   0.00000   0.00000  -0.56161
  12        4PY         0.00000   0.32287   0.00000  -0.56161   0.00000
  13        4PZ         0.32287   0.00000   0.00000   0.00000   0.00000
  14 2   H  1S         -0.10969  -0.10969  -0.07750  -0.17431  -0.17431
  15        2S         -1.15490  -1.15490  -1.60693  -0.14375  -0.14375
  16 3   H  1S         -0.10969   0.10969  -0.07750   0.17431   0.17431
  17        2S         -1.15490   1.15490  -1.60693   0.14375   0.14375
  18 4   H  1S          0.10969  -0.10969  -0.07750  -0.17431   0.17431
  19        2S          1.15490  -1.15490  -1.60693  -0.14375   0.14375
  20 5   H  1S          0.10969   0.10969  -0.07750   0.17431  -0.17431
  21        2S          1.15490   1.15490  -1.60693   0.14375  -0.14375
                          16        17        18        19        20
                        (T2)--V   (T2)--V   (T2)--V   (T2)--V   (A1)--V
     Eigenvalues --     0.65963   1.00533   1.00533   1.00533   1.06992
   1 1   C  1S          0.00000   0.00000   0.00000   0.00000  -0.10291
   2        2S          0.00000   0.00000   0.00000   0.00000  -0.51541
   3        2PX         0.00000   0.00000   0.59913   0.00000   0.00000
   4        2PY         0.00000   0.59913   0.00000   0.00000   0.00000
   5        2PZ        -0.99941   0.00000   0.00000   0.59913   0.00000
   6        3S          0.00000   0.00000   0.00000   0.00000   1.18465
   7        3PX         0.00000   0.00000  -0.67323   0.00000   0.00000
   8        3PY         0.00000  -0.67323   0.00000   0.00000   0.00000
   9        3PZ         1.73945   0.00000   0.00000  -0.67323   0.00000
  10        4S          0.00000   0.00000   0.00000   0.00000  -0.75124
  11        4PX         0.00000   0.00000  -0.40866   0.00000   0.00000
  12        4PY         0.00000  -0.40866   0.00000   0.00000   0.00000
  13        4PZ        -0.56161   0.00000   0.00000  -0.40866   0.00000
  14 2   H  1S         -0.17431  -0.67913  -0.67913  -0.67913  -0.72633
  15        2S         -0.14375   1.08853   1.08853   1.08853   0.38865
  16 3   H  1S         -0.17431   0.67913   0.67913  -0.67913  -0.72633
  17        2S         -0.14375  -1.08853  -1.08853   1.08853   0.38865
  18 4   H  1S          0.17431  -0.67913   0.67913   0.67913  -0.72633
  19        2S          0.14375   1.08853  -1.08853  -1.08853   0.38865
  20 5   H  1S          0.17431   0.67913  -0.67913   0.67913  -0.72633
  21        2S          0.14375  -1.08853   1.08853  -1.08853   0.38865
                          21
                        (A1)--V
     Eigenvalues --     1.13493
   1 1   C  1S         -0.02065
   2        2S         -2.37018
   3        2PX         0.00000
   4        2PY         0.00000
   5        2PZ         0.00000
   6        3S          5.86748
   7        3PX         0.00000
   8        3PY         0.00000
   9        3PZ         0.00000
  10        4S          0.73060
  11        4PX         0.00000
  12        4PY         0.00000
  13        4PZ         0.00000
  14 2   H  1S          0.14176
  15        2S         -1.63000
  16 3   H  1S          0.14176
  17        2S         -1.63000
  18 4   H  1S          0.14176
  19        2S         -1.63000
  20 5   H  1S          0.14176
  21        2S         -1.63000
     Density Matrix:
                           1         2         3         4         5
   1 1   C  1S          2.06114
   2        2S         -0.07849   0.28602
   3        2PX         0.00000   0.00000   0.40045
   4        2PY         0.00000   0.00000  -0.00000   0.40045
   5        2PZ         0.00000   0.00000   0.00000  -0.00000   0.40045
   6        3S         -0.22446   0.30472   0.00000   0.00000   0.00000
   7        3PX         0.00000   0.00000   0.19362  -0.00000   0.00000
   8        3PY         0.00000   0.00000  -0.00000   0.19362  -0.00000
   9        3PZ         0.00000   0.00000   0.00000  -0.00000   0.19362
  10        4S         -0.01326   0.01764   0.00000   0.00000   0.00000
[...]
 - Thermochemistry -
 -------------------
 Temperature   298.150 Kelvin.  Pressure   1.00000 Atm.
 Atom     1 has atomic number  6 and mass  12.00000
 Atom     2 has atomic number  1 and mass   1.00783
 Atom     3 has atomic number  1 and mass   1.00783
 Atom     4 has atomic number  1 and mass   1.00783
 Atom     5 has atomic number  1 and mass   1.00783
 Molecular mass:    16.03130 amu.
 Principal axes and moments of inertia in atomic units:
                           1         2         3
     Eigenvalues --    11.46863  11.46863  11.46863
           X           -0.05968   0.23732   0.96960
           Y           -0.01589   0.97098  -0.23863
           Z            0.99809   0.02964   0.05417
 This molecule is a spherical top.
 Rotational symmetry number 12.
 Rotational temperatures (Kelvin)      7.55224     7.55224     7.55224
 Rotational constants (GHZ):         157.36334   157.36334   157.36334
 Zero-point vibrational energy     119398.2 (Joules/Mol)
                                   28.53686 (Kcal/Mol)
 Vibrational temperatures:   2006.94  2006.94  2006.94  2294.50  2294.50
          (Kelvin)           4383.95  4575.60  4575.60  4575.60
 
 Zero-point correction=                           0.045476 (Hartree/Particle)
 Thermal correction to Energy=                    0.048338
 Thermal correction to Enthalpy=                  0.049283
 Thermal correction to Gibbs Free Energy=         0.028154
 Sum of electronic and zero-point Energies=            -40.452173
 Sum of electronic and thermal Energies=               -40.449311
 Sum of electronic and thermal Enthalpies=             -40.448367
 Sum of electronic and thermal Free Energies=          -40.469496
 
                     E (Thermal)             CV                S
                      KCal/Mol        Cal/Mol-Kelvin    Cal/Mol-Kelvin
 Total                   30.333              6.392             44.469
 Electronic               0.000              0.000              0.000
 Translational            0.889              2.981             34.261
 Rotational               0.889              2.981             10.137
 Vibrational             28.555              0.431              0.071
                       Q            Log10(Q)             Ln(Q)
 Total Bot       0.112240D-12        -12.949851        -29.818134
 Total V=0       0.928520D+08          7.967791         18.346518
 Vib (Bot)       0.121425D-20        -20.915692        -48.160160
 Vib (V=0)       0.100450D+01          0.001951          0.004492
 Electronic      0.100000D+01          0.000000          0.000000
 Translational   0.252295D+07          6.401908         14.740939
 Rotational      0.366380D+02          1.563932          3.601087
 
                                          methane with imposed symmetry and 6-31+
 G basis set
                                                             IR Spectrum
 
      3    3                                                         1       1                                                       
      1    0                                                         5       3                                                       
      8    4                                                         9       9                                                       
      0    7                                                         5       5                                                       
 
      X                                                                      X                                                       
      X                                                                      X                                                       
      X                                                                      X                                                       
      X                                                                      X                                                       
      X                                                                      X                                                       
      X                                                                      X                                                       
      X                                                                      X                                                       
      X                                                                      X                                                       
      X                                                                      X                                                       
      X                                                                      X                                                       
      X                                                                      X                                                       
      X                                                                      X                                                       
      X                                                                      X                                                       
      X                                                                      X                                                       
      X                                                                      X                                                       
      X                                                                      X                                                       
                                                                             X                                                       
                                                                             X                                                       
                                                                             X                                                       
                                                                             X                                                       
 
 ***** Axes restored to original set *****
 -------------------------------------------------------------------
 Center     Atomic                   Forces (Hartrees/Bohr)
 Number     Number              X              Y              Z
 -------------------------------------------------------------------
      1        6          -0.000000000   -0.000000000   -0.000000000
      2        1          -0.000000000   -0.000000000   -0.000053665
      3        1          -0.000050596    0.000000000    0.000017888
      4        1           0.000025298    0.000043817    0.000017888
      5        1           0.000025298   -0.000043817    0.000017888
 -------------------------------------------------------------------
 Cartesian Forces:  Max     0.000053665 RMS     0.000027712
 Force constants in Cartesian coordinates: 
                1             2             3             4             5 
      1  0.556566D+00
      2  0.000000D+00  0.556566D+00
      3  0.000000D+00  0.000000D+00  0.556566D+00
      4 -0.477468D-01  0.000000D+00  0.000000D+00  0.476716D-01
      5  0.000000D+00 -0.477468D-01  0.000000D+00  0.000000D+00  0.476716D-01
      6  0.000000D+00  0.000000D+00 -0.321931D+00  0.000000D+00  0.000000D+00
      7 -0.291466D+00  0.000000D+00  0.861678D-01  0.980141D-03  0.000000D+00
      8  0.000000D+00 -0.477468D-01  0.000000D+00  0.000000D+00 -0.930010D-03
      9  0.861678D-01  0.000000D+00 -0.782117D-01  0.335468D-01  0.000000D+00
     10 -0.108677D+00 -0.105534D+00 -0.430839D-01 -0.452472D-03  0.827120D-03
     11 -0.105534D+00 -0.230536D+00 -0.746235D-01  0.827120D-03  0.502603D-03
     12 -0.430839D-01 -0.746235D-01 -0.782117D-01 -0.167734D-01 -0.290524D-01
     13 -0.108677D+00  0.105534D+00 -0.430839D-01 -0.452472D-03 -0.827120D-03
     14  0.105534D+00 -0.230536D+00  0.746235D-01 -0.827120D-03  0.502603D-03
     15 -0.430839D-01  0.746235D-01 -0.782117D-01 -0.167734D-01  0.290524D-01
                6             7             8             9            10 
      6  0.351733D+00
      7 -0.267646D-02  0.317949D+00
      8  0.000000D+00  0.000000D+00  0.476716D-01
      9 -0.993418D-02 -0.955574D-01  0.000000D+00  0.814562D-01
     10  0.133823D-02 -0.137315D-01 -0.271152D-01 -0.120786D-01  0.115241D+00
     11  0.231789D-02  0.246103D-02  0.502603D-03  0.718743D-05  0.117033D+00
     12 -0.993418D-02  0.603307D-02  0.104640D-01  0.334482D-02  0.477787D-01
     13  0.133823D-02 -0.137315D-01  0.271152D-01 -0.120786D-01  0.761964D-02
     14 -0.231789D-02 -0.246103D-02  0.502603D-03 -0.718743D-05  0.147881D-01
     15 -0.993418D-02  0.603307D-02 -0.104640D-01  0.334482D-02  0.604552D-02
               11            12            13            14            15 
     11  0.250379D+00
     12  0.827552D-01  0.814562D-01
     13 -0.147881D-01  0.604552D-02  0.115241D+00
     14 -0.208485D-01  0.104568D-01 -0.117033D+00  0.250379D+00
     15 -0.104568D-01  0.334482D-02  0.477787D-01 -0.827552D-01  0.814562D-01
 Force constants in internal coordinates: 
                1             2             3             4             5 
      1  0.351733D+00
      2  0.788001D-03  0.351733D+00
      3  0.788001D-03  0.788001D-03  0.351733D+00
      4  0.788001D-03  0.788001D-03  0.788001D-03  0.351733D+00
      5  0.233643D-02  0.233643D-02 -0.146706D-02 -0.320580D-02  0.205750D-01
      6  0.366175D-02 -0.944968D-03  0.407517D-02 -0.679196D-02 -0.895750D-02
      7  0.715577D-02 -0.574304D-02 -0.635727D-02  0.494455D-02 -0.135710D-01
      8 -0.944968D-03  0.366175D-02  0.407517D-02 -0.679196D-02 -0.895750D-02
      9 -0.574304D-02  0.715577D-02 -0.635727D-02  0.494455D-02 -0.135710D-01
     10 -0.646594D-02 -0.646594D-02  0.603126D-02  0.690063D-02  0.244820D-01
     11 -0.452522D-02 -0.452522D-02 -0.319427D-02  0.122447D-01 -0.142285D-01
     12  0.372665D-02  0.372665D-02 -0.958282D-02  0.212951D-02  0.857814D-02
     13 -0.490714D-02  0.863379D-02 -0.479141D-02  0.106476D-02  0.428907D-02
     14 -0.863379D-02  0.490714D-02  0.479141D-02 -0.106476D-02 -0.428907D-02
                6             7             8             9            10 
      6  0.389652D-01
      7 -0.235791D-01  0.761162D-01
      8 -0.185118D-02  0.252630D-01  0.389652D-01
      9  0.252630D-01 -0.366159D-01 -0.235791D-01  0.761162D-01
     10 -0.298405D-01 -0.276132D-01 -0.298405D-01 -0.276132D-01  0.904254D-01
     11 -0.117570D-01  0.155898D-01 -0.117570D-01  0.155898D-01  0.656280D-02
     12 -0.993946D-02  0.756785D-02 -0.993946D-02  0.756785D-02 -0.383492D-02
     13 -0.150098D-01 -0.823577D-03  0.507035D-02  0.839142D-02 -0.191746D-02
     14 -0.507035D-02 -0.839142D-02  0.150098D-01  0.823577D-03  0.191746D-02
               11            12            13            14 
     11  0.318256D-01
     12  0.166726D-02  0.197747D-01
     13  0.833630D-03  0.988736D-02  0.200617D-01
     14 -0.833630D-03 -0.988736D-02  0.101744D-01  0.200617D-01
 Leave Link  716 at Sun Aug 18 00:35:44 2024, MaxMem=   13107200 cpu:       0.0
 (Enter /programs/64bit/g09/g09-gfortran/bin/l103.exe)

 GradGradGradGradGradGradGradGradGradGradGradGradGradGradGradGradGradGrad
 Berny optimization.
 Internal  Forces:  Max     0.000053665 RMS     0.000028685
 Search for a local minimum.
 Step number   1 out of a maximum of    2
 All quantities printed in internal units (Hartrees-Bohrs-Radians)
 Second derivative matrix not updated -- analytic derivatives used.
 The second derivative matrix:
                          R1        R2        R3        R4        A1
           R1           0.35173
           R2           0.00079   0.35173
           R3           0.00079   0.00079   0.35173
           R4           0.00079   0.00079   0.00079   0.35173
           A1           0.00234   0.00234  -0.00147  -0.00321   0.02058
           A2           0.00366  -0.00094   0.00408  -0.00679  -0.00896
           A3           0.00716  -0.00574  -0.00636   0.00494  -0.01357
           A4          -0.00094   0.00366   0.00408  -0.00679  -0.00896
           A5          -0.00574   0.00716  -0.00636   0.00494  -0.01357
           A6          -0.00647  -0.00647   0.00603   0.00690   0.02448
           D1          -0.00453  -0.00453  -0.00319   0.01224  -0.01423
           D2           0.00373   0.00373  -0.00958   0.00213   0.00858
           D3          -0.00491   0.00863  -0.00479   0.00106   0.00429
           D4          -0.00863   0.00491   0.00479  -0.00106  -0.00429
                          A2        A3        A4        A5        A6
           A2           0.03897
           A3          -0.02358   0.07612
           A4          -0.00185   0.02526   0.03897
           A5           0.02526  -0.03662  -0.02358   0.07612
           A6          -0.02984  -0.02761  -0.02984  -0.02761   0.09043
           D1          -0.01176   0.01559  -0.01176   0.01559   0.00656
           D2          -0.00994   0.00757  -0.00994   0.00757  -0.00383
           D3          -0.01501  -0.00082   0.00507   0.00839  -0.00192
           D4          -0.00507  -0.00839   0.01501   0.00082   0.00192
                          D1        D2        D3        D4
           D1           0.03183
           D2           0.00167   0.01977
           D3           0.00083   0.00989   0.02006
           D4          -0.00083  -0.00989   0.01017   0.02006
     Eigenvalues ---    0.04028   0.04542   0.06914   0.13664   0.13703
     Eigenvalues ---    0.35226   0.35228   0.35268   0.354101000.00000
     Eigenvalues --- 1000.000001000.000001000.000001000.00000
 Angle between quadratic step and forces=   0.00 degrees.
 Linear search not attempted -- first point.
 Iteration  1 RMS(Cart)=  0.00008101 RMS(Int)=  0.00000000
 Iteration  2 RMS(Cart)=  0.00000000 RMS(Int)=  0.00000000
 ClnCor:  largest displacement from symmetrization is 1.40D-13 for atom     3.
 Variable       Old X    -DE/DX   Delta X   Delta X   Delta X     New X
                                 (Linear)    (Quad)   (Total)
    R1        2.06575  -0.00005   0.00000  -0.00015  -0.00015   2.06560
    R2        2.06575  -0.00005   0.00000  -0.00015  -0.00015   2.06560
    R3        2.06575  -0.00005   0.00000  -0.00015  -0.00015   2.06560
    R4        2.06575  -0.00005   0.00000  -0.00015  -0.00015   2.06560
    A1        1.91063   0.00000   0.00000  -0.00000   0.00000   1.91063
    A2        1.91063  -0.00000   0.00000  -0.00000  -0.00000   1.91063
    A3        1.91063  -0.00000   0.00000  -0.00000  -0.00000   1.91063
    A4        1.91063  -0.00000   0.00000   0.00000   0.00000   1.91063
    A5        1.91063  -0.00000   0.00000   0.00000  -0.00000   1.91063
    A6        1.91063   0.00000   0.00000   0.00000   0.00000   1.91063
    D1       -2.09440   0.00000   0.00000   0.00000   0.00000  -2.09440
    D2        2.09440   0.00000   0.00000  -0.00000   0.00000   2.09440
    D3       -2.09440   0.00000   0.00000   0.00000   0.00000  -2.09440
    D4        2.09440   0.00000   0.00000   0.00000   0.00000   2.09440
         Item               Value     Threshold  Converged?
 Maximum Force            0.000054     0.000450     YES
 RMS     Force            0.000029     0.000300     YES
 Maximum Displacement     0.000152     0.001800     YES
 RMS     Displacement     0.000081     0.001200     YES
 Predicted change in Energy=-1.626612D-08
 Optimization completed.
    -- Stationary point found.
                           ----------------------------
                           !   Optimized Parameters   !
                           ! (Angstroms and Degrees)  !
 --------------------------                            --------------------------
 ! Name  Definition              Value          Derivative Info.                !
 --------------------------------------------------------------------------------
 ! R1    R(1,2)                  1.0932         -DE/DX =   -0.0001              !
 ! R2    R(1,3)                  1.0932         -DE/DX =   -0.0001              !
 ! R3    R(1,4)                  1.0932         -DE/DX =   -0.0001              !
 ! R4    R(1,5)                  1.0932         -DE/DX =   -0.0001              !
 ! A1    A(2,1,3)              109.4712         -DE/DX =    0.0                 !
 ! A2    A(2,1,4)              109.4712         -DE/DX =    0.0                 !
 ! A3    A(2,1,5)              109.4712         -DE/DX =    0.0                 !
 ! A4    A(3,1,4)              109.4712         -DE/DX =    0.0                 !
 ! A5    A(3,1,5)              109.4712         -DE/DX =    0.0                 !
 ! A6    A(4,1,5)              109.4712         -DE/DX =    0.0                 !
 ! D1    D(2,1,4,3)           -120.0            -DE/DX =    0.0                 !
 ! D2    D(2,1,5,3)            120.0            -DE/DX =    0.0                 !
 ! D3    D(2,1,5,4)           -120.0            -DE/DX =    0.0                 !
 ! D4    D(3,1,5,4)            120.0            -DE/DX =    0.0                 !
 --------------------------------------------------------------------------------
 GradGradGradGradGradGradGradGradGradGradGradGradGradGradGradGradGradGrad

 Leave Link  103 at Sun Aug 18 00:35:44 2024, MaxMem=   13107200 cpu:       0.0
 (Enter /programs/64bit/g09/g09-gfortran/bin/l9999.exe)
 1\1\GINC-MOLMOD\Freq\RB3PW91\6-31+G\C1H4\OSPITE\18-Aug-2024\0\\#P Geom
 =AllCheck Guess=TCheck SCRF=Check GenChk RB3PW91/6-31+G Freq\\methane 
 with imposed symmetry and 6-31+G basis set\\0,1\C,0.,0.,0.\H,0.,0.,1.0
 931503006\H,1.0306319872,0.,-0.3643834335\H,-0.5153159936,-0.892553482
 9,-0.3643834335\H,-0.5153159936,0.8925534829,-0.3643834335\\Version=EM
 64L-G09RevA.02\State=1-A1\HF=-40.4976496\RMSD=3.873e-10\RMSF=2.771e-05
 \ZeroPoint=0.0454764\Thermal=0.0483383\Dipole=0.,0.,0.\DipoleDeriv=-0.
 0888302,0.,0.,0.,-0.0888302,0.,0.,0.,-0.0888302,0.1104232,0.,0.,0.,0.1
 104232,0.,0.,0.,-0.1542237,-0.1248185,0.,0.0831705,0.,0.1104232,0.,0.0
 831705,0.,0.081018,0.0516128,-0.1018626,-0.0415852,-0.1018626,-0.06600
 81,-0.0720278,-0.0415852,-0.0720278,0.081018,0.0516128,0.1018626,-0.04
 15852,0.1018626,-0.0660081,0.0720278,-0.0415852,0.0720278,0.081018\Pol
 ar=13.0455287,0.,13.0455287,0.,0.,13.0455287\PG=TD [O(C1),4C3(H1)]\NIm
 ag=0\\0.55656597,0.,0.55656597,0.,0.,0.55656597,-0.04774679,0.,0.,0.04
 767159,0.,-0.04774679,0.,0.,0.04767159,0.,0.,-0.32193090,0.,0.,0.35173
 345,-0.29146600,0.,0.08616775,0.00098014,0.,-0.00267646,0.31794880,0.,
 -0.04774679,0.,0.,-0.00093001,0.,0.,0.04767159,0.08616775,0.,-0.078211
 69,0.03354684,0.,-0.00993418,-0.09555742,0.,0.08145624,-0.10867659,-0.
 10553351,-0.04308388,-0.00045247,0.00082712,0.00133823,-0.01373147,-0.
 02711517,-0.01207858,0.11524089,-0.10553351,-0.23053620,-0.07462346,0.
 00082712,0.00050260,0.00231789,0.00246103,0.00050260,0.00000719,0.1170
 3346,0.25037950,-0.04308388,-0.07462346,-0.07821169,-0.01677342,-0.029
 05241,-0.00993418,0.00603307,0.01046395,0.00334482,0.04777871,0.082755
 16,0.08145624,-0.10867659,0.10553351,-0.04308388,-0.00045247,-0.000827
 12,0.00133823,-0.01373147,0.02711517,-0.01207858,0.00761964,-0.0147881
 0,0.00604552,0.11524089,0.10553351,-0.23053620,0.07462346,-0.00082712,
 0.00050260,-0.00231789,-0.00246103,0.00050260,-0.00000719,0.01478810,-
 0.02084851,0.01045677,-0.11703346,0.25037950,-0.04308388,0.07462346,-0
 .07821169,-0.01677342,0.02905241,-0.00993418,0.00603307,-0.01046395,0.
 00334482,0.00604552,-0.01045677,0.00334482,0.04777871,-0.08275516,0.08
 145624\\0.,0.,0.,0.,0.,0.00005366,0.00005060,0.,-0.00001789,-0.0000253
 0,-0.00004382,-0.00001789,-0.00002530,0.00004382,-0.00001789\\\@


       THE DEATH-KNELL OF THE ATOM

 SO THE ATOMS IN TURN, WE NOW CLEARLY DISCERN,
 FLY TO BITS WITH THE UTMOST FACILITY;
 THEY WEND ON THEIR WAY, AND, IN SPLITTING, DISPLAY
 AN ABSOLUTE LACK OF STABILITY.

          SIR WM. RAMSAY, 1905
 Job cpu time:  0 days  0 hours  0 minutes  7.5 seconds.
 File lengths (MBytes):  RWF=      5 Int=      0 D2E=      0 Chk=      1 Scr=      1
 Normal termination of Gaussian 09 at Sun Aug 18 00:35:44 2024.
