 Entering Gaussian System, Link 0=/programs/64bit/g09/g09-gfortran/bin/g09
 Input=ch4_cc-pVQZ.com
 Output=ch4_cc-pVQZ.log
 Initial command:
 /programs/64bit/g09/g09-gfortran/bin/l1.exe /home/ospite/Desktop/MMfP/Project6/CH4/g09/DFT/B3PW91/Gau-6189.inp -scrdir=/home/ospite/Desktop/MMfP/Project6/CH4/g09/DFT/B3PW91/
 Entering Link 1 = /programs/64bit/g09/g09-gfortran/bin/l1.exe PID=      6190.
  
 Copyright (c) 1988,1990,1992,1993,1995,1998,2003,2009, Gaussian, Inc.
                  All Rights Reserved.
  
 This is part of the Gaussian(R) 09 program.  It is based on
 the Gaussian(R) 03 system (copyright 2003, Gaussian, Inc.),
 the Gaussian(R) 98 system (copyright 1998, Gaussian, Inc.),
 the Gaussian(R) 94 system (copyright 1995, Gaussian, Inc.),
 the Gaussian 92(TM) system (copyright 1992, Gaussian, Inc.),
 the Gaussian 90(TM) system (copyright 1990, Gaussian, Inc.),
 the Gaussian 88(TM) system (copyright 1988, Gaussian, Inc.),
 the Gaussian 86(TM) system (copyright 1986, Carnegie Mellon
 University), and the Gaussian 82(TM) system (copyright 1983,
 Carnegie Mellon University). Gaussian is a federally registered
 trademark of Gaussian, Inc.
  
 This software contains proprietary and confidential information,
 including trade secrets, belonging to Gaussian, Inc.
  
 This software is provided under written license and may be
 used, copied, transmitted, or stored only in accord with that
 written license.
  
 The following legend is applicable only to US Government
 contracts under FAR:
  
                    RESTRICTED RIGHTS LEGEND
  
 Use, reproduction and disclosure by the US Government is
 subject to restrictions as set forth in subparagraphs (a)
 and (c) of the Commercial Computer Software - Restricted
 Rights clause in FAR 52.227-19.
  
 Gaussian, Inc.
 340 Quinnipiac St., Bldg. 40, Wallingford CT 06492
  
  
 ---------------------------------------------------------------
 Warning -- This program may not be used in any manner that
 competes with the business of Gaussian, Inc. or will provide
 assistance to any competitor of Gaussian, Inc.  The licensee
 of this program is prohibited from giving any competitor of
 Gaussian, Inc. access to this program.  By using this program,
 the user acknowledges that Gaussian, Inc. is engaged in the
 business of creating and licensing software in the field of
 computational chemistry and represents and warrants to the
 licensee that it is not a competitor of Gaussian, Inc. and that
 it will not use this program in any manner prohibited above.
 ---------------------------------------------------------------
  

 Cite this work as:
 Gaussian 09, Revision A.02,
 M. J. Frisch, G. W. Trucks, H. B. Schlegel, G. E. Scuseria, 
 M. A. Robb, J. R. Cheeseman, G. Scalmani, V. Barone, B. Mennucci, 
 G. A. Petersson, H. Nakatsuji, M. Caricato, X. Li, H. P. Hratchian, 
 A. F. Izmaylov, J. Bloino, G. Zheng, J. L. Sonnenberg, M. Hada, 
 M. Ehara, K. Toyota, R. Fukuda, J. Hasegawa, M. Ishida, T. Nakajima, 
 Y. Honda, O. Kitao, H. Nakai, T. Vreven, J. A. Montgomery, Jr., 
 J. E. Peralta, F. Ogliaro, M. Bearpark, J. J. Heyd, E. Brothers, 
 K. N. Kudin, V. N. Staroverov, R. Kobayashi, J. Normand, 
 K. Raghavachari, A. Rendell, J. C. Burant, S. S. Iyengar, J. Tomasi, 
 M. Cossi, N. Rega, J. M. Millam, M. Klene, J. E. Knox, J. B. Cross, 
 V. Bakken, C. Adamo, J. Jaramillo, R. Gomperts, R. E. Stratmann, 
 O. Yazyev, A. J. Austin, R. Cammi, C. Pomelli, J. W. Ochterski, 
 R. L. Martin, K. Morokuma, V. G. Zakrzewski, G. A. Voth, 
 P. Salvador, J. J. Dannenberg, S. Dapprich, A. D. Daniels, 
 O. Farkas, J. B. Foresman, J. V. Ortiz, J. Cioslowski, 
 and D. J. Fox, Gaussian, Inc., Wallingford CT, 2009.
 
 ******************************************
 Gaussian 09:  EM64L-G09RevA.02 11-Jun-2009
                18-Aug-2024 
 ******************************************
 %mem=100MB
 -------------------------------------------------------------------
 #p b3pw91/cc-pVQZ opt freq symmetry=(follow,pg=Td) pop=full gfinput
 -------------------------------------------------------------------
 1/14=-1,18=20,19=15,26=3,38=1/1,3;
 2/9=110,12=2,17=6,18=5,19=2314885530818462804,40=1/2;
 3/5=16,6=2,11=2,16=1,24=10,25=1,30=1,71=1,74=-6/1,2,3;
 4//1;
 5/5=2,38=5/2;
 6/7=3,28=1/1;
 7//1,2,3,16;
 1/14=-1,18=20,19=15/3(2);
 2/9=110,15=5,19=2314885530818462804/2;
 99//99;
 2/9=110,15=5,19=2314885530818462804/2;
 3/5=16,6=2,11=2,16=1,25=1,30=1,71=1,74=-6/1,2,3;
 4/5=5,16=3/1;
 5/5=2,38=5/2;
 7//1,2,3,16;
 1/14=-1,18=20,19=15/3(-5);
 2/9=110,15=5,19=2314885530818462804/2;
 6/7=3,19=2,28=1/1;
 99/9=1/99;
 Leave Link    1 at Sun Aug 18 13:28:44 2024, MaxMem=   13107200 cpu:       0.1
 (Enter /programs/64bit/g09/g09-gfortran/bin/l101.exe)
 ------------------------------------------------------
 methane with imposed symmetry Td and cc-pVQZ basis set
 ------------------------------------------------------
 Symbolic Z-matrix:
 Charge =  0 Multiplicity = 1
 C1
 H2                   1    d
 H3                   1    d        2    a
 H4                   1    d        2    a        3    t        0
 H5                   1    d        2    a        3    -t       0
       Variables:
  d                     1.09                     
  a                   109.471                    
  t                   120.                       
 
     3 tetrahedral angles replaced.
 NAtoms=      5 NQM=      5 NQMF=      0 NMic=      0 NMicF=      0 NTot=      5.
                    Isotopes and Nuclear Properties:
 (Nuclear quadrupole moments (NQMom) in fm**2, nuclear magnetic moments (NMagM)
  in nuclear magnetons)

  Atom         1           2           3           4           5
 IAtWgt=          12           1           1           1           1
 AtmWgt=  12.0000000   1.0078250   1.0078250   1.0078250   1.0078250
 NucSpn=           0           1           1           1           1
 AtZEff=   0.0000000   0.0000000   0.0000000   0.0000000   0.0000000
 NQMom=    0.0000000   0.0000000   0.0000000   0.0000000   0.0000000
 NMagM=    0.0000000   2.7928460   2.7928460   2.7928460   2.7928460
 Leave Link  101 at Sun Aug 18 13:28:44 2024, MaxMem=   13107200 cpu:       0.1
 (Enter /programs/64bit/g09/g09-gfortran/bin/l103.exe)

 GradGradGradGradGradGradGradGradGradGradGradGradGradGradGradGradGradGrad
 Berny optimization.
 Initialization pass.
                           ----------------------------
                           !    Initial Parameters    !
                           ! (Angstroms and Degrees)  !
 --------------------------                            --------------------------
 ! Name  Definition              Value          Derivative Info.                !
 --------------------------------------------------------------------------------
 ! R1    R(1,2)                  1.09           estimate D2E/DX2                !
 ! R2    R(1,3)                  1.09           estimate D2E/DX2                !
 ! R3    R(1,4)                  1.09           estimate D2E/DX2                !
 ! R4    R(1,5)                  1.09           estimate D2E/DX2                !
 ! A1    A(2,1,3)              109.4712         estimate D2E/DX2                !
 ! A2    A(2,1,4)              109.4712         estimate D2E/DX2                !
 ! A3    A(2,1,5)              109.4712         estimate D2E/DX2                !
 ! A4    A(3,1,4)              109.4712         estimate D2E/DX2                !
 ! A5    A(3,1,5)              109.4712         estimate D2E/DX2                !
 ! A6    A(4,1,5)              109.4712         estimate D2E/DX2                !
 ! D1    D(2,1,4,3)           -120.0            estimate D2E/DX2                !
 ! D2    D(2,1,5,3)            120.0            estimate D2E/DX2                !
 ! D3    D(2,1,5,4)           -120.0            estimate D2E/DX2                !
 ! D4    D(3,1,5,4)            120.0            estimate D2E/DX2                !
 --------------------------------------------------------------------------------
 Trust Radius=3.00D-01 FncErr=1.00D-07 GrdErr=1.00D-06
 Number of steps in this run=  24 maximum allowed number of steps= 100.
 GradGradGradGradGradGradGradGradGradGradGradGradGradGradGradGradGradGrad

 Leave Link  103 at Sun Aug 18 13:28:44 2024, MaxMem=   13107200 cpu:       0.0
 (Enter /programs/64bit/g09/g09-gfortran/bin/l202.exe)
                          Input orientation:                          
 ---------------------------------------------------------------------
 Center     Atomic      Atomic             Coordinates (Angstroms)
 Number     Number       Type             X           Y           Z
 ---------------------------------------------------------------------
      1          6           0        0.000000    0.000000    0.000000
      2          1           0        0.000000    0.000000    1.090000
      3          1           0        1.027662    0.000000   -0.363333
      4          1           0       -0.513831   -0.889981   -0.363333
      5          1           0       -0.513831    0.889981   -0.363333
 ---------------------------------------------------------------------
                    Distance matrix (angstroms):
                    1          2          3          4          5
     1  C    0.000000
     2  H    1.090000   0.000000
     3  H    1.090000   1.779963   0.000000
     4  H    1.090000   1.779963   1.779963   0.000000
     5  H    1.090000   1.779963   1.779963   1.779963   0.000000
 Symm:  InNGrp=TD   InAxis=0.
 Stoichiometry    CH4
 Framework group  TD[O(C),4C3(H)]
 Deg. of freedom     1
 Full point group                 TD      NOp  24
 Largest Abelian subgroup         D2      NOp   4
 Largest concise Abelian subgroup D2      NOp   4
                         Standard orientation:                         
 ---------------------------------------------------------------------
 Center     Atomic      Atomic             Coordinates (Angstroms)
 Number     Number       Type             X           Y           Z
 ---------------------------------------------------------------------
      1          6           0        0.000000    0.000000    0.000000
      2          1           0        0.629312    0.629312    0.629312
      3          1           0       -0.629312   -0.629312    0.629312
      4          1           0       -0.629312    0.629312   -0.629312
      5          1           0        0.629312   -0.629312   -0.629312
 ---------------------------------------------------------------------
 Rotational constants (GHZ):    158.2742720    158.2742720    158.2742720
 Leave Link  202 at Sun Aug 18 13:28:44 2024, MaxMem=   13107200 cpu:       0.0
 (Enter /programs/64bit/g09/g09-gfortran/bin/l301.exe)
 Standard basis: CC-pVQZ (5D, 7F)
 Ernie: Thresh=  0.10000D-02 Tol=  0.10000D-05 Strict=F.
 Ernie:  3 primitive shells out of 81 were deleted.
 AO basis set in the form of general basis input (Overlap normalization):
      1 0
 S   8 1.00       0.000000000000
      0.3398000000D+05  0.1468124114D-03
      0.5089000000D+04  0.1116460016D-02
      0.1157000000D+04  0.5890887108D-02
      0.3266000000D+03  0.2421725547D-01
      0.1061000000D+03  0.8317163879D-01
      0.3811000000D+02  0.2205684777D+00
      0.1475000000D+02  0.4287314969D+00
      0.6035000000D+01  0.3643614225D+00
 S   7 1.00       0.000000000000
      0.5089000000D+04 -0.1002265364D-04
      0.3266000000D+03 -0.4365894368D-03
      0.1061000000D+03 -0.1932312730D-02
      0.3811000000D+02 -0.2148394772D-01
      0.1475000000D+02 -0.9030916566D-01
      0.6035000000D+01 -0.4187915117D+00
      0.2530000000D+01 -0.5318019058D+00
 S   1 1.00       0.000000000000
      0.7355000000D+00  0.1000000000D+01
 S   1 1.00       0.000000000000
      0.2905000000D+00  0.1000000000D+01
 S   1 1.00       0.000000000000
      0.1111000000D+00  0.1000000000D+01
 P   3 1.00       0.000000000000
      0.3451000000D+02  0.3168785521D-01
      0.7915000000D+01  0.2128943073D+00
      0.2368000000D+01  0.8395867520D+00
 P   1 1.00       0.000000000000
      0.8132000000D+00  0.1000000000D+01
 P   1 1.00       0.000000000000
      0.2890000000D+00  0.1000000000D+01
 P   1 1.00       0.000000000000
      0.1007000000D+00  0.1000000000D+01
 D   1 1.00       0.000000000000
      0.1848000000D+01  0.1000000000D+01
 D   1 1.00       0.000000000000
      0.6490000000D+00  0.1000000000D+01
 D   1 1.00       0.000000000000
      0.2280000000D+00  0.1000000000D+01
 F   1 1.00       0.000000000000
      0.1419000000D+01  0.1000000000D+01
 F   1 1.00       0.000000000000
      0.4850000000D+00  0.1000000000D+01
 G   1 1.00       0.000000000000
      0.1011000000D+01  0.1000000000D+01
 ****
      2 0
 S   3 1.00       0.000000000000
      0.8264000000D+02  0.2295075779D-01
      0.1241000000D+02  0.1755401181D+00
      0.2824000000D+01  0.8647035510D+00
 S   1 1.00       0.000000000000
      0.7977000000D+00  0.1000000000D+01
 S   1 1.00       0.000000000000
      0.2581000000D+00  0.1000000000D+01
 S   1 1.00       0.000000000000
      0.8989000000D-01  0.1000000000D+01
 P   1 1.00       0.000000000000
      0.2292000000D+01  0.1000000000D+01
 P   1 1.00       0.000000000000
      0.8380000000D+00  0.1000000000D+01
 P   1 1.00       0.000000000000
      0.2920000000D+00  0.1000000000D+01
 D   1 1.00       0.000000000000
      0.2062000000D+01  0.1000000000D+01
 D   1 1.00       0.000000000000
      0.6620000000D+00  0.1000000000D+01
 F   1 1.00       0.000000000000
      0.1397000000D+01  0.1000000000D+01
 ****
      3 0
 S   3 1.00       0.000000000000
      0.8264000000D+02  0.2295075779D-01
      0.1241000000D+02  0.1755401181D+00
      0.2824000000D+01  0.8647035510D+00
 S   1 1.00       0.000000000000
      0.7977000000D+00  0.1000000000D+01
 S   1 1.00       0.000000000000
      0.2581000000D+00  0.1000000000D+01
 S   1 1.00       0.000000000000
      0.8989000000D-01  0.1000000000D+01
 P   1 1.00       0.000000000000
      0.2292000000D+01  0.1000000000D+01
 P   1 1.00       0.000000000000
      0.8380000000D+00  0.1000000000D+01
 P   1 1.00       0.000000000000
      0.2920000000D+00  0.1000000000D+01
 D   1 1.00       0.000000000000
      0.2062000000D+01  0.1000000000D+01
 D   1 1.00       0.000000000000
      0.6620000000D+00  0.1000000000D+01
 F   1 1.00       0.000000000000
      0.1397000000D+01  0.1000000000D+01
 ****
      4 0
 S   3 1.00       0.000000000000
      0.8264000000D+02  0.2295075779D-01
      0.1241000000D+02  0.1755401181D+00
      0.2824000000D+01  0.8647035510D+00
 S   1 1.00       0.000000000000
      0.7977000000D+00  0.1000000000D+01
 S   1 1.00       0.000000000000
      0.2581000000D+00  0.1000000000D+01
 S   1 1.00       0.000000000000
      0.8989000000D-01  0.1000000000D+01
 P   1 1.00       0.000000000000
      0.2292000000D+01  0.1000000000D+01
 P   1 1.00       0.000000000000
      0.8380000000D+00  0.1000000000D+01
 P   1 1.00       0.000000000000
      0.2920000000D+00  0.1000000000D+01
 D   1 1.00       0.000000000000
      0.2062000000D+01  0.1000000000D+01
 D   1 1.00       0.000000000000
      0.6620000000D+00  0.1000000000D+01
 F   1 1.00       0.000000000000
      0.1397000000D+01  0.1000000000D+01
 ****
      5 0
 S   3 1.00       0.000000000000
      0.8264000000D+02  0.2295075779D-01
      0.1241000000D+02  0.1755401181D+00
      0.2824000000D+01  0.8647035510D+00
 S   1 1.00       0.000000000000
      0.7977000000D+00  0.1000000000D+01
 S   1 1.00       0.000000000000
      0.2581000000D+00  0.1000000000D+01
 S   1 1.00       0.000000000000
      0.8989000000D-01  0.1000000000D+01
 P   1 1.00       0.000000000000
      0.2292000000D+01  0.1000000000D+01
 P   1 1.00       0.000000000000
      0.8380000000D+00  0.1000000000D+01
 P   1 1.00       0.000000000000
      0.2920000000D+00  0.1000000000D+01
 D   1 1.00       0.000000000000
      0.2062000000D+01  0.1000000000D+01
 D   1 1.00       0.000000000000
      0.6620000000D+00  0.1000000000D+01
 F   1 1.00       0.000000000000
      0.1397000000D+01  0.1000000000D+01
 ****

 There are    46 symmetry adapted basis functions of A   symmetry.
 There are    43 symmetry adapted basis functions of B1  symmetry.
 There are    43 symmetry adapted basis functions of B2  symmetry.
 There are    43 symmetry adapted basis functions of B3  symmetry.
 Integral buffers will be    131072 words long.
 Raffenetti 2 integral format.
 Two-electron integral symmetry is turned on.
   175 basis functions,   237 primitive gaussians,   210 cartesian basis functions
     5 alpha electrons        5 beta electrons
       nuclear repulsion energy        13.4353891954 Hartrees.
 IExCor=  408 DFT=T Ex+Corr=B3PW91 ExCW=0 ScaHFX=  0.200000
 ScaDFX=  0.800000  0.720000  1.000000  0.810000 ScalE2=  1.000000  1.000000
 IRadAn=      0 IRanWt=     -1 IRanGd=            0 ICorTp=0
 NAtoms=    5 NActive=    5 NUniq=    2 SFac= 3.00D+00 NAtFMM=   80 NAOKFM=F Big=F
 Leave Link  301 at Sun Aug 18 13:28:44 2024, MaxMem=   13107200 cpu:       0.1
 (Enter /programs/64bit/g09/g09-gfortran/bin/l302.exe)
 NPDir=0 NMtPBC=     1 NCelOv=     1 NCel=       1 NClECP=     1 NCelD=      1
         NCelK=      1 NCelE2=     1 NClLst=     1 CellRange=     0.0.
 One-electron integrals computed using PRISM.
 One-electron integral symmetry used in STVInt
 NBasis=   175 RedAO= T  NBF=    46    43    43    43
 NBsUse=   175 1.00D-06 NBFU=    46    43    43    43
 Precomputing XC quadrature grid using
 IXCGrd= 2 IRadAn=           0 IRanWt=          -1 IRanGd=           0 AccXCQ= 1.00D-10.
 NRdTot=     309 NPtTot=       39258 NUsed=       41499 NTot=       41531
 NSgBfM=   210   210   210   210   210 NAtAll=     5     5.
 Leave Link  302 at Sun Aug 18 13:28:45 2024, MaxMem=   13107200 cpu:       0.5
 (Enter /programs/64bit/g09/g09-gfortran/bin/l303.exe)
 DipDrv:  MaxL=1.
 Leave Link  303 at Sun Aug 18 13:28:45 2024, MaxMem=   13107200 cpu:       0.1
 (Enter /programs/64bit/g09/g09-gfortran/bin/l401.exe)
 Harris functional with IExCor=  408 diagonalized for initial guess.
 ExpMin= 8.99D-02 ExpMax= 3.40D+04 ExpMxC= 3.27D+02 IAcc=2 IRadAn=         0 AccDes= 0.00D+00
 HarFok:  IExCor=  408 AccDes= 0.00D+00 IRadAn=         0 IDoV= 1
 ScaDFX=  1.000000  1.000000  1.000000  1.000000
 FoFCou: FMM=F IPFlag=           0 FMFlag=      100000 FMFlg1=           0
         NFxFlg=           0 DoJE=T BraDBF=F KetDBF=T FulRan=T
         Omega=  0.000000  0.000000  1.000000  0.000000  0.000000 ICntrl=     500 IOpCl=  0
         NMat0=    1 NMatS0=    1 NMatT0=    0 NMatD0=    1 NMtDS0=    0 NMtDT0=    0
         I1Cent=           4 NGrid=           0.
 Petite list used in FoFCou.
 Harris En= -40.6104833514162    
 Initial guess orbital symmetries:
       Occupied  (A1) (A1) (T2) (T2) (T2)
       Virtual   (A1) (T2) (T2) (T2) (T2) (T2) (T2) (A1) (E) (E)
                 (T2) (T2) (T2) (A1) (T2) (T2) (T2) (T1) (T1) (T1)
                 (T2) (T2) (T2) (T2) (T2) (T2) (A1) (E) (E) (T2)
                 (T2) (T2) (A1) (E) (E) (T2) (T2) (T2) (T1) (T1)
                 (T1) (T2) (T2) (T2) (A1) (T1) (T1) (T1) (E) (E)
                 (T2) (T2) (T2) (T2) (T2) (T2) (E) (E) (A1) (T1)
                 (T1) (T1) (T2) (T2) (T2) (A1) (T2) (T2) (T2) (T1)
                 (T1) (T1) (T2) (T2) (T2) (A1) (T2) (T2) (T2) (E)
                 (E) (E) (E) (T2) (T2) (T2) (T1) (T1) (T1) (T2)
                 (T2) (T2) (A2) (A1) (T1) (T1) (T1) (A1) (T2) (T2)
                 (T2) (T1) (T1) (T1) (T2) (T2) (T2) (E) (E) (T2)
                 (T2) (T2) (A1) (T1) (T1) (T1) (E) (E) (T2) (T2)
                 (T2) (T2) (T2) (T2) (E) (E) (T1) (T1) (T1) (A1)
                 (T2) (T2) (T2) (A1) (E) (E) (T1) (T1) (T1) (T2)
                 (T2) (T2) (T2) (T2) (T2) (T1) (T1) (T1) (T2) (T2)
                 (T2) (E) (E) (E) (E) (T2) (T2) (T2) (A1) (T2)
                 (T2) (T2) (T1) (T1) (T1) (A1) (T2) (T2) (T2) (A1)
 The electronic state of the initial guess is 1-A1.
 Leave Link  401 at Sun Aug 18 13:28:49 2024, MaxMem=   13107200 cpu:       3.6
 (Enter /programs/64bit/g09/g09-gfortran/bin/l502.exe)
 Closed shell SCF:
 Requested convergence on RMS density matrix=1.00D-08 within 128 cycles.
 Requested convergence on MAX density matrix=1.00D-06.
 Requested convergence on             energy=1.00D-06.
 No special actions if energy rises.
 Using DIIS extrapolation, IDIIS=  1040.
 Integral symmetry usage will be decided dynamically.
        41441 words used for storage of precomputed grid.
 IEnd=      196437 IEndB=      196437 NGot=    13107200 MDV=    12971714
 LenX=    12971714 LenY=    12927173
 Fock matrices will be formed incrementally for  20 cycles.
 Integral accuracy reduced to 1.0D-05 until final iterations.

 Cycle   1  Pass 0  IDiag  1:
 FoFCou: FMM=F IPFlag=           0 FMFlag=      100000 FMFlg1=           0
         NFxFlg=           0 DoJE=F BraDBF=F KetDBF=F FulRan=T
         Omega=  0.000000  0.000000  1.000000  0.000000  0.000000 ICntrl=       0 IOpCl=  0
         NMat0=    1 NMatS0=    1 NMatT0=    0 NMatD0=    1 NMtDS0=    0 NMtDT0=    0
         I1Cent=           0 NGrid=           0.
 Petite list used in FoFCou.
 E= -40.4329613659025    
 DIIS: error= 7.12D-02 at cycle   1 NSaved=   1.
 NSaved= 1 IEnMin= 1 EnMin= -40.4329613659025     IErMin= 1 ErrMin= 7.12D-02
 ErrMax= 7.12D-02 EMaxC= 1.00D-01 BMatC= 9.22D-02 BMatP= 9.22D-02
 IDIUse=3 WtCom= 2.88D-01 WtEn= 7.12D-01
 Coeff-Com:  0.100D+01
 Coeff-En:   0.100D+01
 Coeff:      0.100D+01
 Gap=     0.345 Goal=   None    Shift=    0.000
 GapD=    0.345 DampG=1.000 DampE=0.500 DampFc=0.5000 IDamp=-1.
 Damping current iteration by 5.00D-01
 RMSDP=1.63D-03 MaxDP=8.78D-02              OVMax= 1.97D-01

 Cycle   2  Pass 0  IDiag  1:
 RMSU=  5.36D-04    CP:  9.39D-01
 E= -40.4752979456811     Delta-E=       -0.042336579779 Rises=F Damp=T
 DIIS: error= 8.21D-03 at cycle   2 NSaved=   2.
 NSaved= 2 IEnMin= 2 EnMin= -40.4752979456811     IErMin= 2 ErrMin= 8.21D-03
 ErrMax= 8.21D-03 EMaxC= 1.00D-01 BMatC= 1.93D-03 BMatP= 9.22D-02
 IDIUse=3 WtCom= 9.18D-01 WtEn= 8.21D-02
 Coeff-Com:  0.617D-01 0.938D+00
 Coeff-En:   0.112D+00 0.888D+00
 Coeff:      0.658D-01 0.934D+00
 Gap=     0.430 Goal=   None    Shift=    0.000
 RMSDP=1.85D-04 MaxDP=5.42D-03 DE=-4.23D-02 OVMax= 1.04D-01

 Cycle   3  Pass 0  IDiag  1:
 RMSU=  1.26D-04    CP:  9.46D-01  9.56D-01
 E= -40.5244533793007     Delta-E=       -0.049155433620 Rises=F Damp=F
 DIIS: error= 3.94D-04 at cycle   3 NSaved=   3.
 NSaved= 3 IEnMin= 3 EnMin= -40.5244533793007     IErMin= 3 ErrMin= 3.94D-04
 ErrMax= 3.94D-04 EMaxC= 1.00D-01 BMatC= 3.43D-06 BMatP= 1.93D-03
 IDIUse=3 WtCom= 9.96D-01 WtEn= 3.94D-03
 Coeff-Com:  0.245D-03-0.752D-02 0.101D+01
 Coeff-En:   0.000D+00 0.000D+00 0.100D+01
 Coeff:      0.244D-03-0.749D-02 0.101D+01
 Gap=     0.436 Goal=   None    Shift=    0.000
 RMSDP=2.05D-05 MaxDP=1.88D-03 DE=-4.92D-02 OVMax= 4.06D-04

 Cycle   4  Pass 0  IDiag  1:
 RMSU=  1.10D-05    CP:  9.46D-01  9.63D-01  1.07D+00
 E= -40.5244548045034     Delta-E=       -0.000001425203 Rises=F Damp=F
 DIIS: error= 9.45D-05 at cycle   4 NSaved=   4.
 NSaved= 4 IEnMin= 4 EnMin= -40.5244548045034     IErMin= 4 ErrMin= 9.45D-05
 ErrMax= 9.45D-05 EMaxC= 1.00D-01 BMatC= 1.82D-07 BMatP= 3.43D-06
 IDIUse=1 WtCom= 1.00D+00 WtEn= 0.00D+00
 Coeff-Com:  0.125D-02-0.170D-02-0.882D-02 0.101D+01
 Coeff:      0.125D-02-0.170D-02-0.882D-02 0.101D+01
 Gap=     0.436 Goal=   None    Shift=    0.000
 RMSDP=1.94D-06 MaxDP=5.06D-05 DE=-1.43D-06 OVMax= 1.44D-04

 Initial convergence to 1.0D-05 achieved.  Increase integral accuracy.
 Cycle   5  Pass 1  IDiag  1:
 E= -40.5244305536471     Delta-E=        0.000024250856 Rises=F Damp=F
 DIIS: error= 3.17D-05 at cycle   1 NSaved=   1.
 NSaved= 1 IEnMin= 1 EnMin= -40.5244305536471     IErMin= 1 ErrMin= 3.17D-05
 ErrMax= 3.17D-05 EMaxC= 1.00D-01 BMatC= 5.56D-08 BMatP= 5.56D-08
 IDIUse=1 WtCom= 1.00D+00 WtEn= 0.00D+00
 Coeff-Com:  0.100D+01
 Coeff:      0.100D+01
 Gap=     0.436 Goal=   None    Shift=    0.000
 RMSDP=1.94D-06 MaxDP=5.06D-05 DE= 2.43D-05 OVMax= 4.70D-05

 Cycle   6  Pass 1  IDiag  1:
 RMSU=  2.18D-06    CP:  1.00D+00
 E= -40.5244305752926     Delta-E=       -0.000000021645 Rises=F Damp=F
 DIIS: error= 6.12D-06 at cycle   2 NSaved=   2.
 NSaved= 2 IEnMin= 2 EnMin= -40.5244305752926     IErMin= 2 ErrMin= 6.12D-06
 ErrMax= 6.12D-06 EMaxC= 1.00D-01 BMatC= 8.93D-10 BMatP= 5.56D-08
 IDIUse=1 WtCom= 1.00D+00 WtEn= 0.00D+00
 Coeff-Com: -0.138D-01 0.101D+01
 Coeff:     -0.138D-01 0.101D+01
 Gap=     0.436 Goal=   None    Shift=    0.000
 RMSDP=2.20D-07 MaxDP=1.02D-05 DE=-2.16D-08 OVMax= 1.63D-05

 Cycle   7  Pass 1  IDiag  1:
 RMSU=  1.15D-07    CP:  1.00D+00  1.05D+00
 E= -40.5244305751591     Delta-E=        0.000000000133 Rises=F Damp=F
 DIIS: error= 7.17D-06 at cycle   3 NSaved=   3.
 NSaved= 3 IEnMin= 2 EnMin= -40.5244305752926     IErMin= 2 ErrMin= 6.12D-06
 ErrMax= 7.17D-06 EMaxC= 1.00D-01 BMatC= 9.81D-10 BMatP= 8.93D-10
 IDIUse=1 WtCom= 1.00D+00 WtEn= 0.00D+00
 Coeff-Com: -0.179D-01 0.528D+00 0.490D+00
 Coeff:     -0.179D-01 0.528D+00 0.490D+00
 Gap=     0.436 Goal=   None    Shift=    0.000
 RMSDP=8.40D-08 MaxDP=3.96D-06 DE= 1.33D-10 OVMax= 9.60D-06

 Cycle   8  Pass 1  IDiag  1:
 RMSU=  3.75D-08    CP:  1.00D+00  1.06D+00  6.90D-01
 E= -40.5244305761055     Delta-E=       -0.000000000946 Rises=F Damp=F
 DIIS: error= 2.94D-07 at cycle   4 NSaved=   4.
 NSaved= 4 IEnMin= 4 EnMin= -40.5244305761055     IErMin= 4 ErrMin= 2.94D-07
 ErrMax= 2.94D-07 EMaxC= 1.00D-01 BMatC= 1.94D-12 BMatP= 8.93D-10
 IDIUse=1 WtCom= 1.00D+00 WtEn= 0.00D+00
 Coeff-Com:  0.440D-03-0.346D-01 0.128D-01 0.102D+01
 Coeff:      0.440D-03-0.346D-01 0.128D-01 0.102D+01
 Gap=     0.436 Goal=   None    Shift=    0.000
 RMSDP=9.16D-09 MaxDP=4.11D-07 DE=-9.46D-10 OVMax= 4.08D-07

 SCF Done:  E(RB3PW91) =  -40.5244305761     A.U. after    8 cycles
             Convg  =    0.9155D-08             -V/T =  2.0072
 KE= 4.023548930608D+01 PE=-1.201134305551D+02 EE= 2.591812147749D+01
 Leave Link  502 at Sun Aug 18 13:29:39 2024, MaxMem=   13107200 cpu:      50.0
 (Enter /programs/64bit/g09/g09-gfortran/bin/l601.exe)
 Copying SCF densities to generalized density rwf, IOpCl= 0 IROHF=0.

 **********************************************************************

            Population analysis using the SCF density.

 **********************************************************************

 Orbital symmetries:
       Occupied  (A1) (A1) (T2) (T2) (T2)
       Virtual   (A1) (T2) (T2) (T2) (T2) (T2) (T2) (A1) (T2) (T2)
                 (T2) (E) (E) (A1) (T1) (T1) (T1) (T2) (T2) (T2)
                 (T2) (T2) (T2) (T2) (T2) (T2) (A1) (E) (E) (T2)
                 (T2) (T2) (A1) (E) (E) (T2) (T2) (T2) (T1) (T1)
                 (T1) (T2) (T2) (T2) (A1) (T1) (T1) (T1) (E) (E)
                 (T2) (T2) (T2) (T2) (T2) (T2) (E) (E) (A1) (T1)
                 (T1) (T1) (T2) (T2) (T2) (A1) (T2) (T2) (T2) (T1)
                 (T1) (T1) (T2) (T2) (T2) (A1) (T2) (T2) (T2) (E)
                 (E) (E) (E) (T2) (T2) (T2) (T1) (T1) (T1) (A2)
                 (T2) (T2) (T2) (A1) (T1) (T1) (T1) (A1) (T2) (T2)
                 (T2) (T1) (T1) (T1) (T2) (T2) (T2) (E) (E) (A1)
                 (T2) (T2) (T2) (T1) (T1) (T1) (E) (E) (T2) (T2)
                 (T2) (T2) (T2) (T2) (E) (E) (T1) (T1) (T1) (A1)
                 (T2) (T2) (T2) (A1) (E) (E) (T1) (T1) (T1) (T2)
                 (T2) (T2) (T2) (T2) (T2) (T1) (T1) (T1) (T2) (T2)
                 (T2) (E) (E) (E) (E) (T2) (T2) (T2) (A1) (T2)
                 (T2) (T2) (T1) (T1) (T1) (A1) (T2) (T2) (T2) (A1)
 The electronic state is 1-A1.
 Alpha  occ. eigenvalues --  -10.14058  -0.69807  -0.39452  -0.39452  -0.39452
 Alpha virt. eigenvalues --    0.04152   0.11625   0.11625   0.11625   0.18751
 Alpha virt. eigenvalues --    0.18751   0.18751   0.36657   0.38081   0.38081
 Alpha virt. eigenvalues --    0.38081   0.38505   0.38505   0.48455   0.67665
 Alpha virt. eigenvalues --    0.67665   0.67665   0.68680   0.68680   0.68680
 Alpha virt. eigenvalues --    0.80151   0.80151   0.80151   0.99122   0.99122
 Alpha virt. eigenvalues --    0.99122   1.01406   1.06350   1.06350   1.27277
 Alpha virt. eigenvalues --    1.27277   1.27277   1.31087   1.66715   1.66715
 Alpha virt. eigenvalues --    1.71174   1.71174   1.71174   1.80657   1.80657
 Alpha virt. eigenvalues --    1.80657   1.91216   1.91216   1.91216   2.08590
 Alpha virt. eigenvalues --    2.11390   2.11390   2.11390   2.25194   2.25194
 Alpha virt. eigenvalues --    2.33083   2.33083   2.33083   2.40578   2.40578
 Alpha virt. eigenvalues --    2.40578   2.50764   2.50764   2.54471   2.86208
 Alpha virt. eigenvalues --    2.86208   2.86208   2.93914   2.93914   2.93914
 Alpha virt. eigenvalues --    3.09381   3.17110   3.17110   3.17110   3.19294
 Alpha virt. eigenvalues --    3.19294   3.19294   3.36644   3.36644   3.36644
 Alpha virt. eigenvalues --    3.69071   3.80206   3.80206   3.80206   3.82385
 Alpha virt. eigenvalues --    3.82385   5.22769   5.22769   5.28096   5.28096
 Alpha virt. eigenvalues --    5.28096   5.35431   5.35431   5.35431   5.88618
 Alpha virt. eigenvalues --    5.89239   5.89239   5.89239   5.98561   5.98774
 Alpha virt. eigenvalues --    5.98774   5.98774   6.01493   6.04216   6.04216
 Alpha virt. eigenvalues --    6.04216   6.09555   6.09555   6.09555   6.15820
 Alpha virt. eigenvalues --    6.15820   6.15820   6.61248   6.61248   6.66702
 Alpha virt. eigenvalues --    6.69285   6.69285   6.69285   7.20579   7.20579
 Alpha virt. eigenvalues --    7.20579   7.24591   7.24591   7.26740   7.26740
 Alpha virt. eigenvalues --    7.26740   7.60685   7.60685   7.60685   7.64504
 Alpha virt. eigenvalues --    7.64504   7.66845   7.66845   7.66845   7.90328
 Alpha virt. eigenvalues --    7.92374   7.92374   7.92374   8.26329   8.27803
 Alpha virt. eigenvalues --    8.27803   8.35324   8.35324   8.35324   8.39130
 Alpha virt. eigenvalues --    8.39130   8.39130   8.48343   8.48343   8.48343
 Alpha virt. eigenvalues --    8.93448   8.93448   8.93448   9.00150   9.00150
 Alpha virt. eigenvalues --    9.00150   9.38107   9.38107   9.76831   9.76831
 Alpha virt. eigenvalues --    9.83863   9.83863   9.83863  10.03196  10.05098
 Alpha virt. eigenvalues --   10.05098  10.05098  10.47206  10.47206  10.47206
 Alpha virt. eigenvalues --   10.68837  12.30781  12.30781  12.30781  26.40393
     Molecular Orbital Coefficients:
                           1         2         3         4         5
                        (A1)--O   (A1)--O   (T2)--O   (T2)--O   (T2)--O
     Eigenvalues --   -10.14058  -0.69807  -0.39452  -0.39452  -0.39452
   1 1   C  1S          0.62675  -0.11890   0.00000   0.00000   0.00000
   2        2S         -0.39866   0.17928   0.00000   0.00000   0.00000
   3        3S          0.05323   0.19990   0.00000   0.00000   0.00000
   4        4S         -0.03093   0.42424   0.00000   0.00000   0.00000
   5        5S         -0.00159   0.11848   0.00000   0.00000   0.00000
   6        6PX         0.00000   0.00000   0.12205   0.00000   0.00000
   7        6PY         0.00000   0.00000   0.00000   0.00000   0.12205
   8        6PZ         0.00000   0.00000   0.00000   0.12205   0.00000
   9        7PX         0.00000   0.00000   0.22013   0.00000   0.00000
  10        7PY         0.00000   0.00000   0.00000   0.00000   0.22013
  11        7PZ         0.00000   0.00000   0.00000   0.22013   0.00000
  12        8PX         0.00000   0.00000   0.25123   0.00000   0.00000
  13        8PY         0.00000   0.00000   0.00000   0.00000   0.25123
  14        8PZ         0.00000   0.00000   0.00000   0.25123   0.00000
  15        9PX         0.00000   0.00000   0.09642   0.00000   0.00000
  16        9PY         0.00000   0.00000   0.00000   0.00000   0.09642
  17        9PZ         0.00000   0.00000   0.00000   0.09642   0.00000
  18       10D 0       -0.00000   0.00000   0.00000   0.00000   0.00000
  19       10D+1        0.00000   0.00000   0.00000   0.00000   0.00587
  20       10D-1        0.00000   0.00000   0.00587   0.00000   0.00000
  21       10D+2       -0.00000  -0.00000   0.00000   0.00000   0.00000
  22       10D-2        0.00000   0.00000   0.00000   0.00587   0.00000
  23       11D 0       -0.00000  -0.00000   0.00000   0.00000   0.00000
  24       11D+1        0.00000   0.00000   0.00000   0.00000   0.01103
  25       11D-1        0.00000   0.00000   0.01103   0.00000   0.00000
  26       11D+2        0.00000   0.00000   0.00000   0.00000   0.00000
  27       11D-2        0.00000   0.00000   0.00000   0.01103   0.00000
  28       12D 0       -0.00000  -0.00000   0.00000   0.00000   0.00000
  29       12D+1        0.00000   0.00000   0.00000   0.00000   0.01463
  30       12D-1        0.00000   0.00000   0.01463   0.00000   0.00000
  31       12D+2        0.00000   0.00000   0.00000   0.00000   0.00000
  32       12D-2        0.00000   0.00000   0.00000   0.01463   0.00000
  33       13F 0        0.00000   0.00000   0.00000  -0.00070   0.00000
  34       13F+1        0.00000   0.00000   0.00043   0.00000   0.00000
  35       13F-1        0.00000   0.00000   0.00000   0.00000   0.00043
  36       13F+2        0.00000   0.00000   0.00000   0.00000   0.00000
  37       13F-2        0.00247   0.00244   0.00000   0.00000   0.00000
  38       13F+3        0.00000   0.00000  -0.00055   0.00000   0.00000
  39       13F-3        0.00000   0.00000   0.00000   0.00000   0.00055
  40       14F 0        0.00000   0.00000   0.00000   0.00061   0.00000
  41       14F+1        0.00000   0.00000  -0.00037   0.00000   0.00000
  42       14F-1        0.00000   0.00000   0.00000   0.00000  -0.00037
  43       14F+2        0.00000   0.00000   0.00000   0.00000   0.00000
  44       14F-2       -0.00404   0.00904   0.00000   0.00000   0.00000
  45       14F+3        0.00000   0.00000   0.00048   0.00000   0.00000
  46       14F-3        0.00000   0.00000   0.00000   0.00000  -0.00048
  47       15G 0        0.00004  -0.00101   0.00000   0.00000   0.00000
  48       15G+1        0.00000   0.00000   0.00000   0.00000  -0.00026
  49       15G-1        0.00000   0.00000  -0.00026   0.00000   0.00000
  50       15G+2        0.00000   0.00000   0.00000   0.00000   0.00000
  51       15G-2        0.00000   0.00000   0.00000   0.00075   0.00000
  52       15G+3        0.00000   0.00000   0.00000   0.00000  -0.00070
  53       15G-3        0.00000   0.00000   0.00070   0.00000   0.00000
  54       15G+4        0.00003  -0.00086   0.00000   0.00000   0.00000
  55       15G-4        0.00000   0.00000   0.00000   0.00000   0.00000
  56 2   H  1S          0.00046   0.03264   0.03909   0.03909   0.03909
  57        2S          0.00141   0.07507   0.10502   0.10502   0.10502
  58        3S          0.00333   0.07341   0.13298   0.13298   0.13298
  59        4S          0.00005   0.00955   0.05280   0.05280   0.05280
  60        5PX        -0.00037  -0.00183   0.00015  -0.00173  -0.00173
  61        5PY        -0.00037  -0.00183  -0.00173  -0.00173   0.00015
  62        5PZ        -0.00037  -0.00183  -0.00173   0.00015  -0.00173
  63        6PX         0.00122  -0.00403  -0.00083  -0.00767  -0.00767
  64        6PY         0.00122  -0.00403  -0.00767  -0.00767  -0.00083
  65        6PZ         0.00122  -0.00403  -0.00767  -0.00083  -0.00767
  66        7PX        -0.00048  -0.00224   0.00643  -0.00577  -0.00577
  67        7PY        -0.00048  -0.00224  -0.00577  -0.00577   0.00643
  68        7PZ        -0.00048  -0.00224  -0.00577   0.00643  -0.00577
  69        8D 0        0.00000   0.00000   0.00023  -0.00045   0.00023
  70        8D+1       -0.00017   0.00041   0.00039   0.00039   0.00093
  71        8D-1       -0.00017   0.00041   0.00093   0.00039   0.00039
  72        8D+2       -0.00000   0.00000  -0.00039  -0.00000   0.00039
  73        8D-2       -0.00017   0.00041   0.00039   0.00093   0.00039
  74        9D 0       -0.00000  -0.00000   0.00085  -0.00170   0.00085
  75        9D+1       -0.00141   0.00095   0.00106   0.00106   0.00231
  76        9D-1       -0.00141   0.00095   0.00231   0.00106   0.00106
  77        9D+2        0.00000   0.00000  -0.00147   0.00000   0.00147
  78        9D-2       -0.00141   0.00095   0.00106   0.00231   0.00106
  79       10F 0       -0.00035   0.00008   0.00018   0.00034   0.00018
  80       10F+1        0.00021  -0.00005  -0.00021   0.00012  -0.00035
  81       10F-1        0.00021  -0.00005  -0.00035   0.00012  -0.00021
  82       10F+2       -0.00000  -0.00000   0.00030  -0.00000  -0.00030
  83       10F-2        0.00087  -0.00023  -0.00054  -0.00054  -0.00054
  84       10F+3       -0.00027   0.00007   0.00027   0.00033  -0.00004
  85       10F-3        0.00027  -0.00007   0.00004  -0.00033  -0.00027
  86 3   H  1S          0.00046   0.03264  -0.03909   0.03909  -0.03909
  87        2S          0.00141   0.07507  -0.10502   0.10502  -0.10502
  88        3S          0.00333   0.07341  -0.13298   0.13298  -0.13298
  89        4S          0.00005   0.00955  -0.05280   0.05280  -0.05280
  90        5PX         0.00037   0.00183   0.00015   0.00173  -0.00173
  91        5PY         0.00037   0.00183  -0.00173   0.00173   0.00015
  92        5PZ        -0.00037  -0.00183   0.00173   0.00015   0.00173
  93        6PX        -0.00122   0.00403  -0.00083   0.00767  -0.00767
  94        6PY        -0.00122   0.00403  -0.00767   0.00767  -0.00083
  95        6PZ         0.00122  -0.00403   0.00767  -0.00083   0.00767
  96        7PX         0.00048   0.00224   0.00643   0.00577  -0.00577
  97        7PY         0.00048   0.00224  -0.00577   0.00577   0.00643
  98        7PZ        -0.00048  -0.00224   0.00577   0.00643   0.00577
  99        8D 0        0.00000   0.00000  -0.00023  -0.00045  -0.00023
 100        8D+1        0.00017  -0.00041   0.00039  -0.00039   0.00093
 101        8D-1        0.00017  -0.00041   0.00093  -0.00039   0.00039
 102        8D+2       -0.00000   0.00000   0.00039  -0.00000  -0.00039
 103        8D-2       -0.00017   0.00041  -0.00039   0.00093  -0.00039
 104        9D 0       -0.00000  -0.00000  -0.00085  -0.00170  -0.00085
 105        9D+1        0.00141  -0.00095   0.00106  -0.00106   0.00231
 106        9D-1        0.00141  -0.00095   0.00231  -0.00106   0.00106
 107        9D+2        0.00000   0.00000   0.00147   0.00000  -0.00147
 108        9D-2       -0.00141   0.00095  -0.00106   0.00231  -0.00106
 109       10F 0       -0.00035   0.00008  -0.00018   0.00034  -0.00018
 110       10F+1       -0.00021   0.00005  -0.00021  -0.00012  -0.00035
 111       10F-1       -0.00021   0.00005  -0.00035  -0.00012  -0.00021
 112       10F+2       -0.00000  -0.00000  -0.00030  -0.00000   0.00030
 113       10F-2        0.00087  -0.00023   0.00054  -0.00054   0.00054
 114       10F+3        0.00027  -0.00007   0.00027  -0.00033  -0.00004
 115       10F-3       -0.00027   0.00007   0.00004   0.00033  -0.00027
 116 4   H  1S          0.00046   0.03264  -0.03909  -0.03909   0.03909
 117        2S          0.00141   0.07507  -0.10502  -0.10502   0.10502
 118        3S          0.00333   0.07341  -0.13298  -0.13298   0.13298
 119        4S          0.00005   0.00955  -0.05280  -0.05280   0.05280
 120        5PX         0.00037   0.00183   0.00015  -0.00173   0.00173
 121        5PY        -0.00037  -0.00183   0.00173   0.00173   0.00015
 122        5PZ         0.00037   0.00183  -0.00173   0.00015   0.00173
 123        6PX        -0.00122   0.00403  -0.00083  -0.00767   0.00767
 124        6PY         0.00122  -0.00403   0.00767   0.00767  -0.00083
 125        6PZ        -0.00122   0.00403  -0.00767  -0.00083   0.00767
 126        7PX         0.00048   0.00224   0.00643  -0.00577   0.00577
 127        7PY        -0.00048  -0.00224   0.00577   0.00577   0.00643
 128        7PZ         0.00048   0.00224  -0.00577   0.00643   0.00577
 129        8D 0        0.00000   0.00000  -0.00023   0.00045   0.00023
 130        8D+1       -0.00017   0.00041  -0.00039  -0.00039   0.00093
 131        8D-1        0.00017  -0.00041   0.00093   0.00039  -0.00039
 132        8D+2       -0.00000   0.00000   0.00039   0.00000   0.00039
 133        8D-2        0.00017  -0.00041   0.00039   0.00093  -0.00039
 134        9D 0       -0.00000  -0.00000  -0.00085   0.00170   0.00085
 135        9D+1       -0.00141   0.00095  -0.00106  -0.00106   0.00231
 136        9D-1        0.00141  -0.00095   0.00231   0.00106  -0.00106
 137        9D+2        0.00000   0.00000   0.00147  -0.00000   0.00147
 138        9D-2        0.00141  -0.00095   0.00106   0.00231  -0.00106
 139       10F 0        0.00035  -0.00008   0.00018   0.00034  -0.00018
 140       10F+1       -0.00021   0.00005  -0.00021   0.00012   0.00035
 141       10F-1        0.00021  -0.00005   0.00035  -0.00012  -0.00021
 142       10F+2        0.00000   0.00000   0.00030  -0.00000   0.00030
 143       10F-2        0.00087  -0.00023   0.00054   0.00054  -0.00054
 144       10F+3        0.00027  -0.00007   0.00027   0.00033   0.00004
 145       10F-3        0.00027  -0.00007  -0.00004   0.00033  -0.00027
 146 5   H  1S          0.00046   0.03264   0.03909  -0.03909  -0.03909
 147        2S          0.00141   0.07507   0.10502  -0.10502  -0.10502
 148        3S          0.00333   0.07341   0.13298  -0.13298  -0.13298
 149        4S          0.00005   0.00955   0.05280  -0.05280  -0.05280
 150        5PX        -0.00037  -0.00183   0.00015   0.00173   0.00173
 151        5PY         0.00037   0.00183   0.00173  -0.00173   0.00015
 152        5PZ         0.00037   0.00183   0.00173   0.00015  -0.00173
 153        6PX         0.00122  -0.00403  -0.00083   0.00767   0.00767
 154        6PY        -0.00122   0.00403   0.00767  -0.00767  -0.00083
 155        6PZ        -0.00122   0.00403   0.00767  -0.00083  -0.00767
 156        7PX        -0.00048  -0.00224   0.00643   0.00577   0.00577
 157        7PY         0.00048   0.00224   0.00577  -0.00577   0.00643
 158        7PZ         0.00048   0.00224   0.00577   0.00643  -0.00577
 159        8D 0        0.00000   0.00000   0.00023   0.00045  -0.00023
 160        8D+1        0.00017  -0.00041  -0.00039   0.00039   0.00093
 161        8D-1       -0.00017   0.00041   0.00093  -0.00039  -0.00039
 162        8D+2       -0.00000   0.00000  -0.00039   0.00000  -0.00039
 163        8D-2        0.00017  -0.00041  -0.00039   0.00093   0.00039
 164        9D 0       -0.00000  -0.00000   0.00085   0.00170  -0.00085
 165        9D+1        0.00141  -0.00095  -0.00106   0.00106   0.00231
 166        9D-1       -0.00141   0.00095   0.00231  -0.00106  -0.00106
 167        9D+2        0.00000   0.00000  -0.00147  -0.00000  -0.00147
 168        9D-2        0.00141  -0.00095  -0.00106   0.00231   0.00106
 169       10F 0        0.00035  -0.00008  -0.00018   0.00034   0.00018
 170       10F+1        0.00021  -0.00005  -0.00021  -0.00012   0.00035
 171       10F-1       -0.00021   0.00005   0.00035   0.00012  -0.00021
 172       10F+2        0.00000   0.00000  -0.00030  -0.00000  -0.00030
 173       10F-2        0.00087  -0.00023  -0.00054   0.00054   0.00054
 174       10F+3       -0.00027   0.00007   0.00027  -0.00033   0.00004
 175       10F-3       -0.00027   0.00007  -0.00004  -0.00033  -0.00027
                           6         7         8         9        10
                        (A1)--V   (T2)--V   (T2)--V   (T2)--V   (T2)--V
     Eigenvalues --     0.04152   0.11625   0.11625   0.11625   0.18751
   1 1   C  1S         -0.05763   0.00000   0.00000   0.00000   0.00000
   2        2S          0.09130   0.00000   0.00000   0.00000   0.00000
   3        3S         -0.07177   0.00000   0.00000   0.00000   0.00000
   4        4S          1.75880   0.00000   0.00000   0.00000   0.00000
   5        5S          4.69631   0.00000   0.00000   0.00000   0.00000
   6        6PX         0.00000   0.00000  -0.08374   0.00000  -0.04176
   7        6PY         0.00000   0.00000   0.00000  -0.08374   0.00000
   8        6PZ         0.00000  -0.08374   0.00000   0.00000   0.00000
   9        7PX         0.00000   0.00000  -0.14290   0.00000   0.00199
  10        7PY         0.00000   0.00000   0.00000  -0.14290   0.00000
  11        7PZ         0.00000  -0.14290   0.00000   0.00000   0.00000
  12        8PX         0.00000   0.00000  -0.63736   0.00000   1.93052
  13        8PY         0.00000   0.00000   0.00000  -0.63736   0.00000
  14        8PZ         0.00000  -0.63736   0.00000   0.00000   0.00000
  15        9PX         0.00000   0.00000  -1.81442   0.00000   2.79624
  16        9PY         0.00000   0.00000   0.00000  -1.81442   0.00000
  17        9PZ         0.00000  -1.81442   0.00000   0.00000   0.00000
  18       10D 0        0.00000   0.00000   0.00000   0.00000   0.00000
  19       10D+1        0.00000   0.00000   0.00000   0.00163   0.00000
  20       10D-1        0.00000   0.00000   0.00163   0.00000  -0.01583
  21       10D+2       -0.00000   0.00000   0.00000   0.00000   0.00000
  22       10D-2        0.00000   0.00163   0.00000   0.00000   0.00000
  23       11D 0       -0.00000   0.00000   0.00000   0.00000   0.00000
  24       11D+1        0.00000   0.00000   0.00000   0.02279   0.00000
  25       11D-1        0.00000   0.00000   0.02279   0.00000   0.17440
  26       11D+2        0.00000   0.00000   0.00000   0.00000   0.00000
  27       11D-2        0.00000   0.02279   0.00000   0.00000   0.00000
  28       12D 0       -0.00000   0.00000   0.00000   0.00000   0.00000
  29       12D+1        0.00000   0.00000   0.00000  -0.18553   0.00000
  30       12D-1        0.00000   0.00000  -0.18553   0.00000   0.82998
  31       12D+2       -0.00000   0.00000   0.00000   0.00000   0.00000
  32       12D-2        0.00000  -0.18553   0.00000   0.00000   0.00000
  33       13F 0        0.00000  -0.00197   0.00000   0.00000   0.00000
  34       13F+1        0.00000   0.00000   0.00120   0.00000   0.00549
  35       13F-1        0.00000   0.00000   0.00000   0.00120   0.00000
  36       13F+2        0.00000   0.00000   0.00000   0.00000   0.00000
  37       13F-2        0.00382   0.00000   0.00000   0.00000   0.00000
  38       13F+3        0.00000   0.00000  -0.00155   0.00000  -0.00709
  39       13F-3        0.00000   0.00000   0.00000   0.00155   0.00000
  40       14F 0        0.00000  -0.00597   0.00000   0.00000   0.00000
  41       14F+1        0.00000   0.00000   0.00366   0.00000   0.03261
  42       14F-1        0.00000   0.00000   0.00000   0.00366   0.00000
  43       14F+2        0.00000   0.00000   0.00000   0.00000   0.00000
  44       14F-2        0.09192   0.00000   0.00000   0.00000   0.00000
  45       14F+3        0.00000   0.00000  -0.00472   0.00000  -0.04211
  46       14F-3        0.00000   0.00000   0.00000   0.00472   0.00000
  47       15G 0       -0.00585   0.00000   0.00000   0.00000   0.00000
  48       15G+1        0.00000   0.00000   0.00000   0.00070   0.00000
  49       15G-1        0.00000   0.00000   0.00070   0.00000  -0.00555
  50       15G+2        0.00000   0.00000   0.00000   0.00000   0.00000
  51       15G-2        0.00000  -0.00198   0.00000   0.00000   0.00000
  52       15G+3        0.00000   0.00000   0.00000   0.00185   0.00000
  53       15G-3        0.00000   0.00000  -0.00185   0.00000   0.01468
  54       15G+4       -0.00495   0.00000   0.00000   0.00000   0.00000
  55       15G-4        0.00000   0.00000   0.00000   0.00000   0.00000
  56 2   H  1S          0.00062   0.00443   0.00443   0.00443  -0.02099
  57        2S         -0.02793   0.02200   0.02200   0.02200  -0.03116
  58        3S         -0.78814   0.33411   0.33411   0.33411  -2.15636
  59        4S         -1.20568   1.84322   1.84322   1.84322  -0.63891
  60        5PX        -0.00218  -0.00014  -0.00114  -0.00014  -0.00791
  61        5PY        -0.00218  -0.00014  -0.00014  -0.00114  -0.00866
  62        5PZ        -0.00218  -0.00114  -0.00014  -0.00014  -0.00866
  63        6PX         0.01198   0.01958   0.00789   0.01958   0.07908
  64        6PY         0.01198   0.01958   0.01958   0.00789   0.06216
  65        6PZ         0.01198   0.00789   0.01958   0.01958   0.06216
  66        7PX         0.19842  -0.11591  -0.08322  -0.11591   0.26355
  67        7PY         0.19842  -0.11591  -0.11591  -0.08322   0.37769
  68        7PZ         0.19842  -0.08322  -0.11591  -0.11591   0.37769
  69        8D 0        0.00000   0.00031  -0.00015  -0.00015   0.00016
  70        8D+1        0.00112  -0.00110  -0.00110  -0.00195  -0.00211
  71        8D-1        0.00112  -0.00110  -0.00195  -0.00110   0.00300
  72        8D+2        0.00000   0.00000   0.00027  -0.00027  -0.00028
  73        8D-2        0.00112  -0.00195  -0.00110  -0.00110  -0.00211
  74        9D 0       -0.00000  -0.00155   0.00077   0.00077  -0.00454
  75        9D+1       -0.02111   0.00466   0.00466   0.01278  -0.03421
  76        9D-1       -0.02111   0.00466   0.01278   0.00466  -0.07121
  77        9D+2        0.00000   0.00000  -0.00134   0.00134   0.00787
  78        9D-2       -0.02111   0.01278   0.00466   0.00466  -0.03421
  79       10F 0       -0.00076   0.00017  -0.00018  -0.00018  -0.00309
  80       10F+1        0.00047   0.00063  -0.00010  -0.00041   0.00178
  81       10F-1        0.00047   0.00063  -0.00041  -0.00010   0.00265
  82       10F+2       -0.00000  -0.00000   0.00066  -0.00066  -0.00096
  83       10F-2        0.00184   0.00046   0.00046   0.00046   0.00556
  84       10F+3       -0.00060   0.00026   0.00013  -0.00055  -0.00230
  85       10F-3        0.00060  -0.00026   0.00055  -0.00013   0.00185
  86 3   H  1S          0.00062   0.00443  -0.00443  -0.00443   0.02099
  87        2S         -0.02793   0.02200  -0.02200  -0.02200   0.03116
  88        3S         -0.78814   0.33411  -0.33411  -0.33411   2.15636
  89        4S         -1.20568   1.84322  -1.84322  -1.84322   0.63891
  90        5PX         0.00218   0.00014  -0.00114  -0.00014  -0.00791
  91        5PY         0.00218   0.00014  -0.00014  -0.00114  -0.00866
  92        5PZ        -0.00218  -0.00114   0.00014   0.00014   0.00866
  93        6PX        -0.01198  -0.01958   0.00789   0.01958   0.07908
  94        6PY        -0.01198  -0.01958   0.01958   0.00789   0.06216
  95        6PZ         0.01198   0.00789  -0.01958  -0.01958  -0.06216
  96        7PX        -0.19842   0.11591  -0.08322  -0.11591   0.26355
  97        7PY        -0.19842   0.11591  -0.11591  -0.08322   0.37769
  98        7PZ         0.19842  -0.08322   0.11591   0.11591  -0.37769
  99        8D 0        0.00000   0.00031   0.00015   0.00015  -0.00016
 100        8D+1       -0.00112   0.00110  -0.00110  -0.00195  -0.00211
 101        8D-1       -0.00112   0.00110  -0.00195  -0.00110   0.00300
 102        8D+2        0.00000   0.00000  -0.00027   0.00027   0.00028
 103        8D-2        0.00112  -0.00195   0.00110   0.00110   0.00211
 104        9D 0       -0.00000  -0.00155  -0.00077  -0.00077   0.00454
 105        9D+1        0.02111  -0.00466   0.00466   0.01278  -0.03421
 106        9D-1        0.02111  -0.00466   0.01278   0.00466  -0.07121
 107        9D+2        0.00000   0.00000   0.00134  -0.00134  -0.00787
 108        9D-2       -0.02111   0.01278  -0.00466  -0.00466   0.03421
 109       10F 0       -0.00076   0.00017   0.00018   0.00018   0.00309
 110       10F+1       -0.00047  -0.00063  -0.00010  -0.00041   0.00178
 111       10F-1       -0.00047  -0.00063  -0.00041  -0.00010   0.00265
 112       10F+2       -0.00000  -0.00000  -0.00066   0.00066   0.00096
 113       10F-2        0.00184   0.00046  -0.00046  -0.00046  -0.00556
 114       10F+3        0.00060  -0.00026   0.00013  -0.00055  -0.00230
 115       10F-3       -0.00060   0.00026   0.00055  -0.00013   0.00185
 116 4   H  1S          0.00062  -0.00443  -0.00443   0.00443   0.02099
 117        2S         -0.02793  -0.02200  -0.02200   0.02200   0.03116
 118        3S         -0.78814  -0.33411  -0.33411   0.33411   2.15636
 119        4S         -1.20568  -1.84322  -1.84322   1.84322   0.63891
 120        5PX         0.00218  -0.00014  -0.00114   0.00014  -0.00791
 121        5PY        -0.00218   0.00014   0.00014  -0.00114   0.00866
 122        5PZ         0.00218  -0.00114  -0.00014   0.00014  -0.00866
 123        6PX        -0.01198   0.01958   0.00789  -0.01958   0.07908
 124        6PY         0.01198  -0.01958  -0.01958   0.00789  -0.06216
 125        6PZ        -0.01198   0.00789   0.01958  -0.01958   0.06216
 126        7PX        -0.19842  -0.11591  -0.08322   0.11591   0.26355
 127        7PY         0.19842   0.11591   0.11591  -0.08322  -0.37769
 128        7PZ        -0.19842  -0.08322  -0.11591   0.11591   0.37769
 129        8D 0        0.00000  -0.00031   0.00015  -0.00015  -0.00016
 130        8D+1        0.00112   0.00110   0.00110  -0.00195   0.00211
 131        8D-1       -0.00112  -0.00110  -0.00195   0.00110   0.00300
 132        8D+2        0.00000  -0.00000  -0.00027  -0.00027   0.00028
 133        8D-2       -0.00112  -0.00195  -0.00110   0.00110  -0.00211
 134        9D 0       -0.00000   0.00155  -0.00077   0.00077   0.00454
 135        9D+1       -0.02111  -0.00466  -0.00466   0.01278   0.03421
 136        9D-1        0.02111   0.00466   0.01278  -0.00466  -0.07121
 137        9D+2        0.00000  -0.00000   0.00134   0.00134  -0.00787
 138        9D-2        0.02111   0.01278   0.00466  -0.00466  -0.03421
 139       10F 0        0.00076   0.00017  -0.00018   0.00018  -0.00309
 140       10F+1       -0.00047   0.00063  -0.00010   0.00041   0.00178
 141       10F-1        0.00047  -0.00063   0.00041  -0.00010  -0.00265
 142       10F+2        0.00000  -0.00000   0.00066   0.00066  -0.00096
 143       10F-2        0.00184  -0.00046  -0.00046   0.00046  -0.00556
 144       10F+3        0.00060   0.00026   0.00013   0.00055  -0.00230
 145       10F-3        0.00060   0.00026  -0.00055  -0.00013  -0.00185
 146 5   H  1S          0.00062  -0.00443   0.00443  -0.00443  -0.02099
 147        2S         -0.02793  -0.02200   0.02200  -0.02200  -0.03116
 148        3S         -0.78814  -0.33411   0.33411  -0.33411  -2.15636
 149        4S         -1.20568  -1.84322   1.84322  -1.84322  -0.63891
 150        5PX        -0.00218   0.00014  -0.00114   0.00014  -0.00791
 151        5PY         0.00218  -0.00014   0.00014  -0.00114   0.00866
 152        5PZ         0.00218  -0.00114   0.00014  -0.00014   0.00866
 153        6PX         0.01198  -0.01958   0.00789  -0.01958   0.07908
 154        6PY        -0.01198   0.01958  -0.01958   0.00789  -0.06216
 155        6PZ        -0.01198   0.00789  -0.01958   0.01958  -0.06216
 156        7PX         0.19842   0.11591  -0.08322   0.11591   0.26355
 157        7PY        -0.19842  -0.11591   0.11591  -0.08322  -0.37769
 158        7PZ        -0.19842  -0.08322   0.11591  -0.11591  -0.37769
 159        8D 0        0.00000  -0.00031  -0.00015   0.00015   0.00016
 160        8D+1       -0.00112  -0.00110   0.00110  -0.00195   0.00211
 161        8D-1        0.00112   0.00110  -0.00195   0.00110   0.00300
 162        8D+2        0.00000  -0.00000   0.00027   0.00027  -0.00028
 163        8D-2       -0.00112  -0.00195   0.00110  -0.00110   0.00211
 164        9D 0       -0.00000   0.00155   0.00077  -0.00077  -0.00454
 165        9D+1        0.02111   0.00466  -0.00466   0.01278   0.03421
 166        9D-1       -0.02111  -0.00466   0.01278  -0.00466  -0.07121
 167        9D+2        0.00000  -0.00000  -0.00134  -0.00134   0.00787
 168        9D-2        0.02111   0.01278  -0.00466   0.00466   0.03421
 169       10F 0        0.00076   0.00017   0.00018  -0.00018   0.00309
 170       10F+1        0.00047  -0.00063  -0.00010   0.00041   0.00178
 171       10F-1       -0.00047   0.00063   0.00041  -0.00010  -0.00265
 172       10F+2        0.00000  -0.00000  -0.00066  -0.00066   0.00096
 173       10F-2        0.00184  -0.00046   0.00046  -0.00046   0.00556
 174       10F+3       -0.00060  -0.00026   0.00013   0.00055  -0.00230
 175       10F-3       -0.00060  -0.00026  -0.00055  -0.00013  -0.00185
                          11        12        13        14        15
                        (T2)--V   (T2)--V   (A1)--V   (T2)--V   (T2)--V
     Eigenvalues --     0.18751   0.18751   0.36657   0.38081   0.38081
   1 1   C  1S          0.00000   0.00000   0.08926   0.00000   0.00000
   2        2S          0.00000   0.00000  -0.15488   0.00000   0.00000
   3        3S          0.00000   0.00000  -0.91552   0.00000   0.00000
   4        4S          0.00000   0.00000   4.77573   0.00000   0.00000
   5        5S          0.00000   0.00000  11.91065   0.00000   0.00000
   6        6PX         0.00000   0.00000   0.00000   0.00000  -0.12130
   7        6PY        -0.04176   0.00000   0.00000   0.00000   0.00000
   8        6PZ         0.00000  -0.04176   0.00000  -0.12130   0.00000
   9        7PX         0.00000   0.00000   0.00000   0.00000  -0.23795
  10        7PY         0.00199   0.00000   0.00000   0.00000   0.00000
  11        7PZ         0.00000   0.00199   0.00000  -0.23795   0.00000
  12        8PX         0.00000   0.00000   0.00000   0.00000   2.12883
  13        8PY         1.93052   0.00000   0.00000   0.00000   0.00000
  14        8PZ         0.00000   1.93052   0.00000   2.12883   0.00000
  15        9PX         0.00000   0.00000   0.00000   0.00000   3.77415
  16        9PY         2.79624   0.00000   0.00000   0.00000   0.00000
  17        9PZ         0.00000   2.79624   0.00000   3.77415   0.00000
  18       10D 0        0.00000   0.00000   0.00000   0.00000   0.00000
  19       10D+1       -0.01583   0.00000   0.00000   0.00000   0.00000
  20       10D-1        0.00000   0.00000   0.00000   0.00000   0.01060
  21       10D+2        0.00000   0.00000  -0.00000   0.00000   0.00000
  22       10D-2        0.00000  -0.01583   0.00000   0.01060   0.00000
  23       11D 0        0.00000   0.00000  -0.00000   0.00000   0.00000
  24       11D+1        0.17440   0.00000   0.00000   0.00000   0.00000
  25       11D-1        0.00000   0.00000   0.00000   0.00000   0.14529
  26       11D+2        0.00000   0.00000   0.00000   0.00000   0.00000
  27       11D-2        0.00000   0.17440   0.00000   0.14529   0.00000
  28       12D 0        0.00000   0.00000  -0.00000   0.00000   0.00000
  29       12D+1        0.82998   0.00000   0.00000   0.00000   0.00000
  30       12D-1        0.00000   0.00000   0.00000   0.00000   1.35433
  31       12D+2        0.00000   0.00000  -0.00000   0.00000   0.00000
  32       12D-2        0.00000   0.82998   0.00000   1.35433   0.00000
  33       13F 0        0.00000  -0.00897   0.00000  -0.00378   0.00000
  34       13F+1        0.00000   0.00000   0.00000   0.00000   0.00232
  35       13F-1        0.00549   0.00000   0.00000   0.00000   0.00000
  36       13F+2        0.00000  -0.00000   0.00000  -0.00000   0.00000
  37       13F-2        0.00000   0.00000   0.01754   0.00000   0.00000
  38       13F+3        0.00000   0.00000   0.00000   0.00000  -0.00299
  39       13F-3        0.00709   0.00000   0.00000   0.00000   0.00000
  40       14F 0        0.00000  -0.05326   0.00000  -0.02605   0.00000
  41       14F+1        0.00000   0.00000   0.00000   0.00000   0.01595
  42       14F-1        0.03261   0.00000   0.00000   0.00000   0.00000
  43       14F+2        0.00000  -0.00000   0.00000  -0.00000   0.00000
  44       14F-2        0.00000   0.00000   0.35326   0.00000   0.00000
  45       14F+3        0.00000   0.00000   0.00000   0.00000  -0.02059
  46       14F-3        0.04211   0.00000   0.00000   0.00000   0.00000
  47       15G 0        0.00000   0.00000  -0.02331   0.00000   0.00000
  48       15G+1       -0.00555   0.00000   0.00000   0.00000   0.00000
  49       15G-1        0.00000   0.00000   0.00000   0.00000  -0.00585
  50       15G+2        0.00000   0.00000   0.00000   0.00000   0.00000
  51       15G-2        0.00000   0.01570   0.00000   0.01654   0.00000
  52       15G+3       -0.01468   0.00000   0.00000   0.00000   0.00000
  53       15G-3        0.00000   0.00000   0.00000   0.00000   0.01547
  54       15G+4        0.00000   0.00000  -0.01970   0.00000   0.00000
  55       15G-4        0.00000  -0.00000   0.00000  -0.00000   0.00000
  56 2   H  1S         -0.02099  -0.02099   0.02543   0.03187   0.03187
  57        2S         -0.03116  -0.03116  -0.03784   0.06839   0.06839
  58        3S         -2.15636  -2.15636  -2.67219  -1.74178  -1.74178
  59        4S         -0.63891  -0.63891  -1.97895  -2.48641  -2.48641
  60        5PX        -0.00866  -0.00866  -0.00126   0.00455  -0.00214
  61        5PY        -0.00791  -0.00866  -0.00126   0.00455   0.00455
  62        5PZ        -0.00866  -0.00791  -0.00126  -0.00214   0.00455
  63        6PX         0.06216   0.06216   0.08395   0.01592   0.01775
  64        6PY         0.07908   0.06216   0.08395   0.01592   0.01592
  65        6PZ         0.06216   0.07908   0.08395   0.01775   0.01592
  66        7PX         0.37769   0.37769   0.79833   0.68769   0.41046
  67        7PY         0.26355   0.37769   0.79833   0.68769   0.68769
  68        7PZ         0.37769   0.26355   0.79833   0.41046   0.68769
  69        8D 0        0.00016  -0.00033   0.00000   0.00097  -0.00049
  70        8D+1        0.00300  -0.00211   0.00178   0.00177   0.00177
  71        8D-1       -0.00211  -0.00211   0.00178   0.00177   0.00502
  72        8D+2        0.00028  -0.00000   0.00000  -0.00000   0.00084
  73        8D-2       -0.00211   0.00300   0.00178   0.00502   0.00177
  74        9D 0       -0.00454   0.00909  -0.00000   0.02141  -0.01070
  75        9D+1       -0.07121  -0.03421  -0.07991  -0.03285  -0.03285
  76        9D-1       -0.03421  -0.03421  -0.07991  -0.03285  -0.07547
  77        9D+2       -0.00787  -0.00000   0.00000  -0.00000   0.01854
  78        9D-2       -0.03421  -0.07121  -0.07991  -0.07547  -0.03285
  79       10F 0       -0.00309  -0.00291  -0.00315  -0.00322  -0.00076
  80       10F+1        0.00265   0.00113   0.00193  -0.00215   0.00197
  81       10F-1        0.00178   0.00113   0.00193  -0.00215   0.00308
  82       10F+2        0.00096   0.00000  -0.00000   0.00000  -0.00331
  83       10F-2        0.00556   0.00556   0.00677   0.00182   0.00182
  84       10F+3       -0.00185  -0.00303  -0.00249  -0.00263  -0.00255
  85       10F-3        0.00230   0.00303   0.00249   0.00263  -0.00142
  86 3   H  1S          0.02099  -0.02099   0.02543   0.03187  -0.03187
  87        2S          0.03116  -0.03116  -0.03784   0.06839  -0.06839
  88        3S          2.15636  -2.15636  -2.67219  -1.74178   1.74178
  89        4S          0.63891  -0.63891  -1.97895  -2.48641   2.48641
  90        5PX        -0.00866   0.00866   0.00126  -0.00455  -0.00214
  91        5PY        -0.00791   0.00866   0.00126  -0.00455   0.00455
  92        5PZ         0.00866  -0.00791  -0.00126  -0.00214  -0.00455
  93        6PX         0.06216  -0.06216  -0.08395  -0.01592   0.01775
  94        6PY         0.07908  -0.06216  -0.08395  -0.01592   0.01592
  95        6PZ        -0.06216   0.07908   0.08395   0.01775  -0.01592
  96        7PX         0.37769  -0.37769  -0.79833  -0.68769   0.41046
  97        7PY         0.26355  -0.37769  -0.79833  -0.68769   0.68769
  98        7PZ        -0.37769   0.26355   0.79833   0.41046  -0.68769
  99        8D 0       -0.00016  -0.00033   0.00000   0.00097   0.00049
 100        8D+1        0.00300   0.00211  -0.00178  -0.00177   0.00177
 101        8D-1       -0.00211   0.00211  -0.00178  -0.00177   0.00502
 102        8D+2       -0.00028  -0.00000   0.00000  -0.00000  -0.00084
 103        8D-2        0.00211   0.00300   0.00178   0.00502  -0.00177
 104        9D 0        0.00454   0.00909  -0.00000   0.02141   0.01070
 105        9D+1       -0.07121   0.03421   0.07991   0.03285  -0.03285
 106        9D-1       -0.03421   0.03421   0.07991   0.03285  -0.07547
 107        9D+2        0.00787  -0.00000   0.00000  -0.00000  -0.01854
 108        9D-2        0.03421  -0.07121  -0.07991  -0.07547   0.03285
 109       10F 0        0.00309  -0.00291  -0.00315  -0.00322   0.00076
 110       10F+1        0.00265  -0.00113  -0.00193   0.00215   0.00197
 111       10F-1        0.00178  -0.00113  -0.00193   0.00215   0.00308
 112       10F+2       -0.00096   0.00000  -0.00000   0.00000   0.00331
 113       10F-2       -0.00556   0.00556   0.00677   0.00182  -0.00182
 114       10F+3       -0.00185   0.00303   0.00249   0.00263  -0.00255
 115       10F-3        0.00230  -0.00303  -0.00249  -0.00263  -0.00142
 116 4   H  1S         -0.02099   0.02099   0.02543  -0.03187  -0.03187
 117        2S         -0.03116   0.03116  -0.03784  -0.06839  -0.06839
 118        3S         -2.15636   2.15636  -2.67219   1.74178   1.74178
 119        4S         -0.63891   0.63891  -1.97895   2.48641   2.48641
 120        5PX         0.00866  -0.00866   0.00126   0.00455  -0.00214
 121        5PY        -0.00791   0.00866  -0.00126  -0.00455  -0.00455
 122        5PZ         0.00866  -0.00791   0.00126  -0.00214   0.00455
 123        6PX        -0.06216   0.06216  -0.08395   0.01592   0.01775
 124        6PY         0.07908  -0.06216   0.08395  -0.01592  -0.01592
 125        6PZ        -0.06216   0.07908  -0.08395   0.01775   0.01592
 126        7PX        -0.37769   0.37769  -0.79833   0.68769   0.41046
 127        7PY         0.26355  -0.37769   0.79833  -0.68769  -0.68769
 128        7PZ        -0.37769   0.26355  -0.79833   0.41046   0.68769
 129        8D 0        0.00016   0.00033   0.00000  -0.00097   0.00049
 130        8D+1        0.00300   0.00211   0.00178  -0.00177  -0.00177
 131        8D-1        0.00211  -0.00211  -0.00178   0.00177   0.00502
 132        8D+2        0.00028   0.00000   0.00000   0.00000  -0.00084
 133        8D-2        0.00211   0.00300  -0.00178   0.00502   0.00177
 134        9D 0       -0.00454  -0.00909  -0.00000  -0.02141   0.01070
 135        9D+1       -0.07121   0.03421  -0.07991   0.03285   0.03285
 136        9D-1        0.03421  -0.03421   0.07991  -0.03285  -0.07547
 137        9D+2       -0.00787   0.00000   0.00000   0.00000  -0.01854
 138        9D-2        0.03421  -0.07121   0.07991  -0.07547  -0.03285
 139       10F 0        0.00309  -0.00291   0.00315  -0.00322  -0.00076
 140       10F+1       -0.00265   0.00113  -0.00193  -0.00215   0.00197
 141       10F-1        0.00178  -0.00113   0.00193   0.00215  -0.00308
 142       10F+2       -0.00096   0.00000   0.00000   0.00000  -0.00331
 143       10F-2        0.00556  -0.00556   0.00677  -0.00182  -0.00182
 144       10F+3        0.00185  -0.00303   0.00249  -0.00263  -0.00255
 145       10F-3        0.00230  -0.00303   0.00249  -0.00263   0.00142
 146 5   H  1S          0.02099   0.02099   0.02543  -0.03187   0.03187
 147        2S          0.03116   0.03116  -0.03784  -0.06839   0.06839
 148        3S          2.15636   2.15636  -2.67219   1.74178  -1.74178
 149        4S          0.63891   0.63891  -1.97895   2.48641  -2.48641
 150        5PX         0.00866   0.00866  -0.00126  -0.00455  -0.00214
 151        5PY        -0.00791  -0.00866   0.00126   0.00455  -0.00455
 152        5PZ        -0.00866  -0.00791   0.00126  -0.00214  -0.00455
 153        6PX        -0.06216  -0.06216   0.08395  -0.01592   0.01775
 154        6PY         0.07908   0.06216  -0.08395   0.01592  -0.01592
 155        6PZ         0.06216   0.07908  -0.08395   0.01775  -0.01592
 156        7PX        -0.37769  -0.37769   0.79833  -0.68769   0.41046
 157        7PY         0.26355   0.37769  -0.79833   0.68769  -0.68769
 158        7PZ         0.37769   0.26355  -0.79833   0.41046  -0.68769
 159        8D 0       -0.00016   0.00033   0.00000  -0.00097  -0.00049
 160        8D+1        0.00300  -0.00211  -0.00178   0.00177  -0.00177
 161        8D-1        0.00211   0.00211   0.00178  -0.00177   0.00502
 162        8D+2       -0.00028   0.00000   0.00000   0.00000   0.00084
 163        8D-2       -0.00211   0.00300  -0.00178   0.00502  -0.00177
 164        9D 0        0.00454  -0.00909  -0.00000  -0.02141  -0.01070
 165        9D+1       -0.07121  -0.03421   0.07991  -0.03285   0.03285
 166        9D-1        0.03421   0.03421  -0.07991   0.03285  -0.07547
 167        9D+2        0.00787   0.00000   0.00000   0.00000   0.01854
 168        9D-2       -0.03421  -0.07121   0.07991  -0.07547   0.03285
 169       10F 0       -0.00309  -0.00291   0.00315  -0.00322   0.00076
 170       10F+1       -0.00265  -0.00113   0.00193   0.00215   0.00197
 171       10F-1        0.00178   0.00113  -0.00193  -0.00215  -0.00308
 172       10F+2        0.00096   0.00000   0.00000   0.00000   0.00331
 173       10F-2       -0.00556  -0.00556   0.00677  -0.00182   0.00182
 174       10F+3        0.00185   0.00303  -0.00249   0.00263  -0.00255
 175       10F-3        0.00230   0.00303  -0.00249   0.00263   0.00142
                          16        17        18        19        20
                        (T2)--V   (E)--V    (E)--V    (A1)--V   (T1)--V
     Eigenvalues --     0.38081   0.38505   0.38505   0.48455   0.67665
   1 1   C  1S          0.00000   0.00000   0.00000  -0.01861   0.00000
   2        2S          0.00000   0.00000  -0.00000   0.02529   0.00000
   3        3S          0.00000   0.00000  -0.00000  -0.69654   0.00000
   4        4S          0.00000  -0.00000   0.00000   3.89075   0.00000
   5        5S          0.00000   0.00000   0.00000   9.57627   0.00000
   6        6PX         0.00000   0.00000   0.00000   0.00000  -0.00000
   7        6PY        -0.12130   0.00000   0.00000   0.00000   0.00000
   8        6PZ         0.00000   0.00000   0.00000   0.00000   0.00000
   9        7PX         0.00000   0.00000   0.00000   0.00000  -0.00000
  10        7PY        -0.23795   0.00000   0.00000   0.00000   0.00000
  11        7PZ         0.00000   0.00000   0.00000   0.00000   0.00000
  12        8PX         0.00000   0.00000   0.00000   0.00000  -0.00000
  13        8PY         2.12883   0.00000   0.00000   0.00000   0.00000
  14        8PZ         0.00000   0.00000   0.00000   0.00000   0.00000
  15        9PX         0.00000   0.00000   0.00000   0.00000  -0.00000
  16        9PY         3.77415   0.00000   0.00000   0.00000   0.00000
  17        9PZ         0.00000   0.00000   0.00000   0.00000   0.00000
  18       10D 0        0.00000  -0.00546   0.03440   0.00000   0.00000
  19       10D+1        0.01060   0.00000   0.00000   0.00000   0.00000
  20       10D-1        0.00000   0.00000   0.00000   0.00000   0.00000
  21       10D+2        0.00000  -0.03440  -0.00546  -0.00000   0.00000
  22       10D-2        0.00000   0.00000   0.00000   0.00000   0.00000
  23       11D 0        0.00000   0.01072  -0.06757  -0.00000   0.00000
  24       11D+1        0.14529   0.00000   0.00000   0.00000   0.00000
  25       11D-1        0.00000   0.00000   0.00000   0.00000  -0.00000
  26       11D+2        0.00000   0.06757   0.01072   0.00000   0.00000
  27       11D-2        0.00000   0.00000   0.00000   0.00000   0.00000
  28       12D 0        0.00000  -0.02002   0.12617  -0.00000   0.00000
  29       12D+1        1.35433   0.00000   0.00000   0.00000   0.00000
  30       12D-1        0.00000   0.00000   0.00000   0.00000  -0.00000
  31       12D+2        0.00000  -0.12617  -0.02002  -0.00000   0.00000
  32       12D-2        0.00000   0.00000   0.00000   0.00000   0.00000
  33       13F 0        0.00000   0.00000   0.00000   0.00000   0.00000
  34       13F+1        0.00000   0.00000   0.00000   0.00000  -0.00509
  35       13F-1        0.00232   0.00000   0.00000   0.00000   0.00000
  36       13F+2        0.00000   0.00000   0.00000   0.00000   0.00000
  37       13F-2        0.00000  -0.00000   0.00000   0.01570   0.00000
  38       13F+3        0.00000   0.00000   0.00000   0.00000  -0.00394
  39       13F-3        0.00299   0.00000   0.00000   0.00000   0.00000
  40       14F 0        0.00000   0.00000   0.00000   0.00000   0.00000
  41       14F+1        0.00000   0.00000   0.00000   0.00000   0.37285
  42       14F-1        0.01595   0.00000   0.00000   0.00000   0.00000
  43       14F+2        0.00000   0.00000   0.00000   0.00000   0.00000
  44       14F-2        0.00000  -0.00000   0.00000   0.41786   0.00000
  45       14F+3        0.00000   0.00000   0.00000   0.00000   0.28881
  46       14F-3        0.02059   0.00000   0.00000   0.00000   0.00000
  47       15G 0        0.00000   0.00029  -0.00181  -0.03424   0.00000
  48       15G+1       -0.00585   0.00000   0.00000   0.00000   0.00000
  49       15G-1        0.00000   0.00000   0.00000   0.00000   0.05213
  50       15G+2        0.00000  -0.00281  -0.00045   0.00000   0.00000
  51       15G-2        0.00000   0.00000   0.00000   0.00000   0.00000
  52       15G+3       -0.01547   0.00000   0.00000   0.00000   0.00000
  53       15G-3        0.00000   0.00000   0.00000   0.00000   0.01970
  54       15G+4        0.00000  -0.00034   0.00214  -0.02894   0.00000
  55       15G-4        0.00000   0.00000   0.00000   0.00000   0.00000
  56 2   H  1S          0.03187  -0.00000   0.00000  -0.02922  -0.00000
  57        2S          0.06839   0.00000  -0.00000  -0.17923   0.00000
  58        3S         -1.74178   0.00000  -0.00000  -3.16881   0.00000
  59        4S         -2.48641  -0.00000  -0.00000  -0.93098   0.00000
  60        5PX         0.00455  -0.01430  -0.01159  -0.01552   0.00000
  61        5PY        -0.00214   0.01718  -0.00659  -0.01552   0.01277
  62        5PZ         0.00455  -0.00288   0.01818  -0.01552  -0.01277
  63        6PX         0.01592   0.03808   0.03085   0.13479  -0.00000
  64        6PY         0.01775  -0.04575   0.01755   0.13479  -0.00266
  65        6PZ         0.01592   0.00768  -0.04840   0.13479   0.00266
  66        7PX         0.68769  -0.29105  -0.23582   0.34074  -0.00000
  67        7PY         0.41046   0.34975  -0.13415   0.34074   0.70607
  68        7PZ         0.68769  -0.05870   0.36997   0.34074  -0.70607
  69        8D 0       -0.00049   0.00017  -0.00106   0.00000  -0.00598
  70        8D+1        0.00502  -0.00021   0.00008  -0.00362   0.00065
  71        8D-1        0.00177   0.00017   0.00014  -0.00362   0.00000
  72        8D+2       -0.00084   0.00106   0.00017  -0.00000  -0.00345
  73        8D-2        0.00177   0.00004  -0.00022  -0.00362  -0.00065
  74        9D 0       -0.01070   0.00158  -0.00995  -0.00000   0.13391
  75        9D+1       -0.07547   0.01724  -0.00661  -0.05043   0.04283
  76        9D-1       -0.03285  -0.01435  -0.01163  -0.05043   0.00000
  77        9D+2       -0.01854   0.00995   0.00158   0.00000   0.07731
  78        9D-2       -0.03285  -0.00289   0.01824  -0.05043  -0.04283
  79       10F 0       -0.00076  -0.00026   0.00166  -0.00332  -0.00949
  80       10F+1        0.00308  -0.00248   0.00469   0.00203  -0.01703
  81       10F-1        0.00197   0.00090   0.00522   0.00203  -0.01065
  82       10F+2        0.00331  -0.00650  -0.00103  -0.00000  -0.00613
  83       10F-2        0.00182   0.00000   0.00000   0.00197  -0.00000
  84       10F+3        0.00142  -0.00357   0.00230  -0.00262  -0.01319
  85       10F-3        0.00255  -0.00268  -0.00329   0.00262  -0.00375
  86 3   H  1S         -0.03187  -0.00000   0.00000  -0.02922   0.00000
  87        2S         -0.06839   0.00000  -0.00000  -0.17923  -0.00000
  88        3S          1.74178   0.00000  -0.00000  -3.16881  -0.00000
  89        4S          2.48641  -0.00000  -0.00000  -0.93098  -0.00000
  90        5PX         0.00455   0.01430   0.01159   0.01552   0.00000
  91        5PY        -0.00214  -0.01718   0.00659   0.01552   0.01277
  92        5PZ        -0.00455  -0.00288   0.01818  -0.01552   0.01277
  93        6PX         0.01592  -0.03808  -0.03085  -0.13479  -0.00000
  94        6PY         0.01775   0.04575  -0.01755  -0.13479  -0.00266
  95        6PZ        -0.01592   0.00768  -0.04840   0.13479  -0.00266
  96        7PX         0.68769   0.29105   0.23582  -0.34074  -0.00000
  97        7PY         0.41046  -0.34975   0.13415  -0.34074   0.70607
  98        7PZ        -0.68769  -0.05870   0.36997   0.34074   0.70607
  99        8D 0        0.00049   0.00017  -0.00106   0.00000   0.00598
 100        8D+1        0.00502   0.00021  -0.00008   0.00362   0.00065
 101        8D-1        0.00177  -0.00017  -0.00014   0.00362   0.00000
 102        8D+2        0.00084   0.00106   0.00017  -0.00000   0.00345
 103        8D-2       -0.00177   0.00004  -0.00022  -0.00362   0.00065
 104        9D 0        0.01070   0.00158  -0.00995  -0.00000  -0.13391
 105        9D+1       -0.07547  -0.01724   0.00661   0.05043   0.04283
 106        9D-1       -0.03285   0.01435   0.01163   0.05043   0.00000
 107        9D+2        0.01854   0.00995   0.00158   0.00000  -0.07731
 108        9D-2        0.03285  -0.00289   0.01824  -0.05043   0.04283
 109       10F 0        0.00076  -0.00026   0.00166  -0.00332   0.00949
 110       10F+1        0.00308   0.00248  -0.00469  -0.00203  -0.01703
 111       10F-1        0.00197  -0.00090  -0.00522  -0.00203  -0.01065
 112       10F+2       -0.00331  -0.00650  -0.00103  -0.00000   0.00613
 113       10F-2       -0.00182   0.00000   0.00000   0.00197   0.00000
 114       10F+3        0.00142   0.00357  -0.00230   0.00262  -0.01319
 115       10F-3        0.00255   0.00268   0.00329  -0.00262  -0.00375
 116 4   H  1S          0.03187  -0.00000   0.00000  -0.02922   0.00000
 117        2S          0.06839   0.00000  -0.00000  -0.17923  -0.00000
 118        3S         -1.74178   0.00000  -0.00000  -3.16881  -0.00000
 119        4S         -2.48641  -0.00000  -0.00000  -0.93098  -0.00000
 120        5PX        -0.00455   0.01430   0.01159   0.01552   0.00000
 121        5PY        -0.00214   0.01718  -0.00659  -0.01552  -0.01277
 122        5PZ        -0.00455   0.00288  -0.01818   0.01552  -0.01277
 123        6PX        -0.01592  -0.03808  -0.03085  -0.13479  -0.00000
 124        6PY         0.01775  -0.04575   0.01755   0.13479   0.00266
 125        6PZ        -0.01592  -0.00768   0.04840  -0.13479   0.00266
 126        7PX        -0.68769   0.29105   0.23582  -0.34074  -0.00000
 127        7PY         0.41046   0.34975  -0.13415   0.34074  -0.70607
 128        7PZ        -0.68769   0.05870  -0.36997  -0.34074  -0.70607
 129        8D 0       -0.00049   0.00017  -0.00106   0.00000   0.00598
 130        8D+1        0.00502  -0.00021   0.00008  -0.00362  -0.00065
 131        8D-1       -0.00177  -0.00017  -0.00014   0.00362   0.00000
 132        8D+2       -0.00084   0.00106   0.00017  -0.00000   0.00345
 133        8D-2       -0.00177  -0.00004   0.00022   0.00362  -0.00065
 134        9D 0       -0.01070   0.00158  -0.00995  -0.00000  -0.13391
 135        9D+1       -0.07547   0.01724  -0.00661  -0.05043  -0.04283
 136        9D-1        0.03285   0.01435   0.01163   0.05043   0.00000
 137        9D+2       -0.01854   0.00995   0.00158   0.00000  -0.07731
 138        9D-2        0.03285   0.00289  -0.01824   0.05043  -0.04283
 139       10F 0        0.00076   0.00026  -0.00166   0.00332  -0.00949
 140       10F+1       -0.00308   0.00248  -0.00469  -0.00203  -0.01703
 141       10F-1        0.00197   0.00090   0.00522   0.00203   0.01065
 142       10F+2       -0.00331   0.00650   0.00103   0.00000  -0.00613
 143       10F-2        0.00182   0.00000   0.00000   0.00197   0.00000
 144       10F+3       -0.00142   0.00357  -0.00230   0.00262  -0.01319
 145       10F-3        0.00255  -0.00268  -0.00329   0.00262   0.00375
 146 5   H  1S         -0.03187  -0.00000   0.00000  -0.02922  -0.00000
 147        2S         -0.06839   0.00000  -0.00000  -0.17923   0.00000
 148        3S          1.74178   0.00000  -0.00000  -3.16881   0.00000
 149        4S          2.48641  -0.00000  -0.00000  -0.93098   0.00000
 150        5PX        -0.00455  -0.01430  -0.01159  -0.01552   0.00000
 151        5PY        -0.00214  -0.01718   0.00659   0.01552  -0.01277
 152        5PZ         0.00455   0.00288  -0.01818   0.01552   0.01277
 153        6PX        -0.01592   0.03808   0.03085   0.13479  -0.00000
 154        6PY         0.01775   0.04575  -0.01755  -0.13479   0.00266
[...]
                         171       172       173       174       175
 171       10F-1        0.00000
 172       10F+2       -0.00000   0.00000
 173       10F-2       -0.00000  -0.00000   0.00000
 174       10F+3        0.00000  -0.00000  -0.00000   0.00000
 175       10F-3       -0.00000  -0.00000  -0.00000  -0.00000   0.00000
     Gross orbital populations:
                           1
   1 1   C  1S          1.23727
   2        2S          0.71522
   3        3S          0.32582
   4        4S          0.77343
   5        5S          0.21058
   6        6PX         0.10076
   7        6PY         0.10076
   8        6PZ         0.10076
   9        7PX         0.32845
  10        7PY         0.32845
  11        7PZ         0.32845
  12        8PX         0.46247
  13        8PY         0.46247
  14        8PZ         0.46247
  15        9PX         0.14030
  16        9PY         0.14030
  17        9PZ         0.14030
  18       10D 0       -0.00000
  19       10D+1        0.00086
  20       10D-1        0.00086
  21       10D+2       -0.00000
  22       10D-2        0.00086
  23       11D 0        0.00000
  24       11D+1        0.00464
  25       11D-1        0.00464
  26       11D+2        0.00000
  27       11D-2        0.00464
  28       12D 0        0.00000
  29       12D+1        0.00792
  30       12D-1        0.00792
  31       12D+2        0.00000
  32       12D-2        0.00792
  33       13F 0        0.00005
  34       13F+1        0.00002
  35       13F-1        0.00002
  36       13F+2       -0.00000
  37       13F-2        0.00033
  38       13F+3        0.00003
  39       13F-3        0.00003
  40       14F 0       -0.00013
  41       14F+1       -0.00005
  42       14F-1       -0.00005
  43       14F+2        0.00000
  44       14F-2        0.00282
  45       14F+3       -0.00008
  46       14F-3       -0.00008
  47       15G 0        0.00008
  48       15G+1        0.00001
  49       15G-1        0.00001
  50       15G+2       -0.00000
  51       15G-2        0.00010
  52       15G+3        0.00009
  53       15G-3        0.00009
  54       15G+4        0.00005
  55       15G-4        0.00000
  56 2   H  1S          0.07028
  57        2S          0.31431
  58        3S          0.39539
  59        4S          0.07784
  60        5PX         0.00059
  61        5PY         0.00059
  62        5PZ         0.00059
  63        6PX         0.00448
  64        6PY         0.00448
  65        6PZ         0.00448
  66        7PX         0.00783
  67        7PY         0.00783
  68        7PZ         0.00783
  69        8D 0        0.00005
  70        8D+1        0.00011
  71        8D-1        0.00011
  72        8D+2        0.00005
  73        8D-2        0.00011
  74        9D 0        0.00086
  75        9D+1        0.00024
  76        9D-1        0.00024
  77        9D+2        0.00086
  78        9D-2        0.00024
  79       10F 0       -0.00000
  80       10F+1        0.00004
  81       10F-1        0.00004
  82       10F+2        0.00006
  83       10F-2       -0.00005
  84       10F+3        0.00002
  85       10F-3        0.00002
  86 3   H  1S          0.07028
  87        2S          0.31431
  88        3S          0.39539
  89        4S          0.07784
  90        5PX         0.00059
  91        5PY         0.00059
  92        5PZ         0.00059
  93        6PX         0.00448
  94        6PY         0.00448
  95        6PZ         0.00448
  96        7PX         0.00783
  97        7PY         0.00783
  98        7PZ         0.00783
  99        8D 0        0.00005
 100        8D+1        0.00011
 101        8D-1        0.00011
 102        8D+2        0.00005
 103        8D-2        0.00011
 104        9D 0        0.00086
 105        9D+1        0.00024
 106        9D-1        0.00024
 107        9D+2        0.00086
 108        9D-2        0.00024
 109       10F 0       -0.00000
 110       10F+1        0.00004
 111       10F-1        0.00004
 112       10F+2        0.00006
 113       10F-2       -0.00005
 114       10F+3        0.00002
 115       10F-3        0.00002
 116 4   H  1S          0.07028
 117        2S          0.31431
 118        3S          0.39539
 119        4S          0.07784
 120        5PX         0.00059
 121        5PY         0.00059
 122        5PZ         0.00059
 123        6PX         0.00448
 124        6PY         0.00448
 125        6PZ         0.00448
 126        7PX         0.00783
 127        7PY         0.00783
 128        7PZ         0.00783
 129        8D 0        0.00005
 130        8D+1        0.00011
 131        8D-1        0.00011
 132        8D+2        0.00005
 133        8D-2        0.00011
 134        9D 0        0.00086
 135        9D+1        0.00024
 136        9D-1        0.00024
 137        9D+2        0.00086
 138        9D-2        0.00024
 139       10F 0       -0.00000
 140       10F+1        0.00004
 141       10F-1        0.00004
 142       10F+2        0.00006
 143       10F-2       -0.00005
 144       10F+3        0.00002
 145       10F-3        0.00002
 146 5   H  1S          0.07028
 147        2S          0.31431
 148        3S          0.39539
 149        4S          0.07784
 150        5PX         0.00059
 151        5PY         0.00059
 152        5PZ         0.00059
 153        6PX         0.00448
 154        6PY         0.00448
 155        6PZ         0.00448
 156        7PX         0.00783
 157        7PY         0.00783
 158        7PZ         0.00783
 159        8D 0        0.00005
 160        8D+1        0.00011
 161        8D-1        0.00011
 162        8D+2        0.00005
 163        8D-2        0.00011
 164        9D 0        0.00086
 165        9D+1        0.00024
 166        9D-1        0.00024
 167        9D+2        0.00086
 168        9D-2        0.00024
 169       10F 0       -0.00000
 170       10F+1        0.00004
 171       10F-1        0.00004
 172       10F+2        0.00006
 173       10F-2       -0.00005
 174       10F+3        0.00002
 175       10F-3        0.00002
          Condensed to atoms (all electrons):
              1          2          3          4          5
     1  C    4.763061   0.409697   0.409697   0.409697   0.409697
     2  H    0.409697   0.554687  -0.021616  -0.021616  -0.021616
     3  H    0.409697  -0.021616   0.554687  -0.021616  -0.021616
     4  H    0.409697  -0.021616  -0.021616   0.554687  -0.021616
     5  H    0.409697  -0.021616  -0.021616  -0.021616   0.554687
 Mulliken atomic charges:
              1
     1  C   -0.401851
     2  H    0.100463
     3  H    0.100463
     4  H    0.100463
     5  H    0.100463
 Sum of Mulliken atomic charges =   0.00000
 Mulliken charges with hydrogens summed into heavy atoms:
              1
     1  C    0.000000
 Sum of Mulliken charges with hydrogens summed into heavy atoms =   0.00000
 APT atomic charges:
              1
     1  C   -0.010255
     2  H    0.002564
     3  H    0.002564
     4  H    0.002564
     5  H    0.002564
 Sum of APT charges=  -0.00000
 APT Atomic charges with hydrogens summed into heavy atoms:
              1
     1  C   -0.000000
     2  H    0.000000
     3  H    0.000000
     4  H    0.000000
     5  H    0.000000
 Sum of APT charges=  -0.00000
 Electronic spatial extent (au):  <R**2>=             35.5558
 Charge=             -0.0000 electrons
 Dipole moment (field-independent basis, Debye):
    X=             -0.0000    Y=              0.0000    Z=              0.0000  Tot=              0.0000
 Quadrupole moment (field-independent basis, Debye-Ang):
   XX=             -8.3565   YY=             -8.3565   ZZ=             -8.3565
   XY=              0.0000   XZ=              0.0000   YZ=             -0.0000
 Traceless Quadrupole moment (field-independent basis, Debye-Ang):
   XX=              0.0000   YY=             -0.0000   ZZ=             -0.0000
   XY=              0.0000   XZ=              0.0000   YZ=             -0.0000
 Octapole moment (field-independent basis, Debye-Ang**2):
  XXX=              0.0000  YYY=             -0.0000  ZZZ=              0.0000  XYY=              0.0000
  XXY=              0.0000  XXZ=              0.0000  XZZ=             -0.0000  YZZ=              0.0000
  YYZ=              0.0000  XYZ=              0.7426
 Hexadecapole moment (field-independent basis, Debye-Ang**3):
 XXXX=            -16.7172 YYYY=            -16.7172 ZZZZ=            -16.7172 XXXY=             -0.0000
 XXXZ=             -0.0000 YYYX=             -0.0000 YYYZ=              0.0000 ZZZX=             -0.0000
 ZZZY=             -0.0000 XXYY=             -5.0317 XXZZ=             -5.0317 YYZZ=             -5.0317
 XXYZ=             -0.0000 YYXZ=             -0.0000 ZZXY=              0.0000
 N-N= 1.345680938434D+01 E-N=-1.201629993885D+02  KE= 4.024483955246D+01
 Symmetry A    KE= 3.440013259919D+01
 Symmetry B1   KE= 1.948235651092D+00
 Symmetry B2   KE= 1.948235651092D+00
 Symmetry B3   KE= 1.948235651092D+00
 Orbital energies and kinetic energies (alpha):
                                 1                 2
   1         (A1)--O         -10.139804         15.937674
   2         (A1)--O          -0.698598          1.262392
   3         (T2)--O          -0.394807          0.974118
   4         (T2)--O          -0.394807          0.974118
   5         (T2)--O          -0.394807          0.974118
   6         (A1)--V           0.041685          0.428337
   7         (T2)--V           0.116525          0.489185
   8         (T2)--V           0.116525          0.489185
   9         (T2)--V           0.116525          0.489185
  10         (T2)--V           0.187523          0.449312
  11         (T2)--V           0.187523          0.449312
  12         (T2)--V           0.187523          0.449312
  13         (A1)--V           0.367062          1.229928
  14         (T2)--V           0.381410          1.126792
  15         (T2)--V           0.381410          1.126792
  16         (T2)--V           0.381410          1.126792
  17         (E)--V            0.385376          0.729207
  18         (E)--V            0.385376          0.729207
  19         (A1)--V           0.485305          0.859132
  20         (T1)--V           0.677123          0.922625
  21         (T1)--V           0.677123          0.922625
  22         (T1)--V           0.677123          0.922625
  23         (T2)--V           0.686839          1.092470
  24         (T2)--V           0.686839          1.092470
  25         (T2)--V           0.686839          1.092470
  26         (T2)--V           0.801442          1.204367
  27         (T2)--V           0.801442          1.204367
  28         (T2)--V           0.801442          1.204367
  29         (T2)--V           0.992022          1.513287
  30         (T2)--V           0.992022          1.513287
  31         (T2)--V           0.992022          1.513287
  32         (A1)--V           1.014984          1.996251
  33         (E)--V            1.064163          1.296261
  34         (E)--V            1.064163          1.296261
  35         (T2)--V           1.272940          1.974586
  36         (T2)--V           1.272940          1.974586
  37         (T2)--V           1.272940          1.974586
  38         (A1)--V           1.311367          2.062957
  39         (E)--V            1.666426          2.381403
  40         (E)--V            1.666426          2.381403
  41         (T2)--V           1.711969          2.748962
  42         (T2)--V           1.711969          2.748962
  43         (T2)--V           1.711969          2.748962
  44         (T1)--V           1.806190          2.283225
  45         (T1)--V           1.806190          2.283225
  46         (T1)--V           1.806190          2.283225
  47         (T2)--V           1.912437          2.565926
  48         (T2)--V           1.912437          2.565926
  49         (T2)--V           1.912437          2.565926
  50         (A1)--V           2.086495          3.363226
  51         (T1)--V           2.114941          2.517962
  52         (T1)--V           2.114941          2.517962
  53         (T1)--V           2.114941          2.517962
  54         (E)--V            2.253224          2.609489
  55         (E)--V            2.253224          2.609489
  56         (T2)--V           2.332405          3.037080
  57         (T2)--V           2.332405          3.037080
  58         (T2)--V           2.332405          3.037080
  59         (T2)--V           2.407003          2.860921
  60         (T2)--V           2.407003          2.860921
  61         (T2)--V           2.407003          2.860921
  62         (E)--V            2.508812          2.997341
  63         (E)--V            2.508812          2.997341
  64         (A1)--V           2.546377          3.488027
  65         (T1)--V           2.865061          3.280734
  66         (T1)--V           2.865061          3.280734
  67         (T1)--V           2.865061          3.280734
  68         (T2)--V           2.940879          3.378623
  69         (T2)--V           2.940879          3.378623
  70         (T2)--V           2.940879          3.378623
  71         (A1)--V           3.092234          3.981271
  72         (T2)--V           3.172734          3.780094
  73         (T2)--V           3.172734          3.780094
  74         (T2)--V           3.172734          3.780094
  75         (T1)--V           3.194079          3.657264
  76         (T1)--V           3.194079          3.657264
  77         (T1)--V           3.194079          3.657264
  78         (T2)--V           3.367475          4.402902
  79         (T2)--V           3.367475          4.402902
  80         (T2)--V           3.367475          4.402902
  81         (A1)--V           3.696126          5.418530
  82         (T2)--V           3.805126          4.934197
  83         (T2)--V           3.805126          4.934197
  84         (T2)--V           3.805126          4.934197
  85         (E)--V            3.826833          4.652904
  86         (E)--V            3.826833          4.652904
  87         (E)--V            5.232197          6.130653
  88         (E)--V            5.232197          6.130653
  89         (T2)--V           5.276388          7.271619
  90         (T2)--V           5.276388          7.271619
  91         (T2)--V           5.276388          7.271619
  92         (T1)--V           5.354580          6.346402
  93         (T1)--V           5.354580          6.346402
  94         (T1)--V           5.354580          6.346402
  95         (A2)--V           5.887928          6.417941
  96         (T2)--V           5.894072          7.205372
  97         (T2)--V           5.894072          7.205372
  98         (T2)--V           5.894072          7.205372
  99         (A1)--V           5.986864          7.497913
 100         (T1)--V           5.991223          6.640199
 101         (T1)--V           5.991223          6.640199
 102         (T1)--V           5.991223          6.640199
 103         (A1)--V           6.015984          6.926249
 104         (T2)--V           6.042424          7.331081
 105         (T2)--V           6.042424          7.331081
 106         (T2)--V           6.042424          7.331081
 107         (T1)--V           6.100143          6.929660
 108         (T1)--V           6.100143          6.929660
 109         (T1)--V           6.100143          6.929660
 110         (T2)--V           6.162952          7.410969
 111         (T2)--V           6.162952          7.410969
 112         (T2)--V           6.162952          7.410969
 113         (E)--V            6.610282          8.263985
 114         (E)--V            6.610282          8.263985
 115         (A1)--V           6.671785          7.549659
 116         (T2)--V           6.697845          8.612590
 117         (T2)--V           6.697845          8.612590
 118         (T2)--V           6.697845          8.612590
 119         (T1)--V           7.211631          7.988196
 120         (T1)--V           7.211631          7.988196
 121         (T1)--V           7.211631          7.988196
 122         (E)--V            7.249617          8.432933
 123         (E)--V            7.249617          8.432933
 124         (T2)--V           7.273863          8.414699
 125         (T2)--V           7.273863          8.414699
 126         (T2)--V           7.273863          8.414699
 127         (T2)--V           7.608691          8.732281
 128         (T2)--V           7.608691          8.732281
 129         (T2)--V           7.608691          8.732281
 130         (E)--V            7.647680          8.540714
 131         (E)--V            7.647680          8.540714
 132         (T1)--V           7.669789          8.580448
 133         (T1)--V           7.669789          8.580448
 134         (T1)--V           7.669789          8.580448
 135         (A1)--V           7.908244          9.563710
 136         (T2)--V           7.929029          8.795518
 137         (T2)--V           7.929029          8.795518
 138         (T2)--V           7.929029          8.795518
 139         (A1)--V           8.272948         10.317969
 140         (E)--V            8.277573          9.158242
 141         (E)--V            8.277573          9.158242
 142         (T1)--V           8.356602          9.262468
 143         (T1)--V           8.356602          9.262468
 144         (T1)--V           8.356602          9.262468
 145         (T2)--V           8.392646          9.337845
 146         (T2)--V           8.392646          9.337845
 147         (T2)--V           8.392646          9.337845
 148         (T2)--V           8.487498         10.395803
 149         (T2)--V           8.487498         10.395803
 150         (T2)--V           8.487498         10.395803
 151         (T1)--V           8.941191          9.880645
 152         (T1)--V           8.941191          9.880645
 153         (T1)--V           8.941191          9.880645
 154         (T2)--V           9.006074         10.290247
 155         (T2)--V           9.006074         10.290247
 156         (T2)--V           9.006074         10.290247
 157         (E)--V            9.392317         10.322599
 158         (E)--V            9.392317         10.322599
 159         (E)--V            9.779007         10.755221
 160         (E)--V            9.779007         10.755221
 161         (T2)--V           9.845359         11.869900
 162         (T2)--V           9.845359         11.869900
 163         (T2)--V           9.845359         11.869900
 164         (A1)--V          10.042196         13.187415
 165         (T2)--V          10.062530         11.444729
 166         (T2)--V          10.062530         11.444729
 167         (T2)--V          10.062530         11.444729
 168         (T1)--V          10.485840         11.785388
 169         (T1)--V          10.485840         11.785388
 170         (T1)--V          10.485840         11.785388
 171         (A1)--V          10.687136         12.646935
 172         (T2)--V          12.324663         15.674958
 173         (T2)--V          12.324663         15.674958
 174         (T2)--V          12.324663         15.674958
 175         (A1)--V          26.447029         58.729447
 Total kinetic energy from orbitals= 4.024483955246D+01
  Exact polarizability:  15.934   0.000  15.934   0.000   0.000  15.934
 Approx polarizability:  19.624   0.000  19.624   0.000   0.000  19.624
 No NMR shielding tensors so no spin-rotation constants.
 Leave Link  601 at Sun Aug 18 13:41:57 2024, MaxMem=   13107200 cpu:       1.0
 (Enter /programs/64bit/g09/g09-gfortran/bin/l701.exe)
 Compute integral second derivatives.
 ... and contract with generalized density number  0.
 Insufficient memory in PRISM at phase 22 IEnd=     9338601 limit=     7350112.
 Error termination via Lnk1e in /programs/64bit/g09/g09-gfortran/bin/l701.exe at Sun Aug 18 13:41:57 2024.
 Job cpu time:  0 days  0 hours 10 minutes 42.4 seconds.
 File lengths (MBytes):  RWF=     21 Int=      0 D2E=      0 Chk=      3 Scr=      1
