 Entering Gaussian System, Link 0=/programs/64bit/g09/g09-gfortran/bin/g09
 Input=ch4_aug-cc-pVDZ.com
 Output=ch4_aug-cc-pVDZ.log
 Initial command:
 /programs/64bit/g09/g09-gfortran/bin/l1.exe /home/ospite/Desktop/MMfP/Project6/CH4/g09/DFT/B3PW91/Gau-19590.inp -scrdir=/home/ospite/Desktop/MMfP/Project6/CH4/g09/DFT/B3PW91/
 Entering Link 1 = /programs/64bit/g09/g09-gfortran/bin/l1.exe PID=     19592.
  
 Copyright (c) 1988,1990,1992,1993,1995,1998,2003,2009, Gaussian, Inc.
                  All Rights Reserved.
  
 This is part of the Gaussian(R) 09 program.  It is based on
 the Gaussian(R) 03 system (copyright 2003, Gaussian, Inc.),
 the Gaussian(R) 98 system (copyright 1998, Gaussian, Inc.),
 the Gaussian(R) 94 system (copyright 1995, Gaussian, Inc.),
 the Gaussian 92(TM) system (copyright 1992, Gaussian, Inc.),
 the Gaussian 90(TM) system (copyright 1990, Gaussian, Inc.),
 the Gaussian 88(TM) system (copyright 1988, Gaussian, Inc.),
 the Gaussian 86(TM) system (copyright 1986, Carnegie Mellon
 University), and the Gaussian 82(TM) system (copyright 1983,
 Carnegie Mellon University). Gaussian is a federally registered
 trademark of Gaussian, Inc.
  
 This software contains proprietary and confidential information,
 including trade secrets, belonging to Gaussian, Inc.
  
 This software is provided under written license and may be
 used, copied, transmitted, or stored only in accord with that
 written license.
  
 The following legend is applicable only to US Government
 contracts under FAR:
  
                    RESTRICTED RIGHTS LEGEND
  
 Use, reproduction and disclosure by the US Government is
 subject to restrictions as set forth in subparagraphs (a)
 and (c) of the Commercial Computer Software - Restricted
 Rights clause in FAR 52.227-19.
  
 Gaussian, Inc.
 340 Quinnipiac St., Bldg. 40, Wallingford CT 06492
  
  
 ---------------------------------------------------------------
 Warning -- This program may not be used in any manner that
 competes with the business of Gaussian, Inc. or will provide
 assistance to any competitor of Gaussian, Inc.  The licensee
 of this program is prohibited from giving any competitor of
 Gaussian, Inc. access to this program.  By using this program,
 the user acknowledges that Gaussian, Inc. is engaged in the
 business of creating and licensing software in the field of
 computational chemistry and represents and warrants to the
 licensee that it is not a competitor of Gaussian, Inc. and that
 it will not use this program in any manner prohibited above.
 ---------------------------------------------------------------
  

 Cite this work as:
 Gaussian 09, Revision A.02,
 M. J. Frisch, G. W. Trucks, H. B. Schlegel, G. E. Scuseria, 
 M. A. Robb, J. R. Cheeseman, G. Scalmani, V. Barone, B. Mennucci, 
 G. A. Petersson, H. Nakatsuji, M. Caricato, X. Li, H. P. Hratchian, 
 A. F. Izmaylov, J. Bloino, G. Zheng, J. L. Sonnenberg, M. Hada, 
 M. Ehara, K. Toyota, R. Fukuda, J. Hasegawa, M. Ishida, T. Nakajima, 
 Y. Honda, O. Kitao, H. Nakai, T. Vreven, J. A. Montgomery, Jr., 
 J. E. Peralta, F. Ogliaro, M. Bearpark, J. J. Heyd, E. Brothers, 
 K. N. Kudin, V. N. Staroverov, R. Kobayashi, J. Normand, 
 K. Raghavachari, A. Rendell, J. C. Burant, S. S. Iyengar, J. Tomasi, 
 M. Cossi, N. Rega, J. M. Millam, M. Klene, J. E. Knox, J. B. Cross, 
 V. Bakken, C. Adamo, J. Jaramillo, R. Gomperts, R. E. Stratmann, 
 O. Yazyev, A. J. Austin, R. Cammi, C. Pomelli, J. W. Ochterski, 
 R. L. Martin, K. Morokuma, V. G. Zakrzewski, G. A. Voth, 
 P. Salvador, J. J. Dannenberg, S. Dapprich, A. D. Daniels, 
 O. Farkas, J. B. Foresman, J. V. Ortiz, J. Cioslowski, 
 and D. J. Fox, Gaussian, Inc., Wallingford CT, 2009.
 
 ******************************************
 Gaussian 09:  EM64L-G09RevA.02 11-Jun-2009
                18-Aug-2024 
 ******************************************
 %mem=100MB
 ----------------------------------------------------------------------
 #p b3pw91/aug-cc-pVDZ opt freq symmetry=(follow,pg=Td) pop=full gfinpu
 t
 ----------------------------------------------------------------------
 1/14=-1,18=20,19=15,26=3,38=1/1,3;
 2/9=110,12=2,17=6,18=5,19=2314885530818462804,40=1/2;
 3/5=16,7=10,11=2,16=1,24=10,25=1,30=1,71=1,74=-6/1,2,3;
 4//1;
 5/5=2,38=5/2;
 6/7=3,28=1/1;
 7//1,2,3,16;
 1/14=-1,18=20,19=15/3(2);
 2/9=110,15=5,19=2314885530818462804/2;
 99//99;
 2/9=110,15=5,19=2314885530818462804/2;
 3/5=16,7=10,11=2,16=1,25=1,30=1,71=1,74=-6/1,2,3;
 4/5=5,16=3/1;
 5/5=2,38=5/2;
 7//1,2,3,16;
 1/14=-1,18=20,19=15/3(-5);
 2/9=110,15=5,19=2314885530818462804/2;
 6/7=3,19=2,28=1/1;
 99/9=1/99;
 Leave Link    1 at Sun Aug 18 00:38:54 2024, MaxMem=   13107200 cpu:       0.1
 (Enter /programs/64bit/g09/g09-gfortran/bin/l101.exe)
 -------------------------------------------------------
 methane with imposed symmetry and aug-cc-pVDZ basis set
 -------------------------------------------------------
 Symbolic Z-matrix:
 Charge =  0 Multiplicity = 1
 C1
 H2                   1    d
 H3                   1    d        2    a
 H4                   1    d        2    a        3    t        0
 H5                   1    d        2    a        3    -t       0
       Variables:
  d                     1.09                     
  a                   109.471                    
  t                   120.                       
 
     3 tetrahedral angles replaced.
 NAtoms=      5 NQM=      5 NQMF=      0 NMic=      0 NMicF=      0 NTot=      5.
                    Isotopes and Nuclear Properties:
 (Nuclear quadrupole moments (NQMom) in fm**2, nuclear magnetic moments (NMagM)
  in nuclear magnetons)

  Atom         1           2           3           4           5
 IAtWgt=          12           1           1           1           1
 AtmWgt=  12.0000000   1.0078250   1.0078250   1.0078250   1.0078250
 NucSpn=           0           1           1           1           1
 AtZEff=   0.0000000   0.0000000   0.0000000   0.0000000   0.0000000
 NQMom=    0.0000000   0.0000000   0.0000000   0.0000000   0.0000000
 NMagM=    0.0000000   2.7928460   2.7928460   2.7928460   2.7928460
 Leave Link  101 at Sun Aug 18 00:38:55 2024, MaxMem=   13107200 cpu:       0.1
 (Enter /programs/64bit/g09/g09-gfortran/bin/l103.exe)

 GradGradGradGradGradGradGradGradGradGradGradGradGradGradGradGradGradGrad
 Berny optimization.
 Initialization pass.
                           ----------------------------
                           !    Initial Parameters    !
                           ! (Angstroms and Degrees)  !
 --------------------------                            --------------------------
 ! Name  Definition              Value          Derivative Info.                !
 --------------------------------------------------------------------------------
 ! R1    R(1,2)                  1.09           estimate D2E/DX2                !
 ! R2    R(1,3)                  1.09           estimate D2E/DX2                !
 ! R3    R(1,4)                  1.09           estimate D2E/DX2                !
 ! R4    R(1,5)                  1.09           estimate D2E/DX2                !
 ! A1    A(2,1,3)              109.4712         estimate D2E/DX2                !
 ! A2    A(2,1,4)              109.4712         estimate D2E/DX2                !
 ! A3    A(2,1,5)              109.4712         estimate D2E/DX2                !
 ! A4    A(3,1,4)              109.4712         estimate D2E/DX2                !
 ! A5    A(3,1,5)              109.4712         estimate D2E/DX2                !
 ! A6    A(4,1,5)              109.4712         estimate D2E/DX2                !
 ! D1    D(2,1,4,3)           -120.0            estimate D2E/DX2                !
 ! D2    D(2,1,5,3)            120.0            estimate D2E/DX2                !
 ! D3    D(2,1,5,4)           -120.0            estimate D2E/DX2                !
 ! D4    D(3,1,5,4)            120.0            estimate D2E/DX2                !
 --------------------------------------------------------------------------------
 Trust Radius=3.00D-01 FncErr=1.00D-07 GrdErr=1.00D-06
 Number of steps in this run=  24 maximum allowed number of steps= 100.
 GradGradGradGradGradGradGradGradGradGradGradGradGradGradGradGradGradGrad

 Leave Link  103 at Sun Aug 18 00:38:55 2024, MaxMem=   13107200 cpu:       0.0
 (Enter /programs/64bit/g09/g09-gfortran/bin/l202.exe)
                          Input orientation:                          
 ---------------------------------------------------------------------
 Center     Atomic      Atomic             Coordinates (Angstroms)
 Number     Number       Type             X           Y           Z
 ---------------------------------------------------------------------
      1          6           0        0.000000    0.000000    0.000000
      2          1           0        0.000000    0.000000    1.090000
      3          1           0        1.027662    0.000000   -0.363333
      4          1           0       -0.513831   -0.889981   -0.363333
      5          1           0       -0.513831    0.889981   -0.363333
 ---------------------------------------------------------------------
                    Distance matrix (angstroms):
                    1          2          3          4          5
     1  C    0.000000
     2  H    1.090000   0.000000
     3  H    1.090000   1.779963   0.000000
     4  H    1.090000   1.779963   1.779963   0.000000
     5  H    1.090000   1.779963   1.779963   1.779963   0.000000
 Symm:  InNGrp=TD   InAxis=0.
 Stoichiometry    CH4
 Framework group  TD[O(C),4C3(H)]
 Deg. of freedom     1
 Full point group                 TD      NOp  24
 Largest Abelian subgroup         D2      NOp   4
 Largest concise Abelian subgroup D2      NOp   4
                         Standard orientation:                         
 ---------------------------------------------------------------------
 Center     Atomic      Atomic             Coordinates (Angstroms)
 Number     Number       Type             X           Y           Z
 ---------------------------------------------------------------------
      1          6           0        0.000000    0.000000    0.000000
      2          1           0        0.629312    0.629312    0.629312
      3          1           0       -0.629312   -0.629312    0.629312
      4          1           0       -0.629312    0.629312   -0.629312
      5          1           0        0.629312   -0.629312   -0.629312
 ---------------------------------------------------------------------
 Rotational constants (GHZ):    158.2742720    158.2742720    158.2742720
 Leave Link  202 at Sun Aug 18 00:38:55 2024, MaxMem=   13107200 cpu:       0.0
 (Enter /programs/64bit/g09/g09-gfortran/bin/l301.exe)
 Standard basis: Aug-CC-pVDZ (5D, 7F)
 Ernie: Thresh=  0.10000D-02 Tol=  0.10000D-05 Strict=F.
 Ernie:  2 primitive shells out of 53 were deleted.
 AO basis set in the form of general basis input (Overlap normalization):
      1 0
 S   7 1.00       0.000000000000
      0.6665000000D+04  0.6935163173D-03
      0.1000000000D+04  0.5341502433D-02
      0.2280000000D+03  0.2713667141D-01
      0.6471000000D+02  0.1019923853D+00
      0.2106000000D+02  0.2755086365D+00
      0.7495000000D+01  0.4510864331D+00
      0.2797000000D+01  0.2875657448D+00
 S   7 1.00       0.000000000000
      0.6665000000D+04  0.7733547404D-05
      0.2280000000D+03  0.2780721367D-03
      0.6471000000D+02 -0.2578756542D-02
      0.2106000000D+02 -0.8950876838D-02
      0.7495000000D+01 -0.1060588547D+00
      0.2797000000D+01 -0.1315176856D+00
      0.5215000000D+00  0.1099486598D+01
 S   1 1.00       0.000000000000
      0.1596000000D+00  0.1000000000D+01
 S   1 1.00       0.000000000000
      0.4690000000D-01  0.1000000000D+01
 P   3 1.00       0.000000000000
      0.9439000000D+01  0.5697925159D-01
      0.2002000000D+01  0.3132072115D+00
      0.5456000000D+00  0.7603767417D+00
 P   1 1.00       0.000000000000
      0.1517000000D+00  0.1000000000D+01
 P   1 1.00       0.000000000000
      0.4041000000D-01  0.1000000000D+01
 D   1 1.00       0.000000000000
      0.5500000000D+00  0.1000000000D+01
 D   1 1.00       0.000000000000
      0.1510000000D+00  0.1000000000D+01
 ****
      2 0
 S   3 1.00       0.000000000000
      0.1301000000D+02  0.3349872639D-01
      0.1962000000D+01  0.2348008012D+00
      0.4446000000D+00  0.8136829579D+00
 S   1 1.00       0.000000000000
      0.1220000000D+00  0.1000000000D+01
 S   1 1.00       0.000000000000
      0.2974000000D-01  0.1000000000D+01
 P   1 1.00       0.000000000000
      0.7270000000D+00  0.1000000000D+01
 P   1 1.00       0.000000000000
      0.1410000000D+00  0.1000000000D+01
 ****
      3 0
 S   3 1.00       0.000000000000
      0.1301000000D+02  0.3349872639D-01
      0.1962000000D+01  0.2348008012D+00
      0.4446000000D+00  0.8136829579D+00
 S   1 1.00       0.000000000000
      0.1220000000D+00  0.1000000000D+01
 S   1 1.00       0.000000000000
      0.2974000000D-01  0.1000000000D+01
 P   1 1.00       0.000000000000
      0.7270000000D+00  0.1000000000D+01
 P   1 1.00       0.000000000000
      0.1410000000D+00  0.1000000000D+01
 ****
      4 0
 S   3 1.00       0.000000000000
      0.1301000000D+02  0.3349872639D-01
      0.1962000000D+01  0.2348008012D+00
      0.4446000000D+00  0.8136829579D+00
 S   1 1.00       0.000000000000
      0.1220000000D+00  0.1000000000D+01
 S   1 1.00       0.000000000000
      0.2974000000D-01  0.1000000000D+01
 P   1 1.00       0.000000000000
      0.7270000000D+00  0.1000000000D+01
 P   1 1.00       0.000000000000
      0.1410000000D+00  0.1000000000D+01
 ****
      5 0
 S   3 1.00       0.000000000000
      0.1301000000D+02  0.3349872639D-01
      0.1962000000D+01  0.2348008012D+00
      0.4446000000D+00  0.8136829579D+00
 S   1 1.00       0.000000000000
      0.1220000000D+00  0.1000000000D+01
 S   1 1.00       0.000000000000
      0.2974000000D-01  0.1000000000D+01
 P   1 1.00       0.000000000000
      0.7270000000D+00  0.1000000000D+01
 P   1 1.00       0.000000000000
      0.1410000000D+00  0.1000000000D+01
 ****

 There are    17 symmetry adapted basis functions of A   symmetry.
 There are    14 symmetry adapted basis functions of B1  symmetry.
 There are    14 symmetry adapted basis functions of B2  symmetry.
 There are    14 symmetry adapted basis functions of B3  symmetry.
 Integral buffers will be    131072 words long.
 Raffenetti 2 integral format.
 Two-electron integral symmetry is turned on.
    59 basis functions,    87 primitive gaussians,    61 cartesian basis functions
     5 alpha electrons        5 beta electrons
       nuclear repulsion energy        13.4353891954 Hartrees.
 IExCor=  408 DFT=T Ex+Corr=B3PW91 ExCW=0 ScaHFX=  0.200000
 ScaDFX=  0.800000  0.720000  1.000000  0.810000 ScalE2=  1.000000  1.000000
 IRadAn=      0 IRanWt=     -1 IRanGd=            0 ICorTp=0
 NAtoms=    5 NActive=    5 NUniq=    2 SFac= 3.00D+00 NAtFMM=   80 NAOKFM=F Big=F
 Leave Link  301 at Sun Aug 18 00:38:55 2024, MaxMem=   13107200 cpu:       0.1
 (Enter /programs/64bit/g09/g09-gfortran/bin/l302.exe)
 NPDir=0 NMtPBC=     1 NCelOv=     1 NCel=       1 NClECP=     1 NCelD=      1
         NCelK=      1 NCelE2=     1 NClLst=     1 CellRange=     0.0.
 One-electron integrals computed using PRISM.
 One-electron integral symmetry used in STVInt
 NBasis=    59 RedAO= T  NBF=    17    14    14    14
 NBsUse=    59 1.00D-06 NBFU=    17    14    14    14
 Precomputing XC quadrature grid using
 IXCGrd= 2 IRadAn=           0 IRanWt=          -1 IRanGd=           0 AccXCQ= 1.00D-10.
 NRdTot=     324 NPtTot=       40718 NUsed=       43064 NTot=       43096
 NSgBfM=    61    61    61    61    61 NAtAll=     5     5.
 Leave Link  302 at Sun Aug 18 00:38:55 2024, MaxMem=   13107200 cpu:       0.2
 (Enter /programs/64bit/g09/g09-gfortran/bin/l303.exe)
 DipDrv:  MaxL=1.
 Leave Link  303 at Sun Aug 18 00:38:55 2024, MaxMem=   13107200 cpu:       0.0
 (Enter /programs/64bit/g09/g09-gfortran/bin/l401.exe)
 Harris functional with IExCor=  408 diagonalized for initial guess.
 ExpMin= 2.97D-02 ExpMax= 6.66D+03 ExpMxC= 2.28D+02 IAcc=3 IRadAn=         0 AccDes= 0.00D+00
 HarFok:  IExCor=  408 AccDes= 0.00D+00 IRadAn=         0 IDoV= 1
 ScaDFX=  1.000000  1.000000  1.000000  1.000000
 FoFCou: FMM=F IPFlag=           0 FMFlag=      100000 FMFlg1=           0
         NFxFlg=           0 DoJE=T BraDBF=F KetDBF=T FulRan=T
         Omega=  0.000000  0.000000  1.000000  0.000000  0.000000 ICntrl=     500 IOpCl=  0
         NMat0=    1 NMatS0=    1 NMatT0=    0 NMatD0=    1 NMtDS0=    0 NMtDT0=    0
         I1Cent=           4 NGrid=           0.
 Petite list used in FoFCou.
 Harris En= -40.5849344123850    
 Initial guess orbital symmetries:
       Occupied  (A1) (A1) (T2) (T2) (T2)
       Virtual   (A1) (T2) (T2) (T2) (T2) (T2) (T2) (A1) (T2) (T2)
                 (T2) (E) (E) (A1) (T2) (T2) (T2) (T1) (T1) (T1)
                 (A1) (T2) (T2) (T2) (E) (E) (T2) (T2) (T2) (T2)
                 (T2) (T2) (A1) (T2) (T2) (T2) (E) (E) (T1) (T1)
                 (T1) (A1) (T2) (T2) (T2) (T2) (T2) (T2) (E) (E)
                 (A1) (T2) (T2) (T2)
 The electronic state of the initial guess is 1-A1.
 Leave Link  401 at Sun Aug 18 00:38:56 2024, MaxMem=   13107200 cpu:       0.6
 (Enter /programs/64bit/g09/g09-gfortran/bin/l502.exe)
 Closed shell SCF:
 Requested convergence on RMS density matrix=1.00D-08 within 128 cycles.
 Requested convergence on MAX density matrix=1.00D-06.
 Requested convergence on             energy=1.00D-06.
 No special actions if energy rises.
 Using DIIS extrapolation, IDIIS=  1040.
 Integral symmetry usage will be decided dynamically.
        43006 words used for storage of precomputed grid.
 Keep R1 ints in memory in canonical form, NReq=2743085.
 IEnd=       73989 IEndB=       73989 NGot=    13107200 MDV=    11264720
 LenX=    11264720 LenY=    11260558
 Symmetry not used in FoFDir.
 MinBra= 0 MaxBra= 2 Meth= 1.
 IRaf=       0 NMat=   1 IRICut=       1 DoRegI=T DoRafI=F ISym2E= 0 JSym2E=0.

 Cycle   1  Pass 1  IDiag  1:
 E= -40.4227667311871    
 DIIS: error= 4.66D-02 at cycle   1 NSaved=   1.
 NSaved= 1 IEnMin= 1 EnMin= -40.4227667311871     IErMin= 1 ErrMin= 4.66D-02
 ErrMax= 4.66D-02 EMaxC= 1.00D-01 BMatC= 7.56D-02 BMatP= 7.56D-02
 IDIUse=3 WtCom= 5.34D-01 WtEn= 4.66D-01
 Coeff-Com:  0.100D+01
 Coeff-En:   0.100D+01
 Coeff:      0.100D+01
 Gap=     0.302 Goal=   None    Shift=    0.000
 GapD=    0.302 DampG=1.000 DampE=0.500 DampFc=0.5000 IDamp=-1.
 Damping current iteration by 5.00D-01
 RMSDP=7.30D-03 MaxDP=1.42D-01              OVMax= 1.90D-01

 Cycle   2  Pass 1  IDiag  1:
 E= -40.4614274733795     Delta-E=       -0.038660742192 Rises=F Damp=T
 DIIS: error= 5.19D-03 at cycle   2 NSaved=   2.
 NSaved= 2 IEnMin= 2 EnMin= -40.4614274733795     IErMin= 2 ErrMin= 5.19D-03
 ErrMax= 5.19D-03 EMaxC= 1.00D-01 BMatC= 1.04D-03 BMatP= 7.56D-02
 IDIUse=3 WtCom= 9.48D-01 WtEn= 5.19D-02
 Coeff-Com:  0.632D-01 0.937D+00
 Coeff-En:   0.102D+00 0.898D+00
 Coeff:      0.652D-01 0.935D+00
 Gap=     0.389 Goal=   None    Shift=    0.000
 RMSDP=1.59D-03 MaxDP=2.01D-02 DE=-3.87D-02 OVMax= 9.88D-02

 Cycle   3  Pass 1  IDiag  1:
 E= -40.5058450748045     Delta-E=       -0.044417601425 Rises=F Damp=F
 DIIS: error= 2.76D-04 at cycle   3 NSaved=   3.
 NSaved= 3 IEnMin= 3 EnMin= -40.5058450748045     IErMin= 3 ErrMin= 2.76D-04
 ErrMax= 2.76D-04 EMaxC= 1.00D-01 BMatC= 3.69D-06 BMatP= 1.04D-03
 IDIUse=3 WtCom= 9.97D-01 WtEn= 2.76D-03
 Coeff-Com:  0.297D-02-0.397D-01 0.104D+01
 Coeff-En:   0.000D+00 0.000D+00 0.100D+01
 Coeff:      0.297D-02-0.395D-01 0.104D+01
 Gap=     0.395 Goal=   None    Shift=    0.000
 RMSDP=1.07D-04 MaxDP=1.58D-03 DE=-4.44D-02 OVMax= 4.27D-04

 Cycle   4  Pass 1  IDiag  1:
 E= -40.5058477829550     Delta-E=       -0.000002708150 Rises=F Damp=F
 DIIS: error= 4.06D-05 at cycle   4 NSaved=   4.
 NSaved= 4 IEnMin= 4 EnMin= -40.5058477829550     IErMin= 4 ErrMin= 4.06D-05
 ErrMax= 4.06D-05 EMaxC= 1.00D-01 BMatC= 4.70D-08 BMatP= 3.69D-06
 IDIUse=1 WtCom= 1.00D+00 WtEn= 0.00D+00
 Coeff-Com:  0.829D-03-0.588D-03 0.240D-01 0.976D+00
 Coeff:      0.829D-03-0.588D-03 0.240D-01 0.976D+00
 Gap=     0.395 Goal=   None    Shift=    0.000
 RMSDP=4.46D-06 MaxDP=4.53D-05 DE=-2.71D-06 OVMax= 8.24D-05

 Cycle   5  Pass 1  IDiag  1:
 E= -40.5058478394838     Delta-E=       -0.000000056529 Rises=F Damp=F
 DIIS: error= 1.14D-06 at cycle   5 NSaved=   5.
 NSaved= 5 IEnMin= 5 EnMin= -40.5058478394838     IErMin= 5 ErrMin= 1.14D-06
 ErrMax= 1.14D-06 EMaxC= 1.00D-01 BMatC= 4.77D-11 BMatP= 4.70D-08
 IDIUse=1 WtCom= 1.00D+00 WtEn= 0.00D+00
 Coeff-Com: -0.434D-04 0.104D-03-0.464D-02-0.923D-02 0.101D+01
 Coeff:     -0.434D-04 0.104D-03-0.464D-02-0.923D-02 0.101D+01
 Gap=     0.395 Goal=   None    Shift=    0.000
 RMSDP=8.63D-07 MaxDP=1.41D-05 DE=-5.65D-08 OVMax= 3.05D-06

 Cycle   6  Pass 1  IDiag  1:
 E= -40.5058478395538     Delta-E=       -0.000000000070 Rises=F Damp=F
 DIIS: error= 2.12D-08 at cycle   6 NSaved=   6.
 NSaved= 6 IEnMin= 6 EnMin= -40.5058478395538     IErMin= 6 ErrMin= 2.12D-08
 ErrMax= 2.12D-08 EMaxC= 1.00D-01 BMatC= 2.29D-14 BMatP= 4.77D-11
 IDIUse=1 WtCom= 1.00D+00 WtEn= 0.00D+00
 Coeff-Com: -0.734D-06 0.423D-06-0.521D-04-0.101D-02-0.468D-02 0.101D+01
 Coeff:     -0.734D-06 0.423D-06-0.521D-04-0.101D-02-0.468D-02 0.101D+01
 Gap=     0.395 Goal=   None    Shift=    0.000
 RMSDP=4.88D-08 MaxDP=7.51D-07 DE=-6.99D-11 OVMax= 9.20D-08

 Cycle   7  Pass 1  IDiag  1:
 E= -40.5058478395543     Delta-E=       -0.000000000001 Rises=F Damp=F
 DIIS: error= 1.72D-09 at cycle   7 NSaved=   7.
 NSaved= 7 IEnMin= 7 EnMin= -40.5058478395543     IErMin= 7 ErrMin= 1.72D-09
 ErrMax= 1.72D-09 EMaxC= 1.00D-01 BMatC= 1.76D-16 BMatP= 2.29D-14
 IDIUse=1 WtCom= 1.00D+00 WtEn= 0.00D+00
 Coeff-Com:  0.190D-07 0.440D-07 0.540D-05 0.362D-04-0.506D-03-0.803D-01
 Coeff-Com:  0.108D+01
 Coeff:      0.190D-07 0.440D-07 0.540D-05 0.362D-04-0.506D-03-0.803D-01
 Coeff:      0.108D+01
 Gap=     0.395 Goal=   None    Shift=    0.000
 RMSDP=4.15D-09 MaxDP=6.48D-08 DE=-5.12D-13 OVMax= 7.64D-09

 SCF Done:  E(RB3PW91) =  -40.5058478396     A.U. after    7 cycles
             Convg  =    0.4155D-08             -V/T =  2.0088
 KE= 4.015116600718D+01 PE=-1.199714783995D+02 EE= 2.587907535739D+01
 Leave Link  502 at Sun Aug 18 00:38:59 2024, MaxMem=   13107200 cpu:       3.4
 (Enter /programs/64bit/g09/g09-gfortran/bin/l601.exe)
 Copying SCF densities to generalized density rwf, IOpCl= 0 IROHF=0.

 **********************************************************************

            Population analysis using the SCF density.

 **********************************************************************

 Orbital symmetries:
       Occupied  (A1) (A1) (T2) (T2) (T2)
       Virtual   (A1) (T2) (T2) (T2) (T2) (T2) (T2) (A1) (T2) (T2)
                 (T2) (E) (E) (A1) (T2) (T2) (T2) (T1) (T1) (T1)
                 (A1) (T2) (T2) (T2) (T2) (T2) (T2) (E) (E) (T2)
                 (T2) (T2) (A1) (T2) (T2) (T2) (E) (E) (T1) (T1)
                 (T1) (A1) (T2) (T2) (T2) (T2) (T2) (T2) (E) (E)
                 (A1) (T2) (T2) (T2)
 The electronic state is 1-A1.
 Alpha  occ. eigenvalues --  -10.15437  -0.69893  -0.39354  -0.39354  -0.39354
 Alpha virt. eigenvalues --    0.00162   0.03740   0.03740   0.03740   0.10301
 Alpha virt. eigenvalues --    0.10301   0.10301   0.11667   0.18032   0.18032
 Alpha virt. eigenvalues --    0.18032   0.21506   0.21506   0.31244   0.34613
 Alpha virt. eigenvalues --    0.34613   0.34613   0.42243   0.42243   0.42243
 Alpha virt. eigenvalues --    0.46208   0.48578   0.48578   0.48578   0.58023
 Alpha virt. eigenvalues --    0.58023   0.58023   0.59826   0.59826   0.77475
 Alpha virt. eigenvalues --    0.77475   0.77475   0.89149   1.13149   1.13149
 Alpha virt. eigenvalues --    1.13149   1.50447   1.50447   1.62346   1.62346
 Alpha virt. eigenvalues --    1.62346   1.76197   1.92367   1.92367   1.92367
 Alpha virt. eigenvalues --    1.99847   1.99847   1.99847   2.33496   2.33496
 Alpha virt. eigenvalues --    2.50494   2.58595   2.58595   2.58595
     Molecular Orbital Coefficients:
                           1         2         3         4         5
                        (A1)--O   (A1)--O   (T2)--O   (T2)--O   (T2)--O
     Eigenvalues --   -10.15437  -0.69893  -0.39354  -0.39354  -0.39354
   1 1   C  1S          0.99703  -0.19031   0.00000   0.00000   0.00000
   2        2S          0.03542   0.37867   0.00000   0.00000   0.00000
   3        3S         -0.06112   0.15634   0.00000   0.00000   0.00000
   4        4S         -0.01804   0.03549   0.00000   0.00000   0.00000
   5        5PX         0.00000   0.00000   0.44541   0.00000   0.00000
   6        5PY         0.00000   0.00000   0.00000   0.44541   0.00000
   7        5PZ         0.00000   0.00000   0.00000   0.00000   0.44541
   8        6PX         0.00000   0.00000   0.03403   0.00000   0.00000
   9        6PY         0.00000   0.00000   0.00000   0.03403   0.00000
  10        6PZ         0.00000   0.00000   0.00000   0.00000   0.03403
  11        7PX         0.00000   0.00000  -0.02543   0.00000   0.00000
  12        7PY         0.00000   0.00000   0.00000  -0.02543   0.00000
  13        7PZ         0.00000   0.00000   0.00000   0.00000  -0.02543
  14        8D 0       -0.00000  -0.00000   0.00000   0.00000   0.00000
  15        8D+1        0.00000   0.00000   0.00000   0.01893   0.00000
  16        8D-1        0.00000   0.00000   0.01893   0.00000   0.00000
  17        8D+2       -0.00000   0.00000   0.00000   0.00000   0.00000
  18        8D-2        0.00000   0.00000   0.00000   0.00000   0.01893
  19        9D 0        0.00000  -0.00000   0.00000   0.00000   0.00000
  20        9D+1        0.00000   0.00000   0.00000  -0.04879   0.00000
  21        9D-1        0.00000   0.00000  -0.04879   0.00000   0.00000
  22        9D+2        0.00000   0.00000   0.00000   0.00000   0.00000
  23        9D-2        0.00000   0.00000   0.00000   0.00000  -0.04879
  24 2   H  1S         -0.00058   0.18524   0.23263   0.23263   0.23263
  25        2S          0.01533   0.03321   0.23757   0.23757   0.23757
  26        3S          0.00175  -0.00237   0.02910   0.02910   0.02910
  27        4PX         0.00096  -0.01379   0.00597  -0.00977  -0.00977
  28        4PY         0.00096  -0.01379  -0.00977   0.00597  -0.00977
  29        4PZ         0.00096  -0.01379  -0.00977  -0.00977   0.00597
  30        5PX        -0.00289  -0.00842  -0.02614  -0.02629  -0.02629
  31        5PY        -0.00289  -0.00842  -0.02629  -0.02614  -0.02629
  32        5PZ        -0.00289  -0.00842  -0.02629  -0.02629  -0.02614
  33 3   H  1S         -0.00058   0.18524  -0.23263  -0.23263   0.23263
  34        2S          0.01533   0.03321  -0.23757  -0.23757   0.23757
  35        3S          0.00175  -0.00237  -0.02910  -0.02910   0.02910
  36        4PX        -0.00096   0.01379   0.00597  -0.00977   0.00977
  37        4PY        -0.00096   0.01379  -0.00977   0.00597   0.00977
  38        4PZ         0.00096  -0.01379   0.00977   0.00977   0.00597
  39        5PX         0.00289   0.00842  -0.02614  -0.02629   0.02629
  40        5PY         0.00289   0.00842  -0.02629  -0.02614   0.02629
  41        5PZ        -0.00289  -0.00842   0.02629   0.02629  -0.02614
  42 4   H  1S         -0.00058   0.18524  -0.23263   0.23263  -0.23263
  43        2S          0.01533   0.03321  -0.23757   0.23757  -0.23757
  44        3S          0.00175  -0.00237  -0.02910   0.02910  -0.02910
  45        4PX        -0.00096   0.01379   0.00597   0.00977  -0.00977
  46        4PY         0.00096  -0.01379   0.00977   0.00597   0.00977
  47        4PZ        -0.00096   0.01379  -0.00977   0.00977   0.00597
  48        5PX         0.00289   0.00842  -0.02614   0.02629  -0.02629
  49        5PY        -0.00289  -0.00842   0.02629  -0.02614   0.02629
  50        5PZ         0.00289   0.00842  -0.02629   0.02629  -0.02614
  51 5   H  1S         -0.00058   0.18524   0.23263  -0.23263  -0.23263
  52        2S          0.01533   0.03321   0.23757  -0.23757  -0.23757
  53        3S          0.00175  -0.00237   0.02910  -0.02910  -0.02910
  54        4PX         0.00096  -0.01379   0.00597   0.00977   0.00977
  55        4PY        -0.00096   0.01379   0.00977   0.00597  -0.00977
  56        4PZ        -0.00096   0.01379   0.00977  -0.00977   0.00597
  57        5PX        -0.00289  -0.00842  -0.02614   0.02629   0.02629
  58        5PY         0.00289   0.00842   0.02629  -0.02614  -0.02629
  59        5PZ         0.00289   0.00842   0.02629  -0.02629  -0.02614
                           6         7         8         9        10
                        (A1)--V   (T2)--V   (T2)--V   (T2)--V   (T2)--V
     Eigenvalues --     0.00162   0.03740   0.03740   0.03740   0.10301
   1 1   C  1S         -0.06055   0.00000   0.00000   0.00000   0.00000
   2        2S          0.11786   0.00000   0.00000   0.00000   0.00000
   3        3S          0.77797   0.00000   0.00000   0.00000   0.00000
   4        4S          2.11699   0.00000   0.00000   0.00000   0.00000
   5        5PX         0.00000   0.00000   0.00000  -0.13338   0.00000
   6        5PY         0.00000  -0.13338   0.00000   0.00000   0.00000
   7        5PZ         0.00000   0.00000  -0.13338   0.00000  -0.05171
   8        6PX         0.00000   0.00000   0.00000  -0.15850   0.00000
   9        6PY         0.00000  -0.15850   0.00000   0.00000   0.00000
  10        6PZ         0.00000   0.00000  -0.15850   0.00000   1.26726
  11        7PX         0.00000   0.00000   0.00000  -1.10938   0.00000
  12        7PY         0.00000  -1.10938   0.00000   0.00000   0.00000
  13        7PZ         0.00000   0.00000  -1.10938   0.00000   3.58593
  14        8D 0       -0.00000   0.00000   0.00000   0.00000   0.00000
  15        8D+1        0.00000   0.00081   0.00000   0.00000   0.00000
  16        8D-1        0.00000   0.00000   0.00000   0.00081   0.00000
  17        8D+2       -0.00000   0.00000   0.00000   0.00000   0.00000
  18        8D-2        0.00000   0.00000   0.00081   0.00000  -0.02281
  19        9D 0        0.00000   0.00000   0.00000   0.00000   0.00000
  20        9D+1        0.00000   0.03635   0.00000   0.00000   0.00000
  21        9D-1        0.00000   0.00000   0.00000   0.03635   0.00000
  22        9D+2        0.00000   0.00000   0.00000   0.00000   0.00000
  23        9D-2        0.00000   0.00000   0.03635   0.00000   0.26076
  24 2   H  1S         -0.00371  -0.01788  -0.01788  -0.01788  -0.09826
  25        2S         -0.35758   0.01586   0.01586   0.01586  -1.71760
  26        3S         -0.64383   2.45741   2.45741   2.45741  -3.10296
  27        4PX        -0.00514   0.00622   0.00622   0.00099   0.00140
  28        4PY        -0.00514   0.00099   0.00622   0.00622   0.00140
  29        4PZ        -0.00514   0.00622   0.00099   0.00622   0.01109
  30        5PX         0.01856  -0.01501  -0.01501   0.05558   0.19659
  31        5PY         0.01856   0.05558  -0.01501  -0.01501   0.19659
  32        5PZ         0.01856  -0.01501   0.05558  -0.01501   0.17235
  33 3   H  1S         -0.00371   0.01788  -0.01788   0.01788  -0.09826
  34        2S         -0.35758  -0.01586   0.01586  -0.01586  -1.71760
  35        3S         -0.64383  -2.45741   2.45741  -2.45741  -3.10296
  36        4PX         0.00514   0.00622  -0.00622   0.00099  -0.00140
  37        4PY         0.00514   0.00099  -0.00622   0.00622  -0.00140
  38        4PZ        -0.00514  -0.00622   0.00099  -0.00622   0.01109
  39        5PX        -0.01856  -0.01501   0.01501   0.05558  -0.19659
  40        5PY        -0.01856   0.05558   0.01501  -0.01501  -0.19659
  41        5PZ         0.01856   0.01501   0.05558   0.01501   0.17235
  42 4   H  1S         -0.00371  -0.01788   0.01788   0.01788   0.09826
  43        2S         -0.35758   0.01586  -0.01586  -0.01586   1.71760
  44        3S         -0.64383   2.45741  -2.45741  -2.45741   3.10296
  45        4PX         0.00514  -0.00622   0.00622   0.00099   0.00140
  46        4PY        -0.00514   0.00099  -0.00622  -0.00622  -0.00140
  47        4PZ         0.00514  -0.00622   0.00099   0.00622   0.01109
  48        5PX        -0.01856   0.01501  -0.01501   0.05558   0.19659
  49        5PY         0.01856   0.05558   0.01501   0.01501  -0.19659
  50        5PZ        -0.01856   0.01501   0.05558  -0.01501   0.17235
  51 5   H  1S         -0.00371   0.01788   0.01788  -0.01788   0.09826
  52        2S         -0.35758  -0.01586  -0.01586   0.01586   1.71760
  53        3S         -0.64383  -2.45741  -2.45741   2.45741   3.10296
  54        4PX        -0.00514  -0.00622  -0.00622   0.00099  -0.00140
  55        4PY         0.00514   0.00099   0.00622  -0.00622   0.00140
  56        4PZ         0.00514   0.00622   0.00099  -0.00622   0.01109
  57        5PX         0.01856   0.01501   0.01501   0.05558  -0.19659
  58        5PY        -0.01856   0.05558  -0.01501   0.01501   0.19659
  59        5PZ        -0.01856  -0.01501   0.05558   0.01501   0.17235
                          11        12        13        14        15
                        (T2)--V   (T2)--V   (A1)--V   (T2)--V   (T2)--V
     Eigenvalues --     0.10301   0.10301   0.11667   0.18032   0.18032
   1 1   C  1S          0.00000   0.00000   0.06234   0.00000   0.00000
   2        2S          0.00000   0.00000  -0.31280   0.00000   0.00000
   3        3S          0.00000   0.00000   1.73267   0.00000   0.00000
   4        4S          0.00000   0.00000   7.25803   0.00000   0.00000
   5        5PX         0.00000  -0.05171   0.00000   0.37025   0.00000
   6        5PY        -0.05171   0.00000   0.00000   0.00000   0.37025
   7        5PZ         0.00000   0.00000   0.00000   0.00000   0.00000
   8        6PX         0.00000   1.26726   0.00000   0.31891   0.00000
   9        6PY         1.26726   0.00000   0.00000   0.00000   0.31891
  10        6PZ         0.00000   0.00000   0.00000   0.00000   0.00000
  11        7PX         0.00000   3.58593   0.00000  -1.69288   0.00000
  12        7PY         3.58593   0.00000   0.00000   0.00000  -1.69288
  13        7PZ         0.00000   0.00000   0.00000   0.00000   0.00000
  14        8D 0        0.00000   0.00000  -0.00000   0.00000   0.00000
  15        8D+1       -0.02281   0.00000   0.00000   0.00000  -0.04838
  16        8D-1        0.00000  -0.02281   0.00000  -0.04838   0.00000
  17        8D+2        0.00000   0.00000  -0.00000   0.00000   0.00000
  18        8D-2        0.00000   0.00000   0.00000   0.00000   0.00000
  19        9D 0        0.00000   0.00000   0.00000   0.00000   0.00000
  20        9D+1        0.26076   0.00000   0.00000   0.00000   0.04476
  21        9D-1        0.00000   0.26076   0.00000   0.04476   0.00000
  22        9D+2        0.00000   0.00000   0.00000   0.00000   0.00000
  23        9D-2        0.00000   0.00000   0.00000   0.00000   0.00000
  24 2   H  1S         -0.09826  -0.09826   0.02365  -0.09497  -0.09497
  25        2S         -1.71760  -1.71760  -1.17594  -0.48393  -0.48393
  26        3S         -3.10296  -3.10296  -1.20725   2.14378   2.14378
  27        4PX         0.00140   0.01109   0.01739  -0.00041  -0.01214
  28        4PY         0.01109   0.00140   0.01739  -0.01214  -0.00041
  29        4PZ         0.00140   0.00140   0.01739  -0.01214  -0.01214
  30        5PX         0.19659   0.17235   0.19667   0.07716  -0.20856
  31        5PY         0.17235   0.19659   0.19667  -0.20856   0.07716
  32        5PZ         0.19659   0.19659   0.19667  -0.20856  -0.20856
  33 3   H  1S          0.09826   0.09826   0.02365   0.09497   0.09497
  34        2S          1.71760   1.71760  -1.17594   0.48393   0.48393
  35        3S          3.10296   3.10296  -1.20725  -2.14378  -2.14378
  36        4PX         0.00140   0.01109  -0.01739  -0.00041  -0.01214
  37        4PY         0.01109   0.00140  -0.01739  -0.01214  -0.00041
  38        4PZ        -0.00140  -0.00140   0.01739   0.01214   0.01214
  39        5PX         0.19659   0.17235  -0.19667   0.07716  -0.20856
  40        5PY         0.17235   0.19659  -0.19667  -0.20856   0.07716
  41        5PZ        -0.19659  -0.19659   0.19667   0.20856   0.20856
  42 4   H  1S         -0.09826   0.09826   0.02365   0.09497  -0.09497
  43        2S         -1.71760   1.71760  -1.17594   0.48393  -0.48393
  44        3S         -3.10296   3.10296  -1.20725  -2.14378   2.14378
  45        4PX        -0.00140   0.01109  -0.01739  -0.00041   0.01214
  46        4PY         0.01109  -0.00140   0.01739   0.01214  -0.00041
  47        4PZ        -0.00140   0.00140  -0.01739  -0.01214   0.01214
  48        5PX        -0.19659   0.17235  -0.19667   0.07716   0.20856
  49        5PY         0.17235  -0.19659   0.19667   0.20856   0.07716
  50        5PZ        -0.19659   0.19659  -0.19667  -0.20856   0.20856
  51 5   H  1S          0.09826  -0.09826   0.02365  -0.09497   0.09497
  52        2S          1.71760  -1.71760  -1.17594  -0.48393   0.48393
  53        3S          3.10296  -3.10296  -1.20725   2.14378  -2.14378
  54        4PX        -0.00140   0.01109   0.01739  -0.00041   0.01214
  55        4PY         0.01109  -0.00140  -0.01739   0.01214  -0.00041
  56        4PZ         0.00140  -0.00140  -0.01739   0.01214  -0.01214
  57        5PX        -0.19659   0.17235   0.19667   0.07716   0.20856
  58        5PY         0.17235  -0.19659  -0.19667   0.20856   0.07716
  59        5PZ         0.19659  -0.19659  -0.19667   0.20856  -0.20856
                          16        17        18        19        20
                        (T2)--V   (E)--V    (E)--V    (A1)--V   (T2)--V
     Eigenvalues --     0.18032   0.21506   0.21506   0.31244   0.34613
   1 1   C  1S          0.00000  -0.00000   0.00000  -0.09948   0.00000
   2        2S          0.00000   0.00000   0.00000   0.15755   0.00000
   3        3S          0.00000   0.00000  -0.00000   1.46285   0.00000
   4        4S          0.00000   0.00000  -0.00000   7.77641   0.00000
   5        5PX         0.00000   0.00000   0.00000   0.00000   0.00000
   6        5PY         0.00000   0.00000   0.00000   0.00000   0.00000
   7        5PZ         0.37025   0.00000   0.00000   0.00000  -0.16055
   8        6PX         0.00000   0.00000   0.00000   0.00000   0.00000
   9        6PY         0.00000   0.00000   0.00000   0.00000   0.00000
  10        6PZ         0.31891   0.00000   0.00000   0.00000  -4.12010
  11        7PX         0.00000   0.00000   0.00000   0.00000   0.00000
  12        7PY         0.00000   0.00000   0.00000   0.00000   0.00000
  13        7PZ        -1.69288   0.00000   0.00000   0.00000  -3.12625
  14        8D 0        0.00000  -0.04909  -0.07046  -0.00000   0.00000
  15        8D+1        0.00000   0.00000   0.00000   0.00000   0.00000
  16        8D-1        0.00000   0.00000   0.00000   0.00000   0.00000
  17        8D+2        0.00000  -0.07046   0.04909   0.00000   0.00000
  18        8D-2       -0.04838   0.00000   0.00000   0.00000  -0.07535
  19        9D 0        0.00000   0.56566   0.81186   0.00000   0.00000
  20        9D+1        0.00000   0.00000   0.00000   0.00000   0.00000
  21        9D-1        0.00000   0.00000   0.00000   0.00000   0.00000
  22        9D+2        0.00000   0.81186  -0.56566   0.00000   0.00000
  23        9D-2        0.04476   0.00000   0.00000   0.00000  -0.93737
  24 2   H  1S         -0.09497  -0.00000   0.00000  -0.12782  -0.06908
  25        2S         -0.48393  -0.00000   0.00000  -2.08652   4.27732
  26        3S          2.14378   0.00000   0.00000  -0.80656   1.83621
  27        4PX        -0.01214  -0.00655   0.01396   0.00095  -0.01574
  28        4PY        -0.01214   0.01537  -0.00131   0.00095  -0.01574
  29        4PZ        -0.00041  -0.00882  -0.01265   0.00095   0.00443
  30        5PX        -0.20856  -0.34334   0.73183  -0.15619  -0.73943
  31        5PY        -0.20856   0.80545  -0.06858  -0.15619  -0.73943
  32        5PZ         0.07716  -0.46212  -0.66326  -0.15619  -0.10906
  33 3   H  1S         -0.09497  -0.00000   0.00000  -0.12782  -0.06908
  34        2S         -0.48393  -0.00000   0.00000  -2.08652   4.27732
  35        3S          2.14378   0.00000   0.00000  -0.80656   1.83621
  36        4PX         0.01214   0.00655  -0.01396  -0.00095   0.01574
  37        4PY         0.01214  -0.01537   0.00131  -0.00095   0.01574
  38        4PZ        -0.00041  -0.00882  -0.01265   0.00095   0.00443
  39        5PX         0.20856   0.34334  -0.73183   0.15619   0.73943
  40        5PY         0.20856  -0.80545   0.06858   0.15619   0.73943
  41        5PZ         0.07716  -0.46212  -0.66326  -0.15619  -0.10906
  42 4   H  1S          0.09497  -0.00000   0.00000  -0.12782   0.06908
  43        2S          0.48393  -0.00000   0.00000  -2.08652  -4.27732
  44        3S         -2.14378   0.00000   0.00000  -0.80656  -1.83621
  45        4PX        -0.01214   0.00655  -0.01396  -0.00095  -0.01574
  46        4PY         0.01214   0.01537  -0.00131   0.00095   0.01574
  47        4PZ        -0.00041   0.00882   0.01265  -0.00095   0.00443
  48        5PX        -0.20856   0.34334  -0.73183   0.15619  -0.73943
  49        5PY         0.20856   0.80545  -0.06858  -0.15619   0.73943
  50        5PZ         0.07716   0.46212   0.66326   0.15619  -0.10906
  51 5   H  1S          0.09497  -0.00000   0.00000  -0.12782   0.06908
  52        2S          0.48393  -0.00000   0.00000  -2.08652  -4.27732
  53        3S         -2.14378   0.00000   0.00000  -0.80656  -1.83621
  54        4PX         0.01214  -0.00655   0.01396   0.00095   0.01574
  55        4PY        -0.01214  -0.01537   0.00131  -0.00095  -0.01574
  56        4PZ        -0.00041   0.00882   0.01265  -0.00095   0.00443
  57        5PX         0.20856  -0.34334   0.73183  -0.15619   0.73943
  58        5PY        -0.20856  -0.80545   0.06858   0.15619  -0.73943
  59        5PZ         0.07716   0.46212   0.66326   0.15619  -0.10906
                          21        22        23        24        25
                        (T2)--V   (T2)--V   (T1)--V   (T1)--V   (T1)--V
     Eigenvalues --     0.34613   0.34613   0.42243   0.42243   0.42243
   1 1   C  1S          0.00000   0.00000   0.00000   0.00000   0.00000
   2        2S          0.00000   0.00000   0.00000   0.00000   0.00000
   3        3S          0.00000   0.00000   0.00000   0.00000   0.00000
   4        4S          0.00000   0.00000   0.00000   0.00000   0.00000
   5        5PX         0.00000  -0.16055   0.00000   0.00000   0.00000
   6        5PY        -0.16055   0.00000   0.00000   0.00000   0.00000
   7        5PZ         0.00000   0.00000   0.00000   0.00000   0.00000
   8        6PX         0.00000  -4.12010   0.00000  -0.00000   0.00000
   9        6PY        -4.12010   0.00000  -0.00000   0.00000   0.00000
  10        6PZ         0.00000   0.00000   0.00000   0.00000   0.00000
  11        7PX         0.00000  -3.12625   0.00000   0.00000   0.00000
  12        7PY        -3.12625   0.00000   0.00000   0.00000   0.00000
  13        7PZ         0.00000   0.00000   0.00000   0.00000   0.00000
  14        8D 0        0.00000   0.00000   0.00000   0.00000   0.00000
  15        8D+1       -0.07535   0.00000   0.00000   0.00000   0.00000
  16        8D-1        0.00000  -0.07535   0.00000   0.00000   0.00000
  17        8D+2        0.00000   0.00000   0.00000   0.00000   0.00000
  18        8D-2        0.00000   0.00000   0.00000   0.00000   0.00000
  19        9D 0        0.00000   0.00000   0.00000   0.00000   0.00000
  20        9D+1       -0.93737   0.00000  -0.00000   0.00000   0.00000
  21        9D-1        0.00000  -0.93737   0.00000   0.00000   0.00000
  22        9D+2        0.00000   0.00000   0.00000   0.00000   0.00000
  23        9D-2        0.00000   0.00000   0.00000   0.00000  -0.00000
  24 2   H  1S         -0.06908  -0.06908   0.00000   0.00000  -0.00000
  25        2S          4.27732   4.27732   0.00000   0.00000   0.00000
  26        3S          1.83621   1.83621  -0.00000  -0.00000  -0.00000
  27        4PX        -0.01574   0.00443  -0.00606   0.00000  -0.00606
  28        4PY         0.00443  -0.01574   0.00000  -0.00606   0.00606
  29        4PZ        -0.01574  -0.01574   0.00606   0.00606   0.00000
  30        5PX        -0.73943  -0.10906   0.81599  -0.00000   0.81599
  31        5PY        -0.10906  -0.73943  -0.00000   0.81599  -0.81599
  32        5PZ        -0.73943  -0.73943  -0.81599  -0.81599  -0.00000
  33 3   H  1S          0.06908   0.06908  -0.00000  -0.00000  -0.00000
  34        2S         -4.27732  -4.27732  -0.00000  -0.00000   0.00000
  35        3S         -1.83621  -1.83621   0.00000   0.00000  -0.00000
  36        4PX        -0.01574   0.00443  -0.00606   0.00000   0.00606
  37        4PY         0.00443  -0.01574   0.00000  -0.00606  -0.00606
  38        4PZ         0.01574   0.01574  -0.00606  -0.00606   0.00000
  39        5PX        -0.73943  -0.10906   0.81599  -0.00000  -0.81599
  40        5PY        -0.10906  -0.73943  -0.00000   0.81599   0.81599
  41        5PZ         0.73943   0.73943   0.81599   0.81599  -0.00000
  42 4   H  1S         -0.06908   0.06908   0.00000  -0.00000   0.00000
  43        2S          4.27732  -4.27732   0.00000  -0.00000  -0.00000
  44        3S          1.83621  -1.83621  -0.00000   0.00000   0.00000
  45        4PX         0.01574   0.00443   0.00606   0.00000  -0.00606
  46        4PY         0.00443   0.01574   0.00000   0.00606  -0.00606
  47        4PZ         0.01574  -0.01574  -0.00606   0.00606   0.00000
  48        5PX         0.73943  -0.10906  -0.81599  -0.00000   0.81599
  49        5PY        -0.10906   0.73943  -0.00000  -0.81599   0.81599
  50        5PZ         0.73943  -0.73943   0.81599  -0.81599  -0.00000
  51 5   H  1S          0.06908  -0.06908  -0.00000   0.00000   0.00000
  52        2S         -4.27732   4.27732  -0.00000   0.00000  -0.00000
  53        3S         -1.83621   1.83621   0.00000  -0.00000   0.00000
  54        4PX         0.01574   0.00443   0.00606   0.00000   0.00606
  55        4PY         0.00443   0.01574   0.00000   0.00606   0.00606
  56        4PZ        -0.01574   0.01574   0.00606  -0.00606   0.00000
  57        5PX         0.73943  -0.10906  -0.81599  -0.00000  -0.81599
  58        5PY        -0.10906   0.73943  -0.00000  -0.81599  -0.81599
  59        5PZ        -0.73943   0.73943  -0.81599   0.81599  -0.00000
                          26        27        28        29        30
                        (A1)--V   (T2)--V   (T2)--V   (T2)--V   (T2)--V
     Eigenvalues --     0.46208   0.48578   0.48578   0.48578   0.58023
   1 1   C  1S         -0.14735   0.00000   0.00000   0.00000   0.00000
   2        2S         -0.02014   0.00000   0.00000   0.00000   0.00000
   3        3S         11.10382   0.00000   0.00000   0.00000   0.00000
   4        4S          6.09314   0.00000   0.00000   0.00000   0.00000
   5        5PX         0.00000   0.00000   0.00000   0.27958   0.00000
   6        5PY         0.00000   0.27958   0.00000   0.00000   0.00000
   7        5PZ         0.00000   0.00000   0.27958   0.00000   0.17599
   8        6PX         0.00000   0.00000   0.00000   2.99898   0.00000
   9        6PY         0.00000   2.99898   0.00000   0.00000   0.00000
  10        6PZ         0.00000   0.00000   2.99898   0.00000  -7.19139
  11        7PX         0.00000   0.00000   0.00000   1.20180   0.00000
  12        7PY         0.00000   1.20180   0.00000   0.00000   0.00000
  13        7PZ         0.00000   0.00000   1.20180   0.00000   0.29565
  14        8D 0       -0.00000   0.00000   0.00000   0.00000   0.00000
  15        8D+1        0.00000   0.00342   0.00000   0.00000   0.00000
  16        8D-1        0.00000   0.00000   0.00000   0.00342   0.00000
  17        8D+2        0.00000   0.00000   0.00000   0.00000   0.00000
  18        8D-2        0.00000   0.00000   0.00342   0.00000  -0.03255
  19        9D 0       -0.00000   0.00000   0.00000   0.00000   0.00000
  20        9D+1        0.00000  -1.67001   0.00000   0.00000   0.00000
  21        9D-1        0.00000   0.00000   0.00000  -1.67001   0.00000
  22        9D+2        0.00000   0.00000   0.00000   0.00000   0.00000
  23        9D-2        0.00000   0.00000  -1.67001   0.00000  -2.22776
  24 2   H  1S         -0.02091  -0.11533  -0.11533  -0.11533  -0.06302
  25        2S         -3.54299  -1.35956  -1.35956  -1.35956  10.84660
  26        3S         -0.71342  -1.13332  -1.13332  -1.13332  -0.41937
  27        4PX         0.00042  -0.00525  -0.00525   0.00459  -0.02488
  28        4PY         0.00042   0.00459  -0.00525  -0.00525  -0.02488
  29        4PZ         0.00042  -0.00525   0.00459  -0.00525   0.01559
  30        5PX         0.92866   1.09627   1.09627  -0.15686  -1.95422
  31        5PY         0.92866  -0.15686   1.09627   1.09627  -1.95422
  32        5PZ         0.92866   1.09627  -0.15686   1.09627  -3.67741
  33 3   H  1S         -0.02091   0.11533  -0.11533   0.11533  -0.06302
  34        2S         -3.54299   1.35956  -1.35956   1.35956  10.84660
  35        3S         -0.71342   1.13332  -1.13332   1.13332  -0.41937
  36        4PX        -0.00042  -0.00525   0.00525   0.00459   0.02488
  37        4PY        -0.00042   0.00459   0.00525  -0.00525   0.02488
  38        4PZ         0.00042   0.00525   0.00459   0.00525   0.01559
  39        5PX        -0.92866   1.09627  -1.09627  -0.15686   1.95422
  40        5PY        -0.92866  -0.15686  -1.09627   1.09627   1.95422
  41        5PZ         0.92866  -1.09627  -0.15686  -1.09627  -3.67741
  42 4   H  1S         -0.02091  -0.11533   0.11533   0.11533   0.06302
  43        2S         -3.54299  -1.35956   1.35956   1.35956 -10.84660
  44        3S         -0.71342  -1.13332   1.13332   1.13332   0.41937
  45        4PX        -0.00042   0.00525  -0.00525   0.00459  -0.02488
  46        4PY         0.00042   0.00459   0.00525   0.00525   0.02488
  47        4PZ        -0.00042   0.00525   0.00459  -0.00525   0.01559
  48        5PX        -0.92866  -1.09627   1.09627  -0.15686  -1.95422
  49        5PY         0.92866  -0.15686  -1.09627  -1.09627   1.95422
  50        5PZ        -0.92866  -1.09627  -0.15686   1.09627  -3.67741
  51 5   H  1S         -0.02091   0.11533   0.11533  -0.11533   0.06302
  52        2S         -3.54299   1.35956   1.35956  -1.35956 -10.84660
  53        3S         -0.71342   1.13332   1.13332  -1.13332   0.41937
  54        4PX         0.00042   0.00525   0.00525   0.00459   0.02488
  55        4PY        -0.00042   0.00459  -0.00525   0.00525  -0.02488
  56        4PZ        -0.00042  -0.00525   0.00459   0.00525   0.01559
  57        5PX         0.92866  -1.09627  -1.09627  -0.15686   1.95422
  58        5PY        -0.92866  -0.15686   1.09627  -1.09627  -1.95422
  59        5PZ        -0.92866   1.09627  -0.15686  -1.09627  -3.67741
                          31        32        33        34        35
                        (T2)--V   (T2)--V   (E)--V    (E)--V    (T2)--V
     Eigenvalues --     0.58023   0.58023   0.59826   0.59826   0.77475
   1 1   C  1S          0.00000   0.00000   0.00000   0.00000   0.00000
   2        2S          0.00000   0.00000  -0.00000  -0.00000   0.00000
   3        3S          0.00000   0.00000  -0.00000  -0.00000   0.00000
   4        4S          0.00000   0.00000  -0.00000  -0.00000   0.00000
   5        5PX         0.17599   0.00000   0.00000   0.00000   0.00000
   6        5PY         0.00000   0.17599   0.00000   0.00000  -0.77476
   7        5PZ         0.00000   0.00000   0.00000   0.00000   0.00000
   8        6PX        -7.19139   0.00000   0.00000   0.00000   0.00000
   9        6PY         0.00000  -7.19139   0.00000   0.00000   2.15008
  10        6PZ         0.00000   0.00000   0.00000   0.00000   0.00000
  11        7PX         0.29565   0.00000   0.00000   0.00000   0.00000
  12        7PY         0.00000   0.29565   0.00000   0.00000   0.33003
  13        7PZ         0.00000   0.00000   0.00000   0.00000   0.00000
  14        8D 0        0.00000   0.00000   0.01132  -0.01049   0.00000
  15        8D+1        0.00000  -0.03255   0.00000   0.00000   0.31431
  16        8D-1       -0.03255   0.00000   0.00000   0.00000   0.00000
  17        8D+2        0.00000   0.00000   0.01049   0.01132   0.00000
  18        8D-2        0.00000   0.00000   0.00000   0.00000   0.00000
  19        9D 0        0.00000   0.00000   2.89477  -2.68167   0.00000
  20        9D+1        0.00000  -2.22776   0.00000   0.00000  -1.58397
  21        9D-1       -2.22776   0.00000   0.00000   0.00000   0.00000
  22        9D+2        0.00000   0.00000   2.68167   2.89477   0.00000
  23        9D-2        0.00000   0.00000   0.00000   0.00000   0.00000
  24 2   H  1S         -0.06302  -0.06302   0.00000  -0.00000   0.28531
  25        2S         10.84660  10.84660   0.00000   0.00000   0.39336
  26        3S         -0.41937  -0.41937   0.00000   0.00000   0.10014
  27        4PX         0.01559  -0.02488   0.00426   0.01873   0.11684
  28        4PY        -0.02488   0.01559  -0.01835  -0.00568   0.04547
  29        4PZ        -0.02488  -0.02488   0.01409  -0.01306   0.11684
  30        5PX        -3.67741  -1.95422  -0.35008  -1.53944   0.15685
  31        5PY        -1.95422  -3.67741   1.50823   0.46654  -1.04281
  32        5PZ        -1.95422  -1.95422  -1.15815   1.07290   0.15685
  33 3   H  1S          0.06302   0.06302   0.00000  -0.00000  -0.28531
  34        2S        -10.84660 -10.84660   0.00000   0.00000  -0.39336
  35        3S          0.41937   0.41937   0.00000   0.00000  -0.10014
  36        4PX         0.01559  -0.02488  -0.00426  -0.01873   0.11684
  37        4PY        -0.02488   0.01559   0.01835   0.00568   0.04547
  38        4PZ         0.02488   0.02488   0.01409  -0.01306  -0.11684
  39        5PX        -3.67741  -1.95422   0.35008   1.53944   0.15685
  40        5PY        -1.95422  -3.67741  -1.50823  -0.46654  -1.04281
  41        5PZ         1.95422   1.95422  -1.15815   1.07290  -0.15685
  42 4   H  1S          0.06302  -0.06302   0.00000  -0.00000   0.28531
  43        2S        -10.84660  10.84660   0.00000   0.00000   0.39336
  44        3S          0.41937  -0.41937   0.00000   0.00000   0.10014
  45        4PX         0.01559   0.02488  -0.00426  -0.01873  -0.11684
  46        4PY         0.02488   0.01559  -0.01835  -0.00568   0.04547
  47        4PZ        -0.02488   0.02488  -0.01409   0.01306  -0.11684
  48        5PX        -3.67741   1.95422   0.35008   1.53944  -0.15685
  49        5PY         1.95422  -3.67741   1.50823   0.46654  -1.04281
  50        5PZ        -1.95422   1.95422   1.15815  -1.07290  -0.15685
  51 5   H  1S         -0.06302   0.06302   0.00000  -0.00000  -0.28531
  52        2S         10.84660 -10.84660   0.00000   0.00000  -0.39336
  53        3S         -0.41937   0.41937   0.00000   0.00000  -0.10014
  54        4PX         0.01559   0.02488   0.00426   0.01873  -0.11684
  55        4PY         0.02488   0.01559   0.01835   0.00568   0.04547
  56        4PZ         0.02488  -0.02488  -0.01409   0.01306   0.11684
  57        5PX        -3.67741   1.95422  -0.35008  -1.53944  -0.15685
  58        5PY         1.95422  -3.67741  -1.50823  -0.46654  -1.04281
  59        5PZ         1.95422  -1.95422   1.15815  -1.07290   0.15685
                          36        37        38        39        40
                        (T2)--V   (T2)--V   (A1)--V   (T2)--V   (T2)--V
     Eigenvalues --     0.77475   0.77475   0.89149   1.13149   1.13149
   1 1   C  1S          0.00000   0.00000   0.05501   0.00000   0.00000
   2        2S          0.00000   0.00000  -0.61752   0.00000   0.00000
   3        3S          0.00000   0.00000   2.32657   0.00000   0.00000
   4        4S          0.00000   0.00000   5.40030   0.00000   0.00000
   5        5PX        -0.77476   0.00000   0.00000   0.00000   0.00000
   6        5PY         0.00000   0.00000   0.00000  -0.61252   0.00000
   7        5PZ         0.00000  -0.77476   0.00000   0.00000  -0.61252
   8        6PX         2.15008   0.00000   0.00000   0.00000   0.00000
   9        6PY         0.00000   0.00000   0.00000   7.82840   0.00000
  10        6PZ         0.00000   2.15008   0.00000   0.00000   7.82840
  11        7PX         0.33003   0.00000   0.00000   0.00000   0.00000
  12        7PY         0.00000   0.00000   0.00000   1.72965   0.00000
  13        7PZ         0.00000   0.33003   0.00000   0.00000   1.72965
  14        8D 0        0.00000   0.00000  -0.00000   0.00000   0.00000
  15        8D+1        0.00000   0.00000   0.00000  -0.42272   0.00000
  16        8D-1        0.31431   0.00000   0.00000   0.00000   0.00000
  17        8D+2        0.00000   0.00000  -0.00000   0.00000   0.00000
  18        8D-2        0.00000   0.31431   0.00000   0.00000  -0.42272
  19        9D 0        0.00000   0.00000  -0.00000   0.00000   0.00000
  20        9D+1        0.00000   0.00000   0.00000   2.36956   0.00000
  21        9D-1       -1.58397   0.00000   0.00000   0.00000   0.00000
  22        9D+2        0.00000   0.00000  -0.00000   0.00000   0.00000
  23        9D-2        0.00000  -1.58397   0.00000   0.00000   2.36956
  24 2   H  1S          0.28531   0.28531   0.72996  -0.58130  -0.58130
  25        2S          0.39336   0.39336  -2.13953  -6.55883  -6.55883
  26        3S          0.10014   0.10014  -0.49661  -0.90354  -0.90354
  27        4PX         0.04547   0.11684   0.09124  -0.02556  -0.02556
  28        4PY         0.11684   0.11684   0.09124   0.10892  -0.02556
  29        4PZ         0.11684   0.04547   0.09124  -0.02556   0.10892
  30        5PX        -1.04281   0.15685  -0.03105   1.05532   1.05532
  31        5PY         0.15685   0.15685  -0.03105   0.84374   1.05532
  32        5PZ         0.15685  -1.04281  -0.03105   1.05532   0.84374
  33 3   H  1S         -0.28531   0.28531   0.72996   0.58130  -0.58130
  34        2S         -0.39336   0.39336  -2.13953   6.55883  -6.55883
  35        3S         -0.10014   0.10014  -0.49661   0.90354  -0.90354
  36        4PX         0.04547  -0.11684  -0.09124  -0.02556   0.02556
  37        4PY         0.11684  -0.11684  -0.09124   0.10892   0.02556
  38        4PZ        -0.11684   0.04547   0.09124   0.02556   0.10892
  39        5PX        -1.04281  -0.15685   0.03105   1.05532  -1.05532
  40        5PY         0.15685  -0.15685   0.03105   0.84374  -1.05532
  41        5PZ        -0.15685  -1.04281  -0.03105  -1.05532   0.84374
  42 4   H  1S         -0.28531  -0.28531   0.72996  -0.58130   0.58130
  43        2S         -0.39336  -0.39336  -2.13953  -6.55883   6.55883
  44        3S         -0.10014  -0.10014  -0.49661  -0.90354   0.90354
  45        4PX         0.04547   0.11684  -0.09124   0.02556  -0.02556
  46        4PY        -0.11684  -0.11684   0.09124   0.10892   0.02556
  47        4PZ         0.11684   0.04547  -0.09124   0.02556   0.10892
  48        5PX        -1.04281   0.15685   0.03105  -1.05532   1.05532
  49        5PY        -0.15685  -0.15685  -0.03105   0.84374  -1.05532
  50        5PZ         0.15685  -1.04281   0.03105  -1.05532   0.84374
  51 5   H  1S          0.28531  -0.28531   0.72996   0.58130   0.58130
  52        2S          0.39336  -0.39336  -2.13953   6.55883   6.55883
  53        3S          0.10014  -0.10014  -0.49661   0.90354   0.90354
  54        4PX         0.04547  -0.11684   0.09124   0.02556   0.02556
  55        4PY        -0.11684   0.11684  -0.09124   0.10892  -0.02556
  56        4PZ        -0.11684   0.04547  -0.09124  -0.02556   0.10892
  57        5PX        -1.04281  -0.15685  -0.03105  -1.05532  -1.05532
  58        5PY        -0.15685   0.15685   0.03105   0.84374   1.05532
  59        5PZ        -0.15685  -1.04281   0.03105   1.05532   0.84374
                          41        42        43        44        45
                        (T2)--V   (E)--V    (E)--V    (T1)--V   (T1)--V
     Eigenvalues --     1.13149   1.50447   1.50447   1.62346   1.62346
   1 1   C  1S          0.00000   0.00000  -0.00000   0.00000   0.00000
   2        2S          0.00000   0.00000  -0.00000   0.00000   0.00000
   3        3S          0.00000  -0.00000   0.00000   0.00000   0.00000
   4        4S          0.00000  -0.00000   0.00000   0.00000   0.00000
   5        5PX        -0.61252   0.00000   0.00000   0.00000   0.00000
   6        5PY         0.00000   0.00000   0.00000  -0.00000   0.00000
   7        5PZ         0.00000   0.00000   0.00000   0.00000   0.00000
   8        6PX         7.82840   0.00000   0.00000   0.00000  -0.00000
   9        6PY         0.00000   0.00000   0.00000  -0.00000   0.00000
  10        6PZ         0.00000   0.00000   0.00000   0.00000   0.00000
  11        7PX         1.72965   0.00000   0.00000   0.00000  -0.00000
  12        7PY         0.00000   0.00000   0.00000  -0.00000   0.00000
  13        7PZ         0.00000   0.00000   0.00000   0.00000   0.00000
  14        8D 0        0.00000  -0.74776   0.56066   0.00000   0.00000
  15        8D+1        0.00000   0.00000   0.00000   0.00000   0.00000
  16        8D-1       -0.42272   0.00000   0.00000   0.00000   0.00000
  17        8D+2        0.00000  -0.56066  -0.74776   0.00000   0.00000
  18        8D-2        0.00000   0.00000   0.00000   0.00000   0.00000
  19        9D 0        0.00000   2.62493  -1.96812   0.00000   0.00000
  20        9D+1        0.00000   0.00000   0.00000  -0.00000   0.00000
  21        9D-1        2.36956   0.00000   0.00000   0.00000  -0.00000
  22        9D+2        0.00000   1.96812   2.62493   0.00000   0.00000
  23        9D-2        0.00000   0.00000   0.00000   0.00000   0.00000
  24 2   H  1S         -0.58130  -0.00000  -0.00000  -0.00000  -0.00000
  25        2S         -6.55883   0.00000  -0.00000   0.00000   0.00000
  26        3S         -0.90354   0.00000  -0.00000   0.00000   0.00000
  27        4PX         0.10892  -0.02859  -0.23754   0.40946  -0.00000
  28        4PY        -0.02556   0.22001   0.09402  -0.00000   0.40946
  29        4PZ        -0.02556  -0.19142   0.14353  -0.40946  -0.40946
  30        5PX         0.84374  -0.12390  -1.02960  -0.37603  -0.00000
  31        5PY         1.05532   0.95361   0.40750  -0.00000  -0.37603
  32        5PZ         1.05532  -0.82971   0.62210   0.37603   0.37603
  33 3   H  1S          0.58130  -0.00000  -0.00000   0.00000   0.00000
  34        2S          6.55883   0.00000  -0.00000  -0.00000  -0.00000
  35        3S          0.90354   0.00000  -0.00000  -0.00000  -0.00000
  36        4PX         0.10892   0.02859   0.23754   0.40946  -0.00000
  37        4PY        -0.02556  -0.22001  -0.09402  -0.00000   0.40946
  38        4PZ         0.02556  -0.19142   0.14353   0.40946   0.40946
  39        5PX         0.84374   0.12390   1.02960  -0.37603  -0.00000
  40        5PY         1.05532  -0.95361  -0.40750  -0.00000  -0.37603
  41        5PZ        -1.05532  -0.82971   0.62210  -0.37603  -0.37603
  42 4   H  1S          0.58130  -0.00000  -0.00000  -0.00000   0.00000
  43        2S          6.55883   0.00000  -0.00000   0.00000  -0.00000
  44        3S          0.90354   0.00000  -0.00000   0.00000  -0.00000
  45        4PX         0.10892   0.02859   0.23754  -0.40946  -0.00000
  46        4PY         0.02556   0.22001   0.09402  -0.00000  -0.40946
  47        4PZ        -0.02556   0.19142  -0.14353   0.40946  -0.40946
  48        5PX         0.84374   0.12390   1.02960   0.37603  -0.00000
  49        5PY        -1.05532   0.95361   0.40750  -0.00000   0.37603
  50        5PZ         1.05532   0.82971  -0.62210  -0.37603   0.37603
  51 5   H  1S         -0.58130  -0.00000  -0.00000   0.00000  -0.00000
  52        2S         -6.55883   0.00000  -0.00000  -0.00000   0.00000
  53        3S         -0.90354   0.00000  -0.00000  -0.00000   0.00000
  54        4PX         0.10892  -0.02859  -0.23754  -0.40946  -0.00000
  55        4PY         0.02556  -0.22001  -0.09402  -0.00000  -0.40946
  56        4PZ         0.02556   0.19142  -0.14353  -0.40946   0.40946
  57        5PX         0.84374  -0.12390  -1.02960   0.37603  -0.00000
  58        5PY        -1.05532  -0.95361  -0.40750  -0.00000   0.37603
  59        5PZ        -1.05532   0.82971  -0.62210   0.37603  -0.37603
                          46        47        48        49        50
                        (T1)--V   (A1)--V   (T2)--V   (T2)--V   (T2)--V
     Eigenvalues --     1.62346   1.76197   1.92367   1.92367   1.92367
   1 1   C  1S          0.00000  -0.27587   0.00000   0.00000   0.00000
   2        2S          0.00000  -3.04218   0.00000   0.00000   0.00000
   3        3S          0.00000  19.54680   0.00000   0.00000   0.00000
   4        4S          0.00000   6.16362   0.00000   0.00000   0.00000
   5        5PX         0.00000   0.00000   0.00000   0.00000  -0.54814
   6        5PY         0.00000   0.00000  -0.54814   0.00000   0.00000
   7        5PZ        -0.00000   0.00000   0.00000  -0.54814   0.00000
   8        6PX         0.00000   0.00000   0.00000   0.00000   7.71514
   9        6PY         0.00000   0.00000   7.71514   0.00000   0.00000
  10        6PZ         0.00000   0.00000   0.00000   7.71514   0.00000
  11        7PX         0.00000   0.00000   0.00000   0.00000   0.58599
  12        7PY         0.00000   0.00000   0.58599   0.00000   0.00000
  13        7PZ         0.00000   0.00000   0.00000   0.58599   0.00000
  14        8D 0        0.00000  -0.00000   0.00000   0.00000   0.00000
  15        8D+1        0.00000   0.00000   0.53546   0.00000   0.00000
  16        8D-1        0.00000   0.00000   0.00000   0.00000   0.53546
  17        8D+2        0.00000   0.00000   0.00000   0.00000   0.00000
  18        8D-2       -0.00000   0.00000   0.00000   0.53546   0.00000
  19        9D 0        0.00000   0.00000   0.00000   0.00000   0.00000
  20        9D+1        0.00000   0.00000   1.38405   0.00000   0.00000
  21        9D-1        0.00000   0.00000   0.00000   0.00000   1.38405
  22        9D+2        0.00000  -0.00000   0.00000   0.00000   0.00000
  23        9D-2        0.00000   0.00000   0.00000   1.38405   0.00000
  24 2   H  1S          0.00000  -0.65566  -0.75576  -0.75576  -0.75576
  25        2S         -0.00000  -5.08898  -6.48372  -6.48372  -6.48372
  26        3S         -0.00000  -0.59382  -0.25669  -0.25669  -0.25669
  27        4PX         0.40946   0.07095  -0.06770  -0.06770  -0.40178
  28        4PY        -0.40946   0.07095  -0.40178  -0.06770  -0.06770
  29        4PZ         0.00000   0.07095  -0.06770  -0.40178  -0.06770
  30        5PX        -0.37603   0.97455   1.30227   1.30227   1.36893
  31        5PY         0.37603   0.97455   1.36893   1.30227   1.30227
  32        5PZ         0.00000   0.97455   1.30227   1.36893   1.30227
  33 3   H  1S          0.00000  -0.65566   0.75576  -0.75576   0.75576
  34        2S         -0.00000  -5.08898   6.48372  -6.48372   6.48372
  35        3S         -0.00000  -0.59382   0.25669  -0.25669   0.25669
  36        4PX        -0.40946  -0.07095  -0.06770   0.06770  -0.40178
  37        4PY         0.40946  -0.07095  -0.40178   0.06770  -0.06770
  38        4PZ         0.00000   0.07095   0.06770  -0.40178   0.06770
  39        5PX         0.37603  -0.97455   1.30227  -1.30227   1.36893
  40        5PY        -0.37603  -0.97455   1.36893  -1.30227   1.30227
  41        5PZ         0.00000   0.97455  -1.30227   1.36893  -1.30227
  42 4   H  1S         -0.00000  -0.65566  -0.75576   0.75576   0.75576
  43        2S          0.00000  -5.08898  -6.48372   6.48372   6.48372
  44        3S          0.00000  -0.59382  -0.25669   0.25669   0.25669
  45        4PX         0.40946  -0.07095   0.06770  -0.06770  -0.40178
  46        4PY         0.40946   0.07095  -0.40178   0.06770   0.06770
  47        4PZ         0.00000  -0.07095   0.06770  -0.40178  -0.06770
  48        5PX        -0.37603  -0.97455  -1.30227   1.30227   1.36893
  49        5PY        -0.37603   0.97455   1.36893  -1.30227  -1.30227
  50        5PZ         0.00000  -0.97455  -1.30227   1.36893   1.30227
  51 5   H  1S         -0.00000  -0.65566   0.75576   0.75576  -0.75576
  52        2S          0.00000  -5.08898   6.48372   6.48372  -6.48372
  53        3S          0.00000  -0.59382   0.25669   0.25669  -0.25669
  54        4PX        -0.40946   0.07095   0.06770   0.06770  -0.40178
  55        4PY        -0.40946  -0.07095  -0.40178  -0.06770   0.06770
  56        4PZ         0.00000  -0.07095  -0.06770  -0.40178   0.06770
  57        5PX         0.37603   0.97455  -1.30227  -1.30227   1.36893
  58        5PY         0.37603  -0.97455   1.36893   1.30227  -1.30227
  59        5PZ         0.00000  -0.97455   1.30227   1.36893  -1.30227
                          51        52        53        54        55
                        (T2)--V   (T2)--V   (T2)--V   (E)--V    (E)--V
     Eigenvalues --     1.99847   1.99847   1.99847   2.33496   2.33496
   1 1   C  1S          0.00000   0.00000   0.00000  -0.00000   0.00000
   2        2S          0.00000   0.00000   0.00000  -0.00000   0.00000
   3        3S          0.00000   0.00000   0.00000   0.00000  -0.00000
   4        4S          0.00000   0.00000   0.00000   0.00000  -0.00000
   5        5PX        -0.41715   0.00000   0.00000   0.00000   0.00000
   6        5PY         0.00000  -0.41715   0.00000   0.00000   0.00000
   7        5PZ         0.00000   0.00000  -0.41715   0.00000   0.00000
   8        6PX        -1.39816   0.00000   0.00000   0.00000   0.00000
   9        6PY         0.00000  -1.39816   0.00000   0.00000   0.00000
  10        6PZ         0.00000   0.00000  -1.39816   0.00000   0.00000
  11        7PX         0.43806   0.00000   0.00000   0.00000   0.00000
  12        7PY         0.00000   0.43806   0.00000   0.00000   0.00000
  13        7PZ         0.00000   0.00000   0.43806   0.00000   0.00000
  14        8D 0        0.00000   0.00000   0.00000   1.06161  -0.59094
  15        8D+1        0.00000   0.67410   0.00000   0.00000   0.00000
  16        8D-1        0.67410   0.00000   0.00000   0.00000   0.00000
  17        8D+2        0.00000   0.00000   0.00000   0.59094   1.06161
  18        8D-2        0.00000   0.00000   0.67410   0.00000   0.00000
  19        9D 0        0.00000   0.00000   0.00000   0.15423  -0.08585
  20        9D+1        0.00000  -0.74924   0.00000   0.00000   0.00000
  21        9D-1       -0.74924   0.00000   0.00000   0.00000   0.00000
  22        9D+2        0.00000   0.00000   0.00000   0.08585   0.15423
  23        9D-2        0.00000   0.00000  -0.74924   0.00000   0.00000
  24 2   H  1S          0.06476   0.06476   0.06476  -0.00000   0.00000
  25        2S          1.76378   1.76378   1.76378  -0.00000   0.00000
  26        3S         -0.48264  -0.48264  -0.48264  -0.00000   0.00000
  27        4PX         0.39503  -0.34867  -0.34867   0.00923  -0.58928
  28        4PY        -0.34867   0.39503  -0.34867   0.50572   0.30264
  29        4PZ        -0.34867  -0.34867   0.39503  -0.51495   0.28664
  30        5PX        -0.61561  -0.08714  -0.08714  -0.00084   0.05344
  31        5PY        -0.08714  -0.61561  -0.08714  -0.04586  -0.02745
  32        5PZ        -0.08714  -0.08714  -0.61561   0.04670  -0.02600
  33 3   H  1S         -0.06476  -0.06476   0.06476  -0.00000   0.00000
  34        2S         -1.76378  -1.76378   1.76378  -0.00000   0.00000
  35        3S          0.48264   0.48264  -0.48264  -0.00000   0.00000
  36        4PX         0.39503  -0.34867   0.34867  -0.00923   0.58928
  37        4PY        -0.34867   0.39503   0.34867  -0.50572  -0.30264
  38        4PZ         0.34867   0.34867   0.39503  -0.51495   0.28664
  39        5PX        -0.61561  -0.08714   0.08714   0.00084  -0.05344
  40        5PY        -0.08714  -0.61561   0.08714   0.04586   0.02745
  41        5PZ         0.08714   0.08714  -0.61561   0.04670  -0.02600
  42 4   H  1S         -0.06476   0.06476  -0.06476  -0.00000   0.00000
  43        2S         -1.76378   1.76378  -1.76378  -0.00000   0.00000
  44        3S          0.48264  -0.48264   0.48264  -0.00000   0.00000
  45        4PX         0.39503   0.34867  -0.34867  -0.00923   0.58928
  46        4PY         0.34867   0.39503   0.34867   0.50572   0.30264
  47        4PZ        -0.34867   0.34867   0.39503   0.51495  -0.28664
  48        5PX        -0.61561   0.08714  -0.08714   0.00084  -0.05344
  49        5PY         0.08714  -0.61561   0.08714  -0.04586  -0.02745
  50        5PZ        -0.08714   0.08714  -0.61561  -0.04670   0.02600
  51 5   H  1S          0.06476  -0.06476  -0.06476  -0.00000   0.00000
  52        2S          1.76378  -1.76378  -1.76378  -0.00000   0.00000
  53        3S         -0.48264   0.48264   0.48264  -0.00000   0.00000
  54        4PX         0.39503   0.34867   0.34867   0.00923  -0.58928
  55        4PY         0.34867   0.39503  -0.34867  -0.50572  -0.30264
  56        4PZ         0.34867  -0.34867   0.39503   0.51495  -0.28664
  57        5PX        -0.61561   0.08714   0.08714  -0.00084   0.05344
  58        5PY         0.08714  -0.61561  -0.08714   0.04586   0.02745
  59        5PZ         0.08714  -0.08714  -0.61561  -0.04670   0.02600
                          56        57        58        59
                        (A1)--V   (T2)--V   (T2)--V   (T2)--V
     Eigenvalues --     2.50494   2.58595   2.58595   2.58595
   1 1   C  1S         -0.06251   0.00000   0.00000   0.00000
   2        2S          1.35743   0.00000   0.00000   0.00000
   3        3S          2.75998   0.00000   0.00000   0.00000
   4        4S          1.83147   0.00000   0.00000   0.00000
   5        5PX         0.00000   1.19060   0.00000   0.00000
   6        5PY         0.00000   0.00000   1.19060   0.00000
   7        5PZ         0.00000   0.00000   0.00000   1.19060
   8        6PX         0.00000   2.72566   0.00000   0.00000
   9        6PY         0.00000   0.00000   2.72566   0.00000
  10        6PZ         0.00000   0.00000   0.00000   2.72566
  11        7PX         0.00000   0.39902   0.00000   0.00000
  12        7PY         0.00000   0.00000   0.39902   0.00000
  13        7PZ         0.00000   0.00000   0.00000   0.39902
  14        8D 0        0.00000   0.00000   0.00000   0.00000
  15        8D+1        0.00000   0.00000   1.68417   0.00000
  16        8D-1        0.00000   1.68417   0.00000   0.00000
  17        8D+2       -0.00000   0.00000   0.00000   0.00000
  18        8D-2        0.00000   0.00000   0.00000   1.68417
  19        9D 0       -0.00000   0.00000   0.00000   0.00000
  20        9D+1        0.00000   0.00000  -0.33292   0.00000
  21        9D-1        0.00000  -0.33292   0.00000   0.00000
  22        9D+2       -0.00000   0.00000   0.00000   0.00000
  23        9D-2        0.00000   0.00000   0.00000  -0.33292
  24 2   H  1S         -0.57149  -1.07309  -1.07309  -1.07309
  25        2S         -1.02937  -0.84974  -0.84974  -0.84974
  26        3S         -0.14674  -0.11896  -0.11896  -0.11896
  27        4PX         0.49767   0.55936   0.44294   0.44294
  28        4PY         0.49767   0.44294   0.55936   0.44294
  29        4PZ         0.49767   0.44294   0.44294   0.55936
  30        5PX        -0.00744  -0.36971   0.24955   0.24955
  31        5PY        -0.00744   0.24955  -0.36971   0.24955
  32        5PZ        -0.00744   0.24955   0.24955  -0.36971
  33 3   H  1S         -0.57149   1.07309   1.07309  -1.07309
  34        2S         -1.02937   0.84974   0.84974  -0.84974
  35        3S         -0.14674   0.11896   0.11896  -0.11896
  36        4PX        -0.49767   0.55936   0.44294  -0.44294
  37        4PY        -0.49767   0.44294   0.55936  -0.44294
  38        4PZ         0.49767  -0.44294  -0.44294   0.55936
  39        5PX         0.00744  -0.36971   0.24955  -0.24955
  40        5PY         0.00744   0.24955  -0.36971  -0.24955
  41        5PZ        -0.00744  -0.24955  -0.24955  -0.36971
  42 4   H  1S         -0.57149   1.07309  -1.07309   1.07309
  43        2S         -1.02937   0.84974  -0.84974   0.84974
  44        3S         -0.14674   0.11896  -0.11896   0.11896
  45        4PX        -0.49767   0.55936  -0.44294   0.44294
  46        4PY         0.49767  -0.44294   0.55936  -0.44294
  47        4PZ        -0.49767   0.44294  -0.44294   0.55936
  48        5PX         0.00744  -0.36971  -0.24955   0.24955
  49        5PY        -0.00744  -0.24955  -0.36971  -0.24955
  50        5PZ         0.00744   0.24955  -0.24955  -0.36971
  51 5   H  1S         -0.57149  -1.07309   1.07309   1.07309
  52        2S         -1.02937  -0.84974   0.84974   0.84974
  53        3S         -0.14674  -0.11896   0.11896   0.11896
  54        4PX         0.49767   0.55936  -0.44294  -0.44294
  55        4PY        -0.49767  -0.44294   0.55936   0.44294
  56        4PZ        -0.49767  -0.44294   0.44294   0.55936
  57        5PX        -0.00744  -0.36971  -0.24955  -0.24955
  58        5PY         0.00744  -0.24955  -0.36971   0.24955
  59        5PZ         0.00744  -0.24955   0.24955  -0.36971
     Density Matrix:
                           1         2         3         4         5
   1 1   C  1S          2.06056
   2        2S         -0.07350   0.28929
   3        3S         -0.18139   0.11407   0.05636
   4        4S         -0.04948   0.02560   0.01330   0.00317
   5        5PX         0.00000   0.00000   0.00000   0.00000   0.39678
   6        5PY         0.00000   0.00000   0.00000   0.00000   0.00000
   7        5PZ         0.00000   0.00000   0.00000   0.00000   0.00000
   8        6PX         0.00000   0.00000   0.00000   0.00000   0.03031
   9        6PY         0.00000   0.00000   0.00000   0.00000   0.00000
  10        6PZ         0.00000   0.00000   0.00000   0.00000   0.00000
  11        7PX         0.00000   0.00000   0.00000   0.00000  -0.02265
  12        7PY         0.00000   0.00000   0.00000   0.00000  -0.00000
  13        7PZ         0.00000   0.00000   0.00000   0.00000  -0.00000
  14        8D 0       -0.00000   0.00000   0.00000   0.00000   0.00000
  15        8D+1        0.00000  -0.00000  -0.00000  -0.00000  -0.00000
  16        8D-1        0.00000   0.00000   0.00000   0.00000   0.01687
  17        8D+2       -0.00000   0.00000   0.00000   0.00000  -0.00000
  18        8D-2        0.00000  -0.00000  -0.00000  -0.00000   0.00000
  19        9D 0       -0.00000   0.00000   0.00000   0.00000  -0.00000
  20        9D+1        0.00000  -0.00000  -0.00000  -0.00000   0.00000
  21        9D-1       -0.00000   0.00000   0.00000   0.00000  -0.04346
  22        9D+2        0.00000  -0.00000  -0.00000   0.00000   0.00000
  23        9D-2        0.00000  -0.00000  -0.00000  -0.00000  -0.00000
  24 2   H  1S         -0.07166   0.14025   0.05799   0.01317   0.20723
  25        2S          0.01793   0.02624   0.00851   0.00180   0.21163
  26        3S          0.00440  -0.00167  -0.00096  -0.00023   0.02593
  27        4PX         0.00717  -0.01037  -0.00443  -0.00101   0.00531
  28        4PY         0.00717  -0.01037  -0.00443  -0.00101  -0.00870
  29        4PZ         0.00717  -0.01037  -0.00443  -0.00101  -0.00870
  30        5PX        -0.00255  -0.00658  -0.00228  -0.00049  -0.02328
  31        5PY        -0.00255  -0.00658  -0.00228  -0.00049  -0.02342
  32        5PZ        -0.00255  -0.00658  -0.00228  -0.00049  -0.02342
  33 3   H  1S         -0.07166   0.14025   0.05799   0.01317  -0.20723
  34        2S          0.01793   0.02624   0.00851   0.00180  -0.21163
  35        3S          0.00440  -0.00167  -0.00096  -0.00023  -0.02593
  36        4PX        -0.00717   0.01037   0.00443   0.00101   0.00531
  37        4PY        -0.00717   0.01037   0.00443   0.00101  -0.00870
  38        4PZ         0.00717  -0.01037  -0.00443  -0.00101   0.00870
  39        5PX         0.00255   0.00658   0.00228   0.00049  -0.02328
  40        5PY         0.00255   0.00658   0.00228   0.00049  -0.02342
  41        5PZ        -0.00255  -0.00658  -0.00228  -0.00049   0.02342
  42 4   H  1S         -0.07166   0.14025   0.05799   0.01317  -0.20723
[...]
 Atom     1 has atomic number  6 and mass  12.00000
 Atom     2 has atomic number  1 and mass   1.00783
 Atom     3 has atomic number  1 and mass   1.00783
 Atom     4 has atomic number  1 and mass   1.00783
 Atom     5 has atomic number  1 and mass   1.00783
 Molecular mass:    16.03130 amu.
 Principal axes and moments of inertia in atomic units:
                           1         2         3
     Eigenvalues --    11.54175  11.54175  11.54175
           X            0.62228   0.78066   0.05786
           Y            0.09775  -0.15083   0.98371
           Z            0.77667  -0.60649  -0.17017
 This molecule is a spherical top.
 Rotational symmetry number 12.
 Rotational temperatures (Kelvin)      7.50439     7.50439     7.50439
 Rotational constants (GHZ):         156.36636   156.36636   156.36636
 Zero-point vibrational energy     116393.1 (Joules/Mol)
                                   27.81862 (Kcal/Mol)
 Vibrational temperatures:   1865.43  1865.43  1865.43  2188.91  2188.91
          (Kelvin)           4363.97  4553.21  4553.21  4553.21
 
 Zero-point correction=                           0.044332 (Hartree/Particle)
 Thermal correction to Energy=                    0.047207
 Thermal correction to Enthalpy=                  0.048152
 Thermal correction to Gibbs Free Energy=         0.026998
 Sum of electronic and zero-point Energies=            -40.461622
 Sum of electronic and thermal Energies=               -40.458746
 Sum of electronic and thermal Enthalpies=             -40.457802
 Sum of electronic and thermal Free Energies=          -40.478956
 
                     E (Thermal)             CV                S
                      KCal/Mol        Cal/Mol-Kelvin    Cal/Mol-Kelvin
 Total                   29.623              6.550             44.522
 Electronic               0.000              0.000              0.000
 Translational            0.889              2.981             34.261
 Rotational               0.889              2.981             10.156
 Vibrational             27.846              0.589              0.105
                       Q            Log10(Q)             Ln(Q)
 Total Bot       0.381838D-12        -12.418121        -28.593780
 Total V=0       0.939821D+08          7.973045         18.358615
 Vib (Bot)       0.409165D-20        -20.388102        -46.945340
 Vib (V=0)       0.100708D+01          0.003064          0.007056
 Electronic      0.100000D+01          0.000000          0.000000
 Translational   0.252295D+07          6.401908         14.740939
 Rotational      0.369890D+02          1.568073          3.610621
 
                                       methane with imposed symmetry and aug-cc-p
 VDZ basis set
                                                             IR Spectrum
 
      3    3                                                           1        1                                                    
      1    0                                                           5        2                                                    
      6    3                                                           2        9                                                    
      5    3                                                           1        7                                                    
 
      X                                                                         X                                                    
      X                                                                         X                                                    
      X                                                                         X                                                    
      X                                                                         X                                                    
      X                                                                         X                                                    
      X                                                                         X                                                    
      X                                                                         X                                                    
      X                                                                         X                                                    
      X                                                                         X                                                    
      X                                                                         X                                                    
      X                                                                         X                                                    
      X                                                                                                                              
      X                                                                                                                              
      X                                                                                                                              
      X                                                                                                                              
      X                                                                                                                              
      X                                                                                                                              
      X                                                                                                                              
      X                                                                                                                              
      X                                                                                                                              
 
 ***** Axes restored to original set *****
 -------------------------------------------------------------------
 Center     Atomic                   Forces (Hartrees/Bohr)
 Number     Number              X              Y              Z
 -------------------------------------------------------------------
      1        6          -0.000000000   -0.000000000    0.000000000
      2        1           0.000000000   -0.000000000   -0.000114478
      3        1          -0.000107931   -0.000000000    0.000038159
      4        1           0.000053965    0.000093471    0.000038159
      5        1           0.000053965   -0.000093471    0.000038159
 -------------------------------------------------------------------
 Cartesian Forces:  Max     0.000114478 RMS     0.000059116
 Force constants in Cartesian coordinates: 
                1             2             3             4             5 
      1  0.543315D+00
      2  0.000000D+00  0.543315D+00
      3  0.000000D+00  0.000000D+00  0.543315D+00
      4 -0.419883D-01  0.000000D+00  0.000000D+00  0.422577D-01
      5  0.000000D+00 -0.419883D-01  0.000000D+00  0.000000D+00  0.422577D-01
      6  0.000000D+00  0.000000D+00 -0.323510D+00  0.000000D+00  0.000000D+00
      7 -0.292230D+00  0.000000D+00  0.884737D-01  0.179957D-02  0.000000D+00
      8  0.000000D+00 -0.419883D-01  0.000000D+00  0.000000D+00 -0.197919D-02
      9  0.884737D-01  0.000000D+00 -0.732685D-01  0.298047D-01  0.000000D+00
     10 -0.104549D+00 -0.108358D+00 -0.442369D-01 -0.103450D-02  0.163625D-02
     11 -0.108358D+00 -0.229669D+00 -0.766205D-01  0.163625D-02  0.854885D-03
     12 -0.442369D-01 -0.766205D-01 -0.732685D-01 -0.149024D-01 -0.258117D-01
     13 -0.104549D+00  0.108358D+00 -0.442369D-01 -0.103450D-02 -0.163625D-02
     14  0.108358D+00 -0.229669D+00  0.766205D-01 -0.163625D-02  0.854884D-03
     15 -0.442369D-01  0.766205D-01 -0.732685D-01 -0.149024D-01  0.258117D-01
                6             7             8             9            10 
      6  0.347828D+00
      7 -0.178792D-02  0.313875D+00
      8  0.000000D+00  0.000000D+00  0.422577D-01
      9 -0.810587D-02 -0.960314D-01  0.000000D+00  0.762099D-01
     10  0.893959D-03 -0.117226D-01 -0.237900D-01 -0.111236D-01  0.110162D+00
     11  0.154838D-02  0.200525D-02  0.854884D-03  0.102654D-02  0.117614D+00
     12 -0.810587D-02  0.467277D-02  0.101466D-01  0.258221D-02  0.480157D-01
     13  0.893959D-03 -0.117226D-01  0.237900D-01 -0.111236D-01  0.714361D-02
     14 -0.154838D-02 -0.200525D-02  0.854885D-03 -0.102654D-02  0.128976D-01
     15 -0.810587D-02  0.467277D-02 -0.101466D-01  0.258221D-02  0.645079D-02
               11            12            13            14            15 
     11  0.245971D+00
     12  0.831656D-01  0.762099D-01
     13 -0.128976D-01  0.645079D-02  0.110162D+00
     14 -0.180113D-01  0.912001D-02 -0.117614D+00  0.245971D+00
     15 -0.912001D-02  0.258221D-02  0.480157D-01 -0.831656D-01  0.762099D-01
 Force constants in internal coordinates: 
                1             2             3             4             5 
      1  0.347828D+00
      2  0.101629D-02  0.347828D+00
      3  0.101629D-02  0.101629D-02  0.347828D+00
      4  0.101629D-02  0.101629D-02  0.101629D-02  0.347828D+00
      5  0.188234D-02  0.188234D-02 -0.118193D-02 -0.258274D-02  0.186685D-01
      6  0.295008D-02 -0.761310D-03  0.328315D-02 -0.547192D-02 -0.836136D-02
      7  0.576502D-02 -0.462686D-02 -0.512171D-02  0.398356D-02 -0.124016D-01
      8 -0.761310D-03  0.295008D-02  0.328315D-02 -0.547192D-02 -0.836136D-02
      9 -0.462686D-02  0.576502D-02 -0.512171D-02  0.398356D-02 -0.124016D-01
     10 -0.520927D-02 -0.520927D-02  0.485906D-02  0.555947D-02  0.228575D-01
     11 -0.364573D-02 -0.364573D-02 -0.257345D-02  0.986491D-02 -0.126236D-01
     12  0.300236D-02  0.300236D-02 -0.772036D-02  0.171564D-02  0.767528D-02
     13 -0.395342D-02  0.695578D-02 -0.386018D-02  0.857818D-03  0.383764D-02
     14 -0.695578D-02  0.395342D-02  0.386018D-02 -0.857818D-03 -0.383764D-02
                6             7             8             9            10 
      6  0.351169D-01
      7 -0.213861D-01  0.686091D-01
      8 -0.209898D-02  0.237615D-01  0.351169D-01
      9  0.237615D-01 -0.333983D-01 -0.213861D-01  0.686091D-01
     10 -0.270319D-01 -0.251846D-01 -0.270319D-01 -0.251846D-01  0.815754D-01
     11 -0.997870D-02  0.137342D-01 -0.997870D-02  0.137342D-01  0.511258D-02
     12 -0.878591D-02  0.637331D-02 -0.878591D-02  0.637331D-02 -0.285007D-02
     13 -0.133593D-01 -0.399441D-03  0.457342D-02  0.677275D-02 -0.142503D-02
     14 -0.457342D-02 -0.677275D-02  0.133593D-01  0.399441D-03  0.142503D-02
               11            12            13            14 
     11  0.276820D-01
     12  0.136024D-02  0.172059D-01
     13  0.680120D-03  0.860297D-02  0.174790D-01
     14 -0.680120D-03 -0.860297D-02  0.887607D-02  0.174790D-01
 Leave Link  716 at Sun Aug 18 00:39:46 2024, MaxMem=   13107200 cpu:       0.0
 (Enter /programs/64bit/g09/g09-gfortran/bin/l103.exe)

 GradGradGradGradGradGradGradGradGradGradGradGradGradGradGradGradGradGrad
 Berny optimization.
 Internal  Forces:  Max     0.000114478 RMS     0.000061191
 Search for a local minimum.
 Step number   1 out of a maximum of    2
 All quantities printed in internal units (Hartrees-Bohrs-Radians)
 Second derivative matrix not updated -- analytic derivatives used.
 The second derivative matrix:
                          R1        R2        R3        R4        A1
           R1           0.34783
           R2           0.00102   0.34783
           R3           0.00102   0.00102   0.34783
           R4           0.00102   0.00102   0.00102   0.34783
           A1           0.00188   0.00188  -0.00118  -0.00258   0.01867
           A2           0.00295  -0.00076   0.00328  -0.00547  -0.00836
           A3           0.00577  -0.00463  -0.00512   0.00398  -0.01240
           A4          -0.00076   0.00295   0.00328  -0.00547  -0.00836
           A5          -0.00463   0.00577  -0.00512   0.00398  -0.01240
           A6          -0.00521  -0.00521   0.00486   0.00556   0.02286
           D1          -0.00365  -0.00365  -0.00257   0.00986  -0.01262
           D2           0.00300   0.00300  -0.00772   0.00172   0.00768
           D3          -0.00395   0.00696  -0.00386   0.00086   0.00384
           D4          -0.00696   0.00395   0.00386  -0.00086  -0.00384
                          A2        A3        A4        A5        A6
           A2           0.03512
           A3          -0.02139   0.06861
           A4          -0.00210   0.02376   0.03512
           A5           0.02376  -0.03340  -0.02139   0.06861
           A6          -0.02703  -0.02518  -0.02703  -0.02518   0.08158
           D1          -0.00998   0.01373  -0.00998   0.01373   0.00511
           D2          -0.00879   0.00637  -0.00879   0.00637  -0.00285
           D3          -0.01336  -0.00040   0.00457   0.00677  -0.00143
           D4          -0.00457  -0.00677   0.01336   0.00040   0.00143
                          D1        D2        D3        D4
           D1           0.02768
           D2           0.00136   0.01721
           D3           0.00068   0.00860   0.01748
           D4          -0.00068  -0.00860   0.00888   0.01748
     Eigenvalues ---    0.03531   0.03975   0.06032   0.12440   0.12497
     Eigenvalues ---    0.34765   0.34766   0.34792   0.350881000.00000
     Eigenvalues --- 1000.000001000.000001000.000001000.00000
 Angle between quadratic step and forces=   0.00 degrees.
 Linear search not attempted -- first point.
 Iteration  1 RMS(Cart)=  0.00017439 RMS(Int)=  0.00000000
 Iteration  2 RMS(Cart)=  0.00000000 RMS(Int)=  0.00000000
 ClnCor:  largest displacement from symmetrization is 3.08D-12 for atom     4.
 Variable       Old X    -DE/DX   Delta X   Delta X   Delta X     New X
                                 (Linear)    (Quad)   (Total)
    R1        2.07233  -0.00011   0.00000  -0.00033  -0.00033   2.07200
    R2        2.07233  -0.00011   0.00000  -0.00033  -0.00033   2.07200
    R3        2.07233  -0.00011   0.00000  -0.00033  -0.00033   2.07200
    R4        2.07233  -0.00011   0.00000  -0.00033  -0.00033   2.07200
    A1        1.91063  -0.00000   0.00000   0.00000   0.00000   1.91063
    A2        1.91063  -0.00000   0.00000  -0.00000  -0.00000   1.91063
    A3        1.91063   0.00000   0.00000   0.00000   0.00000   1.91063
    A4        1.91063   0.00000   0.00000   0.00000   0.00000   1.91063
    A5        1.91063  -0.00000   0.00000  -0.00000   0.00000   1.91063
    A6        1.91063  -0.00000   0.00000   0.00000   0.00000   1.91063
    D1       -2.09440   0.00000   0.00000  -0.00000   0.00000  -2.09440
    D2        2.09440   0.00000   0.00000   0.00000   0.00000   2.09440
    D3       -2.09440   0.00000   0.00000   0.00000   0.00000  -2.09440
    D4        2.09440  -0.00000   0.00000   0.00000   0.00000   2.09440
         Item               Value     Threshold  Converged?
 Maximum Force            0.000114     0.000450     YES
 RMS     Force            0.000061     0.000300     YES
 Maximum Displacement     0.000326     0.001800     YES
 RMS     Displacement     0.000174     0.001200     YES
 Predicted change in Energy=-7.469937D-08
 Optimization completed.
    -- Stationary point found.
                           ----------------------------
                           !   Optimized Parameters   !
                           ! (Angstroms and Degrees)  !
 --------------------------                            --------------------------
 ! Name  Definition              Value          Derivative Info.                !
 --------------------------------------------------------------------------------
 ! R1    R(1,2)                  1.0966         -DE/DX =   -0.0001              !
 ! R2    R(1,3)                  1.0966         -DE/DX =   -0.0001              !
 ! R3    R(1,4)                  1.0966         -DE/DX =   -0.0001              !
 ! R4    R(1,5)                  1.0966         -DE/DX =   -0.0001              !
 ! A1    A(2,1,3)              109.4712         -DE/DX =    0.0                 !
 ! A2    A(2,1,4)              109.4712         -DE/DX =    0.0                 !
 ! A3    A(2,1,5)              109.4712         -DE/DX =    0.0                 !
 ! A4    A(3,1,4)              109.4712         -DE/DX =    0.0                 !
 ! A5    A(3,1,5)              109.4712         -DE/DX =    0.0                 !
 ! A6    A(4,1,5)              109.4712         -DE/DX =    0.0                 !
 ! D1    D(2,1,4,3)           -120.0            -DE/DX =    0.0                 !
 ! D2    D(2,1,5,3)            120.0            -DE/DX =    0.0                 !
 ! D3    D(2,1,5,4)           -120.0            -DE/DX =    0.0                 !
 ! D4    D(3,1,5,4)            120.0            -DE/DX =    0.0                 !
 --------------------------------------------------------------------------------
 GradGradGradGradGradGradGradGradGradGradGradGradGradGradGradGradGradGrad

 Leave Link  103 at Sun Aug 18 00:39:46 2024, MaxMem=   13107200 cpu:       0.0
 (Enter /programs/64bit/g09/g09-gfortran/bin/l9999.exe)
 1\1\GINC-MOLMOD\Freq\RB3PW91\Aug-CC-pVDZ\C1H4\OSPITE\18-Aug-2024\0\\#P
  Geom=AllCheck Guess=TCheck SCRF=Check GenChk RB3PW91/Aug-CC-pVDZ Freq
 \\methane with imposed symmetry and aug-cc-pVDZ basis set\\0,1\C,0.,0.
 ,0.\H,0.,0.,1.0966296972\H,1.0339123938,0.,-0.3655432324\H,-0.51695619
 69,-0.8953943983,-0.3655432324\H,-0.5169561969,0.8953943983,-0.3655432
 324\\Version=EM64L-G09RevA.02\State=1-A1\HF=-40.5059536\RMSD=3.689e-10
 \RMSF=5.912e-05\ZeroPoint=0.0443318\Thermal=0.0472074\Dipole=0.,0.,0.\
 DipoleDeriv=0.001981,0.,0.,0.,0.001981,0.,0.,0.,0.001981,0.0648767,0.,
 0.,0.,0.0648767,0.,0.,0.,-0.1312392,-0.1094485,0.,0.0616333,0.,0.06487
 67,0.,0.0616333,0.,0.043086,0.0212954,-0.0754851,-0.0308166,-0.075485,
 -0.0658672,-0.053376,-0.0308166,-0.053376,0.043086,0.0212954,0.0754851
 ,-0.0308166,0.075485,-0.0658672,0.053376,-0.0308166,0.053376,0.043086\
 Polar=17.0128267,0.,17.0128268,0.,0.,17.0128268\PG=TD [O(C1),4C3(H1)]\
 NImag=0\\0.54331543,0.,0.54331543,0.,0.,0.54331543,-0.04198828,0.,0.,0
 .04225769,0.,-0.04198828,0.,0.,0.04225769,0.,0.,-0.32351000,0.,0.,0.34
 782760,-0.29222981,0.,0.08847374,0.00179957,0.,-0.00178792,0.31387538,
 0.,-0.04198828,0.,0.,-0.00197919,0.,0.,0.04225769,0.08847374,0.,-0.073
 26847,0.02980473,0.,-0.00810587,-0.09603136,0.,0.07620991,-0.10454866,
 -0.10835776,-0.04423687,-0.00103450,0.00163625,0.00089396,-0.01172258,
 -0.02379005,-0.01112356,0.11016212,-0.10835776,-0.22966943,-0.07662051
 ,0.00163625,0.00085488,0.00154838,0.00200525,0.00085488,0.00102654,0.1
 1761391,0.24597096,-0.04423687,-0.07662051,-0.07326847,-0.01490237,-0.
 02581166,-0.00810587,0.00467277,0.01014656,0.00258221,0.04801568,0.083
 16559,0.07620991,-0.10454866,0.10835776,-0.04423687,-0.00103450,-0.001
 63625,0.00089396,-0.01172258,0.02379005,-0.01112356,0.00714361,-0.0128
 9765,0.00645079,0.11016212,0.10835776,-0.22966943,0.07662051,-0.001636
 25,0.00085488,-0.00154838,-0.00200525,0.00085488,-0.00102654,0.0128976
 5,-0.01801131,0.00912001,-0.11761391,0.24597096,-0.04423687,0.07662051
 ,-0.07326847,-0.01490237,0.02581166,-0.00810587,0.00467277,-0.01014656
 ,0.00258221,0.00645079,-0.00912001,0.00258221,0.04801568,-0.08316559,0
 .07620991\\0.,0.,0.,0.,0.,0.00011448,0.00010793,0.,-0.00003816,-0.0000
 5397,-0.00009347,-0.00003816,-0.00005397,0.00009347,-0.00003816\\\@


 WE HAVE LEARNED THAT NOTHING IS SIMPLE AND
 RATIONAL EXCEPT WHAT WE OURSELVES HAVE INVENTED;
 THAT GOD THINKS IN TERMS NEITHER OF EUCLID OR RIEMANN; THAT SCIENCE HAS "EXPLAINED" NOTHING;
 THAT THE MORE WE KNOW THE MORE FANTASTIC THE WORLD BECOMES
 AND THE PROFOUNDER THE SURROUNDING DARKNESS.
   --  ALDOUS HUXLEY
 Job cpu time:  0 days  0 hours  0 minutes 38.4 seconds.
 File lengths (MBytes):  RWF=      5 Int=      0 D2E=      0 Chk=      1 Scr=      1
 Normal termination of Gaussian 09 at Sun Aug 18 00:39:46 2024.
