 Entering Gaussian System, Link 0=/programs/64bit/g09/g09-gfortran/bin/g09
 Input=ch4_cc-pVDZ.com
 Output=ch4_cc-pVDZ.log
 Initial command:
 /programs/64bit/g09/g09-gfortran/bin/l1.exe /home/ospite/Desktop/MMfP/Project6/CH4/g09/DFT/B3PW91/Gau-19632.inp -scrdir=/home/ospite/Desktop/MMfP/Project6/CH4/g09/DFT/B3PW91/
 Entering Link 1 = /programs/64bit/g09/g09-gfortran/bin/l1.exe PID=     19634.
  
 Copyright (c) 1988,1990,1992,1993,1995,1998,2003,2009, Gaussian, Inc.
                  All Rights Reserved.
  
 This is part of the Gaussian(R) 09 program.  It is based on
 the Gaussian(R) 03 system (copyright 2003, Gaussian, Inc.),
 the Gaussian(R) 98 system (copyright 1998, Gaussian, Inc.),
 the Gaussian(R) 94 system (copyright 1995, Gaussian, Inc.),
 the Gaussian 92(TM) system (copyright 1992, Gaussian, Inc.),
 the Gaussian 90(TM) system (copyright 1990, Gaussian, Inc.),
 the Gaussian 88(TM) system (copyright 1988, Gaussian, Inc.),
 the Gaussian 86(TM) system (copyright 1986, Carnegie Mellon
 University), and the Gaussian 82(TM) system (copyright 1983,
 Carnegie Mellon University). Gaussian is a federally registered
 trademark of Gaussian, Inc.
  
 This software contains proprietary and confidential information,
 including trade secrets, belonging to Gaussian, Inc.
  
 This software is provided under written license and may be
 used, copied, transmitted, or stored only in accord with that
 written license.
  
 The following legend is applicable only to US Government
 contracts under FAR:
  
                    RESTRICTED RIGHTS LEGEND
  
 Use, reproduction and disclosure by the US Government is
 subject to restrictions as set forth in subparagraphs (a)
 and (c) of the Commercial Computer Software - Restricted
 Rights clause in FAR 52.227-19.
  
 Gaussian, Inc.
 340 Quinnipiac St., Bldg. 40, Wallingford CT 06492
  
  
 ---------------------------------------------------------------
 Warning -- This program may not be used in any manner that
 competes with the business of Gaussian, Inc. or will provide
 assistance to any competitor of Gaussian, Inc.  The licensee
 of this program is prohibited from giving any competitor of
 Gaussian, Inc. access to this program.  By using this program,
 the user acknowledges that Gaussian, Inc. is engaged in the
 business of creating and licensing software in the field of
 computational chemistry and represents and warrants to the
 licensee that it is not a competitor of Gaussian, Inc. and that
 it will not use this program in any manner prohibited above.
 ---------------------------------------------------------------
  

 Cite this work as:
 Gaussian 09, Revision A.02,
 M. J. Frisch, G. W. Trucks, H. B. Schlegel, G. E. Scuseria, 
 M. A. Robb, J. R. Cheeseman, G. Scalmani, V. Barone, B. Mennucci, 
 G. A. Petersson, H. Nakatsuji, M. Caricato, X. Li, H. P. Hratchian, 
 A. F. Izmaylov, J. Bloino, G. Zheng, J. L. Sonnenberg, M. Hada, 
 M. Ehara, K. Toyota, R. Fukuda, J. Hasegawa, M. Ishida, T. Nakajima, 
 Y. Honda, O. Kitao, H. Nakai, T. Vreven, J. A. Montgomery, Jr., 
 J. E. Peralta, F. Ogliaro, M. Bearpark, J. J. Heyd, E. Brothers, 
 K. N. Kudin, V. N. Staroverov, R. Kobayashi, J. Normand, 
 K. Raghavachari, A. Rendell, J. C. Burant, S. S. Iyengar, J. Tomasi, 
 M. Cossi, N. Rega, J. M. Millam, M. Klene, J. E. Knox, J. B. Cross, 
 V. Bakken, C. Adamo, J. Jaramillo, R. Gomperts, R. E. Stratmann, 
 O. Yazyev, A. J. Austin, R. Cammi, C. Pomelli, J. W. Ochterski, 
 R. L. Martin, K. Morokuma, V. G. Zakrzewski, G. A. Voth, 
 P. Salvador, J. J. Dannenberg, S. Dapprich, A. D. Daniels, 
 O. Farkas, J. B. Foresman, J. V. Ortiz, J. Cioslowski, 
 and D. J. Fox, Gaussian, Inc., Wallingford CT, 2009.
 
 ******************************************
 Gaussian 09:  EM64L-G09RevA.02 11-Jun-2009
                18-Aug-2024 
 ******************************************
 %mem=100MB
 -------------------------------------------------------------------
 #p b3pw91/cc-pVDZ opt freq symmetry=(follow,pg=Td) pop=full gfinput
 -------------------------------------------------------------------
 1/14=-1,18=20,19=15,26=3,38=1/1,3;
 2/9=110,12=2,17=6,18=5,19=2314885530818462804,40=1/2;
 3/5=16,11=2,16=1,24=10,25=1,30=1,71=1,74=-6/1,2,3;
 4//1;
 5/5=2,38=5/2;
 6/7=3,28=1/1;
 7//1,2,3,16;
 1/14=-1,18=20,19=15/3(2);
 2/9=110,15=5,19=2314885530818462804/2;
 99//99;
 2/9=110,15=5,19=2314885530818462804/2;
 3/5=16,11=2,16=1,25=1,30=1,71=1,74=-6/1,2,3;
 4/5=5,16=3/1;
 5/5=2,38=5/2;
 7//1,2,3,16;
 1/14=-1,18=20,19=15/3(-5);
 2/9=110,15=5,19=2314885530818462804/2;
 6/7=3,19=2,28=1/1;
 99/9=1/99;
 Leave Link    1 at Sun Aug 18 00:40:02 2024, MaxMem=   13107200 cpu:       0.1
 (Enter /programs/64bit/g09/g09-gfortran/bin/l101.exe)
 ------------------------------------------------------
 methane with imposed symmetry Td and cc-pVDZ basis set
 ------------------------------------------------------
 Symbolic Z-matrix:
 Charge =  0 Multiplicity = 1
 C1
 H2                   1    d
 H3                   1    d        2    a
 H4                   1    d        2    a        3    t        0
 H5                   1    d        2    a        3    -t       0
       Variables:
  d                     1.09                     
  a                   109.471                    
  t                   120.                       
 
     3 tetrahedral angles replaced.
 NAtoms=      5 NQM=      5 NQMF=      0 NMic=      0 NMicF=      0 NTot=      5.
                    Isotopes and Nuclear Properties:
 (Nuclear quadrupole moments (NQMom) in fm**2, nuclear magnetic moments (NMagM)
  in nuclear magnetons)

  Atom         1           2           3           4           5
 IAtWgt=          12           1           1           1           1
 AtmWgt=  12.0000000   1.0078250   1.0078250   1.0078250   1.0078250
 NucSpn=           0           1           1           1           1
 AtZEff=   0.0000000   0.0000000   0.0000000   0.0000000   0.0000000
 NQMom=    0.0000000   0.0000000   0.0000000   0.0000000   0.0000000
 NMagM=    0.0000000   2.7928460   2.7928460   2.7928460   2.7928460
 Leave Link  101 at Sun Aug 18 00:40:02 2024, MaxMem=   13107200 cpu:       0.1
 (Enter /programs/64bit/g09/g09-gfortran/bin/l103.exe)

 GradGradGradGradGradGradGradGradGradGradGradGradGradGradGradGradGradGrad
 Berny optimization.
 Initialization pass.
                           ----------------------------
                           !    Initial Parameters    !
                           ! (Angstroms and Degrees)  !
 --------------------------                            --------------------------
 ! Name  Definition              Value          Derivative Info.                !
 --------------------------------------------------------------------------------
 ! R1    R(1,2)                  1.09           estimate D2E/DX2                !
 ! R2    R(1,3)                  1.09           estimate D2E/DX2                !
 ! R3    R(1,4)                  1.09           estimate D2E/DX2                !
 ! R4    R(1,5)                  1.09           estimate D2E/DX2                !
 ! A1    A(2,1,3)              109.4712         estimate D2E/DX2                !
 ! A2    A(2,1,4)              109.4712         estimate D2E/DX2                !
 ! A3    A(2,1,5)              109.4712         estimate D2E/DX2                !
 ! A4    A(3,1,4)              109.4712         estimate D2E/DX2                !
 ! A5    A(3,1,5)              109.4712         estimate D2E/DX2                !
 ! A6    A(4,1,5)              109.4712         estimate D2E/DX2                !
 ! D1    D(2,1,4,3)           -120.0            estimate D2E/DX2                !
 ! D2    D(2,1,5,3)            120.0            estimate D2E/DX2                !
 ! D3    D(2,1,5,4)           -120.0            estimate D2E/DX2                !
 ! D4    D(3,1,5,4)            120.0            estimate D2E/DX2                !
 --------------------------------------------------------------------------------
 Trust Radius=3.00D-01 FncErr=1.00D-07 GrdErr=1.00D-06
 Number of steps in this run=  24 maximum allowed number of steps= 100.
 GradGradGradGradGradGradGradGradGradGradGradGradGradGradGradGradGradGrad

 Leave Link  103 at Sun Aug 18 00:40:02 2024, MaxMem=   13107200 cpu:       0.0
 (Enter /programs/64bit/g09/g09-gfortran/bin/l202.exe)
                          Input orientation:                          
 ---------------------------------------------------------------------
 Center     Atomic      Atomic             Coordinates (Angstroms)
 Number     Number       Type             X           Y           Z
 ---------------------------------------------------------------------
      1          6           0        0.000000    0.000000    0.000000
      2          1           0        0.000000    0.000000    1.090000
      3          1           0        1.027662    0.000000   -0.363333
      4          1           0       -0.513831   -0.889981   -0.363333
      5          1           0       -0.513831    0.889981   -0.363333
 ---------------------------------------------------------------------
                    Distance matrix (angstroms):
                    1          2          3          4          5
     1  C    0.000000
     2  H    1.090000   0.000000
     3  H    1.090000   1.779963   0.000000
     4  H    1.090000   1.779963   1.779963   0.000000
     5  H    1.090000   1.779963   1.779963   1.779963   0.000000
 Symm:  InNGrp=TD   InAxis=0.
 Stoichiometry    CH4
 Framework group  TD[O(C),4C3(H)]
 Deg. of freedom     1
 Full point group                 TD      NOp  24
 Largest Abelian subgroup         D2      NOp   4
 Largest concise Abelian subgroup D2      NOp   4
                         Standard orientation:                         
 ---------------------------------------------------------------------
 Center     Atomic      Atomic             Coordinates (Angstroms)
 Number     Number       Type             X           Y           Z
 ---------------------------------------------------------------------
      1          6           0        0.000000    0.000000    0.000000
      2          1           0        0.629312    0.629312    0.629312
      3          1           0       -0.629312   -0.629312    0.629312
      4          1           0       -0.629312    0.629312   -0.629312
      5          1           0        0.629312   -0.629312   -0.629312
 ---------------------------------------------------------------------
 Rotational constants (GHZ):    158.2742720    158.2742720    158.2742720
 Leave Link  202 at Sun Aug 18 00:40:02 2024, MaxMem=   13107200 cpu:       0.0
 (Enter /programs/64bit/g09/g09-gfortran/bin/l301.exe)
 Standard basis: CC-pVDZ (5D, 7F)
 Ernie: Thresh=  0.10000D-02 Tol=  0.10000D-05 Strict=F.
 Ernie:  2 primitive shells out of 42 were deleted.
 AO basis set in the form of general basis input (Overlap normalization):
      1 0
 S   7 1.00       0.000000000000
      0.6665000000D+04  0.6935163173D-03
      0.1000000000D+04  0.5341502433D-02
      0.2280000000D+03  0.2713667141D-01
      0.6471000000D+02  0.1019923853D+00
      0.2106000000D+02  0.2755086365D+00
      0.7495000000D+01  0.4510864331D+00
      0.2797000000D+01  0.2875657448D+00
 S   7 1.00       0.000000000000
      0.6665000000D+04  0.7733547404D-05
      0.2280000000D+03  0.2780721367D-03
      0.6471000000D+02 -0.2578756542D-02
      0.2106000000D+02 -0.8950876838D-02
      0.7495000000D+01 -0.1060588547D+00
      0.2797000000D+01 -0.1315176856D+00
      0.5215000000D+00  0.1099486598D+01
 S   1 1.00       0.000000000000
      0.1596000000D+00  0.1000000000D+01
 P   3 1.00       0.000000000000
      0.9439000000D+01  0.5697925159D-01
      0.2002000000D+01  0.3132072115D+00
      0.5456000000D+00  0.7603767417D+00
 P   1 1.00       0.000000000000
      0.1517000000D+00  0.1000000000D+01
 D   1 1.00       0.000000000000
      0.5500000000D+00  0.1000000000D+01
 ****
      2 0
 S   3 1.00       0.000000000000
      0.1301000000D+02  0.3349872639D-01
      0.1962000000D+01  0.2348008012D+00
      0.4446000000D+00  0.8136829579D+00
 S   1 1.00       0.000000000000
      0.1220000000D+00  0.1000000000D+01
 P   1 1.00       0.000000000000
      0.7270000000D+00  0.1000000000D+01
 ****
      3 0
 S   3 1.00       0.000000000000
      0.1301000000D+02  0.3349872639D-01
      0.1962000000D+01  0.2348008012D+00
      0.4446000000D+00  0.8136829579D+00
 S   1 1.00       0.000000000000
      0.1220000000D+00  0.1000000000D+01
 P   1 1.00       0.000000000000
      0.7270000000D+00  0.1000000000D+01
 ****
      4 0
 S   3 1.00       0.000000000000
      0.1301000000D+02  0.3349872639D-01
      0.1962000000D+01  0.2348008012D+00
      0.4446000000D+00  0.8136829579D+00
 S   1 1.00       0.000000000000
      0.1220000000D+00  0.1000000000D+01
 P   1 1.00       0.000000000000
      0.7270000000D+00  0.1000000000D+01
 ****
      5 0
 S   3 1.00       0.000000000000
      0.1301000000D+02  0.3349872639D-01
      0.1962000000D+01  0.2348008012D+00
      0.4446000000D+00  0.8136829579D+00
 S   1 1.00       0.000000000000
      0.1220000000D+00  0.1000000000D+01
 P   1 1.00       0.000000000000
      0.7270000000D+00  0.1000000000D+01
 ****

 There are    10 symmetry adapted basis functions of A   symmetry.
 There are     8 symmetry adapted basis functions of B1  symmetry.
 There are     8 symmetry adapted basis functions of B2  symmetry.
 There are     8 symmetry adapted basis functions of B3  symmetry.
 Integral buffers will be    131072 words long.
 Raffenetti 2 integral format.
 Two-electron integral symmetry is turned on.
    34 basis functions,    61 primitive gaussians,    35 cartesian basis functions
     5 alpha electrons        5 beta electrons
       nuclear repulsion energy        13.4353891954 Hartrees.
 IExCor=  408 DFT=T Ex+Corr=B3PW91 ExCW=0 ScaHFX=  0.200000
 ScaDFX=  0.800000  0.720000  1.000000  0.810000 ScalE2=  1.000000  1.000000
 IRadAn=      0 IRanWt=     -1 IRanGd=            0 ICorTp=0
 NAtoms=    5 NActive=    5 NUniq=    2 SFac= 3.00D+00 NAtFMM=   80 NAOKFM=F Big=F
 Leave Link  301 at Sun Aug 18 00:40:02 2024, MaxMem=   13107200 cpu:       0.1
 (Enter /programs/64bit/g09/g09-gfortran/bin/l302.exe)
 NPDir=0 NMtPBC=     1 NCelOv=     1 NCel=       1 NClECP=     1 NCelD=      1
         NCelK=      1 NCelE2=     1 NClLst=     1 CellRange=     0.0.
 One-electron integrals computed using PRISM.
 One-electron integral symmetry used in STVInt
 NBasis=    34 RedAO= T  NBF=    10     8     8     8
 NBsUse=    34 1.00D-06 NBFU=    10     8     8     8
 Precomputing XC quadrature grid using
 IXCGrd= 2 IRadAn=           0 IRanWt=          -1 IRanGd=           0 AccXCQ= 1.00D-10.
 NRdTot=     308 NPtTot=       38528 NUsed=       40762 NTot=       40794
 NSgBfM=    35    35    35    35    35 NAtAll=     5     5.
 Leave Link  302 at Sun Aug 18 00:40:03 2024, MaxMem=   13107200 cpu:       0.2
 (Enter /programs/64bit/g09/g09-gfortran/bin/l303.exe)
 DipDrv:  MaxL=1.
 Leave Link  303 at Sun Aug 18 00:40:03 2024, MaxMem=   13107200 cpu:       0.0
 (Enter /programs/64bit/g09/g09-gfortran/bin/l401.exe)
 Harris functional with IExCor=  408 diagonalized for initial guess.
 ExpMin= 1.22D-01 ExpMax= 6.66D+03 ExpMxC= 2.28D+02 IAcc=1 IRadAn=         1 AccDes= 0.00D+00
 HarFok:  IExCor=  408 AccDes= 0.00D+00 IRadAn=         1 IDoV= 1
 ScaDFX=  1.000000  1.000000  1.000000  1.000000
 FoFCou: FMM=F IPFlag=           0 FMFlag=      100000 FMFlg1=           0
         NFxFlg=           0 DoJE=T BraDBF=F KetDBF=T FulRan=T
         Omega=  0.000000  0.000000  1.000000  0.000000  0.000000 ICntrl=     500 IOpCl=  0
         NMat0=    1 NMatS0=    1 NMatT0=    0 NMatD0=    1 NMtDS0=    0 NMtDT0=    0
         I1Cent=           4 NGrid=           0.
 Petite list used in FoFCou.
 Harris En= -40.5815243482881    
 Initial guess orbital symmetries:
       Occupied  (A1) (A1) (T2) (T2) (T2)
       Virtual   (A1) (T2) (T2) (T2) (T2) (T2) (T2) (T2) (T2) (T2)
                 (A1) (E) (E) (A1) (T1) (T1) (T1) (T2) (T2) (T2)
                 (T2) (T2) (T2) (E) (E) (A1) (T2) (T2) (T2)
 The electronic state of the initial guess is 1-A1.
 Leave Link  401 at Sun Aug 18 00:40:03 2024, MaxMem=   13107200 cpu:       0.3
 (Enter /programs/64bit/g09/g09-gfortran/bin/l502.exe)
 Closed shell SCF:
 Requested convergence on RMS density matrix=1.00D-08 within 128 cycles.
 Requested convergence on MAX density matrix=1.00D-06.
 Requested convergence on             energy=1.00D-06.
 No special actions if energy rises.
 Using DIIS extrapolation, IDIIS=  1040.
 Integral symmetry usage will be decided dynamically.
        40704 words used for storage of precomputed grid.
 Keep R1 ints in memory in canonical form, NReq=1121336.
 IEnd=       63523 IEndB=       63523 NGot=    13107200 MDV=    12862785
 LenX=    12862785 LenY=    12861119
 Symmetry not used in FoFDir.
 MinBra= 0 MaxBra= 2 Meth= 1.
 IRaf=       0 NMat=   1 IRICut=       1 DoRegI=T DoRafI=F ISym2E= 0 JSym2E=0.
 Integral accuracy reduced to 1.0D-05 until final iterations.

 Cycle   1  Pass 0  IDiag  1:
 E= -40.4214865710010    
 DIIS: error= 6.35D-02 at cycle   1 NSaved=   1.
 NSaved= 1 IEnMin= 1 EnMin= -40.4214865710010     IErMin= 1 ErrMin= 6.35D-02
 ErrMax= 6.35D-02 EMaxC= 1.00D-01 BMatC= 7.23D-02 BMatP= 7.23D-02
 IDIUse=3 WtCom= 3.65D-01 WtEn= 6.35D-01
 Coeff-Com:  0.100D+01
 Coeff-En:   0.100D+01
 Coeff:      0.100D+01
 Gap=     0.400 Goal=   None    Shift=    0.000
 GapD=    0.400 DampG=1.000 DampE=0.500 DampFc=0.5000 IDamp=-1.
 Damping current iteration by 5.00D-01
 RMSDP=1.34D-02 MaxDP=1.38D-01              OVMax= 1.85D-01

 Cycle   2  Pass 0  IDiag  1:
 E= -40.4600434445160     Delta-E=       -0.038556873515 Rises=F Damp=T
 DIIS: error= 7.56D-03 at cycle   2 NSaved=   2.
 NSaved= 2 IEnMin= 2 EnMin= -40.4600434445160     IErMin= 2 ErrMin= 7.56D-03
 ErrMax= 7.56D-03 EMaxC= 1.00D-01 BMatC= 8.50D-04 BMatP= 7.23D-02
 IDIUse=3 WtCom= 9.24D-01 WtEn= 7.56D-02
 Coeff-Com:  0.602D-01 0.940D+00
 Coeff-En:   0.847D-01 0.915D+00
 Coeff:      0.620D-01 0.938D+00
 Gap=     0.470 Goal=   None    Shift=    0.000
 RMSDP=1.15D-03 MaxDP=8.05D-03 DE=-3.86D-02 OVMax= 9.37D-02

 Cycle   3  Pass 0  IDiag  1:
 E= -40.5030387820173     Delta-E=       -0.042995337501 Rises=F Damp=F
 DIIS: error= 7.39D-04 at cycle   3 NSaved=   3.
 NSaved= 3 IEnMin= 3 EnMin= -40.5030387820173     IErMin= 3 ErrMin= 7.39D-04
 ErrMax= 7.39D-04 EMaxC= 1.00D-01 BMatC= 1.38D-05 BMatP= 8.50D-04
 IDIUse=3 WtCom= 9.93D-01 WtEn= 7.39D-03
 Coeff-Com:  0.106D-01-0.514D-01 0.104D+01
 Coeff-En:   0.000D+00 0.000D+00 0.100D+01
 Coeff:      0.105D-01-0.511D-01 0.104D+01
 Gap=     0.477 Goal=   None    Shift=    0.000
 RMSDP=1.01D-04 MaxDP=8.44D-04 DE=-4.30D-02 OVMax= 1.00D-03

 Cycle   4  Pass 0  IDiag  1:
 E= -40.5030519330113     Delta-E=       -0.000013150994 Rises=F Damp=F
 DIIS: error= 1.64D-05 at cycle   4 NSaved=   4.
 NSaved= 4 IEnMin= 4 EnMin= -40.5030519330113     IErMin= 4 ErrMin= 1.64D-05
 ErrMax= 1.64D-05 EMaxC= 1.00D-01 BMatC= 3.82D-09 BMatP= 1.38D-05
 IDIUse=1 WtCom= 1.00D+00 WtEn= 0.00D+00
 Coeff-Com:  0.159D-05 0.244D-02-0.220D-01 0.102D+01
 Coeff:      0.159D-05 0.244D-02-0.220D-01 0.102D+01
 Gap=     0.477 Goal=   None    Shift=    0.000
 RMSDP=2.69D-06 MaxDP=1.56D-05 DE=-1.32D-05 OVMax= 2.51D-05

 Initial convergence to 1.0D-05 achieved.  Increase integral accuracy.
 Cycle   5  Pass 1  IDiag  1:
 E= -40.5030336848639     Delta-E=        0.000018248147 Rises=F Damp=F
 DIIS: error= 8.99D-06 at cycle   1 NSaved=   1.
 NSaved= 1 IEnMin= 1 EnMin= -40.5030336848639     IErMin= 1 ErrMin= 8.99D-06
 ErrMax= 8.99D-06 EMaxC= 1.00D-01 BMatC= 2.73D-09 BMatP= 2.73D-09
 IDIUse=1 WtCom= 1.00D+00 WtEn= 0.00D+00
 Coeff-Com:  0.100D+01
 Coeff:      0.100D+01
 Gap=     0.477 Goal=   None    Shift=    0.000
 RMSDP=2.69D-06 MaxDP=1.56D-05 DE= 1.82D-05 OVMax= 2.84D-05

 Cycle   6  Pass 1  IDiag  1:
 E= -40.5030336896295     Delta-E=       -0.000000004766 Rises=F Damp=F
 DIIS: error= 1.22D-06 at cycle   2 NSaved=   2.
 NSaved= 2 IEnMin= 2 EnMin= -40.5030336896295     IErMin= 2 ErrMin= 1.22D-06
 ErrMax= 1.22D-06 EMaxC= 1.00D-01 BMatC= 4.42D-11 BMatP= 2.73D-09
 IDIUse=1 WtCom= 1.00D+00 WtEn= 0.00D+00
 Coeff-Com: -0.435D-01 0.104D+01
 Coeff:     -0.435D-01 0.104D+01
 Gap=     0.477 Goal=   None    Shift=    0.000
 RMSDP=4.37D-07 MaxDP=3.10D-06 DE=-4.77D-09 OVMax= 2.96D-06

 Cycle   7  Pass 1  IDiag  1:
 E= -40.5030336896564     Delta-E=       -0.000000000027 Rises=F Damp=F
 DIIS: error= 1.14D-06 at cycle   3 NSaved=   3.
 NSaved= 3 IEnMin= 3 EnMin= -40.5030336896564     IErMin= 3 ErrMin= 1.14D-06
 ErrMax= 1.14D-06 EMaxC= 1.00D-01 BMatC= 2.58D-11 BMatP= 4.42D-11
 IDIUse=1 WtCom= 1.00D+00 WtEn= 0.00D+00
 Coeff-Com: -0.214D-01 0.464D+00 0.557D+00
 Coeff:     -0.214D-01 0.464D+00 0.557D+00
 Gap=     0.477 Goal=   None    Shift=    0.000
 RMSDP=1.38D-07 MaxDP=1.50D-06 DE=-2.69D-11 OVMax= 1.87D-06

 Cycle   8  Pass 1  IDiag  1:
 E= -40.5030336896827     Delta-E=       -0.000000000026 Rises=F Damp=F
 DIIS: error= 2.15D-07 at cycle   4 NSaved=   4.
 NSaved= 4 IEnMin= 4 EnMin= -40.5030336896827     IErMin= 4 ErrMin= 2.15D-07
 ErrMax= 2.15D-07 EMaxC= 1.00D-01 BMatC= 8.89D-13 BMatP= 2.58D-11
 IDIUse=1 WtCom= 1.00D+00 WtEn= 0.00D+00
 Coeff-Com: -0.143D-02-0.122D-01 0.144D+00 0.869D+00
 Coeff:     -0.143D-02-0.122D-01 0.144D+00 0.869D+00
 Gap=     0.477 Goal=   None    Shift=    0.000
 RMSDP=1.83D-08 MaxDP=2.22D-07 DE=-2.63D-11 OVMax= 2.73D-07

 Cycle   9  Pass 1  IDiag  1:
 E= -40.5030336896836     Delta-E=       -0.000000000001 Rises=F Damp=F
 DIIS: error= 5.99D-09 at cycle   5 NSaved=   5.
 NSaved= 5 IEnMin= 5 EnMin= -40.5030336896836     IErMin= 5 ErrMin= 5.99D-09
 ErrMax= 5.99D-09 EMaxC= 1.00D-01 BMatC= 6.10D-16 BMatP= 8.89D-13
 IDIUse=1 WtCom= 1.00D+00 WtEn= 0.00D+00
 Coeff-Com:  0.827D-04-0.151D-02-0.470D-02 0.837D-02 0.998D+00
 Coeff:      0.827D-04-0.151D-02-0.470D-02 0.837D-02 0.998D+00
 Gap=     0.477 Goal=   None    Shift=    0.000
 RMSDP=1.08D-09 MaxDP=6.98D-09 DE=-8.24D-13 OVMax= 1.08D-08

 SCF Done:  E(RB3PW91) =  -40.5030336897     A.U. after    9 cycles
             Convg  =    0.1085D-08             -V/T =  2.0096
 KE= 4.011979961104D+01 PE=-1.199577382410D+02 EE= 2.589951574482D+01
 Leave Link  502 at Sun Aug 18 00:40:05 2024, MaxMem=   13107200 cpu:       1.6
 (Enter /programs/64bit/g09/g09-gfortran/bin/l601.exe)
 Copying SCF densities to generalized density rwf, IOpCl= 0 IROHF=0.

 **********************************************************************

            Population analysis using the SCF density.

 **********************************************************************

 Orbital symmetries:
       Occupied  (A1) (A1) (T2) (T2) (T2)
       Virtual   (A1) (T2) (T2) (T2) (T2) (T2) (T2) (T2) (T2) (T2)
                 (A1) (E) (E) (A1) (T1) (T1) (T1) (T2) (T2) (T2)
                 (T2) (T2) (T2) (E) (E) (A1) (T2) (T2) (T2)
 The electronic state is 1-A1.
 Alpha  occ. eigenvalues --  -10.15491  -0.69565  -0.39018  -0.39018  -0.39018
 Alpha virt. eigenvalues --    0.08719   0.15396   0.15396   0.15396   0.42144
 Alpha virt. eigenvalues --    0.42144   0.42144   0.66336   0.66336   0.66336
 Alpha virt. eigenvalues --    0.69337   0.89330   0.89330   1.04784   1.41563
 Alpha virt. eigenvalues --    1.41563   1.41563   1.61774   1.61774   1.61774
 Alpha virt. eigenvalues --    1.92476   1.92476   1.92476   2.24213   2.24213
 Alpha virt. eigenvalues --    2.42138   2.45171   2.45171   2.45171
     Molecular Orbital Coefficients:
                           1         2         3         4         5
                        (A1)--O   (A1)--O   (T2)--O   (T2)--O   (T2)--O
     Eigenvalues --   -10.15491  -0.69565  -0.39018  -0.39018  -0.39018
   1 1   C  1S          0.99643  -0.19114   0.00000   0.00000   0.00000
   2        2S          0.03056   0.37218   0.00000   0.00000   0.00000
   3        3S         -0.01441   0.23883   0.00000   0.00000   0.00000
   4        4PX         0.00000   0.00000   0.00000   0.00000   0.43942
   5        4PY         0.00000   0.00000   0.00000   0.43942   0.00000
   6        4PZ         0.00000   0.00000   0.43942   0.00000   0.00000
   7        5PX         0.00000   0.00000   0.00000   0.00000   0.18867
   8        5PY         0.00000   0.00000   0.00000   0.18867   0.00000
   9        5PZ         0.00000   0.00000   0.18867   0.00000   0.00000
  10        6D 0       -0.00000   0.00000   0.00000   0.00000   0.00000
  11        6D+1        0.00000   0.00000   0.00000   0.01808   0.00000
  12        6D-1        0.00000   0.00000   0.00000   0.00000   0.01808
  13        6D+2        0.00000  -0.00000   0.00000   0.00000   0.00000
  14        6D-2        0.00000   0.00000   0.01808   0.00000   0.00000
  15 2   H  1S         -0.00153   0.18256   0.22331   0.22331   0.22331
  16        2S          0.00216   0.02756   0.09318   0.09318   0.09318
  17        3PX         0.00111  -0.01416  -0.00987  -0.00987   0.00551
  18        3PY         0.00111  -0.01416  -0.00987   0.00551  -0.00987
  19        3PZ         0.00111  -0.01416   0.00551  -0.00987  -0.00987
  20 3   H  1S         -0.00153   0.18256   0.22331  -0.22331  -0.22331
  21        2S          0.00216   0.02756   0.09318  -0.09318  -0.09318
  22        3PX        -0.00111   0.01416   0.00987  -0.00987   0.00551
  23        3PY        -0.00111   0.01416   0.00987   0.00551  -0.00987
  24        3PZ         0.00111  -0.01416   0.00551   0.00987   0.00987
  25 4   H  1S         -0.00153   0.18256  -0.22331   0.22331  -0.22331
  26        2S          0.00216   0.02756  -0.09318   0.09318  -0.09318
  27        3PX        -0.00111   0.01416  -0.00987   0.00987   0.00551
  28        3PY         0.00111  -0.01416   0.00987   0.00551   0.00987
  29        3PZ        -0.00111   0.01416   0.00551   0.00987  -0.00987
  30 5   H  1S         -0.00153   0.18256  -0.22331  -0.22331   0.22331
  31        2S          0.00216   0.02756  -0.09318  -0.09318   0.09318
  32        3PX         0.00111  -0.01416   0.00987   0.00987   0.00551
  33        3PY        -0.00111   0.01416  -0.00987   0.00551   0.00987
  34        3PZ        -0.00111   0.01416   0.00551  -0.00987   0.00987
                           6         7         8         9        10
                        (A1)--V   (T2)--V   (T2)--V   (T2)--V   (T2)--V
     Eigenvalues --     0.08719   0.15396   0.15396   0.15396   0.42144
   1 1   C  1S         -0.13482   0.00000   0.00000   0.00000   0.00000
   2        2S          0.16742   0.00000   0.00000   0.00000   0.00000
   3        3S          2.14957   0.00000   0.00000   0.00000   0.00000
   4        4PX         0.00000   0.00000   0.37488   0.00000   0.00000
   5        4PY         0.00000   0.00000   0.00000   0.37488  -0.30285
   6        4PZ         0.00000   0.37488   0.00000   0.00000   0.00000
   7        5PX         0.00000   0.00000   1.26914   0.00000   0.00000
   8        5PY         0.00000   0.00000   0.00000   1.26914   1.08369
   9        5PZ         0.00000   1.26914   0.00000   0.00000   0.00000
  10        6D 0       -0.00000   0.00000   0.00000   0.00000   0.00000
  11        6D+1        0.00000   0.00000   0.00000  -0.01255  -0.14042
  12        6D-1        0.00000   0.00000  -0.01255   0.00000   0.00000
  13        6D+2       -0.00000   0.00000   0.00000   0.00000   0.00000
  14        6D-2        0.00000  -0.01255   0.00000   0.00000   0.00000
  15 2   H  1S         -0.03913  -0.08040  -0.08040  -0.08040  -0.47406
  16        2S         -0.79356  -1.18023  -1.18023  -1.18023   0.12788
  17        3PX        -0.00162  -0.00475   0.00553  -0.00475  -0.02095
  18        3PY        -0.00162  -0.00475  -0.00475   0.00553   0.02246
  19        3PZ        -0.00162   0.00553  -0.00475  -0.00475  -0.02095
  20 3   H  1S         -0.03913  -0.08040   0.08040   0.08040   0.47406
  21        2S         -0.79356  -1.18023   1.18023   1.18023  -0.12788
  22        3PX         0.00162   0.00475   0.00553  -0.00475  -0.02095
  23        3PY         0.00162   0.00475  -0.00475   0.00553   0.02246
  24        3PZ        -0.00162   0.00553   0.00475   0.00475   0.02095
  25 4   H  1S         -0.03913   0.08040   0.08040  -0.08040  -0.47406
  26        2S         -0.79356   1.18023   1.18023  -1.18023   0.12788
  27        3PX         0.00162  -0.00475   0.00553   0.00475   0.02095
  28        3PY        -0.00162   0.00475   0.00475   0.00553   0.02246
  29        3PZ         0.00162   0.00553  -0.00475   0.00475   0.02095
  30 5   H  1S         -0.03913   0.08040  -0.08040   0.08040   0.47406
  31        2S         -0.79356   1.18023  -1.18023   1.18023  -0.12788
  32        3PX        -0.00162   0.00475   0.00553   0.00475   0.02095
  33        3PY         0.00162  -0.00475   0.00475   0.00553   0.02246
  34        3PZ         0.00162   0.00553   0.00475  -0.00475  -0.02095
                          11        12        13        14        15
                        (T2)--V   (T2)--V   (T2)--V   (T2)--V   (T2)--V
     Eigenvalues --     0.42144   0.42144   0.66336   0.66336   0.66336
   1 1   C  1S          0.00000   0.00000   0.00000   0.00000   0.00000
   2        2S          0.00000   0.00000   0.00000   0.00000   0.00000
   3        3S          0.00000   0.00000   0.00000   0.00000   0.00000
   4        4PX        -0.30285   0.00000   0.00000   0.00000  -0.85718
   5        4PY         0.00000   0.00000  -0.85718   0.00000   0.00000
   6        4PZ         0.00000  -0.30285   0.00000  -0.85718   0.00000
   7        5PX         1.08369   0.00000   0.00000   0.00000   1.83801
   8        5PY         0.00000   0.00000   1.83801   0.00000   0.00000
   9        5PZ         0.00000   1.08369   0.00000   1.83801   0.00000
  10        6D 0        0.00000   0.00000   0.00000   0.00000   0.00000
  11        6D+1        0.00000   0.00000   0.29134   0.00000   0.00000
  12        6D-1       -0.14042   0.00000   0.00000   0.00000   0.29134
  13        6D+2        0.00000   0.00000   0.00000   0.00000   0.00000
  14        6D-2        0.00000  -0.14042   0.00000   0.29134   0.00000
  15 2   H  1S         -0.47406  -0.47406   0.22467   0.22467   0.22467
  16        2S          0.12788   0.12788  -1.15823  -1.15823  -1.15823
  17        3PX         0.02246  -0.02095   0.10375   0.10375   0.04605
  18        3PY        -0.02095  -0.02095   0.04605   0.10375   0.10375
  19        3PZ        -0.02095   0.02246   0.10375   0.04605   0.10375
  20 3   H  1S          0.47406  -0.47406  -0.22467   0.22467  -0.22467
  21        2S         -0.12788   0.12788   1.15823  -1.15823   1.15823
  22        3PX         0.02246   0.02095   0.10375  -0.10375   0.04605
  23        3PY        -0.02095   0.02095   0.04605  -0.10375   0.10375
  24        3PZ         0.02095   0.02246  -0.10375   0.04605  -0.10375
  25 4   H  1S          0.47406   0.47406   0.22467  -0.22467  -0.22467
  26        2S         -0.12788  -0.12788  -1.15823   1.15823   1.15823
  27        3PX         0.02246  -0.02095  -0.10375   0.10375   0.04605
  28        3PY         0.02095   0.02095   0.04605  -0.10375  -0.10375
  29        3PZ        -0.02095   0.02246  -0.10375   0.04605   0.10375
  30 5   H  1S         -0.47406   0.47406  -0.22467  -0.22467   0.22467
  31        2S          0.12788  -0.12788   1.15823   1.15823  -1.15823
  32        3PX         0.02246   0.02095  -0.10375  -0.10375   0.04605
  33        3PY         0.02095  -0.02095   0.04605   0.10375  -0.10375
  34        3PZ         0.02095   0.02246   0.10375   0.04605  -0.10375
                          16        17        18        19        20
                        (A1)--V   (E)--V    (E)--V    (A1)--V   (T1)--V
     Eigenvalues --     0.69337   0.89330   0.89330   1.04784   1.41563
   1 1   C  1S          0.09007   0.00000   0.00000  -0.10091   0.00000
   2        2S         -0.73968   0.00000   0.00000  -1.88118   0.00000
   3        3S          1.07193  -0.00000  -0.00000   5.07602   0.00000
   4        4PX         0.00000   0.00000   0.00000   0.00000   0.00000
   5        4PY         0.00000   0.00000   0.00000   0.00000   0.00000
   6        4PZ         0.00000   0.00000   0.00000   0.00000  -0.00000
   7        5PX         0.00000   0.00000   0.00000   0.00000   0.00000
   8        5PY         0.00000   0.00000   0.00000   0.00000   0.00000
   9        5PZ         0.00000   0.00000   0.00000   0.00000  -0.00000
  10        6D 0       -0.00000   0.22832   0.48865  -0.00000   0.00000
  11        6D+1        0.00000   0.00000   0.00000   0.00000   0.00000
  12        6D-1        0.00000   0.00000   0.00000   0.00000   0.00000
  13        6D+2        0.00000   0.48865  -0.22832  -0.00000   0.00000
  14        6D-2        0.00000   0.00000   0.00000   0.00000  -0.00000
  15 2   H  1S          0.58966   0.00000   0.00000  -0.56324   0.00000
  16        2S         -0.50459   0.00000   0.00000  -0.75887  -0.00000
  17        3PX         0.09433   0.12324  -0.17629   0.03735   0.36934
  18        3PY         0.09433  -0.21429  -0.01858   0.03735  -0.36934
  19        3PZ         0.09433   0.09106   0.19487   0.03735   0.00000
  20 3   H  1S          0.58966   0.00000   0.00000  -0.56324   0.00000
  21        2S         -0.50459   0.00000   0.00000  -0.75887  -0.00000
  22        3PX        -0.09433  -0.12324   0.17629  -0.03735  -0.36934
  23        3PY        -0.09433   0.21429   0.01858  -0.03735   0.36934
  24        3PZ         0.09433   0.09106   0.19487   0.03735   0.00000
  25 4   H  1S          0.58966   0.00000   0.00000  -0.56324  -0.00000
  26        2S         -0.50459   0.00000   0.00000  -0.75887   0.00000
  27        3PX        -0.09433  -0.12324   0.17629  -0.03735   0.36934
  28        3PY         0.09433  -0.21429  -0.01858   0.03735   0.36934
  29        3PZ        -0.09433  -0.09106  -0.19487  -0.03735   0.00000
  30 5   H  1S          0.58966   0.00000   0.00000  -0.56324  -0.00000
  31        2S         -0.50459   0.00000   0.00000  -0.75887   0.00000
  32        3PX         0.09433   0.12324  -0.17629   0.03735  -0.36934
  33        3PY        -0.09433   0.21429   0.01858  -0.03735  -0.36934
  34        3PZ        -0.09433  -0.09106  -0.19487  -0.03735   0.00000
                          21        22        23        24        25
                        (T1)--V   (T1)--V   (T2)--V   (T2)--V   (T2)--V
     Eigenvalues --     1.41563   1.41563   1.61774   1.61774   1.61774
   1 1   C  1S          0.00000   0.00000   0.00000   0.00000   0.00000
   2        2S          0.00000   0.00000   0.00000   0.00000   0.00000
   3        3S          0.00000   0.00000   0.00000   0.00000   0.00000
   4        4PX         0.00000   0.00000   0.00000  -0.06356   0.00000
   5        4PY        -0.00000   0.00000  -0.06356   0.00000   0.00000
   6        4PZ         0.00000   0.00000   0.00000   0.00000  -0.06356
   7        5PX         0.00000  -0.00000   0.00000   1.02783   0.00000
   8        5PY        -0.00000   0.00000   1.02783   0.00000   0.00000
   9        5PZ         0.00000   0.00000   0.00000   0.00000   1.02783
  10        6D 0        0.00000   0.00000   0.00000   0.00000   0.00000
  11        6D+1       -0.00000   0.00000   0.71063   0.00000   0.00000
  12        6D-1        0.00000  -0.00000   0.00000   0.71063   0.00000
  13        6D+2        0.00000   0.00000   0.00000   0.00000   0.00000
  14        6D-2        0.00000   0.00000   0.00000   0.00000   0.71063
  15 2   H  1S          0.00000   0.00000  -0.47515  -0.47515  -0.47515
  16        2S          0.00000  -0.00000  -0.07721  -0.07721  -0.07721
  17        3PX         0.36934   0.00000  -0.01825  -0.34708  -0.01825
  18        3PY         0.00000   0.36934  -0.34708  -0.01825  -0.01825
  19        3PZ        -0.36934  -0.36934  -0.01825  -0.01825  -0.34708
  20 3   H  1S         -0.00000  -0.00000   0.47515   0.47515  -0.47515
  21        2S         -0.00000   0.00000   0.07721   0.07721  -0.07721
  22        3PX         0.36934   0.00000  -0.01825  -0.34708   0.01825
  23        3PY         0.00000   0.36934  -0.34708  -0.01825   0.01825
  24        3PZ         0.36934   0.36934   0.01825   0.01825  -0.34708
  25 4   H  1S          0.00000  -0.00000  -0.47515   0.47515   0.47515
  26        2S          0.00000   0.00000  -0.07721   0.07721   0.07721
  27        3PX        -0.36934   0.00000   0.01825  -0.34708  -0.01825
  28        3PY         0.00000  -0.36934  -0.34708   0.01825   0.01825
  29        3PZ         0.36934  -0.36934   0.01825  -0.01825  -0.34708
  30 5   H  1S         -0.00000   0.00000   0.47515  -0.47515   0.47515
  31        2S         -0.00000  -0.00000   0.07721  -0.07721   0.07721
  32        3PX        -0.36934   0.00000   0.01825  -0.34708   0.01825
  33        3PY         0.00000  -0.36934  -0.34708   0.01825  -0.01825
  34        3PZ        -0.36934   0.36934  -0.01825   0.01825  -0.34708
                          26        27        28        29        30
                        (T2)--V   (T2)--V   (T2)--V   (E)--V    (E)--V
     Eigenvalues --     1.92476   1.92476   1.92476   2.24213   2.24213
   1 1   C  1S          0.00000   0.00000   0.00000  -0.00000   0.00000
   2        2S          0.00000   0.00000   0.00000  -0.00000  -0.00000
   3        3S          0.00000   0.00000   0.00000   0.00000  -0.00000
   4        4PX        -0.25528   0.00000   0.00000   0.00000   0.00000
   5        4PY         0.00000  -0.25528   0.00000   0.00000   0.00000
   6        4PZ         0.00000   0.00000  -0.25528   0.00000   0.00000
   7        5PX        -0.77682   0.00000   0.00000   0.00000   0.00000
   8        5PY         0.00000  -0.77682   0.00000   0.00000   0.00000
   9        5PZ         0.00000   0.00000  -0.77682   0.00000   0.00000
  10        6D 0        0.00000   0.00000   0.00000   1.25507  -0.43314
  11        6D+1        0.00000   0.78591   0.00000   0.00000   0.00000
  12        6D-1        0.78591   0.00000   0.00000   0.00000   0.00000
  13        6D+2        0.00000   0.00000   0.00000   0.43314   1.25507
  14        6D-2        0.00000   0.00000   0.78591   0.00000   0.00000
  15 2   H  1S         -0.08855  -0.08855  -0.08855  -0.00000   0.00000
  16        2S          0.35860   0.35860   0.35860  -0.00000   0.00000
  17        3PX         0.42782  -0.30321  -0.30321   0.10050  -0.51897
  18        3PY        -0.30321   0.42782  -0.30321   0.39919   0.34652
  19        3PZ        -0.30321  -0.30321   0.42782  -0.49969   0.17245
  20 3   H  1S          0.08855   0.08855  -0.08855  -0.00000   0.00000
  21        2S         -0.35860  -0.35860   0.35860  -0.00000   0.00000
  22        3PX         0.42782  -0.30321   0.30321  -0.10050   0.51897
  23        3PY        -0.30321   0.42782   0.30321  -0.39919  -0.34652
  24        3PZ         0.30321   0.30321   0.42782  -0.49969   0.17245
  25 4   H  1S          0.08855  -0.08855   0.08855  -0.00000   0.00000
  26        2S         -0.35860   0.35860  -0.35860  -0.00000   0.00000
  27        3PX         0.42782   0.30321  -0.30321  -0.10050   0.51897
  28        3PY         0.30321   0.42782   0.30321   0.39919   0.34652
  29        3PZ        -0.30321   0.30321   0.42782   0.49969  -0.17245
  30 5   H  1S         -0.08855   0.08855   0.08855  -0.00000   0.00000
  31        2S          0.35860  -0.35860  -0.35860  -0.00000   0.00000
  32        3PX         0.42782   0.30321   0.30321   0.10050  -0.51897
  33        3PY         0.30321   0.42782  -0.30321  -0.39919  -0.34652
  34        3PZ         0.30321  -0.30321   0.42782   0.49969  -0.17245
                          31        32        33        34
                        (A1)--V   (T2)--V   (T2)--V   (T2)--V
     Eigenvalues --     2.42138   2.45171   2.45171   2.45171
   1 1   C  1S         -0.04977   0.00000   0.00000   0.00000
   2        2S          1.51066   0.00000   0.00000   0.00000
   3        3S          1.66258   0.00000   0.00000   0.00000
   4        4PX         0.00000   1.36557   0.00000   0.00000
   5        4PY         0.00000   0.00000   1.36557   0.00000
   6        4PZ         0.00000   0.00000   0.00000   1.36557
   7        5PX         0.00000   0.98717   0.00000   0.00000
   8        5PY         0.00000   0.00000   0.98717   0.00000
   9        5PZ         0.00000   0.00000   0.00000   0.98717
  10        6D 0       -0.00000   0.00000   0.00000   0.00000
  11        6D+1        0.00000   0.00000   1.41608   0.00000
  12        6D-1        0.00000   1.41608   0.00000   0.00000
  13        6D+2        0.00000   0.00000   0.00000   0.00000
  14        6D-2        0.00000   0.00000   0.00000   1.41608
  15 2   H  1S         -0.62140  -0.89945  -0.89945  -0.89945
  16        2S         -0.30650  -0.44911  -0.44911  -0.44911
  17        3PX         0.47026   0.51407   0.46928   0.46928
  18        3PY         0.47026   0.46928   0.51407   0.46928
  19        3PZ         0.47026   0.46928   0.46928   0.51407
  20 3   H  1S         -0.62140   0.89945   0.89945  -0.89945
  21        2S         -0.30650   0.44911   0.44911  -0.44911
  22        3PX        -0.47026   0.51407   0.46928  -0.46928
  23        3PY        -0.47026   0.46928   0.51407  -0.46928
  24        3PZ         0.47026  -0.46928  -0.46928   0.51407
  25 4   H  1S         -0.62140   0.89945  -0.89945   0.89945
  26        2S         -0.30650   0.44911  -0.44911   0.44911
  27        3PX        -0.47026   0.51407  -0.46928   0.46928
  28        3PY         0.47026  -0.46928   0.51407  -0.46928
  29        3PZ        -0.47026   0.46928  -0.46928   0.51407
  30 5   H  1S         -0.62140  -0.89945   0.89945   0.89945
  31        2S         -0.30650  -0.44911   0.44911   0.44911
  32        3PX         0.47026   0.51407  -0.46928  -0.46928
  33        3PY        -0.47026  -0.46928   0.51407   0.46928
  34        3PZ        -0.47026  -0.46928   0.46928   0.51407
     Density Matrix:
                           1         2         3         4         5
   1 1   C  1S          2.05881
   2        2S         -0.08138   0.27890
   3        3S         -0.12001   0.17689   0.11449
   4        4PX         0.00000   0.00000   0.00000   0.38618
   5        4PY         0.00000   0.00000   0.00000   0.00000   0.38618
   6        4PZ         0.00000   0.00000   0.00000   0.00000   0.00000
   7        5PX         0.00000   0.00000   0.00000   0.16582   0.00000
   8        5PY         0.00000   0.00000   0.00000   0.00000   0.16582
   9        5PZ         0.00000   0.00000   0.00000   0.00000   0.00000
  10        6D 0        0.00000  -0.00000  -0.00000   0.00000   0.00000
  11        6D+1       -0.00000   0.00000   0.00000  -0.00000   0.01589
  12        6D-1        0.00000  -0.00000  -0.00000   0.01589   0.00000
  13        6D+2        0.00000   0.00000   0.00000  -0.00000   0.00000
  14        6D-2       -0.00000   0.00000   0.00000   0.00000   0.00000
  15 2   H  1S         -0.07284   0.13579   0.08724   0.19626   0.19626
  16        2S         -0.00624   0.02065   0.01310   0.08189   0.08189
  17        3PX         0.00762  -0.01047  -0.00679   0.00485  -0.00867
  18        3PY         0.00762  -0.01047  -0.00679  -0.00867   0.00485
  19        3PZ         0.00762  -0.01047  -0.00679  -0.00867  -0.00867
  20 3   H  1S         -0.07284   0.13579   0.08724  -0.19626  -0.19626
  21        2S         -0.00624   0.02065   0.01310  -0.08189  -0.08189
  22        3PX        -0.00762   0.01047   0.00679   0.00485  -0.00867
  23        3PY        -0.00762   0.01047   0.00679  -0.00867   0.00485
  24        3PZ         0.00762  -0.01047  -0.00679   0.00867   0.00867
  25 4   H  1S         -0.07284   0.13579   0.08724  -0.19626   0.19626
  26        2S         -0.00624   0.02065   0.01310  -0.08189   0.08189
  27        3PX        -0.00762   0.01047   0.00679   0.00485   0.00867
  28        3PY         0.00762  -0.01047  -0.00679   0.00867   0.00485
  29        3PZ        -0.00762   0.01047   0.00679  -0.00867   0.00867
  30 5   H  1S         -0.07284   0.13579   0.08724   0.19626  -0.19626
  31        2S         -0.00624   0.02065   0.01310   0.08189  -0.08189
  32        3PX         0.00762  -0.01047  -0.00679   0.00485   0.00867
  33        3PY        -0.00762   0.01047   0.00679   0.00867   0.00485
  34        3PZ        -0.00762   0.01047   0.00679   0.00867  -0.00867
                           6         7         8         9        10
   6        4PZ         0.38618
   7        5PX         0.00000   0.07120
   8        5PY         0.00000   0.00000   0.07120
   9        5PZ         0.16582   0.00000   0.00000   0.07120
  10        6D 0       -0.00000   0.00000   0.00000  -0.00000   0.00000
  11        6D+1        0.00000  -0.00000   0.00682   0.00000   0.00000
  12        6D-1        0.00000   0.00682   0.00000   0.00000   0.00000
  13        6D+2       -0.00000  -0.00000   0.00000  -0.00000   0.00000
  14        6D-2        0.01589   0.00000   0.00000   0.00682  -0.00000
  15 2   H  1S          0.19626   0.08427   0.08427   0.08427   0.00000
  16        2S          0.08189   0.03516   0.03516   0.03516   0.00000
  17        3PX        -0.00867   0.00208  -0.00372  -0.00372   0.00000
  18        3PY        -0.00867  -0.00372   0.00208  -0.00372   0.00000
  19        3PZ         0.00485  -0.00372  -0.00372   0.00208  -0.00000
  20 3   H  1S          0.19626  -0.08427  -0.08427   0.08427  -0.00000
  21        2S          0.08189  -0.03516  -0.03516   0.03516  -0.00000
  22        3PX         0.00867   0.00208  -0.00372   0.00372  -0.00000
  23        3PY         0.00867  -0.00372   0.00208   0.00372  -0.00000
  24        3PZ         0.00485   0.00372   0.00372   0.00208   0.00000
  25 4   H  1S         -0.19626  -0.08427   0.08427  -0.08427   0.00000
  26        2S         -0.08189  -0.03516   0.03516  -0.03516   0.00000
  27        3PX        -0.00867   0.00208   0.00372  -0.00372   0.00000
  28        3PY         0.00867   0.00372   0.00208   0.00372   0.00000
  29        3PZ         0.00485  -0.00372   0.00372   0.00208  -0.00000
  30 5   H  1S         -0.19626   0.08427  -0.08427  -0.08427   0.00000
  31        2S         -0.08189   0.03516  -0.03516  -0.03516   0.00000
  32        3PX         0.00867   0.00208   0.00372   0.00372   0.00000
  33        3PY        -0.00867   0.00372   0.00208  -0.00372   0.00000
  34        3PZ         0.00485   0.00372  -0.00372   0.00208  -0.00000
                          11        12        13        14        15
  11        6D+1        0.00065
  12        6D-1        0.00000   0.00065
  13        6D+2        0.00000  -0.00000   0.00000
  14        6D-2        0.00000   0.00000  -0.00000   0.00065
  15 2   H  1S          0.00808   0.00808  -0.00000   0.00808   0.36587
  16        2S          0.00337   0.00337  -0.00000   0.00337   0.13490
  17        3PX        -0.00036   0.00020   0.00000  -0.00036  -0.01153
  18        3PY         0.00020  -0.00036   0.00000  -0.00036  -0.01153
  19        3PZ        -0.00036  -0.00036  -0.00000   0.00020  -0.01153
  20 3   H  1S         -0.00808  -0.00808  -0.00000   0.00808  -0.03308
  21        2S         -0.00337  -0.00337  -0.00000   0.00337  -0.03156
  22        3PX        -0.00036   0.00020  -0.00000   0.00036   0.00764
  23        3PY         0.00020  -0.00036  -0.00000   0.00036   0.00764
  24        3PZ         0.00036   0.00036  -0.00000   0.00020   0.00611
  25 4   H  1S          0.00808  -0.00808   0.00000  -0.00808  -0.03308
  26        2S          0.00337  -0.00337   0.00000  -0.00337  -0.03156
  27        3PX         0.00036   0.00020   0.00000  -0.00036   0.00764
  28        3PY         0.00020   0.00036  -0.00000   0.00036   0.00611
  29        3PZ         0.00036  -0.00036   0.00000   0.00020   0.00764
  30 5   H  1S         -0.00808   0.00808   0.00000  -0.00808  -0.03308
  31        2S         -0.00337   0.00337   0.00000  -0.00337  -0.03156
  32        3PX         0.00036   0.00020  -0.00000   0.00036   0.00611
  33        3PY         0.00020   0.00036   0.00000  -0.00036   0.00764
  34        3PZ        -0.00036   0.00036  -0.00000   0.00020   0.00764
                          16        17        18        19        20
  16        2S          0.05362
  17        3PX        -0.00343   0.00085
  18        3PY        -0.00343   0.00038   0.00085
  19        3PZ        -0.00343   0.00038   0.00038   0.00085
  20 3   H  1S         -0.03156  -0.00764  -0.00764   0.00611   0.36587
  21        2S         -0.01584  -0.00180  -0.00180   0.00393   0.13490
  22        3PX         0.00180  -0.00034  -0.00082  -0.00021   0.01153
  23        3PY         0.00180  -0.00082  -0.00034  -0.00021   0.01153
  24        3PZ         0.00393   0.00021   0.00021   0.00007  -0.01153
  25 4   H  1S         -0.03156  -0.00764   0.00611  -0.00764  -0.03308
  26        2S         -0.01584  -0.00180   0.00393  -0.00180  -0.03156
  27        3PX         0.00180  -0.00034  -0.00021  -0.00082  -0.00611
  28        3PY         0.00393   0.00021   0.00007   0.00021  -0.00764
  29        3PZ         0.00180  -0.00082  -0.00021  -0.00034   0.00764
  30 5   H  1S         -0.03156   0.00611  -0.00764  -0.00764  -0.03308
  31        2S         -0.01584   0.00393  -0.00180  -0.00180  -0.03156
  32        3PX         0.00393   0.00007   0.00021   0.00021  -0.00764
  33        3PY         0.00180  -0.00021  -0.00034  -0.00082  -0.00611
  34        3PZ         0.00180  -0.00021  -0.00082  -0.00034   0.00764
                          21        22        23        24        25
  21        2S          0.05362
  22        3PX         0.00343   0.00085
  23        3PY         0.00343   0.00038   0.00085
  24        3PZ        -0.00343  -0.00038  -0.00038   0.00085
  25 4   H  1S         -0.03156  -0.00611   0.00764  -0.00764   0.36587
  26        2S         -0.01584  -0.00393   0.00180  -0.00180   0.13490
  27        3PX        -0.00393   0.00007   0.00021  -0.00021   0.01153
  28        3PY        -0.00180  -0.00021  -0.00034   0.00082  -0.01153
  29        3PZ         0.00180   0.00021   0.00082  -0.00034   0.01153
  30 5   H  1S         -0.03156   0.00764  -0.00611  -0.00764  -0.03308
  31        2S         -0.01584   0.00180  -0.00393  -0.00180  -0.03156
  32        3PX        -0.00180  -0.00034  -0.00021   0.00082  -0.00764
  33        3PY        -0.00393   0.00021   0.00007  -0.00021   0.00764
  34        3PZ         0.00180   0.00082   0.00021  -0.00034  -0.00611
                          26        27        28        29        30
  26        2S          0.05362
  27        3PX         0.00343   0.00085
  28        3PY        -0.00343  -0.00038   0.00085
  29        3PZ         0.00343   0.00038  -0.00038   0.00085
  30 5   H  1S         -0.03156   0.00764  -0.00764  -0.00611   0.36587
  31        2S         -0.01584   0.00180  -0.00180  -0.00393   0.13490
  32        3PX        -0.00180  -0.00034   0.00082  -0.00021  -0.01153
  33        3PY         0.00180   0.00082  -0.00034   0.00021   0.01153
  34        3PZ        -0.00393   0.00021  -0.00021   0.00007   0.01153
                          31        32        33        34
  31        2S          0.05362
  32        3PX        -0.00343   0.00085
  33        3PY         0.00343  -0.00038   0.00085
  34        3PZ         0.00343  -0.00038   0.00038   0.00085
    Full Mulliken population analysis:
                           1         2         3         4         5
   1 1   C  1S          2.05881
   2        2S         -0.01678   0.27890
   3        3S         -0.02155   0.14159   0.11449
   4        4PX         0.00000   0.00000   0.00000   0.38618
   5        4PY         0.00000   0.00000   0.00000   0.00000   0.38618
   6        4PZ         0.00000   0.00000   0.00000   0.00000   0.00000
   7        5PX         0.00000   0.00000   0.00000   0.08801   0.00000
   8        5PY         0.00000   0.00000   0.00000   0.00000   0.08801
   9        5PZ         0.00000   0.00000   0.00000   0.00000   0.00000
  10        6D 0        0.00000   0.00000   0.00000   0.00000   0.00000
  11        6D+1       -0.00000   0.00000   0.00000   0.00000   0.00000
  12        6D-1        0.00000  -0.00000  -0.00000   0.00000   0.00000
  13        6D+2        0.00000   0.00000  -0.00000   0.00000   0.00000
  14        6D-2       -0.00000   0.00000   0.00000   0.00000   0.00000
  15 2   H  1S         -0.00382   0.04600   0.04006   0.04466   0.04466
  16        2S         -0.00056   0.00977   0.00964   0.00989   0.00989
  17        3PX        -0.00044   0.00244   0.00096   0.00005   0.00183
  18        3PY        -0.00044   0.00244   0.00096   0.00183   0.00005
  19        3PZ        -0.00044   0.00244   0.00096   0.00183   0.00183
  20 3   H  1S         -0.00382   0.04600   0.04006   0.04466   0.04466
  21        2S         -0.00056   0.00977   0.00964   0.00989   0.00989
  22        3PX        -0.00044   0.00244   0.00096   0.00005   0.00183
  23        3PY        -0.00044   0.00244   0.00096   0.00183   0.00005
  24        3PZ        -0.00044   0.00244   0.00096   0.00183   0.00183
  25 4   H  1S         -0.00382   0.04600   0.04006   0.04466   0.04466
  26        2S         -0.00056   0.00977   0.00964   0.00989   0.00989
  27        3PX        -0.00044   0.00244   0.00096   0.00005   0.00183
  28        3PY        -0.00044   0.00244   0.00096   0.00183   0.00005
  29        3PZ        -0.00044   0.00244   0.00096   0.00183   0.00183
  30 5   H  1S         -0.00382   0.04600   0.04006   0.04466   0.04466
  31        2S         -0.00056   0.00977   0.00964   0.00989   0.00989
  32        3PX        -0.00044   0.00244   0.00096   0.00005   0.00183
  33        3PY        -0.00044   0.00244   0.00096   0.00183   0.00005
  34        3PZ        -0.00044   0.00244   0.00096   0.00183   0.00183
                           6         7         8         9        10
   6        4PZ         0.38618
   7        5PX         0.00000   0.07120
   8        5PY         0.00000   0.00000   0.07120
   9        5PZ         0.08801   0.00000   0.00000   0.07120
  10        6D 0        0.00000   0.00000   0.00000   0.00000   0.00000
  11        6D+1        0.00000   0.00000   0.00000   0.00000   0.00000
  12        6D-1        0.00000   0.00000   0.00000   0.00000   0.00000
  13        6D+2        0.00000   0.00000   0.00000   0.00000   0.00000
  14        6D-2        0.00000   0.00000   0.00000   0.00000   0.00000
  15 2   H  1S          0.04466   0.02743   0.02743   0.02743   0.00000
  16        2S          0.00989   0.01080   0.01080   0.01080   0.00000
  17        3PX         0.00183   0.00039   0.00039   0.00039  -0.00000
  18        3PY         0.00183   0.00039   0.00039   0.00039  -0.00000
  19        3PZ         0.00005   0.00039   0.00039   0.00039  -0.00000
  20 3   H  1S          0.04466   0.02743   0.02743   0.02743  -0.00000
  21        2S          0.00989   0.01080   0.01080   0.01080  -0.00000
  22        3PX         0.00183   0.00039   0.00039   0.00039  -0.00000
  23        3PY         0.00183   0.00039   0.00039   0.00039  -0.00000
  24        3PZ         0.00005   0.00039   0.00039   0.00039   0.00000
  25 4   H  1S          0.04466   0.02743   0.02743   0.02743   0.00000
  26        2S          0.00989   0.01080   0.01080   0.01080   0.00000
  27        3PX         0.00183   0.00039   0.00039   0.00039   0.00000
  28        3PY         0.00183   0.00039   0.00039   0.00039  -0.00000
  29        3PZ         0.00005   0.00039   0.00039   0.00039   0.00000
  30 5   H  1S          0.04466   0.02743   0.02743   0.02743   0.00000
  31        2S          0.00989   0.01080   0.01080   0.01080   0.00000
  32        3PX         0.00183   0.00039   0.00039   0.00039  -0.00000
  33        3PY         0.00183   0.00039   0.00039   0.00039   0.00000
  34        3PZ         0.00005   0.00039   0.00039   0.00039   0.00000
                          11        12        13        14        15
  11        6D+1        0.00065
  12        6D-1        0.00000   0.00065
  13        6D+2        0.00000   0.00000   0.00000
  14        6D-2        0.00000   0.00000   0.00000   0.00065
  15 2   H  1S          0.00189   0.00189   0.00000   0.00189   0.36587
  16        2S          0.00015   0.00015   0.00000   0.00015   0.09239
  17        3PX        -0.00001  -0.00005   0.00000  -0.00001   0.00000
  18        3PY        -0.00005  -0.00001  -0.00000  -0.00001   0.00000
  19        3PZ        -0.00001  -0.00001  -0.00000  -0.00005   0.00000
  20 3   H  1S          0.00189   0.00189   0.00000   0.00189  -0.00192
  21        2S          0.00015   0.00015   0.00000   0.00015  -0.00715
  22        3PX        -0.00001  -0.00005   0.00000  -0.00001   0.00041
  23        3PY        -0.00005  -0.00001  -0.00000  -0.00001   0.00041
  24        3PZ        -0.00001  -0.00001  -0.00000  -0.00005   0.00000
  25 4   H  1S          0.00189   0.00189   0.00000   0.00189  -0.00192
  26        2S          0.00015   0.00015   0.00000   0.00015  -0.00715
  27        3PX        -0.00001  -0.00005  -0.00000  -0.00001   0.00041
  28        3PY        -0.00005  -0.00001   0.00000  -0.00001   0.00000
  29        3PZ        -0.00001  -0.00001   0.00000  -0.00005   0.00041
  30 5   H  1S          0.00189   0.00189  -0.00000   0.00189  -0.00192
  31        2S          0.00015   0.00015   0.00000   0.00015  -0.00715
  32        3PX        -0.00001  -0.00005  -0.00000  -0.00001  -0.00000
  33        3PY        -0.00005  -0.00001   0.00000  -0.00001   0.00041
  34        3PZ        -0.00001  -0.00001  -0.00000  -0.00005   0.00041
                          16        17        18        19        20
  16        2S          0.05362
  17        3PX         0.00000   0.00085
  18        3PY         0.00000   0.00000   0.00085
  19        3PZ         0.00000   0.00000   0.00000   0.00085
  20 3   H  1S         -0.00715   0.00041   0.00041  -0.00000   0.36587
  21        2S         -0.00794   0.00019   0.00019  -0.00000   0.09239
  22        3PX         0.00019   0.00002   0.00005   0.00000   0.00000
  23        3PY         0.00019   0.00005   0.00002   0.00000   0.00000
  24        3PZ         0.00000  -0.00000  -0.00000   0.00000   0.00000
  25 4   H  1S         -0.00715   0.00041  -0.00000   0.00041  -0.00192
  26        2S         -0.00794   0.00019  -0.00000   0.00019  -0.00715
  27        3PX         0.00019   0.00002   0.00000   0.00005  -0.00000
  28        3PY         0.00000  -0.00000   0.00000  -0.00000   0.00041
  29        3PZ         0.00019   0.00005   0.00000   0.00002   0.00041
  30 5   H  1S         -0.00715   0.00000   0.00041   0.00041  -0.00192
  31        2S         -0.00794   0.00000   0.00019   0.00019  -0.00715
  32        3PX        -0.00000   0.00000   0.00000   0.00000   0.00041
  33        3PY         0.00019  -0.00000   0.00002   0.00005  -0.00000
  34        3PZ         0.00019  -0.00000   0.00005   0.00002   0.00041
                          21        22        23        24        25
  21        2S          0.05362
  22        3PX         0.00000   0.00085
  23        3PY         0.00000   0.00000   0.00085
  24        3PZ         0.00000  -0.00000  -0.00000   0.00085
  25 4   H  1S         -0.00715   0.00000   0.00041   0.00041   0.36587
  26        2S         -0.00794   0.00000   0.00019   0.00019   0.09239
  27        3PX        -0.00000   0.00000   0.00000   0.00000   0.00000
  28        3PY         0.00019  -0.00000   0.00002   0.00005   0.00000
  29        3PZ         0.00019  -0.00000   0.00005   0.00002   0.00000
  30 5   H  1S         -0.00715   0.00041  -0.00000   0.00041  -0.00192
  31        2S         -0.00794   0.00019  -0.00000   0.00019  -0.00715
  32        3PX         0.00019   0.00002  -0.00000   0.00005   0.00041
  33        3PY        -0.00000   0.00000   0.00000  -0.00000   0.00041
  34        3PZ         0.00019   0.00005   0.00000   0.00002   0.00000
                          26        27        28        29        30
  26        2S          0.05362
  27        3PX         0.00000   0.00085
  28        3PY         0.00000  -0.00000   0.00085
  29        3PZ         0.00000   0.00000  -0.00000   0.00085
  30 5   H  1S         -0.00715   0.00041   0.00041   0.00000   0.36587
  31        2S         -0.00794   0.00019   0.00019   0.00000   0.09239
  32        3PX         0.00019   0.00002   0.00005  -0.00000   0.00000
  33        3PY         0.00019   0.00005   0.00002   0.00000   0.00000
  34        3PZ         0.00000   0.00000  -0.00000   0.00000   0.00000
                          31        32        33        34
  31        2S          0.05362
  32        3PX         0.00000   0.00085
  33        3PY         0.00000  -0.00000   0.00085
  34        3PZ         0.00000  -0.00000   0.00000   0.00085
     Gross orbital populations:
                           1
   1 1   C  1S          1.99770
   2        2S          0.65605
   3        3S          0.44483
   4        4PX         0.70727
   5        4PY         0.70727
   6        4PZ         0.70727
   7        5PX         0.31679
   8        5PY         0.31679
   9        5PZ         0.31679
  10        6D 0        0.00000
  11        6D+1        0.00854
  12        6D-1        0.00854
  13        6D+2        0.00000
  14        6D-2        0.00854
  15 2   H  1S          0.73771
  16        2S          0.18325
  17        3PX         0.00998
  18        3PY         0.00998
  19        3PZ         0.00998
  20 3   H  1S          0.73771
  21        2S          0.18325
  22        3PX         0.00998
  23        3PY         0.00998
  24        3PZ         0.00998
  25 4   H  1S          0.73771
  26        2S          0.18325
  27        3PX         0.00998
  28        3PY         0.00998
  29        3PZ         0.00998
  30 5   H  1S          0.73771
  31        2S          0.18325
  32        3PX         0.00998
  33        3PY         0.00998
  34        3PZ         0.00998
          Condensed to atoms (all electrons):
              1          2          3          4          5
     1  C    4.560856   0.408883   0.408883   0.408883   0.408883
     2  H    0.408883   0.606829  -0.021603  -0.021603  -0.021603
     3  H    0.408883  -0.021603   0.606829  -0.021603  -0.021603
     4  H    0.408883  -0.021603  -0.021603   0.606829  -0.021603
     5  H    0.408883  -0.021603  -0.021603  -0.021603   0.606829
 Mulliken atomic charges:
              1
     1  C   -0.196387
     2  H    0.049097
     3  H    0.049097
     4  H    0.049097
     5  H    0.049097
 Sum of Mulliken atomic charges =   0.00000
 Mulliken charges with hydrogens summed into heavy atoms:
              1
     1  C    0.000000
 Sum of Mulliken charges with hydrogens summed into heavy atoms =   0.00000
 Electronic spatial extent (au):  <R**2>=             35.3023
 Charge=              0.0000 electrons
 Dipole moment (field-independent basis, Debye):
    X=              0.0000    Y=             -0.0000    Z=             -0.0000  Tot=              0.0000
 Quadrupole moment (field-independent basis, Debye-Ang):
   XX=             -8.2187   YY=             -8.2187   ZZ=             -8.2187
   XY=             -0.0000   XZ=             -0.0000   YZ=              0.0000
 Traceless Quadrupole moment (field-independent basis, Debye-Ang):
   XX=             -0.0000   YY=              0.0000   ZZ=              0.0000
   XY=             -0.0000   XZ=             -0.0000   YZ=              0.0000
 Octapole moment (field-independent basis, Debye-Ang**2):
  XXX=              0.0000  YYY=             -0.0000  ZZZ=             -0.0000  XYY=              0.0000
  XXY=              0.0000  XXZ=              0.0000  XZZ=              0.0000  YZZ=             -0.0000
  YYZ=             -0.0000  XYZ=              0.6425
 Hexadecapole moment (field-independent basis, Debye-Ang**3):
 XXXX=            -15.8149 YYYY=            -15.8149 ZZZZ=            -15.8149 XXXY=              0.0000
 XXXZ=             -0.0000 YYYX=             -0.0000 YYYZ=             -0.0000 ZZZX=             -0.0000
 ZZZY=             -0.0000 XXYY=             -4.7930 XXZZ=             -4.7930 YYZZ=             -4.7930
 XXYZ=             -0.0000 YYXZ=             -0.0000 ZZXY=             -0.0000
 N-N= 1.343538919541D+01 E-N=-1.199577380845D+02  KE= 4.011979961104D+01
 Symmetry A    KE= 3.442398009689D+01
 Symmetry B1   KE= 1.898606504717D+00
 Symmetry B2   KE= 1.898606504717D+00
 Symmetry B3   KE= 1.898606504717D+00
 Orbital energies and kinetic energies (alpha):
                                 1                 2
   1         (A1)--O         -10.154907         15.962952
   2         (A1)--O          -0.695651          1.249038
   3         (T2)--O          -0.390181          0.949303
   4         (T2)--O          -0.390181          0.949303
   5         (T2)--O          -0.390181          0.949303
   6         (A1)--V           0.087187          0.721454
   7         (T2)--V           0.153963          0.709010
   8         (T2)--V           0.153963          0.709010
   9         (T2)--V           0.153963          0.709010
  10         (T2)--V           0.421441          1.117931
  11         (T2)--V           0.421441          1.117931
  12         (T2)--V           0.421441          1.117931
  13         (T2)--V           0.663360          2.042442
  14         (T2)--V           0.663360          2.042442
  15         (T2)--V           0.663360          2.042442
  16         (A1)--V           0.693367          2.153237
  17         (E)--V            0.893298          1.629088
  18         (E)--V            0.893298          1.629088
  19         (A1)--V           1.047836          1.866251
  20         (T1)--V           1.415626          2.037092
  21         (T1)--V           1.415626          2.037092
  22         (T1)--V           1.415626          2.037092
  23         (T2)--V           1.617742          2.438598
  24         (T2)--V           1.617742          2.438598
  25         (T2)--V           1.617742          2.438598
  26         (T2)--V           1.924761          2.653882
  27         (T2)--V           1.924761          2.653882
  28         (T2)--V           1.924761          2.653882
  29         (E)--V            2.242129          2.989104
  30         (E)--V            2.242129          2.989104
  31         (A1)--V           2.421382          4.015174
  32         (T2)--V           2.451709          4.339840
  33         (T2)--V           2.451709          4.339840
  34         (T2)--V           2.451709          4.339840
 Total kinetic energy from orbitals= 4.011979961104D+01
 No NMR shielding tensors so no spin-rotation constants.
 Leave Link  601 at Sun Aug 18 00:40:05 2024, MaxMem=   13107200 cpu:       0.1
 (Enter /programs/64bit/g09/g09-gfortran/bin/l701.exe)
 Compute integral first derivatives.
 ... and contract with generalized density number  0.
 Leave Link  701 at Sun Aug 18 00:40:05 2024, MaxMem=   13107200 cpu:       0.1
 (Enter /programs/64bit/g09/g09-gfortran/bin/l702.exe)
 L702 exits ... SP integral derivatives will be done elsewhere.
 Leave Link  702 at Sun Aug 18 00:40:05 2024, MaxMem=   13107200 cpu:       0.0
 (Enter /programs/64bit/g09/g09-gfortran/bin/l703.exe)
 Compute integral first derivatives, UseDBF=F ICtDFT=           0.
 Integral derivatives from FoFDir, PRISM(SPDF).
 Calling FoFJK, ICntrl=      2127 FMM=F ISym2X=1 I1Cent= 0 IOpClX= 0 NMat=1 NMatS=1 NMatT=0.
 FoFCou: FMM=F IPFlag=           0 FMFlag=      100000 FMFlg1=         800
         NFxFlg=           0 DoJE=F BraDBF=F KetDBF=F FulRan=T
         Omega=  0.000000  0.000000  1.000000  0.000000  0.000000 ICntrl=    2127 IOpCl=  0
         NMat0=    1 NMatS0=    1 NMatT0=    0 NMatD0=    1 NMtDS0=    0 NMtDT0=    0
         I1Cent=           0 NGrid=           0.
 Petite list used in FoFCou.
 Leave Link  703 at Sun Aug 18 00:40:06 2024, MaxMem=   13107200 cpu:       0.6
 (Enter /programs/64bit/g09/g09-gfortran/bin/l716.exe)
 Dipole        = 0.00000000D+00-4.44089210D-16-2.22044605D-16
 ***** Axes restored to original set *****
 -------------------------------------------------------------------
 Center     Atomic                   Forces (Hartrees/Bohr)
 Number     Number              X              Y              Z
 -------------------------------------------------------------------
      1        6          -0.000000000    0.000000000   -0.000000000
      2        1          -0.000000000    0.000000000    0.006085024
      3        1           0.005737016   -0.000000000   -0.002028341
      4        1          -0.002868508   -0.004968402   -0.002028341
      5        1          -0.002868508    0.004968402   -0.002028341
 -------------------------------------------------------------------
 Cartesian Forces:  Max     0.006085024 RMS     0.003142293
 Leave Link  716 at Sun Aug 18 00:40:06 2024, MaxMem=   13107200 cpu:       0.0
 (Enter /programs/64bit/g09/g09-gfortran/bin/l103.exe)

 GradGradGradGradGradGradGradGradGradGradGradGradGradGradGradGradGradGrad
 Berny optimization.
 Internal  Forces:  Max     0.006085024 RMS     0.003252582
 Search for a local minimum.
 Step number   1 out of a maximum of   24
 All quantities printed in internal units (Hartrees-Bohrs-Radians)
 RMS Force = .32526D-02 SwitMx=.10000D-02 MixMth= 1
 Mixed Optimization -- RFO/linear search
 Second derivative matrix not updated -- first step.
 The second derivative matrix:
                          R1        R2        R3        R4        A1
           R1           0.34813
           R2           0.00000   0.34813
           R3           0.00000   0.00000   0.34813
           R4           0.00000   0.00000   0.00000   0.34813
           A1           0.00000   0.00000   0.00000   0.00000   0.16000
           A2           0.00000   0.00000   0.00000   0.00000   0.00000
           A3           0.00000   0.00000   0.00000   0.00000   0.00000
           A4           0.00000   0.00000   0.00000   0.00000   0.00000
           A5           0.00000   0.00000   0.00000   0.00000   0.00000
           A6           0.00000   0.00000   0.00000   0.00000   0.00000
           D1           0.00000   0.00000   0.00000   0.00000   0.00000
           D2           0.00000   0.00000   0.00000   0.00000   0.00000
           D3           0.00000   0.00000   0.00000   0.00000   0.00000
           D4           0.00000   0.00000   0.00000   0.00000   0.00000
                          A2        A3        A4        A5        A6
           A2           0.16000
           A3           0.00000   0.16000
           A4           0.00000   0.00000   0.16000
           A5           0.00000   0.00000   0.00000   0.16000
           A6           0.00000   0.00000   0.00000   0.00000   0.16000
           D1           0.00000   0.00000   0.00000   0.00000   0.00000
           D2           0.00000   0.00000   0.00000   0.00000   0.00000
           D3           0.00000   0.00000   0.00000   0.00000   0.00000
           D4           0.00000   0.00000   0.00000   0.00000   0.00000
                          D1        D2        D3        D4
           D1           0.00235
           D2           0.00000   0.00235
           D3           0.00000   0.00000   0.00235
           D4           0.00000   0.00000   0.00000   0.00235
     Eigenvalues ---    0.05086   0.05718   0.08643   0.16000   0.16000
     Eigenvalues ---    0.34813   0.34813   0.34813   0.348131000.00000
     Eigenvalues --- 1000.000001000.000001000.000001000.00000
 RFO step:  Lambda=-4.24929885D-04 EMin= 5.08565158D-02
 Linear search not attempted -- first point.
 Iteration  1 RMS(Cart)=  0.00933172 RMS(Int)=  0.00000000
 Iteration  2 RMS(Cart)=  0.00000000 RMS(Int)=  0.00000000
 ClnCor:  largest displacement from symmetrization is 2.69D-14 for atom     2.
 Variable       Old X    -DE/DX   Delta X   Delta X   Delta X     New X
                                 (Linear)    (Quad)   (Total)
    R1        2.05980   0.00609   0.00000   0.01746   0.01746   2.07726
    R2        2.05980   0.00609   0.00000   0.01746   0.01746   2.07726
    R3        2.05980   0.00609   0.00000   0.01746   0.01746   2.07726
    R4        2.05980   0.00609   0.00000   0.01746   0.01746   2.07726
    A1        1.91063   0.00000   0.00000   0.00000   0.00000   1.91063
    A2        1.91063  -0.00000   0.00000  -0.00000  -0.00000   1.91063
    A3        1.91063  -0.00000   0.00000  -0.00000  -0.00000   1.91063
    A4        1.91063  -0.00000   0.00000  -0.00000  -0.00000   1.91063
    A5        1.91063   0.00000   0.00000  -0.00000  -0.00000   1.91063
    A6        1.91063   0.00000   0.00000   0.00000   0.00000   1.91063
    D1       -2.09440  -0.00000   0.00000  -0.00000  -0.00000  -2.09440
    D2        2.09440   0.00000   0.00000   0.00000   0.00000   2.09440
    D3       -2.09440   0.00000   0.00000   0.00000   0.00000  -2.09440
    D4        2.09440  -0.00000   0.00000  -0.00000  -0.00000   2.09440
         Item               Value     Threshold  Converged?
 Maximum Force            0.006085     0.000450     NO 
 RMS     Force            0.003253     0.000300     NO 
 Maximum Displacement     0.017458     0.001800     NO 
 RMS     Displacement     0.009332     0.001200     NO 
 Predicted change in Energy=-2.127243D-04
 GradGradGradGradGradGradGradGradGradGradGradGradGradGradGradGradGradGrad

 Leave Link  103 at Sun Aug 18 00:40:06 2024, MaxMem=   13107200 cpu:       0.0
 (Enter /programs/64bit/g09/g09-gfortran/bin/l202.exe)
                          Input orientation:                          
 ---------------------------------------------------------------------
 Center     Atomic      Atomic             Coordinates (Angstroms)
 Number     Number       Type             X           Y           Z
 ---------------------------------------------------------------------
      1          6           0        0.000000    0.000000   -0.000000
      2          1           0        0.000000    0.000000    1.099238
      3          1           0        1.036372   -0.000000   -0.366413
      4          1           0       -0.518186   -0.897524   -0.366413
      5          1           0       -0.518186    0.897524   -0.366413
 ---------------------------------------------------------------------
                    Distance matrix (angstroms):
                    1          2          3          4          5
     1  C    0.000000
     2  H    1.099238   0.000000
     3  H    1.099238   1.795049   0.000000
     4  H    1.099238   1.795049   1.795049   0.000000
     5  H    1.099238   1.795049   1.795049   1.795049   0.000000
 Stoichiometry    CH4
 Framework group  TD[O(C),4C3(H)]
 Deg. of freedom     1
 Prev. full point group           TD      NOp  24
 Prev. largest Abelian subgroup   D2      NOp   4
       concise Abelian subgroup   D2      NOp   4
                   Standard orientation:
 ---------------------------------------------------------------------
 Center     Atomic                     Coordinates (Angstroms)
 Number     Number                        X           Y           Z
 ---------------------------------------------------------------------
      1          6                    0.000000    0.000000    0.000000
      2          1                    0.125870    1.050089    0.299660
      3          1                   -0.538784   -0.544049    0.788700
      4          1                   -0.574478   -0.047609   -0.935966
      5          1                    0.987392   -0.458430   -0.152393
 ---------------------------------------------------------------------
 TstSym:  Max error for IOp=  3 IAt=    2 Err= 2.07D+00
 TstSym:  IOp= 25 I=    6 IP=    4 Err= 2.07D+00
  CI=  0.000000000000D+00  0.000000000000D+00  0.000000000000D+00
   T= -2.378590455973D-01  1.984379722104D+00 -5.662749747135D-01
 CIP= -1.085606426851D+00 -8.996885679592D-02 -1.768720284512D+00
 Unable to use previous symmetry information.  Redetermining point group.
 No symmetry information on checkpoint file.  Reassigning symmetry.
 Symm:  InNGrp=TD   InAxis=0.
 Stoichiometry    CH4
 Framework group  TD[O(C),4C3(H)]
 Deg. of freedom     1
 Full point group                 TD      NOp  24
 Largest Abelian subgroup         D2      NOp   4
 Largest concise Abelian subgroup D2      NOp   4
                         Standard orientation:                         
 ---------------------------------------------------------------------
 Center     Atomic      Atomic             Coordinates (Angstroms)
 Number     Number       Type             X           Y           Z
 ---------------------------------------------------------------------
      1          6           0        0.000000    0.000000    0.000000
      2          1           0        0.634646    0.634646    0.634646
      3          1           0       -0.634646   -0.634646    0.634646
      4          1           0       -0.634646    0.634646   -0.634646
      5          1           0        0.634646   -0.634646   -0.634646
 ---------------------------------------------------------------------
 Rotational constants (GHZ):    155.6250623    155.6250623    155.6250623
 Leave Link  202 at Sun Aug 18 00:40:06 2024, MaxMem=   13107200 cpu:       0.0
 (Enter /programs/64bit/g09/g09-gfortran/bin/l301.exe)
 Standard basis: CC-pVDZ (5D, 7F)
 Ernie: Thresh=  0.10000D-02 Tol=  0.10000D-05 Strict=F.
 Ernie:  2 primitive shells out of 42 were deleted.
 There are    10 symmetry adapted basis functions of A   symmetry.
 There are     8 symmetry adapted basis functions of B1  symmetry.
 There are     8 symmetry adapted basis functions of B2  symmetry.
 There are     8 symmetry adapted basis functions of B3  symmetry.
 Integral buffers will be    131072 words long.
 Raffenetti 2 integral format.
 Two-electron integral symmetry is turned on.
    34 basis functions,    61 primitive gaussians,    35 cartesian basis functions
     5 alpha electrons        5 beta electrons
       nuclear repulsion energy        13.3224732959 Hartrees.
 IExCor=  408 DFT=T Ex+Corr=B3PW91 ExCW=0 ScaHFX=  0.200000
 ScaDFX=  0.800000  0.720000  1.000000  0.810000 ScalE2=  1.000000  1.000000
 IRadAn=      0 IRanWt=     -1 IRanGd=            0 ICorTp=0
 NAtoms=    5 NActive=    5 NUniq=    2 SFac= 3.00D+00 NAtFMM=   80 NAOKFM=F Big=F
 Leave Link  301 at Sun Aug 18 00:40:06 2024, MaxMem=   13107200 cpu:       0.1
 (Enter /programs/64bit/g09/g09-gfortran/bin/l302.exe)
 NPDir=0 NMtPBC=     1 NCelOv=     1 NCel=       1 NClECP=     1 NCelD=      1
         NCelK=      1 NCelE2=     1 NClLst=     1 CellRange=     0.0.
 One-electron integrals computed using PRISM.
 One-electron integral symmetry used in STVInt
 NBasis=    34 RedAO= T  NBF=    10     8     8     8
 NBsUse=    34 1.00D-06 NBFU=    10     8     8     8
 Precomputing XC quadrature grid using
 IXCGrd= 2 IRadAn=           0 IRanWt=          -1 IRanGd=           0 AccXCQ= 1.00D-10.
 NRdTot=     308 NPtTot=       38528 NUsed=       40762 NTot=       40794
 NSgBfM=    35    35    35    35    35 NAtAll=     5     5.
 Leave Link  302 at Sun Aug 18 00:40:06 2024, MaxMem=   13107200 cpu:       0.2
 (Enter /programs/64bit/g09/g09-gfortran/bin/l303.exe)
 DipDrv:  MaxL=1.
 Leave Link  303 at Sun Aug 18 00:40:06 2024, MaxMem=   13107200 cpu:       0.0
 (Enter /programs/64bit/g09/g09-gfortran/bin/l401.exe)
 Initial guess read from the read-write file.
 B after Tr=     0.000000    0.000000    0.000000
         Rot=    1.000000    0.000000    0.000000    0.000000 Ang=   0.00 deg.
 Guess basis will be translated and rotated to current coordinates.
 Initial guess orbital symmetries:
       Occupied  (A1) (A1) (T2) (T2) (T2)
       Virtual   (A1) (T2) (T2) (T2) (T2) (T2) (T2) (T2) (T2) (T2)
                 (A1) (E) (E) (A1) (T1) (T1) (T1) (T2) (T2) (T2)
                 (T2) (T2) (T2) (E) (E) (A1) (T2) (T2) (T2)
 The electronic state of the initial guess is 1-A1.
 Leave Link  401 at Sun Aug 18 00:40:06 2024, MaxMem=   13107200 cpu:       0.1
 (Enter /programs/64bit/g09/g09-gfortran/bin/l502.exe)
 Closed shell SCF:
 Requested convergence on RMS density matrix=1.00D-08 within 128 cycles.
 Requested convergence on MAX density matrix=1.00D-06.
 Requested convergence on             energy=1.00D-06.
 No special actions if energy rises.
 Using DIIS extrapolation, IDIIS=  1040.
 Integral symmetry usage will be decided dynamically.
        40704 words used for storage of precomputed grid.
 Keep R1 ints in memory in canonical form, NReq=1121336.
[...]
     5   1     0.11  -0.12  -0.09    -0.41   0.40   0.40    -0.26   0.28   0.28

 -------------------
 - Thermochemistry -
 -------------------
 Temperature   298.150 Kelvin.  Pressure   1.00000 Atm.
 Atom     1 has atomic number  6 and mass  12.00000
 Atom     2 has atomic number  1 and mass   1.00783
 Atom     3 has atomic number  1 and mass   1.00783
 Atom     4 has atomic number  1 and mass   1.00783
 Atom     5 has atomic number  1 and mass   1.00783
 Molecular mass:    16.03130 amu.
 Principal axes and moments of inertia in atomic units:
                           1         2         3
     Eigenvalues --    11.59673  11.59673  11.59673
           X            0.44175   0.00000   0.89714
           Y            0.89714   0.00000  -0.44175
           Z            0.00000   1.00000   0.00000
 This molecule is a spherical top.
 Rotational symmetry number 12.
 Rotational temperatures (Kelvin)      7.46882     7.46882     7.46882
 Rotational constants (GHZ):         155.62506   155.62506   155.62506
 Zero-point vibrational energy     116865.0 (Joules/Mol)
                                   27.93140 (Kcal/Mol)
 Vibrational temperatures:   1878.76  1878.76  1878.76  2202.52  2202.52
          (Kelvin)           4369.22  4566.89  4566.89  4566.89
 
 Zero-point correction=                           0.044512 (Hartree/Particle)
 Thermal correction to Energy=                    0.047386
 Thermal correction to Enthalpy=                  0.048330
 Thermal correction to Gibbs Free Energy=         0.027171
 Sum of electronic and zero-point Energies=            -40.458725
 Sum of electronic and thermal Energies=               -40.455851
 Sum of electronic and thermal Enthalpies=             -40.454907
 Sum of electronic and thermal Free Energies=          -40.476066
 
                     E (Thermal)             CV                S
                      KCal/Mol        Cal/Mol-Kelvin    Cal/Mol-Kelvin
 Total                   29.735              6.532             44.532
 Electronic               0.000              0.000              0.000
 Translational            0.889              2.981             34.261
 Rotational               0.889              2.981             10.170
 Vibrational             27.957              0.571              0.101
                       Q            Log10(Q)             Ln(Q)
 Total Bot       0.317813D-12        -12.497829        -28.777314
 Total V=0       0.946251D+08          7.976006         18.365433
 Vib (Bot)       0.338139D-20        -20.470905        -47.136001
 Vib (V=0)       0.100677D+01          0.002930          0.006746
 Electronic      0.100000D+01          0.000000          0.000000
 Translational   0.252295D+07          6.401908         14.740939
 Rotational      0.372536D+02          1.571168          3.617749
 
                                        methane with imposed symmetry Td and cc-p
 VDZ basis set
                                                             IR Spectrum
 
      3    3                                                           1        1                                                    
      1    0                                                           5        3                                                    
      7    3                                                           3        0                                                    
      4    7                                                           1        6                                                    
 
      X                                                                         X                                                    
      X                                                                         X                                                    
      X                                                                         X                                                    
      X                                                                         X                                                    
      X                                                                         X                                                    
      X                                                                         X                                                    
      X                                                                         X                                                    
      X                                                                         X                                                    
      X                                                                         X                                                    
      X                                                                         X                                                    
      X                                                                         X                                                    
      X                                                                         X                                                    
      X                                                                         X                                                    
      X                                                                         X                                                    
      X                                                                         X                                                    
      X                                                                         X                                                    
      X                                                                         X                                                    
      X                                                                                                                              
      X                                                                                                                              
      X                                                                                                                              
 
 ***** Axes restored to original set *****
 -------------------------------------------------------------------
 Center     Atomic                   Forces (Hartrees/Bohr)
 Number     Number              X              Y              Z
 -------------------------------------------------------------------
      1        6          -0.000000000   -0.000000000   -0.000000000
      2        1          -0.000000000   -0.000000000   -0.000216143
      3        1          -0.000203782   -0.000000000    0.000072048
      4        1           0.000101891    0.000176480    0.000072048
      5        1           0.000101891   -0.000176480    0.000072048
 -------------------------------------------------------------------
 Cartesian Forces:  Max     0.000216143 RMS     0.000111616
 Force constants in Cartesian coordinates: 
                1             2             3             4             5 
      1  0.549106D+00
      2  0.000000D+00  0.549106D+00
      3  0.000000D+00  0.000000D+00  0.549106D+00
      4 -0.429454D-01  0.000000D+00  0.000000D+00  0.428242D-01
      5  0.000000D+00 -0.429454D-01  0.000000D+00  0.000000D+00  0.428242D-01
      6  0.000000D+00  0.000000D+00 -0.325939D+00  0.000000D+00  0.000000D+00
      7 -0.294495D+00  0.000000D+00  0.889362D-01  0.206279D-02  0.000000D+00
      8  0.000000D+00 -0.429454D-01  0.000000D+00  0.000000D+00 -0.198201D-02
      9  0.889362D-01  0.000000D+00 -0.743891D-01  0.300870D-01  0.000000D+00
     10 -0.105833D+00 -0.108924D+00 -0.444681D-01 -0.970810D-03  0.175145D-02
     11 -0.108924D+00 -0.231608D+00 -0.770210D-01  0.175145D-02  0.105159D-02
     12 -0.444681D-01 -0.770210D-01 -0.743891D-01 -0.150435D-01 -0.260561D-01
     13 -0.105833D+00  0.108924D+00 -0.444681D-01 -0.970810D-03 -0.175145D-02
     14  0.108924D+00 -0.231608D+00  0.770210D-01 -0.175145D-02  0.105159D-02
     15 -0.444681D-01  0.770210D-01 -0.743891D-01 -0.150435D-01  0.260561D-01
                6             7             8             9            10 
      6  0.349533D+00
      7 -0.200709D-02  0.315455D+00
      8  0.000000D+00  0.000000D+00  0.428242D-01
      9 -0.786495D-02 -0.963894D-01  0.000000D+00  0.769030D-01
     10  0.100355D-02 -0.115113D-01 -0.239821D-01 -0.113169D-01  0.110982D+00
     11  0.173819D-02  0.222260D-02  0.105159D-02  0.107188D-02  0.118052D+00
     12 -0.786495D-02  0.473016D-02  0.103366D-01  0.267550D-02  0.481947D-01
     13  0.100355D-02 -0.115113D-01  0.239821D-01 -0.113169D-01  0.733301D-02
     14 -0.173819D-02 -0.222260D-02  0.105159D-02 -0.107188D-02  0.131023D-01
     15 -0.786495D-02  0.473016D-02 -0.103366D-01  0.267550D-02  0.658671D-02
               11            12            13            14            15 
     11  0.247297D+00
     12  0.834757D-01  0.769030D-01
     13 -0.131023D-01  0.658671D-02  0.110982D+00
     14 -0.177927D-01  0.926475D-02 -0.118052D+00  0.247297D+00
     15 -0.926475D-02  0.267550D-02  0.481947D-01 -0.834757D-01  0.769030D-01
 Force constants in internal coordinates: 
                1             2             3             4             5 
      1  0.349533D+00
      2  0.729346D-03  0.349533D+00
      3  0.729346D-03  0.729346D-03  0.349533D+00
      4  0.729346D-03  0.729346D-03  0.729346D-03  0.349533D+00
      5  0.185153D-02  0.185153D-02 -0.116259D-02 -0.254047D-02  0.189841D-01
      6  0.290179D-02 -0.748849D-03  0.322941D-02 -0.538235D-02 -0.849872D-02
      7  0.567066D-02 -0.455113D-02 -0.503788D-02  0.391835D-02 -0.126098D-01
      8 -0.748848D-03  0.290179D-02  0.322941D-02 -0.538235D-02 -0.849872D-02
      9 -0.455113D-02  0.567066D-02 -0.503788D-02  0.391835D-02 -0.126098D-01
     10 -0.512400D-02 -0.512400D-02  0.477953D-02  0.546847D-02  0.232329D-01
     11 -0.358605D-02 -0.358605D-02 -0.253133D-02  0.970343D-02 -0.128419D-01
     12  0.295322D-02  0.295322D-02 -0.759399D-02  0.168755D-02  0.780688D-02
     13 -0.388871D-02  0.684193D-02 -0.379699D-02  0.843776D-03  0.390344D-02
     14 -0.684193D-02  0.388871D-02  0.379699D-02 -0.843776D-03 -0.390344D-02
                6             7             8             9            10 
      6  0.357146D-01
      7 -0.217478D-01  0.697767D-01
      8 -0.212731D-02  0.241489D-01  0.357146D-01
      9  0.241489D-01 -0.339599D-01 -0.217478D-01  0.697767D-01
     10 -0.274896D-01 -0.256081D-01 -0.274896D-01 -0.256081D-01  0.829626D-01
     11 -0.101592D-01  0.139734D-01 -0.101592D-01  0.139734D-01  0.521339D-02
     12 -0.893841D-02  0.648947D-02 -0.893841D-02  0.648947D-02 -0.290900D-02
     13 -0.135896D-01 -0.412132D-03  0.465120D-02  0.690160D-02 -0.145450D-02
     14 -0.465120D-02 -0.690160D-02  0.135896D-01  0.412132D-03  0.145450D-02
               11            12            13            14 
     11  0.281704D-01
     12  0.138584D-02  0.175094D-01
     13  0.692920D-03  0.875469D-02  0.177869D-01
     14 -0.692920D-03 -0.875469D-02  0.903219D-02  0.177869D-01
 Leave Link  716 at Sun Aug 18 00:40:23 2024, MaxMem=   13107200 cpu:       0.0
 (Enter /programs/64bit/g09/g09-gfortran/bin/l103.exe)

 GradGradGradGradGradGradGradGradGradGradGradGradGradGradGradGradGradGrad
 Berny optimization.
 Internal  Forces:  Max     0.000216143 RMS     0.000115534
 Search for a local minimum.
 Step number   1 out of a maximum of    2
 All quantities printed in internal units (Hartrees-Bohrs-Radians)
 Second derivative matrix not updated -- analytic derivatives used.
 The second derivative matrix:
                          R1        R2        R3        R4        A1
           R1           0.34953
           R2           0.00073   0.34953
           R3           0.00073   0.00073   0.34953
           R4           0.00073   0.00073   0.00073   0.34953
           A1           0.00185   0.00185  -0.00116  -0.00254   0.01898
           A2           0.00290  -0.00075   0.00323  -0.00538  -0.00850
           A3           0.00567  -0.00455  -0.00504   0.00392  -0.01261
           A4          -0.00075   0.00290   0.00323  -0.00538  -0.00850
           A5          -0.00455   0.00567  -0.00504   0.00392  -0.01261
           A6          -0.00512  -0.00512   0.00478   0.00547   0.02323
           D1          -0.00359  -0.00359  -0.00253   0.00970  -0.01284
           D2           0.00295   0.00295  -0.00759   0.00169   0.00781
           D3          -0.00389   0.00684  -0.00380   0.00084   0.00390
           D4          -0.00684   0.00389   0.00380  -0.00084  -0.00390
                          A2        A3        A4        A5        A6
           A2           0.03571
           A3          -0.02175   0.06978
           A4          -0.00213   0.02415   0.03571
           A5           0.02415  -0.03396  -0.02175   0.06978
           A6          -0.02749  -0.02561  -0.02749  -0.02561   0.08296
           D1          -0.01016   0.01397  -0.01016   0.01397   0.00521
           D2          -0.00894   0.00649  -0.00894   0.00649  -0.00291
           D3          -0.01359  -0.00041   0.00465   0.00690  -0.00145
           D4          -0.00465  -0.00690   0.01359   0.00041   0.00145
                          D1        D2        D3        D4
           D1           0.02817
           D2           0.00139   0.01751
           D3           0.00069   0.00875   0.01779
           D4          -0.00069  -0.00875   0.00903   0.01779
     Eigenvalues ---    0.03596   0.04049   0.06144   0.12651   0.12709
     Eigenvalues ---    0.34961   0.34962   0.34987   0.351721000.00000
     Eigenvalues --- 1000.000001000.000001000.000001000.00000
 Angle between quadratic step and forces=   0.00 degrees.
 Linear search not attempted -- first point.
 Iteration  1 RMS(Cart)=  0.00032848 RMS(Int)=  0.00000000
 Iteration  2 RMS(Cart)=  0.00000000 RMS(Int)=  0.00000000
 ClnCor:  largest displacement from symmetrization is 2.96D-12 for atom     3.
 Variable       Old X    -DE/DX   Delta X   Delta X   Delta X     New X
                                 (Linear)    (Quad)   (Total)
    R1        2.07726  -0.00022   0.00000  -0.00061  -0.00061   2.07664
    R2        2.07726  -0.00022   0.00000  -0.00061  -0.00061   2.07664
    R3        2.07726  -0.00022   0.00000  -0.00061  -0.00061   2.07664
    R4        2.07726  -0.00022   0.00000  -0.00061  -0.00061   2.07664
    A1        1.91063  -0.00000   0.00000  -0.00000  -0.00000   1.91063
    A2        1.91063  -0.00000   0.00000  -0.00000   0.00000   1.91063
    A3        1.91063  -0.00000   0.00000   0.00000   0.00000   1.91063
    A4        1.91063  -0.00000   0.00000   0.00000   0.00000   1.91063
    A5        1.91063   0.00000   0.00000  -0.00000   0.00000   1.91063
    A6        1.91063   0.00000   0.00000  -0.00000   0.00000   1.91063
    D1       -2.09440   0.00000   0.00000   0.00000   0.00000  -2.09440
    D2        2.09440  -0.00000   0.00000  -0.00000   0.00000   2.09440
    D3       -2.09440   0.00000   0.00000   0.00000   0.00000  -2.09440
    D4        2.09440   0.00000   0.00000   0.00000   0.00000   2.09440
         Item               Value     Threshold  Converged?
 Maximum Force            0.000216     0.000450     YES
 RMS     Force            0.000116     0.000300     YES
 Maximum Displacement     0.000615     0.001800     YES
 RMS     Displacement     0.000328     0.001200     YES
 Predicted change in Energy=-2.656533D-07
 Optimization completed.
    -- Stationary point found.
                           ----------------------------
                           !   Optimized Parameters   !
                           ! (Angstroms and Degrees)  !
 --------------------------                            --------------------------
 ! Name  Definition              Value          Derivative Info.                !
 --------------------------------------------------------------------------------
 ! R1    R(1,2)                  1.0992         -DE/DX =   -0.0002              !
 ! R2    R(1,3)                  1.0992         -DE/DX =   -0.0002              !
 ! R3    R(1,4)                  1.0992         -DE/DX =   -0.0002              !
 ! R4    R(1,5)                  1.0992         -DE/DX =   -0.0002              !
 ! A1    A(2,1,3)              109.4712         -DE/DX =    0.0                 !
 ! A2    A(2,1,4)              109.4712         -DE/DX =    0.0                 !
 ! A3    A(2,1,5)              109.4712         -DE/DX =    0.0                 !
 ! A4    A(3,1,4)              109.4712         -DE/DX =    0.0                 !
 ! A5    A(3,1,5)              109.4712         -DE/DX =    0.0                 !
 ! A6    A(4,1,5)              109.4712         -DE/DX =    0.0                 !
 ! D1    D(2,1,4,3)           -120.0            -DE/DX =    0.0                 !
 ! D2    D(2,1,5,3)            120.0            -DE/DX =    0.0                 !
 ! D3    D(2,1,5,4)           -120.0            -DE/DX =    0.0                 !
 ! D4    D(3,1,5,4)            120.0            -DE/DX =    0.0                 !
 --------------------------------------------------------------------------------
 GradGradGradGradGradGradGradGradGradGradGradGradGradGradGradGradGradGrad

 Leave Link  103 at Sun Aug 18 00:40:23 2024, MaxMem=   13107200 cpu:       0.0
 (Enter /programs/64bit/g09/g09-gfortran/bin/l9999.exe)
 1\1\GINC-MOLMOD\Freq\RB3PW91\CC-pVDZ\C1H4\OSPITE\18-Aug-2024\0\\#P Geo
 m=AllCheck Guess=TCheck SCRF=Check GenChk RB3PW91/CC-pVDZ Freq\\methan
 e with imposed symmetry Td and cc-pVDZ basis set\\0,1\C,0.,0.,0.\H,0.,
 0.,1.0992383995\H,1.0363719019,0.,-0.3664127998\H,-0.5181859509,-0.897
 5243948,-0.3664127998\H,-0.5181859509,0.8975243948,-0.3664127998\\Vers
 ion=EM64L-G09RevA.02\State=1-A1\HF=-40.5032367\RMSD=4.165e-11\RMSF=1.1
 16e-04\ZeroPoint=0.0445115\Thermal=0.0473855\Dipole=0.,0.,0.\DipoleDer
 iv=-0.0286105,0.,0.,0.,-0.0286105,0.,0.,0.,-0.0286105,0.070637,0.,0.,0
 .,0.070637,0.,0.,0.,-0.1198162,-0.0986547,0.,0.0598537,0.,0.070637,0.,
 0.0598537,0.,0.0494755,0.0283141,-0.0733055,-0.0299268,-0.0733055,-0.0
 563318,-0.0518348,-0.0299268,-0.0518348,0.0494755,0.0283141,0.0733055,
 -0.0299268,0.0733055,-0.0563318,0.0518348,-0.0299268,0.0518348,0.04947
 55\Polar=13.3264504,0.,13.3264504,0.,0.,13.3264504\PG=TD [O(C1),4C3(H1
 )]\NImag=0\\0.54910579,0.,0.54910579,0.,0.,0.54910579,-0.04294537,0.,0
 .,0.04282420,0.,-0.04294537,0.,0.,0.04282420,0.,0.,-0.32593861,0.,0.,0
 .34953345,-0.29449492,0.,0.08893620,0.00206279,0.,-0.00200709,0.315454
 65,0.,-0.04294537,0.,0.,-0.00198201,0.,0.,0.04282420,0.08893620,0.,-0.
 07438906,0.03008696,0.,-0.00786495,-0.09638942,0.,0.07690301,-0.105832
 75,-0.10892415,-0.04446810,-0.00097081,0.00175145,0.00100355,-0.011511
 26,-0.02398208,-0.01131687,0.11098181,-0.10892415,-0.23160753,-0.07702
 100,0.00175145,0.00105159,0.00173819,0.00222260,0.00105159,0.00107188,
 0.11805245,0.24729703,-0.04446810,-0.07702100,-0.07438906,-0.01504348,
 -0.02605607,-0.00786495,0.00473016,0.01033664,0.00267550,0.04819471,0.
 08347568,0.07690301,-0.10583275,0.10892415,-0.04446810,-0.00097081,-0.
 00175145,0.00100355,-0.01151126,0.02398208,-0.01131687,0.00733301,-0.0
 1310234,0.00658671,0.11098181,0.10892415,-0.23160753,0.07702100,-0.001
 75145,0.00105159,-0.00173819,-0.00222260,0.00105159,-0.00107188,0.0131
 0234,-0.01779268,0.00926475,-0.11805245,0.24729703,-0.04446810,0.07702
 100,-0.07438906,-0.01504348,0.02605607,-0.00786495,0.00473016,-0.01033
 664,0.00267550,0.00658671,-0.00926475,0.00267550,0.04819471,-0.0834756
 8,0.07690301\\0.,0.,0.,0.,0.,0.00021614,0.00020378,0.,-0.00007205,-0.0
 0010189,-0.00017648,-0.00007205,-0.00010189,0.00017648,-0.00007205\\\@


 THERE ARE PEOPLE SO ADDICTED TO EXAGERATING THEY
 CAN'T TELL THE TRUTH WITHOUT LYING. -- FORTUNE COOKIE
 Job cpu time:  0 days  0 hours  0 minutes 13.7 seconds.
 File lengths (MBytes):  RWF=      5 Int=      0 D2E=      0 Chk=      1 Scr=      1
 Normal termination of Gaussian 09 at Sun Aug 18 00:40:23 2024.
