 Entering Gaussian System, Link 0=/programs/64bit/g09/g09-gfortran/bin/g09
 Input=ch4_cc-pVTZ.com
 Output=ch4_cc-pVTZ.log
 Initial command:
 /programs/64bit/g09/g09-gfortran/bin/l1.exe /home/ospite/Desktop/MMfP/Project6/CH4/g09/DFT/B3PW91/Gau-19656.inp -scrdir=/home/ospite/Desktop/MMfP/Project6/CH4/g09/DFT/B3PW91/
 Entering Link 1 = /programs/64bit/g09/g09-gfortran/bin/l1.exe PID=     19657.
  
 Copyright (c) 1988,1990,1992,1993,1995,1998,2003,2009, Gaussian, Inc.
                  All Rights Reserved.
  
 This is part of the Gaussian(R) 09 program.  It is based on
 the Gaussian(R) 03 system (copyright 2003, Gaussian, Inc.),
 the Gaussian(R) 98 system (copyright 1998, Gaussian, Inc.),
 the Gaussian(R) 94 system (copyright 1995, Gaussian, Inc.),
 the Gaussian 92(TM) system (copyright 1992, Gaussian, Inc.),
 the Gaussian 90(TM) system (copyright 1990, Gaussian, Inc.),
 the Gaussian 88(TM) system (copyright 1988, Gaussian, Inc.),
 the Gaussian 86(TM) system (copyright 1986, Carnegie Mellon
 University), and the Gaussian 82(TM) system (copyright 1983,
 Carnegie Mellon University). Gaussian is a federally registered
 trademark of Gaussian, Inc.
  
 This software contains proprietary and confidential information,
 including trade secrets, belonging to Gaussian, Inc.
  
 This software is provided under written license and may be
 used, copied, transmitted, or stored only in accord with that
 written license.
  
 The following legend is applicable only to US Government
 contracts under FAR:
  
                    RESTRICTED RIGHTS LEGEND
  
 Use, reproduction and disclosure by the US Government is
 subject to restrictions as set forth in subparagraphs (a)
 and (c) of the Commercial Computer Software - Restricted
 Rights clause in FAR 52.227-19.
  
 Gaussian, Inc.
 340 Quinnipiac St., Bldg. 40, Wallingford CT 06492
  
  
 ---------------------------------------------------------------
 Warning -- This program may not be used in any manner that
 competes with the business of Gaussian, Inc. or will provide
 assistance to any competitor of Gaussian, Inc.  The licensee
 of this program is prohibited from giving any competitor of
 Gaussian, Inc. access to this program.  By using this program,
 the user acknowledges that Gaussian, Inc. is engaged in the
 business of creating and licensing software in the field of
 computational chemistry and represents and warrants to the
 licensee that it is not a competitor of Gaussian, Inc. and that
 it will not use this program in any manner prohibited above.
 ---------------------------------------------------------------
  

 Cite this work as:
 Gaussian 09, Revision A.02,
 M. J. Frisch, G. W. Trucks, H. B. Schlegel, G. E. Scuseria, 
 M. A. Robb, J. R. Cheeseman, G. Scalmani, V. Barone, B. Mennucci, 
 G. A. Petersson, H. Nakatsuji, M. Caricato, X. Li, H. P. Hratchian, 
 A. F. Izmaylov, J. Bloino, G. Zheng, J. L. Sonnenberg, M. Hada, 
 M. Ehara, K. Toyota, R. Fukuda, J. Hasegawa, M. Ishida, T. Nakajima, 
 Y. Honda, O. Kitao, H. Nakai, T. Vreven, J. A. Montgomery, Jr., 
 J. E. Peralta, F. Ogliaro, M. Bearpark, J. J. Heyd, E. Brothers, 
 K. N. Kudin, V. N. Staroverov, R. Kobayashi, J. Normand, 
 K. Raghavachari, A. Rendell, J. C. Burant, S. S. Iyengar, J. Tomasi, 
 M. Cossi, N. Rega, J. M. Millam, M. Klene, J. E. Knox, J. B. Cross, 
 V. Bakken, C. Adamo, J. Jaramillo, R. Gomperts, R. E. Stratmann, 
 O. Yazyev, A. J. Austin, R. Cammi, C. Pomelli, J. W. Ochterski, 
 R. L. Martin, K. Morokuma, V. G. Zakrzewski, G. A. Voth, 
 P. Salvador, J. J. Dannenberg, S. Dapprich, A. D. Daniels, 
 O. Farkas, J. B. Foresman, J. V. Ortiz, J. Cioslowski, 
 and D. J. Fox, Gaussian, Inc., Wallingford CT, 2009.
 
 ******************************************
 Gaussian 09:  EM64L-G09RevA.02 11-Jun-2009
                18-Aug-2024 
 ******************************************
 %mem=100MB
 -------------------------------------------------------------------
 #p b3pw91/cc-pVTZ opt freq symmetry=(follow,pg=Td) pop=full gfinput
 -------------------------------------------------------------------
 1/14=-1,18=20,19=15,26=3,38=1/1,3;
 2/9=110,12=2,17=6,18=5,19=2314885530818462804,40=1/2;
 3/5=16,6=1,11=2,16=1,24=10,25=1,30=1,71=1,74=-6/1,2,3;
 4//1;
 5/5=2,38=5/2;
 6/7=3,28=1/1;
 7//1,2,3,16;
 1/14=-1,18=20,19=15/3(2);
 2/9=110,15=5,19=2314885530818462804/2;
 99//99;
 2/9=110,15=5,19=2314885530818462804/2;
 3/5=16,6=1,11=2,16=1,25=1,30=1,71=1,74=-6/1,2,3;
 4/5=5,16=3/1;
 5/5=2,38=5/2;
 7//1,2,3,16;
 1/14=-1,18=20,19=15/3(-5);
 2/9=110,15=5,19=2314885530818462804/2;
 6/7=3,19=2,28=1/1;
 99/9=1/99;
 Leave Link    1 at Sun Aug 18 00:41:01 2024, MaxMem=   13107200 cpu:       0.1
 (Enter /programs/64bit/g09/g09-gfortran/bin/l101.exe)
 ------------------------------------------------------
 methane with imposed symmetry Td and cc-pVTZ basis set
 ------------------------------------------------------
 Symbolic Z-matrix:
 Charge =  0 Multiplicity = 1
 C1
 H2                   1    d
 H3                   1    d        2    a
 H4                   1    d        2    a        3    t        0
 H5                   1    d        2    a        3    -t       0
       Variables:
  d                     1.09                     
  a                   109.471                    
  t                   120.                       
 
     3 tetrahedral angles replaced.
 NAtoms=      5 NQM=      5 NQMF=      0 NMic=      0 NMicF=      0 NTot=      5.
                    Isotopes and Nuclear Properties:
 (Nuclear quadrupole moments (NQMom) in fm**2, nuclear magnetic moments (NMagM)
  in nuclear magnetons)

  Atom         1           2           3           4           5
 IAtWgt=          12           1           1           1           1
 AtmWgt=  12.0000000   1.0078250   1.0078250   1.0078250   1.0078250
 NucSpn=           0           1           1           1           1
 AtZEff=   0.0000000   0.0000000   0.0000000   0.0000000   0.0000000
 NQMom=    0.0000000   0.0000000   0.0000000   0.0000000   0.0000000
 NMagM=    0.0000000   2.7928460   2.7928460   2.7928460   2.7928460
 Leave Link  101 at Sun Aug 18 00:41:01 2024, MaxMem=   13107200 cpu:       0.1
 (Enter /programs/64bit/g09/g09-gfortran/bin/l103.exe)

 GradGradGradGradGradGradGradGradGradGradGradGradGradGradGradGradGradGrad
 Berny optimization.
 Initialization pass.
                           ----------------------------
                           !    Initial Parameters    !
                           ! (Angstroms and Degrees)  !
 --------------------------                            --------------------------
 ! Name  Definition              Value          Derivative Info.                !
 --------------------------------------------------------------------------------
 ! R1    R(1,2)                  1.09           estimate D2E/DX2                !
 ! R2    R(1,3)                  1.09           estimate D2E/DX2                !
 ! R3    R(1,4)                  1.09           estimate D2E/DX2                !
 ! R4    R(1,5)                  1.09           estimate D2E/DX2                !
 ! A1    A(2,1,3)              109.4712         estimate D2E/DX2                !
 ! A2    A(2,1,4)              109.4712         estimate D2E/DX2                !
 ! A3    A(2,1,5)              109.4712         estimate D2E/DX2                !
 ! A4    A(3,1,4)              109.4712         estimate D2E/DX2                !
 ! A5    A(3,1,5)              109.4712         estimate D2E/DX2                !
 ! A6    A(4,1,5)              109.4712         estimate D2E/DX2                !
 ! D1    D(2,1,4,3)           -120.0            estimate D2E/DX2                !
 ! D2    D(2,1,5,3)            120.0            estimate D2E/DX2                !
 ! D3    D(2,1,5,4)           -120.0            estimate D2E/DX2                !
 ! D4    D(3,1,5,4)            120.0            estimate D2E/DX2                !
 --------------------------------------------------------------------------------
 Trust Radius=3.00D-01 FncErr=1.00D-07 GrdErr=1.00D-06
 Number of steps in this run=  24 maximum allowed number of steps= 100.
 GradGradGradGradGradGradGradGradGradGradGradGradGradGradGradGradGradGrad

 Leave Link  103 at Sun Aug 18 00:41:01 2024, MaxMem=   13107200 cpu:       0.0
 (Enter /programs/64bit/g09/g09-gfortran/bin/l202.exe)
                          Input orientation:                          
 ---------------------------------------------------------------------
 Center     Atomic      Atomic             Coordinates (Angstroms)
 Number     Number       Type             X           Y           Z
 ---------------------------------------------------------------------
      1          6           0        0.000000    0.000000    0.000000
      2          1           0        0.000000    0.000000    1.090000
      3          1           0        1.027662    0.000000   -0.363333
      4          1           0       -0.513831   -0.889981   -0.363333
      5          1           0       -0.513831    0.889981   -0.363333
 ---------------------------------------------------------------------
                    Distance matrix (angstroms):
                    1          2          3          4          5
     1  C    0.000000
     2  H    1.090000   0.000000
     3  H    1.090000   1.779963   0.000000
     4  H    1.090000   1.779963   1.779963   0.000000
     5  H    1.090000   1.779963   1.779963   1.779963   0.000000
 Symm:  InNGrp=TD   InAxis=0.
 Stoichiometry    CH4
 Framework group  TD[O(C),4C3(H)]
 Deg. of freedom     1
 Full point group                 TD      NOp  24
 Largest Abelian subgroup         D2      NOp   4
 Largest concise Abelian subgroup D2      NOp   4
                         Standard orientation:                         
 ---------------------------------------------------------------------
 Center     Atomic      Atomic             Coordinates (Angstroms)
 Number     Number       Type             X           Y           Z
 ---------------------------------------------------------------------
      1          6           0        0.000000    0.000000    0.000000
      2          1           0        0.629312    0.629312    0.629312
      3          1           0       -0.629312   -0.629312    0.629312
      4          1           0       -0.629312    0.629312   -0.629312
      5          1           0        0.629312   -0.629312   -0.629312
 ---------------------------------------------------------------------
 Rotational constants (GHZ):    158.2742720    158.2742720    158.2742720
 Leave Link  202 at Sun Aug 18 00:41:01 2024, MaxMem=   13107200 cpu:       0.0
 (Enter /programs/64bit/g09/g09-gfortran/bin/l301.exe)
 Standard basis: CC-pVTZ (5D, 7F)
 Ernie: Thresh=  0.10000D-02 Tol=  0.10000D-05 Strict=F.
 Ernie:  3 primitive shells out of 58 were deleted.
 AO basis set in the form of general basis input (Overlap normalization):
      1 0
 S   7 1.00       0.000000000000
      0.8236000000D+04  0.5419783203D-03
      0.1235000000D+04  0.4192873817D-02
      0.2808000000D+03  0.2152216205D-01
      0.7927000000D+02  0.8353432195D-01
      0.2559000000D+02  0.2395828457D+00
      0.8997000000D+01  0.4428528419D+00
      0.3319000000D+01  0.3517995618D+00
 S   6 1.00       0.000000000000
      0.2808000000D+03 -0.5949224937D-04
      0.7927000000D+02 -0.1148158310D-02
      0.2559000000D+02 -0.1001913745D-01
      0.8997000000D+01 -0.6121949230D-01
      0.3319000000D+01 -0.1732698541D+00
      0.3643000000D+00  0.1072915192D+01
 S   1 1.00       0.000000000000
      0.9059000000D+00  0.1000000000D+01
 S   1 1.00       0.000000000000
      0.1285000000D+00  0.1000000000D+01
 P   3 1.00       0.000000000000
      0.1871000000D+02  0.3942638716D-01
      0.4133000000D+01  0.2440889849D+00
      0.1200000000D+01  0.8154920089D+00
 P   1 1.00       0.000000000000
      0.3827000000D+00  0.1000000000D+01
 P   1 1.00       0.000000000000
      0.1209000000D+00  0.1000000000D+01
 D   1 1.00       0.000000000000
      0.1097000000D+01  0.1000000000D+01
 D   1 1.00       0.000000000000
      0.3180000000D+00  0.1000000000D+01
 F   1 1.00       0.000000000000
      0.7610000000D+00  0.1000000000D+01
 ****
      2 0
 S   3 1.00       0.000000000000
      0.3387000000D+02  0.2549486323D-01
      0.5095000000D+01  0.1903627659D+00
      0.1159000000D+01  0.8521620222D+00
 S   1 1.00       0.000000000000
      0.3258000000D+00  0.1000000000D+01
 S   1 1.00       0.000000000000
      0.1027000000D+00  0.1000000000D+01
 P   1 1.00       0.000000000000
      0.1407000000D+01  0.1000000000D+01
 P   1 1.00       0.000000000000
      0.3880000000D+00  0.1000000000D+01
 D   1 1.00       0.000000000000
      0.1057000000D+01  0.1000000000D+01
 ****
      3 0
 S   3 1.00       0.000000000000
      0.3387000000D+02  0.2549486323D-01
      0.5095000000D+01  0.1903627659D+00
      0.1159000000D+01  0.8521620222D+00
 S   1 1.00       0.000000000000
      0.3258000000D+00  0.1000000000D+01
 S   1 1.00       0.000000000000
      0.1027000000D+00  0.1000000000D+01
 P   1 1.00       0.000000000000
      0.1407000000D+01  0.1000000000D+01
 P   1 1.00       0.000000000000
      0.3880000000D+00  0.1000000000D+01
 D   1 1.00       0.000000000000
      0.1057000000D+01  0.1000000000D+01
 ****
      4 0
 S   3 1.00       0.000000000000
      0.3387000000D+02  0.2549486323D-01
      0.5095000000D+01  0.1903627659D+00
      0.1159000000D+01  0.8521620222D+00
 S   1 1.00       0.000000000000
      0.3258000000D+00  0.1000000000D+01
 S   1 1.00       0.000000000000
      0.1027000000D+00  0.1000000000D+01
 P   1 1.00       0.000000000000
      0.1407000000D+01  0.1000000000D+01
 P   1 1.00       0.000000000000
      0.3880000000D+00  0.1000000000D+01
 D   1 1.00       0.000000000000
      0.1057000000D+01  0.1000000000D+01
 ****
      5 0
 S   3 1.00       0.000000000000
      0.3387000000D+02  0.2549486323D-01
      0.5095000000D+01  0.1903627659D+00
      0.1159000000D+01  0.8521620222D+00
 S   1 1.00       0.000000000000
      0.3258000000D+00  0.1000000000D+01
 S   1 1.00       0.000000000000
      0.1027000000D+00  0.1000000000D+01
 P   1 1.00       0.000000000000
      0.1407000000D+01  0.1000000000D+01
 P   1 1.00       0.000000000000
      0.3880000000D+00  0.1000000000D+01
 D   1 1.00       0.000000000000
      0.1057000000D+01  0.1000000000D+01
 ****

 There are    23 symmetry adapted basis functions of A   symmetry.
 There are    21 symmetry adapted basis functions of B1  symmetry.
 There are    21 symmetry adapted basis functions of B2  symmetry.
 There are    21 symmetry adapted basis functions of B3  symmetry.
 Integral buffers will be    131072 words long.
 Raffenetti 2 integral format.
 Two-electron integral symmetry is turned on.
    86 basis functions,   120 primitive gaussians,    95 cartesian basis functions
     5 alpha electrons        5 beta electrons
       nuclear repulsion energy        13.4353891954 Hartrees.
 IExCor=  408 DFT=T Ex+Corr=B3PW91 ExCW=0 ScaHFX=  0.200000
 ScaDFX=  0.800000  0.720000  1.000000  0.810000 ScalE2=  1.000000  1.000000
 IRadAn=      0 IRanWt=     -1 IRanGd=            0 ICorTp=0
 NAtoms=    5 NActive=    5 NUniq=    2 SFac= 3.00D+00 NAtFMM=   80 NAOKFM=F Big=F
 Leave Link  301 at Sun Aug 18 00:41:01 2024, MaxMem=   13107200 cpu:       0.1
 (Enter /programs/64bit/g09/g09-gfortran/bin/l302.exe)
 NPDir=0 NMtPBC=     1 NCelOv=     1 NCel=       1 NClECP=     1 NCelD=      1
         NCelK=      1 NCelE2=     1 NClLst=     1 CellRange=     0.0.
 One-electron integrals computed using PRISM.
 One-electron integral symmetry used in STVInt
 NBasis=    86 RedAO= T  NBF=    23    21    21    21
 NBsUse=    86 1.00D-06 NBFU=    23    21    21    21
 Precomputing XC quadrature grid using
 IXCGrd= 2 IRadAn=           0 IRanWt=          -1 IRanGd=           0 AccXCQ= 1.00D-10.
 NRdTot=     309 NPtTot=       39112 NUsed=       41353 NTot=       41385
 NSgBfM=    95    95    95    95    95 NAtAll=     5     5.
 Leave Link  302 at Sun Aug 18 00:41:01 2024, MaxMem=   13107200 cpu:       0.2
 (Enter /programs/64bit/g09/g09-gfortran/bin/l303.exe)
 DipDrv:  MaxL=1.
 Leave Link  303 at Sun Aug 18 00:41:02 2024, MaxMem=   13107200 cpu:       0.0
 (Enter /programs/64bit/g09/g09-gfortran/bin/l401.exe)
 Harris functional with IExCor=  408 diagonalized for initial guess.
 ExpMin= 1.03D-01 ExpMax= 8.24D+03 ExpMxC= 2.81D+02 IAcc=1 IRadAn=         1 AccDes= 0.00D+00
 HarFok:  IExCor=  408 AccDes= 0.00D+00 IRadAn=         1 IDoV= 1
 ScaDFX=  1.000000  1.000000  1.000000  1.000000
 FoFCou: FMM=F IPFlag=           0 FMFlag=      100000 FMFlg1=           0
         NFxFlg=           0 DoJE=T BraDBF=F KetDBF=T FulRan=T
         Omega=  0.000000  0.000000  1.000000  0.000000  0.000000 ICntrl=     500 IOpCl=  0
         NMat0=    1 NMatS0=    1 NMatT0=    0 NMatD0=    1 NMtDS0=    0 NMtDT0=    0
         I1Cent=           4 NGrid=           0.
 Petite list used in FoFCou.
 Harris En= -40.6067679686316    
 Initial guess orbital symmetries:
       Occupied  (A1) (A1) (T2) (T2) (T2)
       Virtual   (A1) (T2) (T2) (T2) (T2) (T2) (T2) (T2) (T2) (T2)
                 (A1) (E) (E) (A1) (T1) (T1) (T1) (T2) (T2) (T2)
                 (T2) (T2) (T2) (T2) (T2) (T2) (E) (E) (A1) (T2)
                 (T2) (T2) (A1) (T2) (T2) (T2) (E) (E) (T1) (T1)
                 (T1) (T2) (T2) (T2) (T1) (T1) (T1) (T2) (T2) (T2)
                 (E) (E) (A1) (T2) (T2) (T2) (E) (E) (T1) (T1)
                 (T1) (T2) (T2) (T2) (A1) (T2) (T2) (T2) (T2) (T2)
                 (T2) (T1) (T1) (T1) (A1) (E) (E) (T2) (T2) (T2)
                 (A1)
 The electronic state of the initial guess is 1-A1.
 Leave Link  401 at Sun Aug 18 00:41:02 2024, MaxMem=   13107200 cpu:       0.6
 (Enter /programs/64bit/g09/g09-gfortran/bin/l502.exe)
 Closed shell SCF:
 Requested convergence on RMS density matrix=1.00D-08 within 128 cycles.
 Requested convergence on MAX density matrix=1.00D-06.
 Requested convergence on             energy=1.00D-06.
 No special actions if energy rises.
 Using DIIS extrapolation, IDIIS=  1040.
 Integral symmetry usage will be decided dynamically.
        41295 words used for storage of precomputed grid.
 Keep R1 ints in memory in canonical form, NReq=12427920.
 IEnd=       88826 IEndB=       88826 NGot=    13107200 MDV=     2645027
 LenX=     2645027 LenY=     2635561
 Symmetry not used in FoFDir.
 MinBra= 0 MaxBra= 3 Meth= 1.
 IRaf=       0 NMat=   1 IRICut=       1 DoRegI=T DoRafI=F ISym2E= 0 JSym2E=0.
 Integral accuracy reduced to 1.0D-05 until final iterations.

 Cycle   1  Pass 0  IDiag  1:
 E= -40.4305684913915    
 DIIS: error= 7.04D-02 at cycle   1 NSaved=   1.
 NSaved= 1 IEnMin= 1 EnMin= -40.4305684913915     IErMin= 1 ErrMin= 7.04D-02
 ErrMax= 7.04D-02 EMaxC= 1.00D-01 BMatC= 9.04D-02 BMatP= 9.04D-02
 IDIUse=3 WtCom= 2.96D-01 WtEn= 7.04D-01
 Coeff-Com:  0.100D+01
 Coeff-En:   0.100D+01
 Coeff:      0.100D+01
 Gap=     0.365 Goal=   None    Shift=    0.000
 GapD=    0.365 DampG=1.000 DampE=0.500 DampFc=0.5000 IDamp=-1.
 Damping current iteration by 5.00D-01
 RMSDP=3.85D-03 MaxDP=7.06D-02              OVMax= 1.96D-01

 Cycle   2  Pass 0  IDiag  1:
 E= -40.4726893902010     Delta-E=       -0.042120898810 Rises=F Damp=T
 DIIS: error= 8.25D-03 at cycle   2 NSaved=   2.
 NSaved= 2 IEnMin= 2 EnMin= -40.4726893902010     IErMin= 2 ErrMin= 8.25D-03
 ErrMax= 8.25D-03 EMaxC= 1.00D-01 BMatC= 1.80D-03 BMatP= 9.04D-02
 IDIUse=3 WtCom= 9.18D-01 WtEn= 8.25D-02
 Coeff-Com:  0.626D-01 0.937D+00
 Coeff-En:   0.109D+00 0.891D+00
 Coeff:      0.664D-01 0.934D+00
 Gap=     0.445 Goal=   None    Shift=    0.000
 RMSDP=3.94D-04 MaxDP=7.55D-03 DE=-4.21D-02 OVMax= 1.03D-01

 Cycle   3  Pass 0  IDiag  1:
 E= -40.5213046931688     Delta-E=       -0.048615302968 Rises=F Damp=F
 DIIS: error= 2.65D-04 at cycle   3 NSaved=   3.
 NSaved= 3 IEnMin= 3 EnMin= -40.5213046931688     IErMin= 3 ErrMin= 2.65D-04
 ErrMax= 2.65D-04 EMaxC= 1.00D-01 BMatC= 3.16D-06 BMatP= 1.80D-03
 IDIUse=3 WtCom= 9.97D-01 WtEn= 2.65D-03
 Coeff-Com:  0.290D-02-0.930D-02 0.101D+01
 Coeff-En:   0.000D+00 0.000D+00 0.100D+01
 Coeff:      0.289D-02-0.927D-02 0.101D+01
 Gap=     0.452 Goal=   None    Shift=    0.000
 RMSDP=3.00D-05 MaxDP=5.83D-04 DE=-4.86D-02 OVMax= 3.10D-04

 Cycle   4  Pass 0  IDiag  1:
 E= -40.5213062565218     Delta-E=       -0.000001563353 Rises=F Damp=F
 DIIS: error= 7.69D-05 at cycle   4 NSaved=   4.
 NSaved= 4 IEnMin= 4 EnMin= -40.5213062565218     IErMin= 4 ErrMin= 7.69D-05
 ErrMax= 7.69D-05 EMaxC= 1.00D-01 BMatC= 1.15D-07 BMatP= 3.16D-06
 IDIUse=1 WtCom= 1.00D+00 WtEn= 0.00D+00
 Coeff-Com:  0.101D-02-0.943D-03-0.108D-01 0.101D+01
 Coeff:      0.101D-02-0.943D-03-0.108D-01 0.101D+01
 Gap=     0.452 Goal=   None    Shift=    0.000
 RMSDP=3.45D-06 MaxDP=6.76D-05 DE=-1.56D-06 OVMax= 1.12D-04

 Initial convergence to 1.0D-05 achieved.  Increase integral accuracy.
 Cycle   5  Pass 1  IDiag  1:
 E= -40.5212818805933     Delta-E=        0.000024375929 Rises=F Damp=F
 DIIS: error= 1.78D-05 at cycle   1 NSaved=   1.
 NSaved= 1 IEnMin= 1 EnMin= -40.5212818805933     IErMin= 1 ErrMin= 1.78D-05
 ErrMax= 1.78D-05 EMaxC= 1.00D-01 BMatC= 1.24D-08 BMatP= 1.24D-08
 IDIUse=1 WtCom= 1.00D+00 WtEn= 0.00D+00
 Coeff-Com:  0.100D+01
 Coeff:      0.100D+01
 Gap=     0.452 Goal=   None    Shift=    0.000
 RMSDP=3.45D-06 MaxDP=6.76D-05 DE= 2.44D-05 OVMax= 3.94D-05

 Cycle   6  Pass 1  IDiag  1:
 E= -40.5212818919599     Delta-E=       -0.000000011367 Rises=F Damp=F
 DIIS: error= 3.49D-06 at cycle   2 NSaved=   2.
 NSaved= 2 IEnMin= 2 EnMin= -40.5212818919599     IErMin= 2 ErrMin= 3.49D-06
 ErrMax= 3.49D-06 EMaxC= 1.00D-01 BMatC= 3.23D-10 BMatP= 1.24D-08
 IDIUse=1 WtCom= 1.00D+00 WtEn= 0.00D+00
 Coeff-Com: -0.296D-01 0.103D+01
 Coeff:     -0.296D-01 0.103D+01
 Gap=     0.452 Goal=   None    Shift=    0.000
 RMSDP=2.85D-07 MaxDP=6.65D-06 DE=-1.14D-08 OVMax= 9.29D-06

 Cycle   7  Pass 1  IDiag  1:
 E= -40.5212818919429     Delta-E=        0.000000000017 Rises=F Damp=F
 DIIS: error= 4.15D-06 at cycle   3 NSaved=   3.
 NSaved= 3 IEnMin= 2 EnMin= -40.5212818919599     IErMin= 2 ErrMin= 3.49D-06
 ErrMax= 4.15D-06 EMaxC= 1.00D-01 BMatC= 3.30D-10 BMatP= 3.23D-10
 IDIUse=1 WtCom= 1.00D+00 WtEn= 0.00D+00
 Coeff-Com: -0.272D-01 0.531D+00 0.496D+00
 Coeff:     -0.272D-01 0.531D+00 0.496D+00
 Gap=     0.452 Goal=   None    Shift=    0.000
 RMSDP=1.15D-07 MaxDP=2.37D-06 DE= 1.70D-11 OVMax= 5.64D-06

 Cycle   8  Pass 1  IDiag  1:
 E= -40.5212818922618     Delta-E=       -0.000000000319 Rises=F Damp=F
 DIIS: error= 2.11D-07 at cycle   4 NSaved=   4.
 NSaved= 4 IEnMin= 4 EnMin= -40.5212818922618     IErMin= 4 ErrMin= 2.11D-07
 ErrMax= 2.11D-07 EMaxC= 1.00D-01 BMatC= 9.57D-13 BMatP= 3.23D-10
 IDIUse=1 WtCom= 1.00D+00 WtEn= 0.00D+00
 Coeff-Com: -0.109D-03-0.150D-01 0.375D-01 0.978D+00
 Coeff:     -0.109D-03-0.150D-01 0.375D-01 0.978D+00
 Gap=     0.452 Goal=   None    Shift=    0.000
 RMSDP=1.19D-08 MaxDP=2.70D-07 DE=-3.19D-10 OVMax= 2.85D-07

 Cycle   9  Pass 1  IDiag  1:
 E= -40.5212818922636     Delta-E=       -0.000000000002 Rises=F Damp=F
 DIIS: error= 4.48D-09 at cycle   5 NSaved=   5.
 NSaved= 5 IEnMin= 5 EnMin= -40.5212818922636     IErMin= 5 ErrMin= 4.48D-09
 ErrMax= 4.48D-09 EMaxC= 1.00D-01 BMatC= 1.45D-15 BMatP= 9.57D-13
 IDIUse=1 WtCom= 1.00D+00 WtEn= 0.00D+00
 Coeff-Com:  0.171D-03-0.344D-02-0.307D-02-0.279D-01 0.103D+01
 Coeff:      0.171D-03-0.344D-02-0.307D-02-0.279D-01 0.103D+01
 Gap=     0.452 Goal=   None    Shift=    0.000
 RMSDP=1.20D-09 MaxDP=2.09D-08 DE=-1.75D-12 OVMax= 1.65D-08

 SCF Done:  E(RB3PW91) =  -40.5212818923     A.U. after    9 cycles
             Convg  =    0.1203D-08             -V/T =  2.0085
 KE= 4.018167397534D+01 PE=-1.200521570891D+02 EE= 2.591381202605D+01
 Leave Link  502 at Sun Aug 18 00:41:18 2024, MaxMem=   13107200 cpu:       8.0
 (Enter /programs/64bit/g09/g09-gfortran/bin/l601.exe)
 Copying SCF densities to generalized density rwf, IOpCl= 0 IROHF=0.

 **********************************************************************

            Population analysis using the SCF density.

 **********************************************************************

 Orbital symmetries:
       Occupied  (A1) (A1) (T2) (T2) (T2)
       Virtual   (A1) (T2) (T2) (T2) (T2) (T2) (T2) (T2) (T2) (T2)
                 (A1) (E) (E) (A1) (T1) (T1) (T1) (T2) (T2) (T2)
                 (T2) (T2) (T2) (T2) (T2) (T2) (E) (E) (A1) (T2)
                 (T2) (T2) (A1) (T2) (T2) (T2) (E) (E) (T1) (T1)
                 (T1) (T2) (T2) (T2) (T1) (T1) (T1) (T2) (T2) (T2)
                 (E) (E) (A1) (T2) (T2) (T2) (E) (E) (T1) (T1)
                 (T1) (T2) (T2) (T2) (A1) (T2) (T2) (T2) (T2) (T2)
                 (T2) (T1) (T1) (T1) (A1) (E) (E) (T2) (T2) (T2)
                 (A1)
 The electronic state is 1-A1.
 Alpha  occ. eigenvalues --  -10.14287  -0.69800  -0.39418  -0.39418  -0.39418
 Alpha virt. eigenvalues --    0.05772   0.13059   0.13059   0.13059   0.24939
 Alpha virt. eigenvalues --    0.24939   0.24939   0.47220   0.47220   0.47220
 Alpha virt. eigenvalues --    0.47409   0.50258   0.50258   0.59396   0.87800
 Alpha virt. eigenvalues --    0.87800   0.87800   0.96023   0.96023   0.96023
 Alpha virt. eigenvalues --    1.12422   1.12422   1.12422   1.31805   1.31805
 Alpha virt. eigenvalues --    1.31805   1.38874   1.38874   1.53932   2.11692
 Alpha virt. eigenvalues --    2.11692   2.11692   2.26948   2.65221   2.65221
 Alpha virt. eigenvalues --    2.65221   2.80701   2.80701   2.81350   2.81350
 Alpha virt. eigenvalues --    2.81350   2.96920   2.96920   2.96920   3.30119
 Alpha virt. eigenvalues --    3.30119   3.30119   3.40236   3.40236   3.40236
 Alpha virt. eigenvalues --    3.48985   3.48985   3.54156   3.76336   3.76336
 Alpha virt. eigenvalues --    3.76336   3.78588   3.78588   4.07104   4.07104
 Alpha virt. eigenvalues --    4.07104   4.21257   4.21257   4.21257   4.43733
 Alpha virt. eigenvalues --    4.71208   4.71208   4.71208   5.12510   5.12510
 Alpha virt. eigenvalues --    5.12510   5.15017   5.15017   5.15017   5.19409
 Alpha virt. eigenvalues --    5.28421   5.28421   5.81337   5.81337   5.81337
 Alpha virt. eigenvalues --   13.74098
     Molecular Orbital Coefficients:
                           1         2         3         4         5
                        (A1)--O   (A1)--O   (T2)--O   (T2)--O   (T2)--O
     Eigenvalues --   -10.14287  -0.69800  -0.39418  -0.39418  -0.39418
   1 1   C  1S          0.97666  -0.18729   0.00000   0.00000   0.00000
   2        2S          0.00826   0.41761   0.00000   0.00000   0.00000
   3        3S          0.04984   0.10146   0.00000   0.00000   0.00000
   4        4S          0.02215   0.19377   0.00000   0.00000   0.00000
   5        5PX         0.00000   0.00000   0.24994   0.00000   0.00000
   6        5PY         0.00000   0.00000   0.00000   0.24994   0.00000
   7        5PZ         0.00000   0.00000   0.00000   0.00000   0.24994
   8        6PX         0.00000   0.00000   0.27876   0.00000   0.00000
   9        6PY         0.00000   0.00000   0.00000   0.27876   0.00000
  10        6PZ         0.00000   0.00000   0.00000   0.00000   0.27876
  11        7PX         0.00000   0.00000   0.13887   0.00000   0.00000
  12        7PY         0.00000   0.00000   0.00000   0.13887   0.00000
  13        7PZ         0.00000   0.00000   0.00000   0.00000   0.13887
  14        8D 0        0.00000   0.00000   0.00000   0.00000   0.00000
  15        8D+1        0.00000   0.00000   0.00000   0.01360   0.00000
  16        8D-1        0.00000   0.00000   0.01360   0.00000   0.00000
  17        8D+2       -0.00000   0.00000   0.00000   0.00000   0.00000
  18        8D-2        0.00000   0.00000   0.00000   0.00000   0.01360
  19        9D 0        0.00000  -0.00000   0.00000   0.00000   0.00000
  20        9D+1        0.00000   0.00000   0.00000   0.01008   0.00000
  21        9D-1        0.00000   0.00000   0.01008   0.00000   0.00000
  22        9D+2        0.00000   0.00000   0.00000   0.00000   0.00000
  23        9D-2        0.00000   0.00000   0.00000   0.00000   0.01008
  24       10F 0        0.00000   0.00000   0.00000   0.00000   0.00016
  25       10F+1        0.00000   0.00000  -0.00010   0.00000   0.00000
  26       10F-1        0.00000   0.00000   0.00000  -0.00010   0.00000
  27       10F+2        0.00000   0.00000   0.00000   0.00000   0.00000
  28       10F-2        0.00284   0.00528   0.00000   0.00000   0.00000
  29       10F+3        0.00000   0.00000   0.00013   0.00000   0.00000
  30       10F-3        0.00000   0.00000   0.00000  -0.00013   0.00000
  31 2   H  1S          0.00002   0.08366   0.10426   0.10426   0.10426
  32        2S         -0.00885   0.09013   0.15590   0.15590   0.15590
  33        3S         -0.00264   0.01357   0.07267   0.07267   0.07267
  34        4PX         0.00073  -0.00455  -0.00080  -0.00608  -0.00608
  35        4PY         0.00073  -0.00455  -0.00608  -0.00080  -0.00608
  36        4PZ         0.00073  -0.00455  -0.00608  -0.00608  -0.00080
  37        5PX         0.00260  -0.00279   0.00530  -0.00896  -0.00896
  38        5PY         0.00260  -0.00279  -0.00896   0.00530  -0.00896
  39        5PZ         0.00260  -0.00279  -0.00896  -0.00896   0.00530
  40        6D 0       -0.00000   0.00000   0.00082   0.00082  -0.00164
  41        6D+1       -0.00089   0.00091   0.00065   0.00223   0.00065
  42        6D-1       -0.00089   0.00091   0.00223   0.00065   0.00065
  43        6D+2       -0.00000   0.00000  -0.00142   0.00142  -0.00000
  44        6D-2       -0.00089   0.00091   0.00065   0.00065   0.00223
  45 3   H  1S          0.00002   0.08366  -0.10426  -0.10426   0.10426
  46        2S         -0.00885   0.09013  -0.15590  -0.15590   0.15590
  47        3S         -0.00264   0.01357  -0.07267  -0.07267   0.07267
  48        4PX        -0.00073   0.00455  -0.00080  -0.00608   0.00608
  49        4PY        -0.00073   0.00455  -0.00608  -0.00080   0.00608
  50        4PZ         0.00073  -0.00455   0.00608   0.00608  -0.00080
  51        5PX        -0.00260   0.00279   0.00530  -0.00896   0.00896
  52        5PY        -0.00260   0.00279  -0.00896   0.00530   0.00896
  53        5PZ         0.00260  -0.00279   0.00896   0.00896   0.00530
  54        6D 0       -0.00000   0.00000  -0.00082  -0.00082  -0.00164
  55        6D+1        0.00089  -0.00091   0.00065   0.00223  -0.00065
  56        6D-1        0.00089  -0.00091   0.00223   0.00065  -0.00065
  57        6D+2       -0.00000   0.00000   0.00142  -0.00142  -0.00000
  58        6D-2       -0.00089   0.00091  -0.00065  -0.00065   0.00223
  59 4   H  1S          0.00002   0.08366  -0.10426   0.10426  -0.10426
  60        2S         -0.00885   0.09013  -0.15590   0.15590  -0.15590
  61        3S         -0.00264   0.01357  -0.07267   0.07267  -0.07267
  62        4PX        -0.00073   0.00455  -0.00080   0.00608  -0.00608
  63        4PY         0.00073  -0.00455   0.00608  -0.00080   0.00608
  64        4PZ        -0.00073   0.00455  -0.00608   0.00608  -0.00080
  65        5PX        -0.00260   0.00279   0.00530   0.00896  -0.00896
  66        5PY         0.00260  -0.00279   0.00896   0.00530   0.00896
  67        5PZ        -0.00260   0.00279  -0.00896   0.00896   0.00530
  68        6D 0       -0.00000   0.00000  -0.00082   0.00082   0.00164
  69        6D+1       -0.00089   0.00091  -0.00065   0.00223  -0.00065
  70        6D-1        0.00089  -0.00091   0.00223  -0.00065   0.00065
  71        6D+2       -0.00000   0.00000   0.00142   0.00142   0.00000
  72        6D-2        0.00089  -0.00091   0.00065  -0.00065   0.00223
  73 5   H  1S          0.00002   0.08366   0.10426  -0.10426  -0.10426
  74        2S         -0.00885   0.09013   0.15590  -0.15590  -0.15590
  75        3S         -0.00264   0.01357   0.07267  -0.07267  -0.07267
  76        4PX         0.00073  -0.00455  -0.00080   0.00608   0.00608
  77        4PY        -0.00073   0.00455   0.00608  -0.00080  -0.00608
  78        4PZ        -0.00073   0.00455   0.00608  -0.00608  -0.00080
  79        5PX         0.00260  -0.00279   0.00530   0.00896   0.00896
  80        5PY        -0.00260   0.00279   0.00896   0.00530  -0.00896
  81        5PZ        -0.00260   0.00279   0.00896  -0.00896   0.00530
  82        6D 0       -0.00000   0.00000   0.00082  -0.00082   0.00164
  83        6D+1        0.00089  -0.00091  -0.00065   0.00223   0.00065
  84        6D-1       -0.00089   0.00091   0.00223  -0.00065  -0.00065
  85        6D+2       -0.00000   0.00000  -0.00142  -0.00142   0.00000
  86        6D-2        0.00089  -0.00091  -0.00065   0.00065   0.00223
                           6         7         8         9        10
                        (A1)--V   (T2)--V   (T2)--V   (T2)--V   (T2)--V
     Eigenvalues --     0.05772   0.13059   0.13059   0.13059   0.24939
   1 1   C  1S         -0.09474   0.00000   0.00000   0.00000   0.00000
   2        2S          0.30698   0.00000   0.00000   0.00000   0.00000
   3        3S          0.07532   0.00000   0.00000   0.00000   0.00000
   4        4S          3.12714   0.00000   0.00000   0.00000   0.00000
   5        5PX         0.00000   0.00000   0.00000   0.18230   0.00000
   6        5PY         0.00000   0.00000   0.18230   0.00000  -0.09441
   7        5PZ         0.00000   0.18230   0.00000   0.00000   0.00000
   8        6PX         0.00000   0.00000   0.00000   0.39668   0.00000
   9        6PY         0.00000   0.00000   0.39668   0.00000   0.38101
  10        6PZ         0.00000   0.39668   0.00000   0.00000   0.00000
  11        7PX         0.00000   0.00000   0.00000   1.56759   0.00000
  12        7PY         0.00000   0.00000   1.56759   0.00000   1.87769
  13        7PZ         0.00000   1.56759   0.00000   0.00000   0.00000
  14        8D 0        0.00000   0.00000   0.00000   0.00000   0.00000
  15        8D+1        0.00000   0.00000  -0.01026   0.00000  -0.00977
  16        8D-1        0.00000   0.00000   0.00000  -0.01026   0.00000
  17        8D+2        0.00000   0.00000   0.00000   0.00000   0.00000
  18        8D-2        0.00000  -0.01026   0.00000   0.00000   0.00000
  19        9D 0        0.00000   0.00000   0.00000   0.00000   0.00000
  20        9D+1        0.00000   0.00000   0.08496   0.00000   0.38832
  21        9D-1        0.00000   0.00000   0.00000   0.08496   0.00000
  22        9D+2       -0.00000   0.00000   0.00000   0.00000   0.00000
  23        9D-2        0.00000   0.08496   0.00000   0.00000   0.00000
  24       10F 0        0.00000  -0.00277   0.00000   0.00000   0.00000
  25       10F+1        0.00000   0.00000   0.00000   0.00170   0.00000
  26       10F-1        0.00000   0.00000   0.00170   0.00000   0.02717
  27       10F+2        0.00000  -0.00000   0.00000   0.00000   0.00000
  28       10F-2        0.01975   0.00000   0.00000   0.00000   0.00000
  29       10F+3        0.00000   0.00000   0.00000  -0.00219   0.00000
  30       10F-3        0.00000   0.00000   0.00219   0.00000   0.03508
  31 2   H  1S         -0.00207  -0.02308  -0.02308  -0.02308  -0.04301
  32        2S         -0.20125  -0.17620  -0.17620  -0.17620  -1.00741
  33        3S         -0.98417  -1.49646  -1.49646  -1.49646  -0.15005
  34        4PX        -0.00720  -0.01110  -0.01110   0.00039   0.00612
  35        4PY        -0.00720  -0.01110   0.00039  -0.01110   0.02156
  36        4PZ        -0.00720   0.00039  -0.01110  -0.01110   0.00612
  37        5PX         0.05554   0.05010   0.05010   0.03710   0.11263
  38        5PY         0.05554   0.05010   0.03710   0.05010   0.11547
  39        5PZ         0.05554   0.03710   0.05010   0.05010   0.11263
  40        6D 0        0.00000  -0.00226   0.00113   0.00113   0.00241
  41        6D+1       -0.00312  -0.00273  -0.00447  -0.00273  -0.01663
  42        6D-1       -0.00312  -0.00273  -0.00273  -0.00447  -0.00861
  43        6D+2       -0.00000  -0.00000   0.00195  -0.00195   0.00417
  44        6D-2       -0.00312  -0.00447  -0.00273  -0.00273  -0.00861
  45 3   H  1S         -0.00207  -0.02308   0.02308   0.02308   0.04301
  46        2S         -0.20125  -0.17620   0.17620   0.17620   1.00741
  47        3S         -0.98417  -1.49646   1.49646   1.49646   0.15005
  48        4PX         0.00720   0.01110  -0.01110   0.00039   0.00612
  49        4PY         0.00720   0.01110   0.00039  -0.01110   0.02156
  50        4PZ        -0.00720   0.00039   0.01110   0.01110  -0.00612
  51        5PX        -0.05554  -0.05010   0.05010   0.03710   0.11263
  52        5PY        -0.05554  -0.05010   0.03710   0.05010   0.11547
  53        5PZ         0.05554   0.03710  -0.05010  -0.05010  -0.11263
  54        6D 0        0.00000  -0.00226  -0.00113  -0.00113  -0.00241
  55        6D+1        0.00312   0.00273  -0.00447  -0.00273  -0.01663
  56        6D-1        0.00312   0.00273  -0.00273  -0.00447  -0.00861
  57        6D+2       -0.00000  -0.00000  -0.00195   0.00195  -0.00417
  58        6D-2       -0.00312  -0.00447   0.00273   0.00273   0.00861
  59 4   H  1S         -0.00207   0.02308  -0.02308   0.02308  -0.04301
  60        2S         -0.20125   0.17620  -0.17620   0.17620  -1.00741
  61        3S         -0.98417   1.49646  -1.49646   1.49646  -0.15005
  62        4PX         0.00720  -0.01110   0.01110   0.00039  -0.00612
  63        4PY        -0.00720   0.01110   0.00039   0.01110   0.02156
  64        4PZ         0.00720   0.00039   0.01110  -0.01110  -0.00612
  65        5PX        -0.05554   0.05010  -0.05010   0.03710  -0.11263
  66        5PY         0.05554  -0.05010   0.03710  -0.05010   0.11547
  67        5PZ        -0.05554   0.03710  -0.05010   0.05010  -0.11263
  68        6D 0        0.00000   0.00226   0.00113  -0.00113   0.00241
  69        6D+1       -0.00312   0.00273  -0.00447   0.00273  -0.01663
  70        6D-1        0.00312  -0.00273   0.00273  -0.00447   0.00861
  71        6D+2       -0.00000   0.00000   0.00195   0.00195   0.00417
  72        6D-2        0.00312  -0.00447   0.00273  -0.00273   0.00861
  73 5   H  1S         -0.00207   0.02308   0.02308  -0.02308   0.04301
  74        2S         -0.20125   0.17620   0.17620  -0.17620   1.00741
  75        3S         -0.98417   1.49646   1.49646  -1.49646   0.15005
  76        4PX        -0.00720   0.01110   0.01110   0.00039  -0.00612
  77        4PY         0.00720  -0.01110   0.00039   0.01110   0.02156
  78        4PZ         0.00720   0.00039  -0.01110   0.01110   0.00612
  79        5PX         0.05554  -0.05010  -0.05010   0.03710  -0.11263
  80        5PY        -0.05554   0.05010   0.03710  -0.05010   0.11547
  81        5PZ        -0.05554   0.03710   0.05010  -0.05010   0.11263
  82        6D 0        0.00000   0.00226  -0.00113   0.00113  -0.00241
  83        6D+1        0.00312  -0.00273  -0.00447   0.00273  -0.01663
  84        6D-1       -0.00312   0.00273   0.00273  -0.00447   0.00861
  85        6D+2       -0.00000   0.00000  -0.00195  -0.00195  -0.00417
  86        6D-2        0.00312  -0.00447  -0.00273   0.00273  -0.00861
                          11        12        13        14        15
                        (T2)--V   (T2)--V   (T2)--V   (T2)--V   (T2)--V
     Eigenvalues --     0.24939   0.24939   0.47220   0.47220   0.47220
   1 1   C  1S          0.00000   0.00000   0.00000   0.00000   0.00000
   2        2S          0.00000   0.00000   0.00000   0.00000   0.00000
   3        3S          0.00000   0.00000   0.00000   0.00000   0.00000
   4        4S          0.00000   0.00000   0.00000   0.00000   0.00000
   5        5PX         0.00000  -0.09441   0.00000   0.00000  -0.31915
   6        5PY         0.00000   0.00000  -0.31915   0.00000   0.00000
   7        5PZ        -0.09441   0.00000   0.00000  -0.31915   0.00000
   8        6PX         0.00000   0.38101   0.00000   0.00000   0.35547
   9        6PY         0.00000   0.00000   0.35547   0.00000   0.00000
  10        6PZ         0.38101   0.00000   0.00000   0.35547   0.00000
  11        7PX         0.00000   1.87769   0.00000   0.00000   2.82977
  12        7PY         0.00000   0.00000   2.82977   0.00000   0.00000
  13        7PZ         1.87769   0.00000   0.00000   2.82977   0.00000
  14        8D 0        0.00000   0.00000   0.00000   0.00000   0.00000
  15        8D+1        0.00000   0.00000   0.04896   0.00000   0.00000
  16        8D-1        0.00000  -0.00977   0.00000   0.00000   0.04896
  17        8D+2        0.00000   0.00000   0.00000   0.00000   0.00000
  18        8D-2       -0.00977   0.00000   0.00000   0.04896   0.00000
  19        9D 0        0.00000   0.00000   0.00000   0.00000   0.00000
  20        9D+1        0.00000   0.00000   0.80405   0.00000   0.00000
  21        9D-1        0.00000   0.38832   0.00000   0.00000   0.80405
  22        9D+2        0.00000   0.00000   0.00000   0.00000   0.00000
  23        9D-2        0.38832   0.00000   0.00000   0.80405   0.00000
  24       10F 0       -0.04437   0.00000   0.00000  -0.03941   0.00000
  25       10F+1        0.00000   0.02717   0.00000   0.00000   0.02414
  26       10F-1        0.00000   0.00000   0.02414   0.00000   0.00000
  27       10F+2        0.00000   0.00000   0.00000  -0.00000   0.00000
  28       10F-2        0.00000   0.00000   0.00000   0.00000   0.00000
  29       10F+3        0.00000  -0.03508   0.00000   0.00000  -0.03116
  30       10F-3        0.00000   0.00000   0.03116   0.00000   0.00000
  31 2   H  1S         -0.04301  -0.04301   0.08127   0.08127   0.08127
  32        2S         -1.00741  -1.00741  -0.49089  -0.49089  -0.49089
  33        3S         -0.15005  -0.15005  -1.80163  -1.80163  -1.80163
  34        4PX         0.00612   0.02156  -0.00369  -0.00369   0.00794
  35        4PY         0.00612   0.00612   0.00794  -0.00369  -0.00369
  36        4PZ         0.02156   0.00612  -0.00369   0.00794  -0.00369
  37        5PX         0.11263   0.11547   0.36126   0.36126   0.19488
  38        5PY         0.11263   0.11263   0.19488   0.36126   0.36126
  39        5PZ         0.11547   0.11263   0.36126   0.19488   0.36126
  40        6D 0       -0.00481   0.00241  -0.00076   0.00151  -0.00076
  41        6D+1       -0.00861  -0.00861  -0.02678  -0.01430  -0.01430
  42        6D-1       -0.00861  -0.01663  -0.01430  -0.01430  -0.02678
  43        6D+2        0.00000  -0.00417  -0.00131  -0.00000   0.00131
  44        6D-2       -0.01663  -0.00861  -0.01430  -0.02678  -0.01430
  45 3   H  1S         -0.04301   0.04301  -0.08127   0.08127  -0.08127
  46        2S         -1.00741   1.00741   0.49089  -0.49089   0.49089
  47        3S         -0.15005   0.15005   1.80163  -1.80163   1.80163
  48        4PX        -0.00612   0.02156  -0.00369   0.00369   0.00794
  49        4PY        -0.00612   0.00612   0.00794   0.00369  -0.00369
  50        4PZ         0.02156  -0.00612   0.00369   0.00794   0.00369
  51        5PX        -0.11263   0.11547   0.36126  -0.36126   0.19488
  52        5PY        -0.11263   0.11263   0.19488  -0.36126   0.36126
  53        5PZ         0.11547  -0.11263  -0.36126   0.19488  -0.36126
  54        6D 0       -0.00481  -0.00241   0.00076   0.00151   0.00076
  55        6D+1        0.00861  -0.00861  -0.02678   0.01430  -0.01430
  56        6D-1        0.00861  -0.01663  -0.01430   0.01430  -0.02678
  57        6D+2        0.00000   0.00417   0.00131  -0.00000  -0.00131
  58        6D-2       -0.01663   0.00861   0.01430  -0.02678   0.01430
  59 4   H  1S          0.04301   0.04301   0.08127  -0.08127  -0.08127
  60        2S          1.00741   1.00741  -0.49089   0.49089   0.49089
  61        3S          0.15005   0.15005  -1.80163   1.80163   1.80163
  62        4PX         0.00612   0.02156   0.00369  -0.00369   0.00794
  63        4PY        -0.00612  -0.00612   0.00794   0.00369   0.00369
  64        4PZ         0.02156   0.00612   0.00369   0.00794  -0.00369
  65        5PX         0.11263   0.11547  -0.36126   0.36126   0.19488
  66        5PY        -0.11263  -0.11263   0.19488  -0.36126  -0.36126
  67        5PZ         0.11547   0.11263  -0.36126   0.19488   0.36126
  68        6D 0        0.00481  -0.00241  -0.00076  -0.00151   0.00076
  69        6D+1        0.00861   0.00861  -0.02678   0.01430   0.01430
  70        6D-1       -0.00861  -0.01663   0.01430  -0.01430  -0.02678
  71        6D+2       -0.00000   0.00417  -0.00131   0.00000  -0.00131
  72        6D-2       -0.01663  -0.00861   0.01430  -0.02678  -0.01430
  73 5   H  1S          0.04301  -0.04301  -0.08127  -0.08127   0.08127
  74        2S          1.00741  -1.00741   0.49089   0.49089  -0.49089
  75        3S          0.15005  -0.15005   1.80163   1.80163  -1.80163
  76        4PX        -0.00612   0.02156   0.00369   0.00369   0.00794
  77        4PY         0.00612  -0.00612   0.00794  -0.00369   0.00369
  78        4PZ         0.02156  -0.00612  -0.00369   0.00794   0.00369
  79        5PX        -0.11263   0.11547  -0.36126  -0.36126   0.19488
  80        5PY         0.11263  -0.11263   0.19488   0.36126  -0.36126
  81        5PZ         0.11547  -0.11263   0.36126   0.19488  -0.36126
  82        6D 0        0.00481   0.00241   0.00076  -0.00151  -0.00076
  83        6D+1       -0.00861   0.00861  -0.02678  -0.01430   0.01430
  84        6D-1        0.00861  -0.01663   0.01430   0.01430  -0.02678
  85        6D+2       -0.00000  -0.00417   0.00131   0.00000   0.00131
  86        6D-2       -0.01663   0.00861  -0.01430  -0.02678   0.01430
                          16        17        18        19        20
                        (A1)--V   (E)--V    (E)--V    (A1)--V   (T1)--V
     Eigenvalues --     0.47409   0.50258   0.50258   0.59396   0.87800
   1 1   C  1S          0.17290   0.00000   0.00000   0.02863   0.00000
   2        2S         -0.31950  -0.00000  -0.00000  -0.06828   0.00000
   3        3S         -0.16375  -0.00000  -0.00000  -0.18619   0.00000
   4        4S          5.50194   0.00000   0.00000   7.75760   0.00000
   5        5PX         0.00000   0.00000  -0.00000   0.00000   0.00000
   6        5PY         0.00000   0.00000  -0.00000   0.00000  -0.00000
   7        5PZ         0.00000   0.00000  -0.00000   0.00000   0.00000
   8        6PX         0.00000   0.00000  -0.00000   0.00000   0.00000
   9        6PY         0.00000   0.00000  -0.00000   0.00000  -0.00000
  10        6PZ         0.00000   0.00000  -0.00000   0.00000   0.00000
  11        7PX         0.00000   0.00000  -0.00000   0.00000   0.00000
  12        7PY         0.00000   0.00000  -0.00000   0.00000  -0.00000
  13        7PZ         0.00000   0.00000  -0.00000   0.00000   0.00000
  14        8D 0        0.00000  -0.01025   0.01865  -0.00000   0.00000
  15        8D+1        0.00000   0.00000  -0.00000   0.00000  -0.00000
  16        8D-1        0.00000   0.00000  -0.00000   0.00000   0.00000
  17        8D+2        0.00000  -0.01865  -0.01025   0.00000   0.00000
  18        8D-2        0.00000   0.00000  -0.00000   0.00000   0.00000
  19        9D 0        0.00000  -0.05934   0.10799   0.00000   0.00000
  20        9D+1        0.00000   0.00000  -0.00000   0.00000  -0.00000
  21        9D-1        0.00000   0.00000  -0.00000   0.00000   0.00000
  22        9D+2       -0.00000  -0.10799  -0.05934  -0.00000   0.00000
  23        9D-2        0.00000   0.00000  -0.00000   0.00000   0.00000
  24       10F 0        0.00000   0.00000  -0.00000   0.00000   0.00000
  25       10F+1        0.00000   0.00000  -0.00000   0.00000   0.00000
  26       10F-1        0.00000   0.00000  -0.00000   0.00000   0.05699
  27       10F+2        0.00000   0.00000  -0.00000   0.00000   0.00000
  28       10F-2        0.08420   0.00000   0.00000   0.13853   0.00000
  29       10F+3        0.00000   0.00000  -0.00000   0.00000   0.00000
  30       10F-3        0.00000   0.00000  -0.00000   0.00000  -0.04415
  31 2   H  1S          0.09510   0.00000   0.00000  -0.04234  -0.00000
  32        2S         -0.31829   0.00000  -0.00000  -1.70585   0.00000
  33        3S         -1.19039  -0.00000  -0.00000  -0.93445   0.00000
  34        4PX         0.00083   0.01112   0.01836   0.01794  -0.02449
  35        4PY         0.00083  -0.02146   0.00045   0.01794  -0.00000
  36        4PZ         0.00083   0.01034  -0.01881   0.01794   0.02449
  37        5PX         0.31608  -0.17954  -0.29634   0.19383   0.47676
  38        5PY         0.31608   0.34641  -0.00731   0.19383  -0.00000
  39        5PZ         0.31608  -0.16687   0.30365   0.19383  -0.47676
  40        6D 0        0.00000   0.00050  -0.00090   0.00000   0.01614
  41        6D+1       -0.01864   0.01152  -0.00024  -0.02434   0.00000
  42        6D-1       -0.01864  -0.00597  -0.00985  -0.02434  -0.00083
  43        6D+2       -0.00000   0.00090   0.00050  -0.00000  -0.00932
  44        6D-2       -0.01864  -0.00555   0.01010  -0.02434   0.00083
  45 3   H  1S          0.09510   0.00000   0.00000  -0.04234   0.00000
  46        2S         -0.31829   0.00000  -0.00000  -1.70585  -0.00000
  47        3S         -1.19039  -0.00000  -0.00000  -0.93445  -0.00000
  48        4PX        -0.00083  -0.01112  -0.01836  -0.01794  -0.02449
  49        4PY        -0.00083   0.02146  -0.00045  -0.01794  -0.00000
  50        4PZ         0.00083   0.01034  -0.01881   0.01794  -0.02449
  51        5PX        -0.31608   0.17954   0.29634  -0.19383   0.47676
  52        5PY        -0.31608  -0.34641   0.00731  -0.19383  -0.00000
  53        5PZ         0.31608  -0.16687   0.30365   0.19383   0.47676
  54        6D 0        0.00000   0.00050  -0.00090   0.00000  -0.01614
  55        6D+1        0.01864  -0.01152   0.00024   0.02434   0.00000
  56        6D-1        0.01864   0.00597   0.00985   0.02434  -0.00083
  57        6D+2       -0.00000   0.00090   0.00050  -0.00000   0.00932
  58        6D-2       -0.01864  -0.00555   0.01010  -0.02434  -0.00083
  59 4   H  1S          0.09510   0.00000   0.00000  -0.04234  -0.00000
  60        2S         -0.31829   0.00000  -0.00000  -1.70585   0.00000
  61        3S         -1.19039  -0.00000  -0.00000  -0.93445   0.00000
  62        4PX        -0.00083  -0.01112  -0.01836  -0.01794   0.02449
  63        4PY         0.00083  -0.02146   0.00045   0.01794  -0.00000
  64        4PZ        -0.00083  -0.01034   0.01881  -0.01794  -0.02449
  65        5PX        -0.31608   0.17954   0.29634  -0.19383  -0.47676
  66        5PY         0.31608   0.34641  -0.00731   0.19383  -0.00000
  67        5PZ        -0.31608   0.16687  -0.30365  -0.19383   0.47676
  68        6D 0        0.00000   0.00050  -0.00090   0.00000   0.01614
  69        6D+1       -0.01864   0.01152  -0.00024  -0.02434   0.00000
  70        6D-1        0.01864   0.00597   0.00985   0.02434   0.00083
  71        6D+2       -0.00000   0.00090   0.00050  -0.00000  -0.00932
  72        6D-2        0.01864   0.00555  -0.01010   0.02434  -0.00083
  73 5   H  1S          0.09510   0.00000   0.00000  -0.04234   0.00000
  74        2S         -0.31829   0.00000  -0.00000  -1.70585  -0.00000
  75        3S         -1.19039  -0.00000  -0.00000  -0.93445  -0.00000
  76        4PX         0.00083   0.01112   0.01836   0.01794   0.02449
  77        4PY        -0.00083   0.02146  -0.00045  -0.01794  -0.00000
  78        4PZ        -0.00083  -0.01034   0.01881  -0.01794   0.02449
  79        5PX         0.31608  -0.17954  -0.29634   0.19383  -0.47676
  80        5PY        -0.31608  -0.34641   0.00731  -0.19383  -0.00000
  81        5PZ        -0.31608   0.16687  -0.30365  -0.19383  -0.47676
  82        6D 0        0.00000   0.00050  -0.00090   0.00000  -0.01614
  83        6D+1        0.01864  -0.01152   0.00024   0.02434   0.00000
  84        6D-1       -0.01864  -0.00597  -0.00985  -0.02434   0.00083
  85        6D+2       -0.00000   0.00090   0.00050  -0.00000   0.00932
  86        6D-2        0.01864   0.00555  -0.01010   0.02434   0.00083
                          21        22        23        24        25
                        (T1)--V   (T1)--V   (T2)--V   (T2)--V   (T2)--V
     Eigenvalues --     0.87800   0.87800   0.96023   0.96023   0.96023
   1 1   C  1S          0.00000   0.00000   0.00000   0.00000   0.00000
   2        2S          0.00000   0.00000   0.00000   0.00000   0.00000
   3        3S          0.00000   0.00000   0.00000   0.00000   0.00000
   4        4S          0.00000   0.00000   0.00000   0.00000   0.00000
   5        5PX         0.00000  -0.00000   0.13715   0.00000   0.00000
   6        5PY         0.00000   0.00000   0.00000   0.13715   0.00000
   7        5PZ         0.00000   0.00000   0.00000   0.00000   0.13715
   8        6PX         0.00000  -0.00000   1.56554   0.00000   0.00000
   9        6PY         0.00000   0.00000   0.00000   1.56554   0.00000
  10        6PZ        -0.00000   0.00000   0.00000   0.00000   1.56554
  11        7PX         0.00000  -0.00000   1.92458   0.00000   0.00000
  12        7PY         0.00000   0.00000   0.00000   1.92458   0.00000
  13        7PZ        -0.00000   0.00000   0.00000   0.00000   1.92458
  14        8D 0        0.00000   0.00000   0.00000   0.00000   0.00000
  15        8D+1        0.00000   0.00000   0.00000   0.03308   0.00000
  16        8D-1        0.00000  -0.00000   0.03308   0.00000   0.00000
  17        8D+2        0.00000   0.00000   0.00000   0.00000   0.00000
  18        8D-2       -0.00000   0.00000   0.00000   0.00000   0.03308
  19        9D 0        0.00000   0.00000   0.00000   0.00000   0.00000
  20        9D+1        0.00000   0.00000   0.00000   2.14852   0.00000
  21        9D-1        0.00000  -0.00000   2.14852   0.00000   0.00000
  22        9D+2        0.00000   0.00000   0.00000   0.00000   0.00000
  23        9D-2       -0.00000   0.00000   0.00000   0.00000   2.14852
  24       10F 0        0.00000   0.00000   0.00000   0.00000  -0.11709
  25       10F+1        0.00000   0.05699   0.07170   0.00000   0.00000
  26       10F-1        0.00000   0.00000   0.00000   0.07170   0.00000
  27       10F+2       -0.07209   0.00000   0.00000   0.00000   0.00000
  28       10F-2        0.00000   0.00000   0.00000   0.00000   0.00000
  29       10F+3        0.00000   0.04415  -0.09257   0.00000   0.00000
  30       10F-3        0.00000   0.00000   0.00000   0.09257   0.00000
  31 2   H  1S         -0.00000  -0.00000   0.04045   0.04045   0.04045
  32        2S          0.00000   0.00000  -2.03717  -2.03717  -2.03717
  33        3S          0.00000  -0.00000  -0.21473  -0.21473  -0.21473
  34        4PX        -0.02449  -0.00000   0.03556   0.02032   0.02032
  35        4PY         0.02449  -0.02449   0.02032   0.03556   0.02032
  36        4PZ        -0.00000   0.02449   0.02032   0.02032   0.03556
  37        5PX         0.47676  -0.00000   0.09465   0.20611   0.20611
  38        5PY        -0.47676   0.47676   0.20611   0.09465   0.20611
  39        5PZ        -0.00000  -0.47676   0.20611   0.20611   0.09465
  40        6D 0        0.00000   0.01614   0.00905   0.00905  -0.01810
  41        6D+1        0.00083  -0.00083  -0.02511  -0.00770  -0.02511
  42        6D-1       -0.00083   0.00000  -0.00770  -0.02511  -0.02511
  43        6D+2       -0.01863   0.00932  -0.01568   0.01568   0.00000
  44        6D-2        0.00000   0.00083  -0.02511  -0.02511  -0.00770
  45 3   H  1S         -0.00000   0.00000  -0.04045  -0.04045   0.04045
  46        2S          0.00000  -0.00000   2.03717   2.03717  -2.03717
  47        3S          0.00000   0.00000   0.21473   0.21473  -0.21473
  48        4PX         0.02449  -0.00000   0.03556   0.02032  -0.02032
  49        4PY        -0.02449  -0.02449   0.02032   0.03556  -0.02032
  50        4PZ        -0.00000  -0.02449  -0.02032  -0.02032   0.03556
  51        5PX        -0.47676  -0.00000   0.09465   0.20611  -0.20611
  52        5PY         0.47676   0.47676   0.20611   0.09465  -0.20611
  53        5PZ        -0.00000   0.47676  -0.20611  -0.20611   0.09465
  54        6D 0        0.00000  -0.01614  -0.00905  -0.00905  -0.01810
  55        6D+1       -0.00083  -0.00083  -0.02511  -0.00770   0.02511
  56        6D-1        0.00083   0.00000  -0.00770  -0.02511   0.02511
  57        6D+2       -0.01863  -0.00932   0.01568  -0.01568   0.00000
  58        6D-2        0.00000  -0.00083   0.02511   0.02511  -0.00770
  59 4   H  1S          0.00000   0.00000  -0.04045   0.04045  -0.04045
  60        2S         -0.00000  -0.00000   2.03717  -2.03717   2.03717
  61        3S         -0.00000   0.00000   0.21473  -0.21473   0.21473
  62        4PX        -0.02449  -0.00000   0.03556  -0.02032   0.02032
  63        4PY        -0.02449   0.02449  -0.02032   0.03556  -0.02032
  64        4PZ        -0.00000   0.02449   0.02032  -0.02032   0.03556
  65        5PX         0.47676  -0.00000   0.09465  -0.20611   0.20611
  66        5PY         0.47676  -0.47676  -0.20611   0.09465  -0.20611
  67        5PZ        -0.00000  -0.47676   0.20611  -0.20611   0.09465
  68        6D 0       -0.00000  -0.01614  -0.00905   0.00905   0.01810
  69        6D+1       -0.00083   0.00083   0.02511  -0.00770   0.02511
  70        6D-1       -0.00083   0.00000  -0.00770   0.02511  -0.02511
  71        6D+2        0.01863  -0.00932   0.01568   0.01568  -0.00000
  72        6D-2        0.00000   0.00083  -0.02511   0.02511  -0.00770
  73 5   H  1S          0.00000  -0.00000   0.04045  -0.04045  -0.04045
  74        2S         -0.00000   0.00000  -2.03717   2.03717   2.03717
  75        3S         -0.00000  -0.00000  -0.21473   0.21473   0.21473
  76        4PX         0.02449  -0.00000   0.03556  -0.02032  -0.02032
  77        4PY         0.02449   0.02449  -0.02032   0.03556   0.02032
  78        4PZ        -0.00000  -0.02449  -0.02032   0.02032   0.03556
  79        5PX        -0.47676  -0.00000   0.09465  -0.20611  -0.20611
  80        5PY        -0.47676  -0.47676  -0.20611   0.09465   0.20611
  81        5PZ        -0.00000   0.47676  -0.20611   0.20611   0.09465
  82        6D 0       -0.00000   0.01614   0.00905  -0.00905   0.01810
  83        6D+1        0.00083   0.00083   0.02511  -0.00770  -0.02511
  84        6D-1        0.00083   0.00000  -0.00770   0.02511   0.02511
  85        6D+2        0.01863   0.00932  -0.01568  -0.01568  -0.00000
  86        6D-2        0.00000  -0.00083   0.02511  -0.02511  -0.00770
                          26        27        28        29        30
                        (T2)--V   (T2)--V   (T2)--V   (T2)--V   (T2)--V
     Eigenvalues --     1.12422   1.12422   1.12422   1.31805   1.31805
   1 1   C  1S          0.00000   0.00000   0.00000   0.00000   0.00000
   2        2S          0.00000   0.00000   0.00000   0.00000   0.00000
   3        3S          0.00000   0.00000   0.00000   0.00000   0.00000
   4        4S          0.00000   0.00000   0.00000   0.00000   0.00000
   5        5PX         0.00000   0.16728   0.00000   0.27949   0.00000
   6        5PY         0.16728   0.00000   0.00000   0.00000   0.27949
   7        5PZ         0.00000   0.00000   0.16728   0.00000   0.00000
   8        6PX         0.00000   0.41953   0.00000   4.48644   0.00000
   9        6PY         0.41953   0.00000   0.00000   0.00000   4.48644
  10        6PZ         0.00000   0.00000   0.41953   0.00000   0.00000
  11        7PX         0.00000   1.68917   0.00000   2.06878   0.00000
  12        7PY         1.68917   0.00000   0.00000   0.00000   2.06878
  13        7PZ         0.00000   0.00000   1.68917   0.00000   0.00000
  14        8D 0        0.00000   0.00000   0.00000   0.00000   0.00000
  15        8D+1        0.03659   0.00000   0.00000   0.00000   0.08326
  16        8D-1        0.00000   0.03659   0.00000   0.08326   0.00000
  17        8D+2        0.00000   0.00000   0.00000   0.00000   0.00000
  18        8D-2        0.00000   0.00000   0.03659   0.00000   0.00000
  19        9D 0        0.00000   0.00000   0.00000   0.00000   0.00000
  20        9D+1       -1.20738   0.00000   0.00000   0.00000   2.43089
  21        9D-1        0.00000  -1.20738   0.00000   2.43089   0.00000
  22        9D+2        0.00000   0.00000   0.00000   0.00000   0.00000
  23        9D-2        0.00000   0.00000  -1.20738   0.00000   0.00000
  24       10F 0        0.00000   0.00000   0.07115   0.00000   0.00000
  25       10F+1        0.00000  -0.04357   0.00000   0.08608   0.00000
  26       10F-1       -0.04357   0.00000   0.00000   0.00000   0.08608
  27       10F+2        0.00000   0.00000  -0.00000   0.00000   0.00000
  28       10F-2        0.00000   0.00000   0.00000   0.00000   0.00000
  29       10F+3        0.00000   0.05625   0.00000  -0.11113   0.00000
  30       10F-3       -0.05625   0.00000   0.00000   0.00000   0.11113
  31 2   H  1S          0.01520   0.01520   0.01520  -0.02839  -0.02839
  32        2S          0.10941   0.10941   0.10941  -3.24164  -3.24164
  33        3S         -0.59311  -0.59311  -0.59311  -1.07857  -1.07857
  34        4PX        -0.03851   0.02376  -0.03851  -0.01063  -0.01835
  35        4PY         0.02376  -0.03851  -0.03851  -0.01835  -0.01063
  36        4PZ        -0.03851  -0.03851   0.02376  -0.01835  -0.01835
  37        5PX         0.42145  -0.80760   0.42145   1.28963   1.20410
  38        5PY        -0.80760   0.42145   0.42145   1.20410   1.28963
  39        5PZ         0.42145   0.42145  -0.80760   1.20410   1.20410
  40        6D 0       -0.01051  -0.01051   0.02103   0.00345   0.00345
  41        6D+1       -0.02904   0.01238   0.01238  -0.05145  -0.07302
  42        6D-1        0.01238  -0.02904   0.01238  -0.07302  -0.05145
  43        6D+2       -0.01821   0.01821  -0.00000  -0.00598   0.00598
  44        6D-2        0.01238   0.01238  -0.02904  -0.05145  -0.05145
  45 3   H  1S         -0.01520  -0.01520   0.01520   0.02839   0.02839
  46        2S         -0.10941  -0.10941   0.10941   3.24164   3.24164
  47        3S          0.59311   0.59311  -0.59311   1.07857   1.07857
  48        4PX        -0.03851   0.02376   0.03851  -0.01063  -0.01835
  49        4PY         0.02376  -0.03851   0.03851  -0.01835  -0.01063
  50        4PZ         0.03851   0.03851   0.02376   0.01835   0.01835
  51        5PX         0.42145  -0.80760  -0.42145   1.28963   1.20410
  52        5PY        -0.80760   0.42145  -0.42145   1.20410   1.28963
  53        5PZ        -0.42145  -0.42145  -0.80760  -1.20410  -1.20410
  54        6D 0        0.01051   0.01051   0.02103  -0.00345  -0.00345
  55        6D+1       -0.02904   0.01238  -0.01238  -0.05145  -0.07302
  56        6D-1        0.01238  -0.02904  -0.01238  -0.07302  -0.05145
  57        6D+2        0.01821  -0.01821  -0.00000   0.00598  -0.00598
  58        6D-2       -0.01238  -0.01238  -0.02904   0.05145   0.05145
  59 4   H  1S          0.01520  -0.01520  -0.01520   0.02839  -0.02839
  60        2S          0.10941  -0.10941  -0.10941   3.24164  -3.24164
  61        3S         -0.59311   0.59311   0.59311   1.07857  -1.07857
  62        4PX         0.03851   0.02376  -0.03851  -0.01063   0.01835
  63        4PY         0.02376   0.03851   0.03851   0.01835  -0.01063
  64        4PZ         0.03851  -0.03851   0.02376  -0.01835   0.01835
  65        5PX        -0.42145  -0.80760   0.42145   1.28963  -1.20410
  66        5PY        -0.80760  -0.42145  -0.42145  -1.20410   1.28963
  67        5PZ        -0.42145   0.42145  -0.80760   1.20410  -1.20410
  68        6D 0       -0.01051   0.01051  -0.02103  -0.00345   0.00345
  69        6D+1       -0.02904  -0.01238  -0.01238   0.05145  -0.07302
  70        6D-1       -0.01238  -0.02904   0.01238  -0.07302   0.05145
  71        6D+2       -0.01821  -0.01821   0.00000   0.00598   0.00598
  72        6D-2       -0.01238   0.01238  -0.02904  -0.05145   0.05145
  73 5   H  1S         -0.01520   0.01520  -0.01520  -0.02839   0.02839
  74        2S         -0.10941   0.10941  -0.10941  -3.24164   3.24164
  75        3S          0.59311  -0.59311   0.59311  -1.07857   1.07857
  76        4PX         0.03851   0.02376   0.03851  -0.01063   0.01835
  77        4PY         0.02376   0.03851  -0.03851   0.01835  -0.01063
  78        4PZ        -0.03851   0.03851   0.02376   0.01835  -0.01835
  79        5PX        -0.42145  -0.80760  -0.42145   1.28963  -1.20410
  80        5PY        -0.80760  -0.42145   0.42145  -1.20410   1.28963
  81        5PZ         0.42145  -0.42145  -0.80760  -1.20410   1.20410
  82        6D 0        0.01051  -0.01051  -0.02103   0.00345  -0.00345
  83        6D+1       -0.02904  -0.01238   0.01238   0.05145  -0.07302
  84        6D-1       -0.01238  -0.02904  -0.01238  -0.07302   0.05145
  85        6D+2        0.01821   0.01821   0.00000  -0.00598  -0.00598
  86        6D-2        0.01238  -0.01238  -0.02904   0.05145  -0.05145
                          31        32        33        34        35
                        (T2)--V   (E)--V    (E)--V    (A1)--V   (T2)--V
     Eigenvalues --     1.31805   1.38874   1.38874   1.53932   2.11692
   1 1   C  1S          0.00000   0.00000  -0.00000  -0.11178   0.00000
   2        2S          0.00000   0.00000   0.00000   1.43206   0.00000
   3        3S          0.00000  -0.00000   0.00000   0.88111   0.00000
   4        4S          0.00000   0.00000  -0.00000   3.72316   0.00000
   5        5PX         0.00000   0.00000  -0.00000   0.00000   0.01838
   6        5PY         0.00000   0.00000  -0.00000   0.00000   0.00000
   7        5PZ         0.27949   0.00000  -0.00000   0.00000   0.00000
   8        6PX         0.00000   0.00000  -0.00000   0.00000  -1.81133
   9        6PY         0.00000   0.00000  -0.00000   0.00000   0.00000
  10        6PZ         4.48644   0.00000  -0.00000   0.00000   0.00000
  11        7PX         0.00000   0.00000  -0.00000   0.00000  -0.28234
  12        7PY         0.00000   0.00000  -0.00000   0.00000   0.00000
  13        7PZ         2.06878   0.00000  -0.00000   0.00000   0.00000
  14        8D 0        0.00000   0.00925   0.01723  -0.00000   0.00000
  15        8D+1        0.00000   0.00000  -0.00000   0.00000   0.00000
  16        8D-1        0.00000   0.00000  -0.00000   0.00000  -0.32042
  17        8D+2        0.00000   0.01723  -0.00925   0.00000   0.00000
  18        8D-2        0.08326   0.00000  -0.00000   0.00000   0.00000
  19        9D 0        0.00000   1.31203   2.44359  -0.00000   0.00000
  20        9D+1        0.00000   0.00000  -0.00000   0.00000   0.00000
  21        9D-1        0.00000   0.00000  -0.00000   0.00000  -0.60160
  22        9D+2        0.00000   2.44359  -1.31203  -0.00000   0.00000
  23        9D-2        2.43089   0.00000  -0.00000   0.00000   0.00000
  24       10F 0       -0.14057   0.00000  -0.00000   0.00000   0.00000
  25       10F+1        0.00000   0.00000  -0.00000   0.00000  -0.28376
  26       10F-1        0.00000   0.00000  -0.00000   0.00000   0.00000
  27       10F+2        0.00000   0.00000  -0.00000   0.00000   0.00000
  28       10F-2        0.00000  -0.00000  -0.00000  -0.22085   0.00000
  29       10F+3        0.00000   0.00000  -0.00000   0.00000   0.36634
  30       10F-3        0.00000   0.00000  -0.00000   0.00000   0.00000
  31 2   H  1S         -0.02839  -0.00000  -0.00000  -0.19741  -0.57825
  32        2S         -3.24164  -0.00000  -0.00000  -0.75291   1.90730
  33        3S         -1.07857  -0.00000   0.00000  -0.69361  -0.27230
  34        4PX        -0.01835   0.03503  -0.05657  -0.08034  -0.00764
  35        4PY        -0.01835  -0.06651  -0.00205  -0.08034  -0.02489
  36        4PZ        -0.01063   0.03148   0.05862  -0.08034  -0.02489
  37        5PX         1.20410  -0.55237   0.89202   0.55420  -0.48184
  38        5PY         1.20410   1.04870   0.03236   0.55420  -0.36792
  39        5PZ         1.28963  -0.49632  -0.92438   0.55420  -0.36792
  40        6D 0       -0.00690   0.02188   0.04074  -0.00000  -0.00964
  41        6D+1       -0.05145   0.02726   0.00084   0.02770  -0.00297
  42        6D-1       -0.05145  -0.01436   0.02319   0.02770   0.10560
  43        6D+2        0.00000   0.04074  -0.02188   0.00000   0.01669
  44        6D-2       -0.07302  -0.01290  -0.02403   0.02770  -0.00297
  45 3   H  1S         -0.02839  -0.00000  -0.00000  -0.19741   0.57825
  46        2S         -3.24164  -0.00000  -0.00000  -0.75291  -1.90730
  47        3S         -1.07857  -0.00000   0.00000  -0.69361   0.27230
  48        4PX         0.01835  -0.03503   0.05657   0.08034  -0.00764
  49        4PY         0.01835   0.06651   0.00205   0.08034  -0.02489
  50        4PZ        -0.01063   0.03148   0.05862  -0.08034   0.02489
  51        5PX        -1.20410   0.55237  -0.89202  -0.55420  -0.48184
  52        5PY        -1.20410  -1.04870  -0.03236  -0.55420  -0.36792
  53        5PZ         1.28963  -0.49632  -0.92438   0.55420   0.36792
  54        6D 0       -0.00690   0.02188   0.04074  -0.00000   0.00964
  55        6D+1        0.05145  -0.02726  -0.00084  -0.02770  -0.00297
  56        6D-1        0.05145   0.01436  -0.02319  -0.02770   0.10560
  57        6D+2        0.00000   0.04074  -0.02188   0.00000  -0.01669
  58        6D-2       -0.07302  -0.01290  -0.02403   0.02770   0.00297
  59 4   H  1S          0.02839  -0.00000  -0.00000  -0.19741   0.57825
  60        2S          3.24164  -0.00000  -0.00000  -0.75291  -1.90730
  61        3S          1.07857  -0.00000   0.00000  -0.69361   0.27230
  62        4PX        -0.01835  -0.03503   0.05657   0.08034  -0.00764
  63        4PY         0.01835  -0.06651  -0.00205  -0.08034   0.02489
  64        4PZ        -0.01063  -0.03148  -0.05862   0.08034  -0.02489
  65        5PX         1.20410   0.55237  -0.89202  -0.55420  -0.48184
  66        5PY        -1.20410   1.04870   0.03236   0.55420   0.36792
  67        5PZ         1.28963   0.49632   0.92438  -0.55420  -0.36792
  68        6D 0        0.00690   0.02188   0.04074  -0.00000   0.00964
  69        6D+1        0.05145   0.02726   0.00084   0.02770   0.00297
  70        6D-1       -0.05145   0.01436  -0.02319  -0.02770   0.10560
  71        6D+2       -0.00000   0.04074  -0.02188   0.00000  -0.01669
  72        6D-2       -0.07302   0.01290   0.02403  -0.02770  -0.00297
  73 5   H  1S          0.02839  -0.00000  -0.00000  -0.19741  -0.57825
  74        2S          3.24164  -0.00000  -0.00000  -0.75291   1.90730
  75        3S          1.07857  -0.00000   0.00000  -0.69361  -0.27230
  76        4PX         0.01835   0.03503  -0.05657  -0.08034  -0.00764
  77        4PY        -0.01835   0.06651   0.00205   0.08034   0.02489
  78        4PZ        -0.01063  -0.03148  -0.05862   0.08034   0.02489
  79        5PX        -1.20410  -0.55237   0.89202   0.55420  -0.48184
  80        5PY         1.20410  -1.04870  -0.03236  -0.55420   0.36792
  81        5PZ         1.28963   0.49632   0.92438  -0.55420   0.36792
  82        6D 0        0.00690   0.02188   0.04074  -0.00000  -0.00964
  83        6D+1       -0.05145  -0.02726  -0.00084  -0.02770   0.00297
  84        6D-1        0.05145  -0.01436   0.02319   0.02770   0.10560
  85        6D+2       -0.00000   0.04074  -0.02188   0.00000   0.01669
  86        6D-2       -0.07302   0.01290   0.02403  -0.02770   0.00297
                          36        37        38        39        40
                        (T2)--V   (T2)--V   (A1)--V   (T2)--V   (T2)--V
     Eigenvalues --     2.11692   2.11692   2.26948   2.65221   2.65221
   1 1   C  1S          0.00000   0.00000  -0.07426   0.00000   0.00000
   2        2S          0.00000   0.00000   1.41049   0.00000   0.00000
   3        3S          0.00000   0.00000   0.83102   0.00000   0.00000
   4        4S          0.00000   0.00000   6.76045   0.00000   0.00000
   5        5PX         0.00000   0.00000   0.00000  -1.02327   0.00000
   6        5PY         0.01838   0.00000   0.00000   0.00000  -1.02327
   7        5PZ         0.00000   0.01838   0.00000   0.00000   0.00000
   8        6PX         0.00000   0.00000   0.00000   4.99173   0.00000
   9        6PY        -1.81133   0.00000   0.00000   0.00000   4.99173
  10        6PZ         0.00000  -1.81133   0.00000   0.00000   0.00000
  11        7PX         0.00000   0.00000   0.00000   1.47904   0.00000
  12        7PY        -0.28234   0.00000   0.00000   0.00000   1.47904
  13        7PZ         0.00000  -0.28234   0.00000   0.00000   0.00000
  14        8D 0        0.00000   0.00000   0.00000   0.00000   0.00000
  15        8D+1       -0.32042   0.00000   0.00000   0.00000  -0.25691
  16        8D-1        0.00000   0.00000   0.00000  -0.25691   0.00000
  17        8D+2        0.00000   0.00000   0.00000   0.00000   0.00000
  18        8D-2        0.00000  -0.32042   0.00000   0.00000   0.00000
  19        9D 0        0.00000   0.00000  -0.00000   0.00000   0.00000
  20        9D+1       -0.60160   0.00000   0.00000   0.00000   2.15303
  21        9D-1        0.00000   0.00000   0.00000   2.15303   0.00000
  22        9D+2        0.00000   0.00000  -0.00000   0.00000   0.00000
  23        9D-2        0.00000  -0.60160   0.00000   0.00000   0.00000
  24       10F 0        0.00000   0.46338   0.00000   0.00000   0.00000
  25       10F+1        0.00000   0.00000   0.00000   0.10508   0.00000
  26       10F-1       -0.28376   0.00000   0.00000   0.00000   0.10508
  27       10F+2        0.00000  -0.00000   0.00000   0.00000   0.00000
  28       10F-2        0.00000   0.00000   0.67655   0.00000   0.00000
  29       10F+3        0.00000   0.00000   0.00000  -0.13565   0.00000
  30       10F-3       -0.36634   0.00000   0.00000   0.00000   0.13565
  31 2   H  1S         -0.57825  -0.57825   0.48642   0.23891   0.23891
  32        2S          1.90730   1.90730  -2.44783  -3.24452  -3.24452
  33        3S         -0.27230  -0.27230  -0.69617  -0.25268  -0.25268
  34        4PX        -0.02489  -0.02489   0.04095   0.18128   0.07354
  35        4PY        -0.00764  -0.02489   0.04095   0.07354   0.18128
  36        4PZ        -0.02489  -0.00764   0.04095   0.07354   0.07354
  37        5PX        -0.36792  -0.36792   0.47126   0.51508   0.82424
  38        5PY        -0.48184  -0.36792   0.47126   0.82424   0.51508
  39        5PZ        -0.36792  -0.48184   0.47126   0.82424   0.82424
  40        6D 0       -0.00964   0.01928  -0.00000   0.02680   0.02680
  41        6D+1        0.10560  -0.00297  -0.02000  -0.12757   0.01900
  42        6D-1       -0.00297  -0.00297  -0.02000   0.01900  -0.12757
  43        6D+2       -0.01669  -0.00000  -0.00000  -0.04642   0.04642
  44        6D-2       -0.00297   0.10560  -0.02000  -0.12757  -0.12757
  45 3   H  1S          0.57825  -0.57825   0.48642  -0.23891  -0.23891
  46        2S         -1.90730   1.90730  -2.44783   3.24452   3.24452
  47        3S          0.27230  -0.27230  -0.69617   0.25268   0.25268
  48        4PX        -0.02489   0.02489  -0.04095   0.18128   0.07354
  49        4PY        -0.00764   0.02489  -0.04095   0.07354   0.18128
  50        4PZ         0.02489  -0.00764   0.04095  -0.07354  -0.07354
  51        5PX        -0.36792   0.36792  -0.47126   0.51508   0.82424
  52        5PY        -0.48184   0.36792  -0.47126   0.82424   0.51508
  53        5PZ         0.36792  -0.48184   0.47126  -0.82424  -0.82424
  54        6D 0        0.00964   0.01928  -0.00000  -0.02680  -0.02680
  55        6D+1        0.10560   0.00297   0.02000  -0.12757   0.01900
  56        6D-1       -0.00297   0.00297   0.02000   0.01900  -0.12757
  57        6D+2        0.01669  -0.00000  -0.00000   0.04642  -0.04642
  58        6D-2        0.00297   0.10560  -0.02000   0.12757   0.12757
  59 4   H  1S         -0.57825   0.57825   0.48642  -0.23891   0.23891
  60        2S          1.90730  -1.90730  -2.44783   3.24452  -3.24452
  61        3S         -0.27230   0.27230  -0.69617   0.25268  -0.25268
  62        4PX         0.02489  -0.02489  -0.04095   0.18128  -0.07354
  63        4PY        -0.00764   0.02489   0.04095  -0.07354   0.18128
  64        4PZ         0.02489  -0.00764  -0.04095   0.07354  -0.07354
  65        5PX         0.36792  -0.36792  -0.47126   0.51508  -0.82424
  66        5PY        -0.48184   0.36792   0.47126  -0.82424   0.51508
  67        5PZ         0.36792  -0.48184  -0.47126   0.82424  -0.82424
  68        6D 0       -0.00964  -0.01928  -0.00000  -0.02680   0.02680
  69        6D+1        0.10560   0.00297  -0.02000   0.12757   0.01900
  70        6D-1        0.00297  -0.00297   0.02000   0.01900   0.12757
  71        6D+2       -0.01669   0.00000  -0.00000   0.04642   0.04642
  72        6D-2        0.00297   0.10560   0.02000  -0.12757   0.12757
  73 5   H  1S          0.57825   0.57825   0.48642   0.23891  -0.23891
  74        2S         -1.90730  -1.90730  -2.44783  -3.24452   3.24452
  75        3S          0.27230   0.27230  -0.69617  -0.25268   0.25268
  76        4PX         0.02489   0.02489   0.04095   0.18128  -0.07354
  77        4PY        -0.00764  -0.02489  -0.04095  -0.07354   0.18128
  78        4PZ        -0.02489  -0.00764  -0.04095  -0.07354   0.07354
  79        5PX         0.36792   0.36792   0.47126   0.51508  -0.82424
  80        5PY        -0.48184  -0.36792  -0.47126  -0.82424   0.51508
  81        5PZ        -0.36792  -0.48184  -0.47126  -0.82424   0.82424
  82        6D 0        0.00964  -0.01928  -0.00000   0.02680  -0.02680
  83        6D+1        0.10560  -0.00297   0.02000   0.12757   0.01900
  84        6D-1        0.00297   0.00297  -0.02000   0.01900   0.12757
  85        6D+2        0.01669   0.00000  -0.00000  -0.04642  -0.04642
  86        6D-2       -0.00297   0.10560   0.02000   0.12757  -0.12757
                          41        42        43        44        45
                        (T2)--V   (E)--V    (E)--V    (T1)--V   (T1)--V
     Eigenvalues --     2.65221   2.80701   2.80701   2.81350   2.81350
   1 1   C  1S          0.00000  -0.00000  -0.00000   0.00000   0.00000
   2        2S          0.00000   0.00000  -0.00000   0.00000   0.00000
   3        3S          0.00000   0.00000   0.00000   0.00000   0.00000
   4        4S          0.00000   0.00000  -0.00000   0.00000   0.00000
   5        5PX         0.00000   0.00000   0.00000   0.00000   0.00000
   6        5PY         0.00000   0.00000   0.00000   0.00000   0.00000
   7        5PZ        -1.02327   0.00000   0.00000   0.00000   0.00000
   8        6PX         0.00000   0.00000   0.00000   0.00000   0.00000
   9        6PY         0.00000   0.00000   0.00000  -0.00000   0.00000
  10        6PZ         4.99173   0.00000   0.00000   0.00000  -0.00000
  11        7PX         0.00000   0.00000   0.00000   0.00000   0.00000
  12        7PY         0.00000   0.00000   0.00000  -0.00000   0.00000
  13        7PZ         1.47904   0.00000   0.00000   0.00000  -0.00000
  14        8D 0        0.00000  -0.11233  -0.83129   0.00000   0.00000
  15        8D+1        0.00000   0.00000   0.00000   0.00000   0.00000
  16        8D-1        0.00000   0.00000   0.00000   0.00000   0.00000
  17        8D+2        0.00000  -0.83129   0.11233   0.00000   0.00000
  18        8D-2       -0.25691   0.00000   0.00000   0.00000   0.00000
  19        9D 0        0.00000   0.20242   1.49800   0.00000   0.00000
  20        9D+1        0.00000   0.00000   0.00000  -0.00000   0.00000
  21        9D-1        0.00000   0.00000   0.00000   0.00000   0.00000
  22        9D+2        0.00000   1.49800  -0.20242   0.00000   0.00000
  23        9D-2        2.15303   0.00000   0.00000   0.00000  -0.00000
  24       10F 0       -0.17159   0.00000   0.00000   0.00000   0.00000
  25       10F+1        0.00000   0.00000   0.00000   0.00000   0.00000
  26       10F-1        0.00000   0.00000   0.00000   0.67377   0.00000
  27       10F+2        0.00000   0.00000   0.00000   0.00000   0.85226
  28       10F-2        0.00000   0.00000   0.00000   0.00000   0.00000
  29       10F+3        0.00000   0.00000   0.00000   0.00000   0.00000
  30       10F-3        0.00000   0.00000   0.00000  -0.52190   0.00000
  31 2   H  1S          0.23891   0.00000   0.00000  -0.00000  -0.00000
  32        2S         -3.24452  -0.00000   0.00000   0.00000   0.00000
  33        3S         -0.25268  -0.00000   0.00000   0.00000  -0.00000
[...]
     4   1    -0.37   0.36  -0.37     0.00  -0.02   0.03     0.33  -0.35   0.33
     5   1    -0.27   0.26   0.28     0.41  -0.42  -0.41    -0.09   0.07   0.06

 -------------------
 - Thermochemistry -
 -------------------
 Temperature   298.150 Kelvin.  Pressure   1.00000 Atm.
 Atom     1 has atomic number  6 and mass  12.00000
 Atom     2 has atomic number  1 and mass   1.00783
 Atom     3 has atomic number  1 and mass   1.00783
 Atom     4 has atomic number  1 and mass   1.00783
 Atom     5 has atomic number  1 and mass   1.00783
 Molecular mass:    16.03130 amu.
 Principal axes and moments of inertia in atomic units:
                           1         2         3
     Eigenvalues --    11.37945  11.37945  11.37945
           X            0.99539  -0.09588   0.00000
           Y            0.09588   0.99539   0.00000
           Z           -0.00000   0.00000   1.00000
 This molecule is a spherical top.
 Rotational symmetry number 12.
 Rotational temperatures (Kelvin)      7.61142     7.61142     7.61142
 Rotational constants (GHZ):         158.59655   158.59655   158.59655
 Zero-point vibrational energy     117149.6 (Joules/Mol)
                                   27.99943 (Kcal/Mol)
 Vibrational temperatures:   1913.26  1913.26  1913.26  2235.47  2235.47
          (Kelvin)           4366.48  4534.17  4534.17  4534.17
 
 Zero-point correction=                           0.044620 (Hartree/Particle)
 Thermal correction to Energy=                    0.047490
 Thermal correction to Enthalpy=                  0.048434
 Thermal correction to Gibbs Free Energy=         0.027307
 Sum of electronic and zero-point Energies=            -40.476665
 Sum of electronic and thermal Energies=               -40.473795
 Sum of electronic and thermal Enthalpies=             -40.472851
 Sum of electronic and thermal Free Energies=          -40.493978
 
                     E (Thermal)             CV                S
                      KCal/Mol        Cal/Mol-Kelvin    Cal/Mol-Kelvin
 Total                   29.800              6.488             44.466
 Electronic               0.000              0.000              0.000
 Translational            0.889              2.981             34.261
 Rotational               0.889              2.981             10.114
 Vibrational             28.023              0.527              0.091
                       Q            Log10(Q)             Ln(Q)
 Total Bot       0.275210D-12        -12.560336        -28.921243
 Total V=0       0.919110D+08          7.963367         18.336331
 Vib (Bot)       0.301237D-20        -20.521091        -47.251559
 Vib (V=0)       0.100603D+01          0.002612          0.006014
 Electronic      0.100000D+01          0.000000          0.000000
 Translational   0.252295D+07          6.401908         14.740939
 Rotational      0.362115D+02          1.558847          3.589378
 
                                        methane with imposed symmetry Td and cc-p
 VTZ basis set
                                                             IR Spectrum
 
      3   3                                                           1        1                                                     
      1   0                                                           5        3                                                     
      5   3                                                           5        3                                                     
      1   5                                                           4        0                                                     
 
      X                                                                        X                                                     
      X                                                                        X                                                     
      X                                                                        X                                                     
      X                                                                        X                                                     
      X                                                                        X                                                     
      X                                                                        X                                                     
      X                                                                        X                                                     
      X                                                                        X                                                     
      X                                                                        X                                                     
      X                                                                        X                                                     
      X                                                                        X                                                     
      X                                                                        X                                                     
      X                                                                        X                                                     
      X                                                                                                                              
      X                                                                                                                              
      X                                                                                                                              
      X                                                                                                                              
      X                                                                                                                              
      X                                                                                                                              
      X                                                                                                                              
 
 ***** Axes restored to original set *****
 -------------------------------------------------------------------
 Center     Atomic                   Forces (Hartrees/Bohr)
 Number     Number              X              Y              Z
 -------------------------------------------------------------------
      1        6           0.000000000   -0.000000000    0.000000000
      2        1          -0.000000000   -0.000000000    0.000004380
      3        1           0.000004130    0.000000000   -0.000001460
      4        1          -0.000002065   -0.000003577   -0.000001460
      5        1          -0.000002065    0.000003577   -0.000001460
 -------------------------------------------------------------------
 Cartesian Forces:  Max     0.000004380 RMS     0.000002262
 Force constants in Cartesian coordinates: 
                1             2             3             4             5 
      1  0.544822D+00
      2  0.000000D+00  0.544822D+00
      3  0.000000D+00  0.000000D+00  0.544822D+00
      4 -0.443592D-01  0.000000D+00  0.000000D+00  0.442418D-01
      5  0.000000D+00 -0.443592D-01  0.000000D+00  0.000000D+00  0.442418D-01
      6  0.000000D+00  0.000000D+00 -0.319898D+00  0.000000D+00  0.000000D+00
      7 -0.289283D+00  0.000000D+00  0.865935D-01  0.195657D-02  0.000000D+00
      8  0.000000D+00 -0.443592D-01  0.000000D+00  0.000000D+00 -0.187830D-02
      9  0.865935D-01  0.000000D+00 -0.749746D-01  0.311370D-01  0.000000D+00
     10 -0.105590D+00 -0.106055D+00 -0.432968D-01 -0.919579D-03  0.166055D-02
     11 -0.106055D+00 -0.228052D+00 -0.749922D-01  0.166055D-02  0.997857D-03
     12 -0.432968D-01 -0.749922D-01 -0.749746D-01 -0.155685D-01 -0.269654D-01
     13 -0.105590D+00  0.106055D+00 -0.432968D-01 -0.919579D-03 -0.166055D-02
     14  0.106055D+00 -0.228052D+00  0.749922D-01 -0.166055D-02  0.997856D-03
     15 -0.432968D-01  0.749922D-01 -0.749746D-01 -0.155685D-01  0.269654D-01
                6             7             8             9            10 
      6  0.345847D+00
      7 -0.113764D-02  0.312336D+00
      8  0.000000D+00  0.000000D+00  0.442418D-01
      9 -0.864980D-02 -0.947855D-01  0.000000D+00  0.777535D-01
     10  0.568820D-03 -0.125048D-01 -0.248697D-01 -0.114725D-01  0.111265D+00
     11  0.985225D-03  0.148240D-02  0.997856D-03  0.123717D-02  0.116088D+00
     12 -0.864980D-02  0.466483D-02  0.105541D-01  0.293545D-02  0.473928D-01
     13  0.568820D-03 -0.125048D-01  0.248697D-01 -0.114725D-01  0.774920D-02
     14 -0.985225D-03 -0.148240D-02  0.997857D-03 -0.123717D-02  0.131761D-01
     15 -0.864980D-02  0.466483D-02 -0.105541D-01  0.293545D-02  0.680767D-02
               11            12            13            14            15 
     11  0.245312D+00
     12  0.820867D-01  0.777535D-01
     13 -0.131761D-01  0.680767D-02  0.111265D+00
     14 -0.192562D-01  0.931689D-02 -0.116088D+00  0.245312D+00
     15 -0.931689D-02  0.293545D-02  0.473928D-01 -0.820867D-01  0.777535D-01
 Force constants in internal coordinates: 
                1             2             3             4             5 
      1  0.345847D+00
      2  0.181069D-02  0.345847D+00
      3  0.181069D-02  0.181069D-02  0.345847D+00
      4  0.181069D-02  0.181069D-02  0.181069D-02  0.345847D+00
      5  0.193623D-02  0.193623D-02 -0.121577D-02 -0.265669D-02  0.192376D-01
      6  0.303453D-02 -0.783106D-03  0.337714D-02 -0.562857D-02 -0.857734D-02
      7  0.593007D-02 -0.475933D-02 -0.526834D-02  0.409760D-02 -0.127650D-01
      8 -0.783106D-03  0.303453D-02  0.337714D-02 -0.562857D-02 -0.857734D-02
      9 -0.475933D-02  0.593007D-02 -0.526834D-02  0.409760D-02 -0.127650D-01
     10 -0.535840D-02 -0.535840D-02  0.499817D-02  0.571863D-02  0.234471D-01
     11 -0.375010D-02 -0.375010D-02 -0.264713D-02  0.101473D-01 -0.130561D-01
     12  0.308832D-02  0.308832D-02 -0.794139D-02  0.176475D-02  0.792728D-02
     13 -0.406660D-02  0.715492D-02 -0.397069D-02  0.882376D-03  0.396364D-02
     14 -0.715492D-02  0.406660D-02  0.397069D-02 -0.882376D-03 -0.396364D-02
                6             7             8             9            10 
      6  0.362271D-01
      7 -0.220395D-01  0.707765D-01
      8 -0.209314D-02  0.243462D-01  0.362271D-01
      9  0.243462D-01 -0.343874D-01 -0.220395D-01  0.707765D-01
     10 -0.278633D-01 -0.259308D-01 -0.278633D-01 -0.259308D-01  0.841410D-01
     11 -0.103977D-01  0.142214D-01 -0.103977D-01  0.142214D-01  0.540869D-02
     12 -0.909251D-02  0.664977D-02 -0.909251D-02  0.664977D-02 -0.304180D-02
     13 -0.138099D-01 -0.469542D-03  0.471737D-02  0.711931D-02 -0.152090D-02
     14 -0.471737D-02 -0.711931D-02  0.138099D-01  0.469542D-03  0.152090D-02
               11            12            13            14 
     11  0.287249D-01
     12  0.142711D-02  0.178532D-01
     13  0.713557D-03  0.892658D-02  0.181325D-01
     14 -0.713557D-03 -0.892658D-02  0.920589D-02  0.181325D-01
 Leave Link  716 at Sun Aug 18 00:43:07 2024, MaxMem=   13107200 cpu:       0.0
 (Enter /programs/64bit/g09/g09-gfortran/bin/l103.exe)

 GradGradGradGradGradGradGradGradGradGradGradGradGradGradGradGradGradGrad
 Berny optimization.
 Internal  Forces:  Max     0.000004380 RMS     0.000002341
 Search for a local minimum.
 Step number   1 out of a maximum of    2
 All quantities printed in internal units (Hartrees-Bohrs-Radians)
 Second derivative matrix not updated -- analytic derivatives used.
 The second derivative matrix:
                          R1        R2        R3        R4        A1
           R1           0.34585
           R2           0.00181   0.34585
           R3           0.00181   0.00181   0.34585
           R4           0.00181   0.00181   0.00181   0.34585
           A1           0.00194   0.00194  -0.00122  -0.00266   0.01924
           A2           0.00303  -0.00078   0.00338  -0.00563  -0.00858
           A3           0.00593  -0.00476  -0.00527   0.00410  -0.01277
           A4          -0.00078   0.00303   0.00338  -0.00563  -0.00858
           A5          -0.00476   0.00593  -0.00527   0.00410  -0.01277
           A6          -0.00536  -0.00536   0.00500   0.00572   0.02345
           D1          -0.00375  -0.00375  -0.00265   0.01015  -0.01306
           D2           0.00309   0.00309  -0.00794   0.00176   0.00793
           D3          -0.00407   0.00715  -0.00397   0.00088   0.00396
           D4          -0.00715   0.00407   0.00397  -0.00088  -0.00396
                          A2        A3        A4        A5        A6
           A2           0.03623
           A3          -0.02204   0.07078
           A4          -0.00209   0.02435   0.03623
           A5           0.02435  -0.03439  -0.02204   0.07078
           A6          -0.02786  -0.02593  -0.02786  -0.02593   0.08414
           D1          -0.01040   0.01422  -0.01040   0.01422   0.00541
           D2          -0.00909   0.00665  -0.00909   0.00665  -0.00304
           D3          -0.01381  -0.00047   0.00472   0.00712  -0.00152
           D4          -0.00472  -0.00712   0.01381   0.00047   0.00152
                          D1        D2        D3        D4
           D1           0.02872
           D2           0.00143   0.01785
           D3           0.00071   0.00893   0.01813
           D4          -0.00071  -0.00893   0.00921   0.01813
     Eigenvalues ---    0.03660   0.04123   0.06258   0.12812   0.12868
     Eigenvalues ---    0.34494   0.34495   0.34523   0.351281000.00000
     Eigenvalues --- 1000.000001000.000001000.000001000.00000
 Angle between quadratic step and forces=   0.00 degrees.
 Linear search not attempted -- first point.
 Iteration  1 RMS(Cart)=  0.00000667 RMS(Int)=  0.00000000
 Iteration  2 RMS(Cart)=  0.00000000 RMS(Int)=  0.00000000
 ClnCor:  largest displacement from symmetrization is 1.41D-13 for atom     3.
 Variable       Old X    -DE/DX   Delta X   Delta X   Delta X     New X
                                 (Linear)    (Quad)   (Total)
    R1        2.05771   0.00000   0.00000   0.00001   0.00001   2.05772
    R2        2.05771   0.00000   0.00000   0.00001   0.00001   2.05772
    R3        2.05771   0.00000   0.00000   0.00001   0.00001   2.05772
    R4        2.05771   0.00000   0.00000   0.00001   0.00001   2.05772
    A1        1.91063   0.00000   0.00000   0.00000   0.00000   1.91063
    A2        1.91063  -0.00000   0.00000   0.00000   0.00000   1.91063
    A3        1.91063  -0.00000   0.00000  -0.00000   0.00000   1.91063
    A4        1.91063  -0.00000   0.00000  -0.00000  -0.00000   1.91063
    A5        1.91063  -0.00000   0.00000  -0.00000   0.00000   1.91063
    A6        1.91063   0.00000   0.00000   0.00000   0.00000   1.91063
    D1       -2.09440  -0.00000   0.00000  -0.00000   0.00000  -2.09440
    D2        2.09440   0.00000   0.00000   0.00000   0.00000   2.09440
    D3       -2.09440   0.00000   0.00000  -0.00000  -0.00000  -2.09440
    D4        2.09440  -0.00000   0.00000  -0.00000   0.00000   2.09440
         Item               Value     Threshold  Converged?
 Maximum Force            0.000004     0.000450     YES
 RMS     Force            0.000002     0.000300     YES
 Maximum Displacement     0.000012     0.001800     YES
 RMS     Displacement     0.000007     0.001200     YES
 Predicted change in Energy=-1.092412D-10
 Optimization completed.
    -- Stationary point found.
                           ----------------------------
                           !   Optimized Parameters   !
                           ! (Angstroms and Degrees)  !
 --------------------------                            --------------------------
 ! Name  Definition              Value          Derivative Info.                !
 --------------------------------------------------------------------------------
 ! R1    R(1,2)                  1.0889         -DE/DX =    0.0                 !
 ! R2    R(1,3)                  1.0889         -DE/DX =    0.0                 !
 ! R3    R(1,4)                  1.0889         -DE/DX =    0.0                 !
 ! R4    R(1,5)                  1.0889         -DE/DX =    0.0                 !
 ! A1    A(2,1,3)              109.4712         -DE/DX =    0.0                 !
 ! A2    A(2,1,4)              109.4712         -DE/DX =    0.0                 !
 ! A3    A(2,1,5)              109.4712         -DE/DX =    0.0                 !
 ! A4    A(3,1,4)              109.4712         -DE/DX =    0.0                 !
 ! A5    A(3,1,5)              109.4712         -DE/DX =    0.0                 !
 ! A6    A(4,1,5)              109.4712         -DE/DX =    0.0                 !
 ! D1    D(2,1,4,3)           -120.0            -DE/DX =    0.0                 !
 ! D2    D(2,1,5,3)            120.0            -DE/DX =    0.0                 !
 ! D3    D(2,1,5,4)           -120.0            -DE/DX =    0.0                 !
 ! D4    D(3,1,5,4)            120.0            -DE/DX =    0.0                 !
 --------------------------------------------------------------------------------
 GradGradGradGradGradGradGradGradGradGradGradGradGradGradGradGradGradGrad

 Leave Link  103 at Sun Aug 18 00:43:07 2024, MaxMem=   13107200 cpu:       0.0
 (Enter /programs/64bit/g09/g09-gfortran/bin/l9999.exe)
 1\1\GINC-MOLMOD\Freq\RB3PW91\CC-pVTZ\C1H4\OSPITE\18-Aug-2024\0\\#P Geo
 m=AllCheck Guess=TCheck SCRF=Check GenChk RB3PW91/CC-pVTZ Freq\\methan
 e with imposed symmetry Td and cc-pVTZ basis set\\0,1\C,0.,0.,0.\H,0.,
 0.,1.0888919674\H,1.0266171921,0.,-0.3629639891\H,-0.5133085961,-0.889
 0765684,-0.3629639891\H,-0.5133085961,0.8890765684,-0.3629639891\\Vers
 ion=EM64L-G09RevA.02\State=1-A1\HF=-40.5212849\RMSD=2.119e-10\RMSF=2.2
 62e-06\ZeroPoint=0.0446199\Thermal=0.0474901\Dipole=0.,0.,0.\DipoleDer
 iv=-0.0088043,0.,0.,0.,-0.0088043,0.,0.,0.,-0.0088043,0.069567,0.,0.,0
 .,0.069567,0.,0.,0.,-0.1325308,-0.1100755,0.,0.0635132,0.,0.069567,0.,
 0.0635132,0.,0.0471117,0.0246564,-0.0777875,-0.0317566,-0.0777875,-0.0
 651649,-0.0550041,-0.0317566,-0.0550041,0.0471117,0.0246564,0.0777875,
 -0.0317566,0.0777875,-0.0651649,0.0550041,-0.0317566,0.0550041,0.04711
 17\Polar=15.1867373,0.,15.1867373,0.,0.,15.1867373\PG=TD [O(C1),4C3(H1
 )]\NImag=0\\0.54482185,0.,0.54482185,0.,0.,0.54482185,-0.04435918,0.,0
 .,0.04424177,0.,-0.04435918,0.,0.,0.04424177,0.,0.,-0.31989802,0.,0.,0
 .34584743,-0.28928259,0.,0.08659350,0.00195657,0.,-0.00113764,0.312335
 69,0.,-0.04435918,0.,0.,-0.00187830,0.,0.,0.04424177,0.08659350,0.,-0.
 07497461,0.03113700,0.,-0.00864980,-0.09478551,0.,0.07775351,-0.105590
 04,-0.10605495,-0.04329675,-0.00091958,0.00166055,0.00056882,-0.012504
 83,-0.02486974,-0.01147250,0.11126525,-0.10605495,-0.22805174,-0.07499
 217,0.00166055,0.00099786,0.00098523,0.00148240,0.00099786,0.00123717,
 0.11608807,0.24531221,-0.04329675,-0.07499217,-0.07497461,-0.01556850,
 -0.02696544,-0.00864980,0.00466483,0.01055406,0.00293545,0.04739276,0.
 08208666,0.07775351,-0.10559004,0.10605495,-0.04329675,-0.00091958,-0.
 00166055,0.00056882,-0.01250483,0.02486974,-0.01147250,0.00774920,-0.0
 1317607,0.00680767,0.11126525,0.10605495,-0.22805174,0.07499217,-0.001
 66055,0.00099786,-0.00098523,-0.00148240,0.00099786,-0.00123717,0.0131
 7607,-0.01925618,0.00931689,-0.11608807,0.24531221,-0.04329675,0.07499
 217,-0.07497461,-0.01556850,0.02696544,-0.00864980,0.00466483,-0.01055
 406,0.00293545,0.00680767,-0.00931689,0.00293545,0.04739276,-0.0820866
 6,0.07775351\\0.,0.,0.,0.,0.,-0.00000438,-0.00000413,0.,0.00000146,0.0
 0000206,0.00000358,0.00000146,0.00000206,-0.00000358,0.00000146\\\@


 BLACK HOLES SUCK.
 Job cpu time:  0 days  0 hours  1 minutes 29.7 seconds.
 File lengths (MBytes):  RWF=      9 Int=      0 D2E=      0 Chk=      2 Scr=      1
 Normal termination of Gaussian 09 at Sun Aug 18 00:43:07 2024.
