 Entering Gaussian System, Link 0=/g100_work/pMI24_ChiCa/g09d1/g09d01/d01/build-node-6-2-59348/src/main/g09
 Input=geom.com
 Output=geom.log
 Initial command:
 /g100_work/pMI24_ChiCa/g09d1/g09d01/d01/build-node-6-2-59348/src/main/l1.exe "/g100_scratch/userexternal/ecabiati/g16_14313410/Gau-56254.inp" -scrdir="/g100_scratch/userexternal/ecabiati/g16_14313410/"
 Entering Link 1 = /g100_work/pMI24_ChiCa/g09d1/g09d01/d01/build-node-6-2-59348/src/main/l1.exe PID=     56255.
  
 Copyright (c) 1988,1990,1992,1993,1995,1998,2003,2009,2013,
            Gaussian, Inc.  All Rights Reserved.
  
 This is part of the Gaussian(R) 09 program.  It is based on
 the Gaussian(R) 03 system (copyright 2003, Gaussian, Inc.),
 the Gaussian(R) 98 system (copyright 1998, Gaussian, Inc.),
 the Gaussian(R) 94 system (copyright 1995, Gaussian, Inc.),
 the Gaussian 92(TM) system (copyright 1992, Gaussian, Inc.),
 the Gaussian 90(TM) system (copyright 1990, Gaussian, Inc.),
 the Gaussian 88(TM) system (copyright 1988, Gaussian, Inc.),
 the Gaussian 86(TM) system (copyright 1986, Carnegie Mellon
 University), and the Gaussian 82(TM) system (copyright 1983,
 Carnegie Mellon University). Gaussian is a federally registered
 trademark of Gaussian, Inc.
  
 This software contains proprietary and confidential information,
 including trade secrets, belonging to Gaussian, Inc.
  
 This software is provided under written license and may be
 used, copied, transmitted, or stored only in accord with that
 written license.
  
 The following legend is applicable only to US Government
 contracts under FAR:
  
                    RESTRICTED RIGHTS LEGEND
  
 Use, reproduction and disclosure by the US Government is
 subject to restrictions as set forth in subparagraphs (a)
 and (c) of the Commercial Computer Software - Restricted
 Rights clause in FAR 52.227-19.
  
 Gaussian, Inc.
 340 Quinnipiac St., Bldg. 40, Wallingford CT 06492
  
  
 ---------------------------------------------------------------
 Warning -- This program may not be used in any manner that
 competes with the business of Gaussian, Inc. or will provide
 assistance to any competitor of Gaussian, Inc.  The licensee
 of this program is prohibited from giving any competitor of
 Gaussian, Inc. access to this program.  By using this program,
 the user acknowledges that Gaussian, Inc. is engaged in the
 business of creating and licensing software in the field of
 computational chemistry and represents and warrants to the
 licensee that it is not a competitor of Gaussian, Inc. and that
 it will not use this program in any manner prohibited above.
 ---------------------------------------------------------------
  

 Cite this work as:
 Gaussian 09, Revision D.01,
 M. J. Frisch, G. W. Trucks, H. B. Schlegel, G. E. Scuseria, 
 M. A. Robb, J. R. Cheeseman, G. Scalmani, V. Barone, B. Mennucci, 
 G. A. Petersson, H. Nakatsuji, M. Caricato, X. Li, H. P. Hratchian, 
 A. F. Izmaylov, J. Bloino, G. Zheng, J. L. Sonnenberg, M. Hada, 
 M. Ehara, K. Toyota, R. Fukuda, J. Hasegawa, M. Ishida, T. Nakajima, 
 Y. Honda, O. Kitao, H. Nakai, T. Vreven, J. A. Montgomery, Jr., 
 J. E. Peralta, F. Ogliaro, M. Bearpark, J. J. Heyd, E. Brothers, 
 K. N. Kudin, V. N. Staroverov, T. Keith, R. Kobayashi, J. Normand, 
 K. Raghavachari, A. Rendell, J. C. Burant, S. S. Iyengar, J. Tomasi, 
 M. Cossi, N. Rega, J. M. Millam, M. Klene, J. E. Knox, J. B. Cross, 
 V. Bakken, C. Adamo, J. Jaramillo, R. Gomperts, R. E. Stratmann, 
 O. Yazyev, A. J. Austin, R. Cammi, C. Pomelli, J. W. Ochterski, 
 R. L. Martin, K. Morokuma, V. G. Zakrzewski, G. A. Voth, 
 P. Salvador, J. J. Dannenberg, S. Dapprich, A. D. Daniels, 
 O. Farkas, J. B. Foresman, J. V. Ortiz, J. Cioslowski, 
 and D. J. Fox, Gaussian, Inc., Wallingford CT, 2013.
 
 ******************************************
 Gaussian 09:  EM64L-G09RevD.01 24-Apr-2013
                 1-Sep-2024 
 ******************************************
 %nproc=24
 Will use up to   24 processors via shared memory.
 %mem=2Gb
 %chk=acetic_acid_nmr.chk
 -----------------------------
 #p B3LYP/6-31+g(d,p) nmr=giao
 -----------------------------
 1/38=1/1;
 2/12=2,17=6,18=5,40=1/2;
 3/5=1,6=6,7=111,11=2,16=1,25=1,30=1,74=-5/1,2,8,3;
 4//1;
 5/5=2,38=5/2;
 8/6=1,10=90,11=11/1;
 10/13=100,45=16/2;
 6/7=2,8=2,9=2,10=2,28=1/1;
 99/9=1/99;
 Leave Link    1 at Sun Sep  1 14:00:11 2024, MaxMem=   268435456 cpu:         0.2
 (Enter /g100_work/pMI24_ChiCa/g09d1/g09d01/d01/build-node-6-2-59348/src/main/l101.exe)
 ---------------
 acetic acid opt
 ---------------
 Symbolic Z-matrix:
 Charge =  0 Multiplicity = 1
 c
 c                    1    cc2
 h                    2    hc3      1    hcc3
 h                    2    hc4      1    hcc4     3    dih4     0
 h                    2    hc5      1    hcc5     3    dih5     0
 o                    1    oc6      2    occ6     3    dih6     0
 o                    1    oc7      6    oco7     2    dih7     0
 h                    7    ho8      1    hoc8     6    dih8     0
       Variables:
  cc2                   1.5                      
  hc3                   1.07                     
  hcc3                109.471                    
  hc4                   1.07                     
  hcc4                109.471                    
  dih4                120.                       
  hc5                   1.07                     
  hcc5                109.471                    
  dih5               -120.                       
  oc6                   1.22                     
  occ6                120.                       
  dih6                180.                       
  oc7                   1.38                     
  oco7                120.                       
  dih7                180.                       
  ho8                   0.947                    
  hoc8                109.471                    
  dih8                180.                       
 
     4 tetrahedral angles replaced.
 NAtoms=      8 NQM=        8 NQMF=       0 NMMI=      0 NMMIF=      0
                NMic=       0 NMicF=      0.
    4 tetrahedral angles replaced.
                    Isotopes and Nuclear Properties:
 (Nuclear quadrupole moments (NQMom) in fm**2, nuclear magnetic moments (NMagM)
  in nuclear magnetons)

  Atom         1           2           3           4           5           6           7           8
 IAtWgt=          12          12           1           1           1          16          16           1
 AtmWgt=  12.0000000  12.0000000   1.0078250   1.0078250   1.0078250  15.9949146  15.9949146   1.0078250
 NucSpn=           0           0           1           1           1           0           0           1
 AtZEff=   0.0000000   0.0000000   0.0000000   0.0000000   0.0000000   0.0000000   0.0000000   0.0000000
 NQMom=    0.0000000   0.0000000   0.0000000   0.0000000   0.0000000   0.0000000   0.0000000   0.0000000
 NMagM=    0.0000000   0.0000000   2.7928460   2.7928460   2.7928460   0.0000000   0.0000000   2.7928460
 AtZNuc=   6.0000000   6.0000000   1.0000000   1.0000000   1.0000000   8.0000000   8.0000000   1.0000000
 Leave Link  101 at Sun Sep  1 14:00:11 2024, MaxMem=   268435456 cpu:         0.2
 (Enter /g100_work/pMI24_ChiCa/g09d1/g09d01/d01/build-node-6-2-59348/src/main/l202.exe)
                          Input orientation:                          
 ---------------------------------------------------------------------
 Center     Atomic      Atomic             Coordinates (Angstroms)
 Number     Number       Type             X           Y           Z
 ---------------------------------------------------------------------
      1          6           0        0.000000    0.000000    0.000000
      2          6           0        0.000000    0.000000    1.500000
      3          1           0        1.008806    0.000000    1.856667
      4          1           0       -0.504403    0.873651    1.856667
      5          1           0       -0.504403   -0.873651    1.856667
      6          8           0       -1.056551    0.000000   -0.610000
      7          8           0        1.195115    0.000000   -0.690000
      8          1           0        1.914910    0.000000   -0.074611
 ---------------------------------------------------------------------
                    Distance matrix (angstroms):
                    1          2          3          4          5
     1  C    0.000000
     2  C    1.500000   0.000000
     3  H    2.113031   1.070000   0.000000
     4  H    2.113031   1.070000   1.747303   0.000000
     5  H    2.113031   1.070000   1.747303   1.747303   0.000000
     6  O    1.220000   2.359746   3.217164   2.674431   2.674431
     7  O    1.380000   2.494875   2.553473   3.183887   3.183887
     8  H    1.916363   2.479170   2.133274   3.216547   3.216547
                    6          7          8
     6  O    0.000000
     7  O    2.253087   0.000000
     8  H    3.019309   0.947000   0.000000
 Stoichiometry    C2H4O2
 Framework group  CS[SG(C2H2O2),X(H2)]
 Deg. of freedom    12
 Full point group                 CS      NOp   2
 Largest Abelian subgroup         CS      NOp   2
 Largest concise Abelian subgroup CS      NOp   2
                         Standard orientation:                         
 ---------------------------------------------------------------------
 Center     Atomic      Atomic             Coordinates (Angstroms)
 Number     Number       Type             X           Y           Z
 ---------------------------------------------------------------------
      1          6           0        0.000000    0.159078    0.000000
      2          6           0       -0.890900   -1.047693    0.000000
      3          1           0       -0.291137   -1.933800   -0.000000
      4          1           0       -1.508535   -1.035055    0.873651
      5          1           0       -1.508535   -1.035055   -0.873651
      6          8           0       -0.487711    1.277353    0.000000
      7          8           0        1.371301    0.004375   -0.000000
      8          1           0        1.584887   -0.918225   -0.000000
 ---------------------------------------------------------------------
 Rotational constants (GHZ):     11.0692602      9.3695083      5.2361217
 Leave Link  202 at Sun Sep  1 14:00:11 2024, MaxMem=   268435456 cpu:         0.2
 (Enter /g100_work/pMI24_ChiCa/g09d1/g09d01/d01/build-node-6-2-59348/src/main/l301.exe)
 Standard basis: 6-31+G(d,p) (6D, 7F)
 Ernie: Thresh=  0.10000D-02 Tol=  0.10000D-05 Strict=F.
 There are    69 symmetry adapted cartesian basis functions of A'  symmetry.
 There are    27 symmetry adapted cartesian basis functions of A"  symmetry.
 There are    69 symmetry adapted basis functions of A'  symmetry.
 There are    27 symmetry adapted basis functions of A"  symmetry.
    96 basis functions,   156 primitive gaussians,    96 cartesian basis functions
    16 alpha electrons       16 beta electrons
       nuclear repulsion energy       120.4076146111 Hartrees.
 IExCor=  402 DFT=T Ex+Corr=B3LYP ExCW=0 ScaHFX=  0.200000
 ScaDFX=  0.800000  0.720000  1.000000  0.810000 ScalE2=  1.000000  1.000000
 IRadAn=      0 IRanWt=     -1 IRanGd=            0 ICorTp=0 IEmpDi=  4
 NAtoms=    8 NActive=    8 NUniq=    7 SFac= 1.31D+00 NAtFMM=   60 NAOKFM=F Big=F
 Integral buffers will be    131072 words long.
 Raffenetti 2 integral format.
 Two-electron integral symmetry is turned on.
 Leave Link  301 at Sun Sep  1 14:00:11 2024, MaxMem=   268435456 cpu:         0.1
 (Enter /g100_work/pMI24_ChiCa/g09d1/g09d01/d01/build-node-6-2-59348/src/main/l302.exe)
 NPDir=0 NMtPBC=     1 NCelOv=     1 NCel=       1 NClECP=     1 NCelD=      1
         NCelK=      1 NCelE2=     1 NClLst=     1 CellRange=     0.0.
 One-electron integrals computed using PRISM.
 One-electron integral symmetry used in STVInt
 NBasis=    96 RedAO= T EigKep=  2.83D-04  NBF=    69    27
 NBsUse=    96 1.00D-06 EigRej= -1.00D+00 NBFU=    69    27
 Precomputing XC quadrature grid using
 IXCGrd= 4 IRadAn=           0 IRanWt=          -1 IRanGd=           0 AccXCQ= 0.00D+00.
 Generated NRdTot=       0 NPtTot=           0 NUsed=           0 NTot=          32
 NSgBfM=    96    96    96    96    96 MxSgAt=     8 MxSgA2=     8.
 Leave Link  302 at Sun Sep  1 14:00:11 2024, MaxMem=   268435456 cpu:         1.4
 (Enter /g100_work/pMI24_ChiCa/g09d1/g09d01/d01/build-node-6-2-59348/src/main/l308.exe)
 Leave Link  308 at Sun Sep  1 14:00:12 2024, MaxMem=   268435456 cpu:         0.2
 (Enter /g100_work/pMI24_ChiCa/g09d1/g09d01/d01/build-node-6-2-59348/src/main/l303.exe)
 DipDrv:  MaxL=1.
 Leave Link  303 at Sun Sep  1 14:00:12 2024, MaxMem=   268435456 cpu:         0.2
 (Enter /g100_work/pMI24_ChiCa/g09d1/g09d01/d01/build-node-6-2-59348/src/main/l401.exe)
 ExpMin= 4.38D-02 ExpMax= 5.48D+03 ExpMxC= 8.25D+02 IAcc=2 IRadAn=         4 AccDes= 0.00D+00
 Harris functional with IExCor=  402 and IRadAn=       4 diagonalized for initial guess.
 HarFok:  IExCor=  402 AccDes= 0.00D+00 IRadAn=         4 IDoV= 1 UseB2=F ITyADJ=14
 ICtDFT=  3500011 ScaDFX=  1.000000  1.000000  1.000000  1.000000
 FoFCou: FMM=F IPFlag=           0 FMFlag=      100000 FMFlg1=           0
         NFxFlg=           0 DoJE=T BraDBF=F KetDBF=T FulRan=T
         wScrn=  0.000000 ICntrl=     500 IOpCl=  0 I1Cent=   200000004 NGrid=           0
         NMat0=    1 NMatS0=      1 NMatT0=    0 NMatD0=    1 NMtDS0=    0 NMtDT0=    0
 Petite list used in FoFCou.
 Harris En= -229.134228859582    
 JPrj=0 DoOrth=F DoCkMO=F.
 Initial guess orbital symmetries:
       Occupied  (A') (A') (A') (A') (A') (A') (A') (A') (A') (A')
                 (A") (A') (A") (A') (A") (A')
       Virtual   (A") (A') (A') (A') (A") (A') (A') (A") (A') (A')
                 (A") (A') (A') (A') (A") (A') (A') (A') (A') (A")
                 (A') (A') (A') (A') (A') (A") (A') (A") (A') (A')
                 (A") (A') (A') (A') (A') (A") (A') (A") (A') (A')
                 (A") (A') (A') (A") (A') (A') (A") (A") (A') (A')
                 (A') (A") (A') (A") (A') (A") (A') (A") (A') (A')
                 (A') (A") (A') (A") (A') (A') (A") (A') (A") (A')
                 (A') (A') (A') (A") (A') (A') (A') (A') (A') (A')
 The electronic state of the initial guess is 1-A'.
 Leave Link  401 at Sun Sep  1 14:00:12 2024, MaxMem=   268435456 cpu:         1.5
 (Enter /g100_work/pMI24_ChiCa/g09d1/g09d01/d01/build-node-6-2-59348/src/main/l502.exe)
 Closed shell SCF:
 Using DIIS extrapolation, IDIIS=  1040.
 Integral symmetry usage will be decided dynamically.
 Keep R1 ints in memory in symmetry-blocked form, NReq=16539583.
 IVT=       49354 IEndB=       49354 NGot=   268435456 MDV=   262737466
 LenX=   262737466 LenY=   262727809
 Requested convergence on RMS density matrix=1.00D-08 within 128 cycles.
 Requested convergence on MAX density matrix=1.00D-06.
 Requested convergence on             energy=1.00D-06.
 No special actions if energy rises.
 FoFCou: FMM=F IPFlag=           0 FMFlag=           0 FMFlg1=           0
         NFxFlg=           0 DoJE=F BraDBF=F KetDBF=F FulRan=T
         wScrn=  0.000000 ICntrl=     600 IOpCl=  0 I1Cent=           0 NGrid=           0
         NMat0=    1 NMatS0=   4656 NMatT0=    0 NMatD0=    1 NMtDS0=    0 NMtDT0=    0
 Petite list used in FoFCou.

 Cycle   1  Pass 1  IDiag  1:
 E= -228.932923779682    
 DIIS: error= 3.55D-02 at cycle   1 NSaved=   1.
 NSaved= 1 IEnMin= 1 EnMin= -228.932923779682     IErMin= 1 ErrMin= 3.55D-02
 ErrMax= 3.55D-02  0.00D+00 EMaxC= 1.00D-01 BMatC= 1.91D-01 BMatP= 1.91D-01
 IDIUse=3 WtCom= 6.45D-01 WtEn= 3.55D-01
 Coeff-Com:  0.100D+01
 Coeff-En:   0.100D+01
 Coeff:      0.100D+01
 Gap=     0.116 Goal=   None    Shift=    0.000
 GapD=    0.116 DampG=1.000 DampE=0.500 DampFc=0.5000 IDamp=-1.
 Damping current iteration by 5.00D-01
 RMSDP=1.12D-02 MaxDP=2.19D-01              OVMax= 3.02D-01

 Cycle   2  Pass 1  IDiag  1:
 E= -228.960372270742     Delta-E=       -0.027448491060 Rises=F Damp=T
 DIIS: error= 1.55D-02 at cycle   2 NSaved=   2.
 NSaved= 2 IEnMin= 2 EnMin= -228.960372270742     IErMin= 2 ErrMin= 1.55D-02
 ErrMax= 1.55D-02  0.00D+00 EMaxC= 1.00D-01 BMatC= 3.81D-02 BMatP= 1.91D-01
 IDIUse=3 WtCom= 8.45D-01 WtEn= 1.55D-01
 Coeff-Com:  0.270D+00 0.730D+00
 Coeff-En:   0.419D+00 0.581D+00
 Coeff:      0.293D+00 0.707D+00
 Gap=     0.276 Goal=   None    Shift=    0.000
 RMSDP=3.27D-03 MaxDP=5.88D-02 DE=-2.74D-02 OVMax= 2.10D-01

 Cycle   3  Pass 1  IDiag  1:
 E= -229.067727688375     Delta-E=       -0.107355417633 Rises=F Damp=F
 DIIS: error= 1.63D-02 at cycle   3 NSaved=   3.
 NSaved= 3 IEnMin= 3 EnMin= -229.067727688375     IErMin= 2 ErrMin= 1.55D-02
 ErrMax= 1.63D-02  0.00D+00 EMaxC= 1.00D-01 BMatC= 2.86D-02 BMatP= 3.81D-02
 IDIUse=3 WtCom= 8.37D-01 WtEn= 1.63D-01
 Coeff-Com:  0.131D+00 0.462D+00 0.407D+00
 Coeff-En:   0.000D+00 0.000D+00 0.100D+01
 Coeff:      0.110D+00 0.387D+00 0.504D+00
 Gap=     0.265 Goal=   None    Shift=    0.000
 RMSDP=1.90D-03 MaxDP=4.44D-02 DE=-1.07D-01 OVMax= 8.36D-02

 Cycle   4  Pass 1  IDiag  1:
 E= -229.087401967025     Delta-E=       -0.019674278650 Rises=F Damp=F
 DIIS: error= 8.24D-03 at cycle   4 NSaved=   4.
 NSaved= 4 IEnMin= 4 EnMin= -229.087401967025     IErMin= 4 ErrMin= 8.24D-03
 ErrMax= 8.24D-03  0.00D+00 EMaxC= 1.00D-01 BMatC= 5.63D-03 BMatP= 2.86D-02
 IDIUse=3 WtCom= 9.18D-01 WtEn= 8.24D-02
 Coeff-Com:  0.304D-01 0.821D-01 0.308D+00 0.580D+00
 Coeff-En:   0.000D+00 0.000D+00 0.181D+00 0.819D+00
 Coeff:      0.279D-01 0.753D-01 0.297D+00 0.599D+00
 Gap=     0.270 Goal=   None    Shift=    0.000
 RMSDP=6.82D-04 MaxDP=1.61D-02 DE=-1.97D-02 OVMax= 2.96D-02

 Cycle   5  Pass 1  IDiag  1:
 E= -229.091255745626     Delta-E=       -0.003853778601 Rises=F Damp=F
 DIIS: error= 1.92D-03 at cycle   5 NSaved=   5.
 NSaved= 5 IEnMin= 5 EnMin= -229.091255745626     IErMin= 5 ErrMin= 1.92D-03
 ErrMax= 1.92D-03  0.00D+00 EMaxC= 1.00D-01 BMatC= 4.58D-04 BMatP= 5.63D-03
 IDIUse=3 WtCom= 9.81D-01 WtEn= 1.92D-02
 Coeff-Com:  0.354D-02-0.422D-02 0.136D+00 0.380D+00 0.484D+00
 Coeff-En:   0.000D+00 0.000D+00 0.000D+00 0.253D-01 0.975D+00
 Coeff:      0.347D-02-0.414D-02 0.134D+00 0.373D+00 0.494D+00
 Gap=     0.269 Goal=   None    Shift=    0.000
 RMSDP=1.86D-04 MaxDP=4.58D-03 DE=-3.85D-03 OVMax= 6.09D-03

 Cycle   6  Pass 1  IDiag  1:
 E= -229.091619855977     Delta-E=       -0.000364110351 Rises=F Damp=F
 DIIS: error= 2.53D-04 at cycle   6 NSaved=   6.
 NSaved= 6 IEnMin= 6 EnMin= -229.091619855977     IErMin= 6 ErrMin= 2.53D-04
 ErrMax= 2.53D-04  0.00D+00 EMaxC= 1.00D-01 BMatC= 6.04D-06 BMatP= 4.58D-04
 IDIUse=3 WtCom= 9.97D-01 WtEn= 2.53D-03
 Coeff-Com:  0.385D-03-0.422D-02 0.247D-01 0.647D-01 0.146D+00 0.768D+00
 Coeff-En:   0.000D+00 0.000D+00 0.000D+00 0.000D+00 0.000D+00 0.100D+01
 Coeff:      0.384D-03-0.421D-02 0.246D-01 0.645D-01 0.146D+00 0.769D+00
 Gap=     0.270 Goal=   None    Shift=    0.000
 RMSDP=2.44D-05 MaxDP=3.91D-04 DE=-3.64D-04 OVMax= 6.47D-04

 Cycle   7  Pass 1  IDiag  1:
 E= -229.091624595441     Delta-E=       -0.000004739464 Rises=F Damp=F
 DIIS: error= 3.31D-05 at cycle   7 NSaved=   7.
 NSaved= 7 IEnMin= 7 EnMin= -229.091624595441     IErMin= 7 ErrMin= 3.31D-05
 ErrMax= 3.31D-05  0.00D+00 EMaxC= 1.00D-01 BMatC= 1.73D-07 BMatP= 6.04D-06
 IDIUse=1 WtCom= 1.00D+00 WtEn= 0.00D+00
 Coeff-Com:  0.157D-03-0.152D-02 0.582D-02 0.129D-01 0.427D-01 0.288D+00
 Coeff-Com:  0.652D+00
 Coeff:      0.157D-03-0.152D-02 0.582D-02 0.129D-01 0.427D-01 0.288D+00
 Coeff:      0.652D+00
 Gap=     0.270 Goal=   None    Shift=    0.000
 RMSDP=5.87D-06 MaxDP=9.82D-05 DE=-4.74D-06 OVMax= 1.41D-04

 Cycle   8  Pass 1  IDiag  1:
 E= -229.091624742354     Delta-E=       -0.000000146913 Rises=F Damp=F
 DIIS: error= 1.02D-05 at cycle   8 NSaved=   8.
 NSaved= 8 IEnMin= 8 EnMin= -229.091624742354     IErMin= 8 ErrMin= 1.02D-05
 ErrMax= 1.02D-05  0.00D+00 EMaxC= 1.00D-01 BMatC= 1.33D-08 BMatP= 1.73D-07
 IDIUse=1 WtCom= 1.00D+00 WtEn= 0.00D+00
 Coeff-Com:  0.488D-04-0.115D-03-0.397D-03-0.210D-02-0.826D-03 0.683D-02
 Coeff-Com:  0.225D+00 0.772D+00
 Coeff:      0.488D-04-0.115D-03-0.397D-03-0.210D-02-0.826D-03 0.683D-02
 Coeff:      0.225D+00 0.772D+00
 Gap=     0.270 Goal=   None    Shift=    0.000
 RMSDP=1.45D-06 MaxDP=2.25D-05 DE=-1.47D-07 OVMax= 3.14D-05

 Cycle   9  Pass 1  IDiag  1:
 E= -229.091624754687     Delta-E=       -0.000000012333 Rises=F Damp=F
 DIIS: error= 8.23D-07 at cycle   9 NSaved=   9.
 NSaved= 9 IEnMin= 9 EnMin= -229.091624754687     IErMin= 9 ErrMin= 8.23D-07
 ErrMax= 8.23D-07  0.00D+00 EMaxC= 1.00D-01 BMatC= 1.08D-10 BMatP= 1.33D-08
 IDIUse=1 WtCom= 1.00D+00 WtEn= 0.00D+00
 Coeff-Com:  0.465D-05 0.763D-05-0.200D-03-0.662D-03-0.112D-02-0.607D-02
 Coeff-Com:  0.267D-01 0.147D+00 0.834D+00
 Coeff:      0.465D-05 0.763D-05-0.200D-03-0.662D-03-0.112D-02-0.607D-02
 Coeff:      0.267D-01 0.147D+00 0.834D+00
 Gap=     0.270 Goal=   None    Shift=    0.000
 RMSDP=2.22D-07 MaxDP=3.42D-06 DE=-1.23D-08 OVMax= 5.18D-06

 Cycle  10  Pass 1  IDiag  1:
 E= -229.091624754811     Delta-E=       -0.000000000124 Rises=F Damp=F
 DIIS: error= 1.57D-07 at cycle  10 NSaved=  10.
 NSaved=10 IEnMin=10 EnMin= -229.091624754811     IErMin=10 ErrMin= 1.57D-07
 ErrMax= 1.57D-07  0.00D+00 EMaxC= 1.00D-01 BMatC= 3.87D-12 BMatP= 1.08D-10
 IDIUse=1 WtCom= 1.00D+00 WtEn= 0.00D+00
 Coeff-Com: -0.146D-05 0.378D-05-0.116D-04-0.168D-04-0.134D-03-0.128D-02
 Coeff-Com: -0.376D-02-0.889D-02 0.109D+00 0.905D+00
 Coeff:     -0.146D-05 0.378D-05-0.116D-04-0.168D-04-0.134D-03-0.128D-02
 Coeff:     -0.376D-02-0.889D-02 0.109D+00 0.905D+00
 Gap=     0.270 Goal=   None    Shift=    0.000
 RMSDP=5.87D-08 MaxDP=1.61D-06 DE=-1.24D-10 OVMax= 9.28D-07

 Cycle  11  Pass 1  IDiag  1:
 E= -229.091624754810     Delta-E=        0.000000000000 Rises=F Damp=F
 DIIS: error= 5.13D-08 at cycle  11 NSaved=  11.
 NSaved=11 IEnMin=10 EnMin= -229.091624754811     IErMin=11 ErrMin= 5.13D-08
 ErrMax= 5.13D-08  0.00D+00 EMaxC= 1.00D-01 BMatC= 3.09D-13 BMatP= 3.87D-12
 IDIUse=1 WtCom= 1.00D+00 WtEn= 0.00D+00
 Coeff-Com: -0.252D-06 0.298D-06 0.366D-05 0.110D-04 0.335D-05-0.103D-03
 Coeff-Com: -0.140D-02-0.546D-02-0.368D-02 0.155D+00 0.855D+00
 Coeff:     -0.252D-06 0.298D-06 0.366D-05 0.110D-04 0.335D-05-0.103D-03
 Coeff:     -0.140D-02-0.546D-02-0.368D-02 0.155D+00 0.855D+00
 Gap=     0.270 Goal=   None    Shift=    0.000
 RMSDP=6.66D-09 MaxDP=9.78D-08 DE= 3.41D-13 OVMax= 1.87D-07

 SCF Done:  E(RB3LYP) =  -229.091624755     A.U. after   11 cycles
            NFock= 11  Conv=0.67D-08     -V/T= 2.0089
 KE= 2.270786998918D+02 PE=-7.772656322745D+02 EE= 2.006876930168D+02
 Leave Link  502 at Sun Sep  1 14:00:12 2024, MaxMem=   268435456 cpu:         9.3
 (Enter /g100_work/pMI24_ChiCa/g09d1/g09d01/d01/build-node-6-2-59348/src/main/l801.exe)
 DoSCS=F DFT=T ScalE2(SS,OS)=  1.000000  1.000000
 Range of M.O.s used for correlation:     1    96
 NBasis=    96 NAE=    16 NBE=    16 NFC=     0 NFV=     0
 NROrb=     96 NOA=    16 NOB=    16 NVA=    80 NVB=    80

 **** Warning!!: The largest alpha MO coefficient is  0.24863143D+02

 Leave Link  801 at Sun Sep  1 14:00:12 2024, MaxMem=   268435456 cpu:         0.1
 (Enter /g100_work/pMI24_ChiCa/g09d1/g09d01/d01/build-node-6-2-59348/src/main/l1002.exe)
 Minotr:  Closed shell wavefunction.
          Direct CPHF calculation.
          Differentiating once with respect to magnetic field using GIAOs.
          Electric field/nuclear overlap derivatives assumed to be zero.
          Using symmetry in CPHF.
          Requested convergence is 1.0D-08 RMS, and 1.0D-07 maximum.
          Secondary convergence is 1.0D-12 RMS, and 1.0D-12 maximum.
          NewPWx=T KeepS1=F KeepF1=F KeepIn=T MapXYZ=F SortEE=F KeepMc=T.
          MDV=     268435292 using IRadAn=       2.
 Generate precomputed XC quadrature information.
 Keep R3 ints in memory in symmetry-blocked form, NReq=16492948.
 FoFCou: FMM=F IPFlag=           0 FMFlag=           0 FMFlg1=           0
         NFxFlg=           0 DoJE=F BraDBF=F KetDBF=F FulRan=T
         wScrn=  0.000000 ICntrl=     600 IOpCl=  0 I1Cent=           0 NGrid=           0
         NMat0=    1 NMatS0=   4656 NMatT0=    0 NMatD0=    1 NMtDS0=    0 NMtDT0=    0
 Petite list used in FoFCou.
          Solving linear equations simultaneously, MaxMat=       0.
 FoFJK:  IHMeth= 1 ICntrl=    6127 DoSepK=F KAlg= 0 I1Cent=   0 FoldK=F
 IRaf=         1 NMat=   1 IRICut=       1 DoRegI=T DoRafI=F ISym2E= 0.
          There are     3 degrees of freedom in the 1st order CPHF.  IDoFFX=0 NUNeed=     3.
      3 vectors produced by pass  0 Test12= 4.27D-14 3.33D-08 XBig12= 1.90D+00 7.82D-01.
 AX will form     3 AO Fock derivatives at one time.
      3 vectors produced by pass  1 Test12= 4.27D-14 3.33D-08 XBig12= 9.46D-03 4.80D-02.
      3 vectors produced by pass  2 Test12= 4.27D-14 3.33D-08 XBig12= 3.33D-05 2.30D-03.
      3 vectors produced by pass  3 Test12= 4.27D-14 3.33D-08 XBig12= 6.80D-08 1.07D-04.
      3 vectors produced by pass  4 Test12= 4.27D-14 3.33D-08 XBig12= 1.49D-10 3.27D-06.
      3 vectors produced by pass  5 Test12= 4.27D-14 3.33D-08 XBig12= 2.63D-13 1.62D-07.
 InvSVY:  IOpt=1 It=  1 EMax= 2.22D-16
 Solved reduced A of dimension    18 with     3 vectors.
 Calculating GIAO nuclear magnetic shielding tensors.
 SCF GIAO Magnetic shielding tensor (ppm):
      1  C    Isotropic =    25.5289   Anisotropy =    86.5073
   XX=   -62.7237   YX=   -44.5182   ZX=     0.0000
   XY=   -23.2752   YY=    56.1101   ZY=    -0.0000
   XZ=     0.0000   YZ=    -0.0000   ZZ=    83.2005
   Eigenvalues:   -71.7127    65.0990    83.2005
      2  C    Isotropic =   174.0566   Anisotropy =    42.6069
   XX=   174.8848   YX=    16.3310   ZX=    -0.0000
   XY=    14.5571   YY=   193.8119   ZY=     0.0000
   XZ=    -0.0000   YZ=    -0.0000   ZZ=   153.4731
   Eigenvalues:   153.4731   166.2355   202.4612
      3  H    Isotropic =    31.1675   Anisotropy =     6.4485
   XX=    31.4929   YX=     0.5730   ZX=     0.0000
   XY=    -2.9986   YY=    35.0963   ZY=     0.0000
   XZ=     0.0000   YZ=     0.0000   ZZ=    26.9132
   Eigenvalues:    26.9132    31.1228    35.4665
      4  H    Isotropic =    29.9085   Anisotropy =     6.5524
   XX=    30.3522   YX=     0.0403   ZX=    -3.5014
   XY=     1.7660   YY=    28.6551   ZY=    -1.2945
   XZ=    -3.4751   YZ=    -0.2497   ZZ=    30.7182
   Eigenvalues:    27.0314    28.4173    34.2768
      5  H    Isotropic =    29.9085   Anisotropy =     6.5524
   XX=    30.3522   YX=     0.0403   ZX=     3.5014
   XY=     1.7660   YY=    28.6551   ZY=     1.2945
   XZ=     3.4751   YZ=     0.2497   ZZ=    30.7182
   Eigenvalues:    27.0314    28.4173    34.2768
      6  O    Isotropic =  -106.9534   Anisotropy =   599.6644
   XX=  -347.7935   YX=   114.7328   ZX=     0.0000
   XY=    90.0518   YY=  -265.8895   ZY=     0.0000
   XZ=    -0.0000   YZ=     0.0000   ZZ=   292.8229
   Eigenvalues:  -417.1196  -196.5635   292.8229
      7  O    Isotropic =   127.5378   Anisotropy =   190.4915
   XX=   247.0594   YX=    70.2819   ZX=     0.0000
   XY=    24.1142   YY=   -43.5718   ZY=    -0.0000
   XZ=     0.0000   YZ=    -0.0000   ZZ=   179.1258
   Eigenvalues:   -51.0445   179.1258   254.5321
      8  H    Isotropic =    26.1074   Anisotropy =     6.7017
   XX=    29.0912   YX=    -1.2954   ZX=    -0.0000
   XY=    -3.3037   YY=    27.0119   ZY=     0.0000
   XZ=     0.0000   YZ=    -0.0000   ZZ=    22.2191
   Eigenvalues:    22.2191    25.5279    30.5752
 End of Minotr F.D. properties file   721 does not exist.
 End of Minotr F.D. properties file   722 does not exist.
 End of Minotr F.D. properties file   788 does not exist.
 Leave Link 1002 at Sun Sep  1 14:00:13 2024, MaxMem=   268435456 cpu:        10.9
 (Enter /g100_work/pMI24_ChiCa/g09d1/g09d01/d01/build-node-6-2-59348/src/main/l601.exe)
 Copying SCF densities to generalized density rwf, IOpCl= 0 IROHF=0.

 **********************************************************************

            Population analysis using the SCF density.

 **********************************************************************

 Orbital symmetries:
       Occupied  (A') (A') (A') (A') (A') (A') (A') (A') (A') (A")
                 (A') (A') (A") (A') (A") (A')
       Virtual   (A') (A") (A') (A") (A') (A') (A') (A") (A') (A')
                 (A") (A') (A') (A') (A") (A') (A') (A") (A') (A')
                 (A') (A') (A') (A') (A") (A') (A') (A") (A') (A')
                 (A") (A') (A') (A') (A') (A') (A") (A") (A') (A")
                 (A') (A') (A') (A") (A') (A') (A") (A") (A') (A')
                 (A') (A") (A') (A") (A') (A") (A') (A") (A') (A')
                 (A') (A") (A') (A") (A') (A') (A") (A') (A") (A')
                 (A') (A') (A') (A') (A") (A') (A') (A') (A') (A')
 The electronic state is 1-A'.
 Alpha  occ. eigenvalues --  -19.21846 -19.15114 -10.33931 -10.21670  -1.11313
 Alpha  occ. eigenvalues --   -1.03136  -0.77745  -0.63327  -0.53125  -0.48513
 Alpha  occ. eigenvalues --   -0.48198  -0.43075  -0.41225  -0.39869  -0.33063
 Alpha  occ. eigenvalues --   -0.28555
 Alpha virt. eigenvalues --   -0.01585  -0.01530   0.02332   0.04384   0.04506
 Alpha virt. eigenvalues --    0.07114   0.07935   0.09013   0.11281   0.14102
 Alpha virt. eigenvalues --    0.16151   0.17401   0.19430   0.22016   0.22711
 Alpha virt. eigenvalues --    0.23561   0.27760   0.28830   0.29062   0.30326
 Alpha virt. eigenvalues --    0.32284   0.35254   0.36527   0.42611   0.61613
 Alpha virt. eigenvalues --    0.61632   0.65569   0.69196   0.75122   0.78740
 Alpha virt. eigenvalues --    0.89712   0.93280   0.96022   1.06773   1.08702
 Alpha virt. eigenvalues --    1.10360   1.12420   1.22817   1.23952   1.28550
 Alpha virt. eigenvalues --    1.29866   1.32500   1.36470   1.42653   1.48021
 Alpha virt. eigenvalues --    1.53138   1.55104   1.71014   1.72547   1.75678
 Alpha virt. eigenvalues --    1.81071   1.85863   1.92982   2.00667   2.01829
 Alpha virt. eigenvalues --    2.09185   2.13146   2.21174   2.23631   2.29141
 Alpha virt. eigenvalues --    2.44343   2.46579   2.47219   2.56740   2.66279
 Alpha virt. eigenvalues --    2.69919   2.70107   2.80927   2.88008   2.97075
 Alpha virt. eigenvalues --    3.06847   3.22758   3.29114   3.43177   3.43384
 Alpha virt. eigenvalues --    3.52255   4.18558   4.27081   4.34062   4.59049
          Condensed to atoms (all electrons):
               1          2          3          4          5          6
     1  C    4.853187   0.270692  -0.043153  -0.024048  -0.024048   0.462993
     2  C    0.270692   5.202456   0.376771   0.396560   0.396560  -0.137566
     3  H   -0.043153   0.376771   0.586722  -0.028904  -0.028904   0.009862
     4  H   -0.024048   0.396560  -0.028904   0.479632  -0.016940  -0.009153
     5  H   -0.024048   0.396560  -0.028904  -0.016940   0.479632  -0.009153
     6  O    0.462993  -0.137566   0.009862  -0.009153  -0.009153   8.208949
     7  O    0.073651  -0.087280  -0.000136   0.002512   0.002512  -0.108923
     8  H    0.039380  -0.013620   0.003589   0.000117   0.000117   0.010806
               7          8
     1  C    0.073651   0.039380
     2  C   -0.087280  -0.013620
     3  H   -0.000136   0.003589
     4  H    0.002512   0.000117
     5  H    0.002512   0.000117
     6  O   -0.108923   0.010806
     7  O    8.348489   0.187423
     8  H    0.187423   0.437501
 Mulliken charges:
               1
     1  C    0.391347
     2  C   -0.404571
     3  H    0.124153
     4  H    0.200224
     5  H    0.200224
     6  O   -0.427815
     7  O   -0.418248
     8  H    0.334687
 Sum of Mulliken charges =  -0.00000
 Mulliken charges with hydrogens summed into heavy atoms:
               1
     1  C    0.391347
     2  C    0.120029
     6  O   -0.427815
     7  O   -0.083561
 Electronic spatial extent (au):  <R**2>=            257.1837
 Charge=             -0.0000 electrons
 Dipole moment (field-independent basis, Debye):
    X=              0.0094    Y=             -4.6396    Z=              0.0000  Tot=              4.6396
 Quadrupole moment (field-independent basis, Debye-Ang):
   XX=            -23.6400   YY=            -25.6916   ZZ=            -23.2881
   XY=             -0.8324   XZ=             -0.0000   YZ=             -0.0000
 Traceless Quadrupole moment (field-independent basis, Debye-Ang):
   XX=              0.5666   YY=             -1.4851   ZZ=              0.9185
   XY=             -0.8324   XZ=             -0.0000   YZ=             -0.0000
 Octapole moment (field-independent basis, Debye-Ang**2):
  XXX=              2.7293  YYY=             -5.2606  ZZZ=              0.0000  XYY=              5.6564
  XXY=             -6.6151  XXZ=              0.0000  XZZ=             -0.6019  YZZ=              0.2521
  YYZ=              0.0000  XYZ=              0.0000
 Hexadecapole moment (field-independent basis, Debye-Ang**3):
 XXXX=           -142.7097 YYYY=           -149.1969 ZZZZ=            -28.1731 XXXY=            -15.8579
 XXXZ=             -0.0000 YYYX=            -12.3041 YYYZ=             -0.0000 ZZZX=              0.0000
 ZZZY=             -0.0000 XXYY=            -44.7061 XXZZ=            -27.7989 YYZZ=            -28.8848
 XXYZ=             -0.0000 YYXZ=             -0.0000 ZZXY=             -2.2155
 N-N= 1.204076146111D+02 E-N=-7.772656320036D+02  KE= 2.270786998918D+02
 Symmetry A'   KE= 2.168116309310D+02
 Symmetry A"   KE= 1.026706896085D+01
 Calculating spin-rotation constants.
 Leave Link  601 at Sun Sep  1 14:00:14 2024, MaxMem=   268435456 cpu:         3.0
 (Enter /g100_work/pMI24_ChiCa/g09d1/g09d01/d01/build-node-6-2-59348/src/main/l9999.exe)
 1\1\GINC-R500N001\SP\RB3LYP\6-31+G(d,p)\C2H4O2\ECABIATI\01-Sep-2024\0\
 \#p B3LYP/6-31+g(d,p) nmr=giao\\acetic acid opt\\0,1\C\C,1,1.5\H,2,1.0
 7,1,109.47122063\H,2,1.07,1,109.47122063,3,120.,0\H,2,1.07,1,109.47122
 063,3,-120.,0\O,1,1.22,2,120.,3,180.,0\O,1,1.38,6,120.,2,180.,0\H,7,0.
 947,1,109.47122063,6,180.,0\\Version=EM64L-G09RevD.01\State=1-A'\HF=-2
 29.0916248\RMSD=6.656e-09\Dipole=1.0870976,0.,1.4663321\Quadrupole=0.4
 745903,0.6828468,-1.157437,0.,-0.5466134,0.\PG=CS [SG(C2H2O2),X(H2)]\\
 @


 I WISH TO HAVE NO CONNECTION WITH ANY SHIP THAT DOES NOT SAIL FAST,
 FOR I INTEND TO GO IN HARM'S WAY.
     -- JOHN PAUL JONES, USN 1747-1792
 Job cpu time:       0 days  0 hours  0 minutes 28.5 seconds.
 File lengths (MBytes):  RWF=      6 Int=      0 D2E=      0 Chk=      2 Scr=      1
 Normal termination of Gaussian 09 at Sun Sep  1 14:00:14 2024.
