[Molden Format]
[Molpro variables]
_NUMVAR=  673.0000000000000    
_EV2006= 0.3674930886769165E-01
_EV= 0.3674932534394180E-01
_KJOULE= 0.3808798324128737E-03
_KJOULE/MOL= 0.3808798324128737E-03
_CM= 0.4556335267302901E-05
_CM-1= 0.4556335267302901E-05
_KCAL= 0.1593601117815568E-02
_KCAL/MOL= 0.1593601117815568E-02
_KELVIN2006= 0.3166828861084835E-05
_KELVIN= 0.3166814820820034E-05
_HERTZ2006= 0.1519829850815779E-15
_HERTZ= 0.1519829846011223E-15
_HZ2006= 0.1519829850815779E-15
_HZ= 0.1519829846011223E-15
_TOA2006= 0.5291772490000000    
_TOA= 0.5291772090000000    
_TOANG2006= 0.5291772490000000    
_TOANG= 0.5291772090000000    
_TORAD= 0.1745329251994330E-01
_TOCM=  219474.6306700000    
_TODEBYE=  2.541580000000000    
_TOEV2006=  27.21139610000000    
_TOEV=  27.21138390000000    
_TOHERTZ2006=  6579683899900000.    
_TOHERTZ=  6579683920700000.    
_TOHZ2006=  6579683899900000.    
_TOHZ=  6579683920700000.    
_TOK2006=  315773.3000000000    
_TOK=  315774.7000000000    
_TOKCAL=  627.5096000000000    
_TOKELVIN2006=  315773.3000000000    
_TOKELVIN=  315774.7000000000    
_TOKJ=  2625.500000000000    
_TOKJOULE=  2625.500000000000    
_ANG2006=  1.889725988578923    
_ANG=  1.889726131421507    
_ANGSTROM2006=  1.889725988578923    
_ANGSTROM=  1.889726131421507    
_IGNORE_UNDEF=  2.000000000000000    
_STRICTCHECK=  0.000000000000000    
_SEW_ONEEL=  0.000000000000000    
_CPPDONE=FALSE
_DKROLL_DONE=  0.000000000000000    
_FOCKDONE=TRUE
_GRADONE=FALSE
_HESSDONE=TRUE
_INTDONE=TRUE
_SCFDONE=TRUE
_MODUL_CUDA=FALSE
_MODUL_SLATER=FALSE
_MODUL_MRCC=FALSE
_MRCC_EXEC=
_FITC_AO_SAVED=  0.000000000000000    
_FITC_MO_SAVED=  0.000000000000000    
_SHARED_FS=TRUE
_LSTYP=SEWARD
_INTYP=INTS
_GEOMTYP=ZMAT
_GRADTYP=ALASKA
_DIRECT=FALSE
_SYNCM=  0.000000000000000    
_BASIS=6-31G
_ZORIENT=  1.000000000000000    
_NELEC=  2.000000000000000    
!SPIN=  0.000000000000000    
_OPTCONV= 0.6235271442972160E-04
_QSDSTEP=  0.000000000000000    
_QSDIRC=  0.000000000000000    
_PROGRAM=FREQ
_CPUSTEP=  0.000000000000000    
_SYSSTEP=  0.000000000000000    
_WALLSTEP=  0.000000000000000    
!DFMP2=  0.000000000000000    
!DFSCF=  0.000000000000000    
!SCSGRD=  0.000000000000000    
_BASINP=  610.0000000000000    
_CPUTOT=  8.920000000000000    
_CPUCCSD= 0.1999999999999957E-01
_SYSCCSD=  0.000000000000000    
_WALLCCSD= 0.2000000048428774E-01
_CPUF12=  0.000000000000000    
_SYSF12=  0.000000000000000    
_WALLF12=  0.000000000000000    
_CPUF12B=  0.000000000000000    
_SYSF12B=  0.000000000000000    
_WALLF12B=  0.000000000000000    
_CPUTRANS=  0.000000000000000    
_SYSTRANS= 0.1000000000000001E-01
_WALLTRANS=  0.000000000000000    
_DFTEXFAC=  1.000000000000000    
_DMX=  0.000000000000000    
_DMY=  0.000000000000000    
_DMZ=  0.000000000000000    
_FREQUENCIES= 0.3573391883868661E-14
_EMP2= -1.144140848374182    
_EMP2_SING=-0.1735436540537327E-01
_EMP2_TRIP=  0.000000000000000    
_EMP2_SCS= -1.147611721455256    
_ECSING=-0.1735436540537327E-01
_ECTRIP=  0.000000000000000    
_ENERGC= -1.144140848374182    
_ENERG_CC=  0.000000000000000    
_ENERG_CV=  0.000000000000000    
_ENERG_VV=-0.1735436540537327E-01
_ENERGR= -1.126786482968808    
_ENERGY= -1.144140848374182    
_ENUC= 0.7175081619337107    
_FREQSTEP=  5.000000000000000    
_GRADENERG= -1.144121478216264    
_GRADEXFAC=  9999.000000000000    
_GRADMETHOD=  8.000000000000000    
_GRADRECORD=TRUE
_VIRIAL= 0.5407117334341743E-02
!GRID_FREEZE= -1.000000000000000    
_ITERATIONS=  1.000000000000000    
_LASTNELEC=  2.000000000000000    
_LASTSPIN=  0.000000000000000    
_LASTSYM=  1.000000000000000    
_MPP_PROG=  0.000000000000000    
_NPROC_MPP=  1.000000000000000    
_NPROC_SMP=  1.000000000000000    
_NUMSTEP=  0.000000000000000    
_OPTCONVMX= 0.6235271442972160E-04
_OPTCONVRMS= 0.6235271442972160E-04
_OPTGRAD= 0.2423713442678554E-04
_OPTGRADMX= 0.2423713442678554E-04
_OPTGRADRMS= 0.2423713442678554E-04
_OPTSTEP=  2.000000000000000    
_ORBITAL=  2100.200000000000    
_PI=  3.141592653589793    
_ECDIAG=-0.1735436540537327E-01
_EPDIAG=-0.1735436540537327E-01
_SEIG_MIN= 0.9572010321177607E-01
_SEWPROP=TRUE
_STATUS=  1.000000000000000    
_SYSTOT= 0.5300000000000000    
_T1DIAG=  0.000000000000000    
_VERSION=  2010001.000000000    
_WALLTOT=  10.24000000000000    
_ZPE= 0.1032853654107870E-01
_DATE=18-Aug-24
_LASTORB=RHF
_MACHINE=Linux-3.10.0-1160.108.1.el7.x86_64/molmod(x86_64) 64 bit serial version
_METHODC=MP2
_OUTPUT=/home/ospite/Desktop/MMfP/Project6/H2/molpro/MP2/ch4_Pople631.xml
_PGROUP=D2h
_TIME=12:59:22
_ANSATZ=
_LIBMOL=/usr/local/molpro/molpros_2010_1_Linux_x86_64_i8/lib/
!SURFREC=  0.000000000000000    
!POLYREC=  0.000000000000000    
!DIPREC=  0.000000000000000    
!VSCFREC=  0.000000000000000    
!VCIREC=  0.000000000000000    
!PVCIREC=  0.000000000000000    
!VMP2REC=  0.000000000000000    
!VMCSCFREC=  0.000000000000000    
!GAREC=  0.000000000000000    
!SCFORB=  21002.00000000000    
!CIOCC=  1.000000000000000    
!CICORE=  0.000000000000000    
!CICLOS=  1.000000000000000    
!CIISTSYM=  1.000000000000000    
!CIISTMS2=  0.000000000000000    
!CIISTNEL=  2.000000000000000    
!NEWMOL=  0.000000000000000    
!NEWSYM=  1.000000000000000    
_SLFILES=slscratch
_NGSSTO=  9.000000000000000    
_SIN=SIN
_COS=COS
_TAN=TAN
_ACOS=ACOS
_ASIN=ASIN
_ATAN=ATAN
_COSH=COSH
_SINH=SINH
_TANH=TANH
_ABS=ABS
_MOD=MOD
_ERF=ERF
_REFC=REFC
_ERFC=ERFC
_HYPOT=HYPOT
_J0=J0
_J1=J1
_JN=JN
_GAMMA=GAMMA
_LGAMMA=LGAMMA
_Y0=Y0
_Y1=Y1
_YN=YN
_EXP=EXP
_LOG=LOG
_LOG10=LOG10
_SQRT=SQRT
_INT=INT
_NINT=NINT
_MAX=MAX
_MIN=MIN
_COSMO=  0.000000000000000    
_COSMOIT=  0.000000000000000    
_COSMOES=  0.000000000000000    
_COSMOEDS=  0.000000000000000    
_COSMOEC=  0.000000000000000    
_COSMOEDCORR=  0.000000000000000    
_FEPSI=  1.000000000000000    
_SL_IsMM=  0.000000000000000    
_SL_NSYM=  0.000000000000000    
_SL_System_BitSw=  0.000000000000000    
_SL_Unique_atoms=  0.000000000000000    
_SL_GRAD=  0.000000000000000    
_SL_MAXUPD_Hess=  5.000000000000000    
_SL_N_PRINT_COD=  5.000000000000000    
_SL_PRINT_CODES=  0.000000000000000    
_SL_BasType=  0.000000000000000    
_SL_Energy_Pred=  0.000000000000000    
_SL_New_Coords=  0.000000000000000    
_SL_Total_Nuclea=  0.000000000000000    
_SL_Highest_Mltp=  0.000000000000000    
_SL_Ref_Geom=  0.000000000000000    
!LATTICE= -1.000000000000000    
!NEWLATTICE=  0.000000000000000    
!LATGRAD_VAR=FALSE
!SEW_LATTICE=  1.000000000000000    
!LOCAL=  0.000000000000000    
!SAVEDOM= -1.000000000000000    
!RESTDOM= -1.000000000000000    
!SAVEDOM_HF= -1.000000000000000    
!RESTDOM_HF= -1.000000000000000    
!HESSREC=  5300.200000000000    
!FREQREC=  5400.200000000000    
!NMODREC=  5450.200000000000    
!GTASKS=  0.000000000000000    
!HTASKS=  5500.200000000000    
!THRCHG= 0.1000000000000000    
!DEBUG= -1.000000000000000    
!CFIT_CPHF=  0.000000000000000    
!RDOMAUX_CPHF=  5.000000000000000    
!THRAO_CPHF= 0.9999999999999999E-11
!THRMO_CPHF= 0.9999999999999999E-11
!THROV_CPHF= 0.1000000000000000E-11
!THRSW_CPHF= 0.1000000000000000E-09
!THRPROD_CPHF= 0.9999999999999999E-11
!THRAOPR_CPHF= 0.1000000000000000E-11
!CFIT_SCFGRD=  0.000000000000000    
!RDOMAUX_SCFGRD=  7.000000000000000    
!THRAO_SCFGRD= 0.9999999999999999E-11
!THRMO_SCFGRD= 0.9999999999999999E-11
!THROV_SCFGRD= 0.1000000000000000E-11
!THRSW_SCFGRD= 0.1000000000000000E-09
!THRPROD_SCFGRD= 0.9999999999999999E-11
!THRAOPR_SCFGRD= 0.1000000000000000E-11
!LOCFIT_SCF=  0.000000000000000    
!LOCFIT_MP2= -1.000000000000000    
_RIDOM=  0.000000000000000    
!CC2_METHOD=  0.000000000000000    
_BASIS2006=FALSE
_SVDDEL= -1.000000000000000    
_SVDDELA= -1.000000000000000    
_SVDDELP= -1.000000000000000    
_SVDDELF= -1.000000000000000    
_SVDDELS= -1.000000000000000    
_SVDDEL_ABS= -1.000000000000000    
_SVDDELA_ABS= -1.000000000000000    
_SVDDELP_ABS= -1.000000000000000    
_SVDDELF_ABS= -1.000000000000000    
_SVDDELS_ABS= -1.000000000000000    
_MAXBASIS=  0.000000000000000    
!OPT_CONICAL=  0.000000000000000    
!CLEARSP_JGRID=  0.000000000000000    
D= 0.7375208214689127    
GX1= -0.000000000000000    
GY1= -0.000000000000000    
GZ1=-0.6968561843986301    
GX2= -0.000000000000000    
GY2= -0.000000000000000    
GZ2= 0.6968561843986301    
H1X1=  0.000000000000000    
H1Y1=  0.000000000000000    
H1Z1=-0.6968561843986301    
H2X2=  0.000000000000000    
H2Y2=  0.000000000000000    
H2Z2= 0.6968561843986301    
[Atoms] Angs
H     1    1         0.0000000000        0.0000000000       -0.3687604107
H     2    1         0.0000000000        0.0000000000        0.3687604107
[GTO]
  1 0
 s    3  1.00
  0.1873113700D+02  0.3349460400D-01
  0.2825394400D+01  0.2347269500D+00
  0.6401216900D+00  0.8137573301D+00
 s    1  1.00
  0.1612777600D+00  0.1000000000D+01
  
  2 0
 s    3  1.00
  0.1873113700D+02  0.3349460400D-01
  0.2825394400D+01  0.2347269500D+00
  0.6401216900D+00  0.8137573301D+00
 s    1  1.00
  0.1612777600D+00  0.1000000000D+01


[MO]
 Sym=      1.1
 Ene=      -0.5966
 Spin= Alpha
 Occup=    2.000000
1 0.32733810200117
2 0.27118501211530
3 0.32733810200117
4 0.27118501211530
 Sym=      1.5
 Ene=       0.2391
 Spin= Alpha
 Occup=    0.000000
1 0.12216124680916
2 1.72119300584546
3 -0.12216124680916
4 -1.72119300584546
 Sym=      2.1
 Ene=       0.7735
 Spin= Alpha
 Occup=    0.000000
1 0.76521291124120
2 -0.68609676652550
3 0.76521291124120
4 -0.68609676652550
 Sym=      2.5
 Ene=       1.4077
 Spin= Alpha
 Occup=    0.000000
1 1.12468865883874
2 -1.35136118017434
3 -1.12468865883874
4 1.35136118017434
 [FREQ]
      0.00
      0.00
      0.00
      0.00
      0.00
   4533.70
 [FR-COORD]
H          0.0000000000        0.0000000000       -0.6968561844
H          0.0000000000        0.0000000000        0.6968561844
 [FR-NORM-COORD]
 Vibration                    1
          0.00000000          0.70431617          0.00000000
          0.00000000          0.70431617         -0.00000000
 Vibration                    2
          0.00000000          0.00000000          0.70431617
          0.00000000          0.00000000          0.70431617
 Vibration                    3
          0.70431617          0.00000000         -0.00000000
          0.70431617         -0.00000000         -0.00000000
 Vibration                    4
         -0.00000000          0.70431617         -0.00000000
          0.00000000         -0.70431617         -0.00000000
 Vibration                    5
          0.70431617          0.00000000          0.00000000
         -0.70431617         -0.00000000          0.00000000
 Vibration                    6
         -0.00000000         -0.00000000          0.70431617
         -0.00000000         -0.00000000         -0.70431617
