[Molden Format]
[Molpro variables]
_NUMVAR=  673.0000000000000    
_EV2006= 0.3674930886769165E-01
_EV= 0.3674932534394180E-01
_KJOULE= 0.3808798324128737E-03
_KJOULE/MOL= 0.3808798324128737E-03
_CM= 0.4556335267302901E-05
_CM-1= 0.4556335267302901E-05
_KCAL= 0.1593601117815568E-02
_KCAL/MOL= 0.1593601117815568E-02
_KELVIN2006= 0.3166828861084835E-05
_KELVIN= 0.3166814820820034E-05
_HERTZ2006= 0.1519829850815779E-15
_HERTZ= 0.1519829846011223E-15
_HZ2006= 0.1519829850815779E-15
_HZ= 0.1519829846011223E-15
_TOA2006= 0.5291772490000000    
_TOA= 0.5291772090000000    
_TOANG2006= 0.5291772490000000    
_TOANG= 0.5291772090000000    
_TORAD= 0.1745329251994330E-01
_TOCM=  219474.6306700000    
_TODEBYE=  2.541580000000000    
_TOEV2006=  27.21139610000000    
_TOEV=  27.21138390000000    
_TOHERTZ2006=  6579683899900000.    
_TOHERTZ=  6579683920700000.    
_TOHZ2006=  6579683899900000.    
_TOHZ=  6579683920700000.    
_TOK2006=  315773.3000000000    
_TOK=  315774.7000000000    
_TOKCAL=  627.5096000000000    
_TOKELVIN2006=  315773.3000000000    
_TOKELVIN=  315774.7000000000    
_TOKJ=  2625.500000000000    
_TOKJOULE=  2625.500000000000    
_ANG2006=  1.889725988578923    
_ANG=  1.889726131421507    
_ANGSTROM2006=  1.889725988578923    
_ANGSTROM=  1.889726131421507    
_IGNORE_UNDEF=  2.000000000000000    
_STRICTCHECK=  0.000000000000000    
_SEW_ONEEL=  0.000000000000000    
_CPPDONE=FALSE
_DKROLL_DONE=  0.000000000000000    
_FOCKDONE=TRUE
_GRADONE=FALSE
_HESSDONE=TRUE
_INTDONE=TRUE
_SCFDONE=TRUE
_MODUL_CUDA=FALSE
_MODUL_SLATER=FALSE
_MODUL_MRCC=FALSE
_MRCC_EXEC=
_FITC_AO_SAVED=  0.000000000000000    
_FITC_MO_SAVED=  0.000000000000000    
_SHARED_FS=TRUE
_LSTYP=SEWARD
_INTYP=INTS
_GEOMTYP=ZMAT
_GRADTYP=ALASKA
_DIRECT=FALSE
_SYNCM=  0.000000000000000    
_BASIS=AUG-CC-PVDZ
_ZORIENT=  1.000000000000000    
_NELEC=  2.000000000000000    
!SPIN=  0.000000000000000    
_OPTCONV= 0.2900488335673227E-03
_QSDSTEP=  0.000000000000000    
_QSDIRC=  0.000000000000000    
_PROGRAM=FREQ
_CPUSTEP=  0.000000000000000    
_SYSSTEP=  0.000000000000000    
_WALLSTEP=  0.000000000000000    
!DFMP2=  0.000000000000000    
!DFSCF=  0.000000000000000    
!SCSGRD=  0.000000000000000    
_BASINP=  610.0000000000000    
_CPUTOT=  9.560000000000000    
_CPUCCSD= 0.9999999999999787E-02
_SYSCCSD=  0.000000000000000    
_WALLCCSD= 0.9999999776482582E-02
_CPUF12=  0.000000000000000    
_SYSF12=  0.000000000000000    
_WALLF12=  0.000000000000000    
_CPUF12B=  0.000000000000000    
_SYSF12B=  0.000000000000000    
_WALLF12B=  0.000000000000000    
_CPUTRANS=  0.000000000000000    
_SYSTRANS=  0.000000000000000    
_WALLTRANS=  0.000000000000000    
_DFTEXFAC=  1.000000000000000    
_DMX=  0.000000000000000    
_DMY=  0.000000000000000    
_DMZ=  0.000000000000000    
_FREQUENCIES= 0.7452628056265142E-04
_EMP2= -1.156216476922802    
_EMP2_SING=-0.2742289764623441E-01
_EMP2_TRIP=  0.000000000000000    
_EMP2_SCS= -1.161701056452049    
_ECSING=-0.2742289764623441E-01
_ECTRIP=  0.000000000000000    
_ENERGC= -1.156216476922802    
_ENERG_CC=  0.000000000000000    
_ENERG_CV=  0.000000000000000    
_ENERG_VV=-0.2742289764623441E-01
_ENERGR= -1.128793579276568    
_ENERGY= -1.156216476922802    
_ENUC= 0.7009541458437933    
_FREQSTEP=  5.000000000000000    
_GRADENERG= -1.156197634447891    
_GRADEXFAC=  9999.000000000000    
_GRADMETHOD=  8.000000000000000    
_GRADRECORD=TRUE
_VIRIAL= 0.5376863654926019E-02
!GRID_FREEZE= -1.000000000000000    
_ITERATIONS=  1.000000000000000    
_LASTNELEC=  2.000000000000000    
_LASTSPIN=  0.000000000000000    
_LASTSYM=  1.000000000000000    
_MPP_PROG=  0.000000000000000    
_NPROC_MPP=  1.000000000000000    
_NPROC_SMP=  1.000000000000000    
_NUMSTEP=  0.000000000000000    
_OPTCONVMX= 0.2900488335673227E-03
_OPTCONVRMS= 0.2900488335673227E-03
_OPTGRAD= 0.1154397484084968E-03
_OPTGRADMX= 0.1154397484084968E-03
_OPTGRADRMS= 0.1154397484084968E-03
_OPTSTEP=  2.000000000000000    
_ORBITAL=  2100.200000000000    
_PI=  3.141592653589793    
_ECDIAG=-0.2742289764623441E-01
_EPDIAG=-0.2742289764623441E-01
_SEIG_MIN= 0.2964187667958583E-03
_SEWPROP=TRUE
_STATUS=  1.000000000000000    
_SYSTOT= 0.6000000000000000    
_T1DIAG=  0.000000000000000    
_VERSION=  2010001.000000000    
_WALLTOT=  11.97000000000000    
_ZPE= 0.1016905795663560E-01
_DATE=18-Aug-24
_LASTORB=RHF
_MACHINE=Linux-3.10.0-1160.108.1.el7.x86_64/molmod(x86_64) 64 bit serial version
_METHODC=MP2
_OUTPUT=/home/ospite/Desktop/MMfP/Project6/H2/molpro/MP2/h2_aug-ccpVDZ.xml
_PGROUP=D2h
_TIME=15:22:49
_ANSATZ=
_LIBMOL=/usr/local/molpro/molpros_2010_1_Linux_x86_64_i8/lib/
!SURFREC=  0.000000000000000    
!POLYREC=  0.000000000000000    
!DIPREC=  0.000000000000000    
!VSCFREC=  0.000000000000000    
!VCIREC=  0.000000000000000    
!PVCIREC=  0.000000000000000    
!VMP2REC=  0.000000000000000    
!VMCSCFREC=  0.000000000000000    
!GAREC=  0.000000000000000    
!SCFORB=  21002.00000000000    
!CIOCC=  1.000000000000000    
!CICORE=  0.000000000000000    
!CICLOS=  1.000000000000000    
!CIISTSYM=  1.000000000000000    
!CIISTMS2=  0.000000000000000    
!CIISTNEL=  2.000000000000000    
!NEWMOL=  0.000000000000000    
!NEWSYM=  1.000000000000000    
_SLFILES=slscratch
_NGSSTO=  9.000000000000000    
_SIN=SIN
_COS=COS
_TAN=TAN
_ACOS=ACOS
_ASIN=ASIN
_ATAN=ATAN
_COSH=COSH
_SINH=SINH
_TANH=TANH
_ABS=ABS
_MOD=MOD
_ERF=ERF
_REFC=REFC
_ERFC=ERFC
_HYPOT=HYPOT
_J0=J0
_J1=J1
_JN=JN
_GAMMA=GAMMA
_LGAMMA=LGAMMA
_Y0=Y0
_Y1=Y1
_YN=YN
_EXP=EXP
_LOG=LOG
_LOG10=LOG10
_SQRT=SQRT
_INT=INT
_NINT=NINT
_MAX=MAX
_MIN=MIN
_COSMO=  0.000000000000000    
_COSMOIT=  0.000000000000000    
_COSMOES=  0.000000000000000    
_COSMOEDS=  0.000000000000000    
_COSMOEC=  0.000000000000000    
_COSMOEDCORR=  0.000000000000000    
_FEPSI=  1.000000000000000    
_SL_IsMM=  0.000000000000000    
_SL_NSYM=  0.000000000000000    
_SL_System_BitSw=  0.000000000000000    
_SL_Unique_atoms=  0.000000000000000    
_SL_GRAD=  0.000000000000000    
_SL_MAXUPD_Hess=  5.000000000000000    
_SL_N_PRINT_COD=  5.000000000000000    
_SL_PRINT_CODES=  0.000000000000000    
_SL_BasType=  0.000000000000000    
_SL_Energy_Pred=  0.000000000000000    
_SL_New_Coords=  0.000000000000000    
_SL_Total_Nuclea=  0.000000000000000    
_SL_Highest_Mltp=  0.000000000000000    
_SL_Ref_Geom=  0.000000000000000    
!LATTICE= -1.000000000000000    
!NEWLATTICE=  0.000000000000000    
!LATGRAD_VAR=FALSE
!SEW_LATTICE=  1.000000000000000    
!LOCAL=  0.000000000000000    
!SAVEDOM= -1.000000000000000    
!RESTDOM= -1.000000000000000    
!SAVEDOM_HF= -1.000000000000000    
!RESTDOM_HF= -1.000000000000000    
!HESSREC=  5300.200000000000    
!FREQREC=  5400.200000000000    
!NMODREC=  5450.200000000000    
!GTASKS=  0.000000000000000    
!HTASKS=  5500.200000000000    
!THRCHG= 0.1000000000000000    
!DEBUG= -1.000000000000000    
!CFIT_CPHF=  0.000000000000000    
!RDOMAUX_CPHF=  5.000000000000000    
!THRAO_CPHF= 0.9999999999999999E-11
!THRMO_CPHF= 0.9999999999999999E-11
!THROV_CPHF= 0.1000000000000000E-11
!THRSW_CPHF= 0.1000000000000000E-09
!THRPROD_CPHF= 0.9999999999999999E-11
!THRAOPR_CPHF= 0.1000000000000000E-11
!CFIT_SCFGRD=  0.000000000000000    
!RDOMAUX_SCFGRD=  7.000000000000000    
!THRAO_SCFGRD= 0.9999999999999999E-11
!THRMO_SCFGRD= 0.9999999999999999E-11
!THROV_SCFGRD= 0.1000000000000000E-11
!THRSW_SCFGRD= 0.1000000000000000E-09
!THRPROD_SCFGRD= 0.9999999999999999E-11
!THRAOPR_SCFGRD= 0.1000000000000000E-11
!LOCFIT_SCF=  0.000000000000000    
!LOCFIT_MP2= -1.000000000000000    
_RIDOM=  0.000000000000000    
!CC2_METHOD=  0.000000000000000    
_BASIS2006=FALSE
_SVDDEL= -1.000000000000000    
_SVDDELA= -1.000000000000000    
_SVDDELP= -1.000000000000000    
_SVDDELF= -1.000000000000000    
_SVDDELS= -1.000000000000000    
_SVDDEL_ABS= -1.000000000000000    
_SVDDELA_ABS= -1.000000000000000    
_SVDDELP_ABS= -1.000000000000000    
_SVDDELF_ABS= -1.000000000000000    
_SVDDELS_ABS= -1.000000000000000    
_MAXBASIS=  0.000000000000000    
!OPT_CONICAL=  0.000000000000000    
!CLEARSP_JGRID=  0.000000000000000    
D= 0.7549384109326980    
GX1= -0.000000000000000    
GY1= -0.000000000000000    
GZ1=-0.7133134213766735    
GX2= -0.000000000000000    
GY2= -0.000000000000000    
GZ2= 0.7133134213766735    
H1X1=  0.000000000000000    
H1Y1=  0.000000000000000    
H1Z1=-0.7133134213766735    
H2X2=  0.000000000000000    
H2Y2=  0.000000000000000    
H2Z2= 0.7133134213766735    
[Atoms] Angs
H     1    1         0.0000000000        0.0000000000       -0.3774692055
H     2    1         0.0000000000        0.0000000000        0.3774692055
[GTO]
  1 0
 s    4  1.00
  0.1301000000D+02  0.1968498999D-01
  0.1962000000D+01  0.1379769298D+00
  0.4446000000D+00  0.4781477569D+00
  0.1220000000D+00  0.5012397451D+00
 s    4  1.00
  0.1301000000D+02  0.0000000000D+00
  0.1962000000D+01  0.0000000000D+00
  0.4446000000D+00  0.0000000000D+00
  0.1220000000D+00  0.1000000000D+01
 s    1  1.00
  0.2974000000D-01  0.1000000000D+01
 p    1  1.00
  0.7270000000D+00  0.1000000000D+01
 p    1  1.00
  0.1410000000D+00  0.1000000000D+01
  
  2 0
 s    4  1.00
  0.1301000000D+02  0.1968498999D-01
  0.1962000000D+01  0.1379769298D+00
  0.4446000000D+00  0.4781477569D+00
  0.1220000000D+00  0.5012397451D+00
 s    4  1.00
  0.1301000000D+02  0.0000000000D+00
  0.1962000000D+01  0.0000000000D+00
  0.4446000000D+00  0.0000000000D+00
  0.1220000000D+00  0.1000000000D+01
 s    1  1.00
  0.2974000000D-01  0.1000000000D+01
 p    1  1.00
  0.7270000000D+00  0.1000000000D+01
 p    1  1.00
  0.1410000000D+00  0.1000000000D+01


[MO]
 Sym=      1.1
 Ene=      -0.5883
 Spin= Alpha
 Occup=    2.000000
1 0.68548514777472
2 -0.17249502922183
3 0.006974743978977
4 0.0
5 0.0
6 0.021906790293477
7 0.0
8 0.0
9 0.004015764283281
10 0.68548514777472
11 -0.17249502922183
12 0.006974743978977
13 0.0
14 0.0
15 -0.021906790293477
16 0.0
17 0.0
18 -0.004015764283281
 Sym=      1.5
 Ene=       0.0613
 Spin= Alpha
 Occup=    0.000000
1 0.082127101334639
2 -2.35165332633892
3 4.41892619928147
4 0.0
5 0.0
6 -0.000819894202668
7 0.0
8 0.0
9 -0.56805308349633
10 -0.082127101334639
11 2.35165332633892
12 -4.41892619928147
13 0.0
14 0.0
15 -0.000819894202668
16 0.0
17 0.0
18 -0.56805308349633
 Sym=      2.1
 Ene=       0.0672
 Spin= Alpha
 Occup=    0.000000
1 -0.10645872032435
2 -0.30348330188334
3 0.69127644918583
4 0.0
5 0.0
6 -0.012840472099183
7 0.0
8 0.0
9 0.066994330332907
10 -0.10645872032435
11 -0.30348330188334
12 0.69127644918583
13 0.0
14 0.0
15 0.012840472099183
16 0.0
17 0.0
18 -0.066994330332907
 Sym=      2.5
 Ene=       0.2306
 Spin= Alpha
 Occup=    0.000000
1 -0.27844528399590
2 -10.3985601752994
3 3.21001133691288
4 0.0
5 0.0
6 0.043669852417090
7 0.0
8 0.0
9 -2.19462134447056
10 0.27844528399590
11 10.3985601752994
12 -3.21001133691288
13 0.0
14 0.0
15 0.043669852417090
16 0.0
17 0.0
18 -2.19462134447056
 Sym=      1.2
 Ene=       0.2844
 Spin= Alpha
 Occup=    0.000000
1 0.0
2 0.0
3 0.0
4 -0.012097304568417
5 0.0
6 0.0
7 0.52292416920274
8 0.0
9 0.0
10 0.0
11 0.0
12 0.0
13 -0.012097304568417
14 0.0
15 0.0
16 0.52292416920274
17 0.0
18 0.0
 Sym=      1.3
 Ene=       0.2844
 Spin= Alpha
 Occup=    0.000000
1 0.0
2 0.0
3 0.0
4 0.0
5 -0.012097304568417
6 0.0
7 0.0
8 0.52292416920274
9 0.0
10 0.0
11 0.0
12 0.0
13 0.0
14 -0.012097304568417
15 0.0
16 0.0
17 0.52292416920274
18 0.0
 Sym=      3.1
 Ene=       0.4165
 Spin= Alpha
 Occup=    0.000000
1 0.31745636618823
2 -0.98557049811199
3 0.37479564827822
4 0.0
5 0.0
6 -0.017294738574562
7 0.0
8 0.0
9 1.27283519477360
10 0.31745636618823
11 -0.98557049811199
12 0.37479564827822
13 0.0
14 0.0
15 0.017294738574562
16 0.0
17 0.0
18 -1.27283519477360
 Sym=      1.6
 Ene=       0.4579
 Spin= Alpha
 Occup=    0.000000
1 0.0
2 0.0
3 0.0
4 -0.046310570284528
5 0.0
6 0.0
7 1.96681224937387
8 0.0
9 0.0
10 0.0
11 0.0
12 0.0
13 0.046310570284528
14 0.0
15 0.0
16 -1.96681224937387
17 0.0
18 0.0
 Sym=      1.7
 Ene=       0.4579
 Spin= Alpha
 Occup=    0.000000
1 0.0
2 0.0
3 0.0
4 0.0
5 -0.046310570284528
6 0.0
7 0.0
8 1.96681224937387
9 0.0
10 0.0
11 0.0
12 0.0
13 0.0
14 0.046310570284528
15 0.0
16 0.0
17 -1.96681224937387
18 0.0
 Sym=      3.5
 Ene=       0.5578
 Spin= Alpha
 Occup=    0.000000
1 -0.39813390462508
2 31.1655505235185
3 -2.37180669351632
4 0.0
5 0.0
6 -0.072150013721908
7 0.0
8 0.0
9 8.16578665792566
10 0.39813390462508
11 -31.1655505235185
12 2.37180669351632
13 0.0
14 0.0
15 -0.072150013721908
16 0.0
17 0.0
18 8.16578665792566
 Sym=      4.1
 Ene=       0.7205
 Spin= Alpha
 Occup=    0.000000
1 -1.40690716147905
2 1.38719641387344
3 -0.21026610129222
4 0.0
5 0.0
6 -0.016845003230256
7 0.0
8 0.0
9 0.87951918788913
10 -1.40690716147905
11 1.38719641387344
12 -0.21026610129222
13 0.0
14 0.0
15 0.016845003230256
16 0.0
17 0.0
18 -0.87951918788913
 Sym=      4.5
 Ene=       1.2166
 Spin= Alpha
 Occup=    0.000000
1 1.53797418630450
2 19.7513283130252
3 -0.41938904770963
4 0.0
5 0.0
6 -0.50651872299901
7 0.0
8 0.0
9 6.02904339378687
10 -1.53797418630450
11 -19.7513283130252
12 0.41938904770963
13 0.0
14 0.0
15 -0.50651872299901
16 0.0
17 0.0
18 6.02904339378687
 Sym=      2.2
 Ene=       1.6041
 Spin= Alpha
 Occup=    0.000000
1 0.0
2 0.0
3 0.0
4 0.67298293720443
5 0.0
6 0.0
7 -0.29178897383183
8 0.0
9 0.0
10 0.0
11 0.0
12 0.0
13 0.67298293720443
14 0.0
15 0.0
16 -0.29178897383183
17 0.0
18 0.0
 Sym=      2.3
 Ene=       1.6041
 Spin= Alpha
 Occup=    0.000000
1 0.0
2 0.0
3 0.0
4 0.0
5 0.67298293720443
6 0.0
7 0.0
8 -0.29178897383183
9 0.0
10 0.0
11 0.0
12 0.0
13 0.0
14 0.67298293720443
15 0.0
16 0.0
17 -0.29178897383183
18 0.0
 Sym=      5.1
 Ene=       2.0703
 Spin= Alpha
 Occup=    0.000000
1 -0.67667729171675
2 0.72094407317632
3 -0.13123207736131
4 0.0
5 0.0
6 0.75519528139273
7 0.0
8 0.0
9 -0.43000204935240
10 -0.67667729171675
11 0.72094407317632
12 -0.13123207736131
13 0.0
14 0.0
15 -0.75519528139273
16 0.0
17 0.0
18 0.43000204935240
 Sym=      2.6
 Ene=       2.2343
 Spin= Alpha
 Occup=    0.000000
1 0.0
2 0.0
3 0.0
4 1.05520921647673
5 0.0
6 0.0
7 -0.70358474256410
8 0.0
9 0.0
10 0.0
11 0.0
12 0.0
13 -1.05520921647673
14 0.0
15 0.0
16 0.70358474256410
17 0.0
18 0.0
 Sym=      2.7
 Ene=       2.2343
 Spin= Alpha
 Occup=    0.000000
1 0.0
2 0.0
3 0.0
4 0.0
5 1.05520921647673
6 0.0
7 0.0
8 -0.70358474256410
9 0.0
10 0.0
11 0.0
12 0.0
13 0.0
14 -1.05520921647673
15 0.0
16 0.0
17 0.70358474256410
18 0.0
 Sym=      5.5
 Ene=       3.6262
 Spin= Alpha
 Occup=    0.000000
1 4.23447137627889
2 -9.42627758938753
3 0.40272443366992
4 0.0
5 0.0
6 2.10682976500773
7 0.0
8 0.0
9 -2.02232732957634
10 -4.23447137627889
11 9.42627758938753
12 -0.40272443366992
13 0.0
14 0.0
15 2.10682976500773
16 0.0
17 0.0
18 -2.02232732957634
 [FREQ]
      0.00
      0.00
      0.00
      0.00
      0.00
   4463.70
 [FR-COORD]
H          0.0000000000        0.0000000000       -0.7133134214
H          0.0000000000        0.0000000000        0.7133134214
 [FR-NORM-COORD]
 Vibration                    1
          0.00000000          0.99553205         -0.00212887
          0.00001099         -0.03208447         -0.00212887
 Vibration                    2
          0.00000000          0.03208430         -0.00007224
          0.00000060          0.99553661         -0.00007224
 Vibration                    3
          0.99605349         -0.00000000         -0.00000000
          0.00000000         -0.00000000         -0.00000000
 Vibration                    4
         -0.00000000         -0.00002335         -0.00288571
          0.99604513         -0.00000026         -0.00288571
 Vibration                    5
         -0.00000000          0.00301233          0.70430704
          0.00408106          0.00000514          0.70430704
 Vibration                    6
         -0.00000000         -0.00000000          0.70431617
         -0.00000000         -0.00000000         -0.70431617
