
 Primary working directories    : /data/scratch
 Secondary working directories  : /data/scratch
 Wavefunction directory         : /home/ospite/wfu/
 Main file repository           : /data/scratch/

 ARCHNAME  : Linux/x86_64
 FC        : /usr/bin/gfortran
 FCVERSION : 4.8.5
 BLASLIB   : 
 id        : polimi

 Nodes     nprocs
 molmod       1

 Using default tuning parameters: mindgm=1; mindgv=20; mindgc=4; mindgr=1; noblas=0; mincuda=1000; minvec=7
 default implementation of scratch files=df  

 ***,hydrogen with imposed symmetry and aug-cc-pVDZ basis set
 memory,100,m
 
 basis=aug-cc-pVDZ
 
 geometry={angstrom
 H1
 H2, H1, d
 }
 
 d=0.74 Ang
 
 hf
 mp2
 optg
 frequencies
 put,molden,ch4_aug-ccpVDZ.molpro

 Variables initialized (661), CPU time= 0.01 sec
 Commands  initialized (458), CPU time= 0.05 sec, 486 directives.
 Default parameters read. Elapsed time= 0.29 sec

 Checking input...
 Passed
1


                                         ***  PROGRAM SYSTEM MOLPRO  ***
                         Copyright, University College Cardiff Consultants Limited, 2008

                                    Version 2010.1 linked Mar  6 2018 16:01:50


 **********************************************************************************************************************************
 LABEL *   hydrogen with imposed symmetry and aug-cc-pVDZ basis set                      
 Linux-3.10.0-1160.108.1.el7.x86_64/molmod(x86_64) 64 bit serial version                 DATE: 18-Aug-24          TIME: 15:22:49  
 **********************************************************************************************************************************

 SHA1:             d90fb18d49a3be29a79769f900c595ef3b8176e2
 **********************************************************************************************************************************

 Variable memory set to  100000000 words,  buffer space   230000 words

 SETTING BASIS          =    AUG-CC-PVDZ
 SETTING D              =         0.74000000  ANG                             


 Recomputing integrals since basis changed


 Using spherical harmonics

 Library entry H      S aug-cc-pVDZ          selected for orbital group  1
 Library entry H      P aug-cc-pVDZ          selected for orbital group  1

1PROGRAM * SEWARD (Integral evaluation for generally contracted gaussian basis sets)     Author: Roland Lindh, 1990

 Geometry written to block  1 of record 700

 Orientation using atomic masses  
 Molecule type: Linear
 Symmetry elements: X,Y,Z
 Rotational constants:    1831.2560048   1831.2560048      0.0000000 GHz  (calculated with average atomic masses)

 Point group  D2h 



 ATOMIC COORDINATES

 NR  ATOM    CHARGE       X              Y              Z

   1  H1      1.00    0.000000000    0.000000000   -0.699198669
   2  H2      1.00    0.000000000    0.000000000    0.699198669

 Bond lengths in Bohr (Angstrom)

 1-2  1.398397337
     ( 0.740000000)

 NUCLEAR CHARGE:                    2
 NUMBER OF PRIMITIVE AOS:          22
 NUMBER OF SYMMETRY AOS:           22
 NUMBER OF CONTRACTIONS:           18   (   5Ag  +   2B3u +   2B2u +   0B1g +   5B1u +   2B2g +   2B3g +   0Au  )
 NUMBER OF CORE ORBITALS:           0   (   0Ag  +   0B3u +   0B2u +   0B1g +   0B1u +   0B2g +   0B3g +   0Au  )
 NUMBER OF VALENCE ORBITALS:        2   (   1Ag  +   0B3u +   0B2u +   0B1g +   1B1u +   0B2g +   0B3g +   0Au  )


 NUCLEAR REPULSION ENERGY    0.71510434


 Eigenvalues of metric

         1 0.783E-01 0.167E+00 0.796E+00 0.140E+01 0.475E+01
         2 0.821E+00 0.254E+01
         3 0.821E+00 0.254E+01
         5 0.283E-03 0.188E-01 0.194E-01 0.465E+00 0.231E+01
         6 0.106E+00 0.532E+00
         7 0.106E+00 0.532E+00


 Contracted 2-electron integrals neglected if value below      1.0D-11
 AO integral compression algorithm  1   Integral accuracy      1.0D-11

     0.262 MB (compressed) written to integral file (100.0%)


 NUMBER OF SORTED TWO-ELECTRON INTEGRALS:       2829.     BUFFER LENGTH:  32768
 NUMBER OF SEGMENTS:   1  SEGMENT LENGTH:       2829      RECORD LENGTH: 524288

 Memory used in sort:       0.56 MW

 SORT1 READ        8184. AND WROTE        2829. INTEGRALS IN      1 RECORDS. CPU TIME:     0.00 SEC, REAL TIME:     0.01 SEC
 SORT2 READ        2829. AND WROTE        2829. INTEGRALS IN      1 RECORDS. CPU TIME:     0.02 SEC, REAL TIME:     0.02 SEC

 FILE SIZES:   FILE 1:     2.8 MBYTE,  FILE 4:     4.2 MBYTE,   TOTAL:      7.0 MBYTE

 OPERATOR DM      FOR CENTER  0  COORDINATES:    0.000000    0.000000    0.000000


 **********************************************************************************************************************************
 DATASETS  * FILE   NREC   LENGTH (MB)   RECORD NAMES
              1      19        2.57       500      610      700      900      950      970     1000      129      960     1100   
                                          VAR    BASINP    GEOM    SYMINP    ZMAT    AOBASIS   BASIS     P2S    ABASIS      S 
                                         1400     1410     1200     1210     1080     1600     1650     1300     1700   
                                           T        V       H0       H01     AOSYM     SMH    MOLCAS    ERIS     OPER   

 PROGRAMS   *        TOTAL       INT
 CPU TIMES  *         0.59      0.10
 REAL TIME  *         0.94 SEC
 DISK USED  *         7.49 MB      
 **********************************************************************************************************************************

1PROGRAM * RHF-SCF (CLOSED SHELL)       Authors: W. Meyer, H.-J. Werner


 NUMBER OF ELECTRONS:       1+    1-
 CONVERGENCE THRESHOLDS:    1.00E-06 (Density)    1.00E-07 (Energy)
 MAX. NUMBER OF ITERATIONS:       60
 INTERPOLATION TYPE:            DIIS
 INTERPOLATION STEPS:              2 (START)      1 (STEP)
 LEVEL SHIFTS:                  0.00 (CLOSED)  0.00 (OPEN) 



 Orbital guess generated from atomic densities. Full valence occupancy:    1   0   0   0   1   0   0   0


 Molecular orbital dump at record        2100.2

 Initial alpha occupancy:   1   0   0   0   0   0   0
 Initial beta  occupancy:   1   0   0   0   0   0   0
 Wave function symmetry:    1

 ITERATION    DDIFF          GRAD             ENERGY        2-EL.EN.            DIPOLE MOMENTS         DIIS
    1      0.000D+00      0.000D+00        -1.12732686      1.278792    0.00000    0.00000    0.00000    0
    2      0.000D+00      0.803D-02        -1.12872859      1.309790    0.00000    0.00000    0.00000    1
    3      0.244D-01      0.136D-02        -1.12877795      1.316308    0.00000    0.00000    0.00000    2
    4      0.509D-02      0.105D-03        -1.12877827      1.316602    0.00000    0.00000    0.00000    3
    5      0.206D-03      0.563D-05        -1.12877828      1.316603    0.00000    0.00000    0.00000    4
    6      0.219D-04      0.283D-06        -1.12877828      1.316604    0.00000    0.00000    0.00000    4
    7      0.898D-06      0.323D-07        -1.12877828      1.316604    0.00000    0.00000    0.00000    0

 Final occupancy:   1   0   0   0   0   0   0

 !RHF STATE 1.1 Energy                 -1.128778275381
 Nuclear energy                         0.71510434
 One-electron energy                   -2.50218482
 Two-electron energy                    0.65830221
 Virial quotient                       -1.02920816
 !RHF STATE 1.1 Dipole moment           0.00000000     0.00000000     0.00000000
 Dipole moment /Debye                   0.00000000     0.00000000     0.00000000

 Orbital energies:

         1.1          2.1          3.1
     -0.592790     0.066958     0.416597

         1.2          2.2
      0.285138     1.604557

         1.3          2.3
      0.285138     1.604557

         1.5          2.5
      0.061494     0.231549

         1.6          2.6
      0.458703     2.243895

         1.7          2.7
      0.458703     2.243895


 **********************************************************************************************************************************
 DATASETS  * FILE   NREC   LENGTH (MB)   RECORD NAMES
              1      19        2.57       500      610      700      900      950      970     1000      129      960     1100   
                                          VAR    BASINP    GEOM    SYMINP    ZMAT    AOBASIS   BASIS     P2S    ABASIS      S 
                                         1400     1410     1200     1210     1080     1600     1650     1300     1700   
                                           T        V       H0       H01     AOSYM     SMH    MOLCAS    ERIS     OPER   

              2       3        0.26       700     1000     2100   
                                         GEOM     BASIS     RHF  

 PROGRAMS   *        TOTAL        HF       INT
 CPU TIMES  *         0.61      0.02      0.10
 REAL TIME  *         0.96 SEC
 DISK USED  *         7.49 MB      
 **********************************************************************************************************************************


1PROGRAM * MP2 (Closed-shell)     Authors: C. Hampel, H.-J. Werner, 1991, M. Deegan, P.J. Knowles, 1992


 Convergence thresholds:  THRVAR = 1.00D-12  THRDEN = 1.00D-08

 Number of closed-shell orbitals:   1 (   1   0   0   0   0   0   0 )
 Number of external orbitals:      17 (   4   2   2   0   5   2   2 )

 Molecular orbitals read from record     2100.2  Type=RHF/CANONICAL (state 1.1)

 Number of N-1 electron functions:               1
 Number of N-2 electron functions:               1
 Number of singly external CSFs:                 4
 Number of doubly external CSFs:                37
 Total number of CSFs:                          42

 Length of J-op  integral file:               0.00 MB
 Length of K-op  integral file:               0.04 MB

 Integral transformation finished. Total CPU:   0.00 sec, npass=  1  Memory used:   0.07 MW

 Memory needed for MP2:                      0.00 MW

 SCS-MP2 correlation energy:           -0.032738584366   (PS=  1.200000  PT=  0.333333)
 SCS-MP2 total energy:                 -1.161516859748


  Reference energy                     -1.128778275381
  MP2 singlet pair energy              -0.027282153639
  MP2 triplet pair energy               0.000000000000
  MP2 correlation energy               -0.027282153639

 !MP2 total energy                     -1.156060429020

 KEXT needed  1 integral passes. Memory used:   0.03 MW  CPU time:      0.00 sec


 Starting Coupled-perturbed Hartree-Fock, convergence threshold= 1.0D-06

 ITER  FOCK  DIIS      VAR         VARC       CPU
   1     0     1    0.12D-01    0.00D+00     0.00
   2     1     1    0.33D-02    0.00D+00     0.00
   3     1     2    0.34D-03    0.00D+00     0.00
   4     1     3    0.24D-04    0.00D+00     0.01
   5     1     4    0.14D-05    0.00D+00     0.01

 DIIS MATRIX SINGULAR,   0.400D-11 DIIS RESTARTED
   6     1     1    0.47D-06    0.00D+00     0.01

 CPHF convergence reached in  5 macroiterations and    0 microiterations.   Accuracy: 4.7306D-07

 CPHF solution written to record  4101.2

 Dipole moments (unrelaxed):            0.00000000     0.00000000     0.00000000
 Orbital relaxation contribution:      -0.00000000    -0.00000000    -0.00000000
 !MP2 dipole moments:                   0.00000000     0.00000000     0.00000000

 CPU-time for density and lagrangian:                  0.00 sec
 CPU-time for coupled-perturbed hartree-fock:          0.01 sec

 MP2 Gradient info saved on record         5200.1


 **********************************************************************************************************************************
 DATASETS  * FILE   NREC   LENGTH (MB)   RECORD NAMES
              1      21        2.57       500      610      700      900      950      970     1000      129      960     1100   
                                          VAR    BASINP    GEOM    SYMINP    ZMAT    AOBASIS   BASIS     P2S    ABASIS      S 
                                         1400     1410     1200     1210     1080     1600     1650     1300     1700     1380   
                                           T        V       H0       H01     AOSYM     SMH    MOLCAS    ERIS     OPER     JKOP   
                                         5200   
                                          MP2  

              2       5        0.27       700     1000     2100     4100     4101   
                                         GEOM     BASIS     RHF     CPHF     CPHF   

 PROGRAMS   *        TOTAL       MP2        HF       INT
 CPU TIMES  *         0.83      0.21      0.02      0.10
 REAL TIME  *         1.28 SEC
 DISK USED  *         7.49 MB      
 **********************************************************************************************************************************


 PROGRAM * OPT (Geometry optimization)     Authors: F. Eckert and H.-J. Werner


 BFGS update of hessian

 *** Long output written to logfile /home/ospite/Desktop/MMfP/Project6/H2/molpro/MP2/h2_aug-ccpVDZ.log ***


 Geometry optimization using default procedure for command MP2

 Geometry written to block  1 of record 700

 Making model hessian for Z-matrix coordinates

 Quadratic Steepest Descent - Minimum Search

 Optimization point 1

 Variable                      Last           Current        Next           Gradient       Hessian

 E(MP2) / Hartree            0.00000000    -1.15606043     0.00000000
 D / ANG                     0.00000000     0.74000000     0.75509190    -0.02123178     1.40683292
 Convergence:                0.00000000  (line search)     0.02851955     0.01123537  (total)

 Optimization point 2

 Variable                      Last           Current        Next           Gradient       Hessian

 E(MP2) / Hartree           -1.15606043    -1.15621646     0.00000000
 D / ANG                     0.74000000     0.75509190     0.75493841     0.00021815     1.42128766
 Convergence:                0.00000000  (line search)     0.00029005     0.00011544  (total)

 END OF GEOMETRY OPTIMIZATION.    TOTAL CPU:         2.8 SEC

 ITER.   ENERGY(OLD)    ENERGY(NEW)      DE          GRADMAX     GRADNORM    GRADRMS     STEPMAX     STEPLEN     STEPRMS
   1    -1.15606043    -1.15621646    -0.00015603  0.01123537  0.01123537  0.01123537  0.02851955  0.02851955  0.02851955
   2    -1.15621646    -1.15621648    -0.00000002  0.00011544  0.00011544  0.00011544  0.00029005  0.00029005  0.00029005

 Geometry written to block  1 of record 700


 **********************************************************************************************************************************
 DATASETS  * FILE   NREC   LENGTH (MB)   RECORD NAMES
              1      21        2.57       500      610      700      900      950      970     1000      129      960     1100   
                                          VAR    BASINP    GEOM    SYMINP    ZMAT    AOBASIS   BASIS     P2S    ABASIS      S 
                                         1400     1410     1200     1210     1080     1600     1650     1300     1700     1380   
                                           T        V       H0       H01     AOSYM     SMH    MOLCAS    ERIS     OPER     JKOP   
                                         5200   
                                          MP2  

              2       6        0.27       700     1000     2100     4100     4101     9001   
                                         GEOM     BASIS     RHF     CPHF     CPHF    DEN_MP2    

 PROGRAMS   *        TOTAL      OPTG       MP2        HF       INT
 CPU TIMES  *         3.64      2.81      0.21      0.02      0.10
 REAL TIME  *         4.91 SEC
 DISK USED  *         7.53 MB      
 **********************************************************************************************************************************


 PROGRAM * HESSIAN

 Computing numerical hessian using default procedure for command MP2

 Symmetry elements for unique displacements: X  Y  Z  

 Using no symmetry in wavefunction calculations

 Running default procedure: HF-SCF000  MP2


 Numerically approximating hessian using central gradient differences

 Task list generated. Total number of displacements:      4


 Numerical MP2 hessian completed. CPU-time:     5.70 sec, Elapsed:     6.56 sec

 MP2 hessian saved to record  5300.2

 FREQUENCIES * CALCULATION OF HARMONIC VIBRATIONAL SPECTRA FOR MP2


 Permanent Dipole Moment [debye]
   1-  3    0.000000    0.000000    0.000000

 Dipole Moment Norm    0.0000000 [debye]

 Dipole Moment Derivatives [debye/ang]
                   1             2             3             4             5             6
         1     0.0000021     0.0000000     0.0000000     0.0000021     0.0000000    -0.0000000
         2     0.0000000     0.0000021     0.0000000     0.0000000     0.0000021    -0.0000000
         3     0.0000000     0.0000000     0.0000012    -0.0000000    -0.0000000     0.0000012

 Projecting out rotations and translations

   Low Vibration      Wavenumber
        Nr             [1/cm] 
        1                0.00
        2                0.00
        3                0.00
        4                0.00
        5                0.00

     Vibration        Wavenumber
        Nr             [1/cm] 
        1             4463.70

 FREQUENCIES * CALCULATION OF NORMAL MODES FOR MP2


 Atomic Coordinates

  Nr  Atom  Charge       X              Y              Z

   1   H1    1.00    0.000000000    0.000000000   -0.713313421
   2   H2    1.00    0.000000000    0.000000000    0.713313421

 Frequencies dumped to record   5400.2

 Gradient norm at reference geometry: 0.21815D-03

 Normal Modes

                              1 Ag 
 Wavenumbers [cm-1]         4463.70
 Intensities [km/mol]          0.00
 Intensities [relative]        0.00
           H1X1            -0.00000
           H1Y1            -0.00000
           H1Z1             0.70432
           H2X2            -0.00000
           H2Y2            -0.00000
           H2Z2            -0.70432


 Normal Modes of low/zero frequencies

                                  1           2           3           4           5
 Wavenumbers [cm-1]            0.00        0.00        0.00        0.00        0.00
 Intensities [km/mol]          0.00        0.00        0.00        0.00        0.00
 Intensities [relative]        0.00        0.00        0.00        0.00        0.00
           H1X1             0.00000     0.00000     0.99605    -0.00000    -0.00000
           H1Y1             0.99553     0.03208    -0.00000    -0.00002     0.00301
           H1Z1            -0.00213    -0.00007    -0.00000    -0.00289     0.70431
           H2X2             0.00001     0.00000     0.00000     0.99605     0.00408
           H2Y2            -0.03208     0.99554    -0.00000    -0.00000     0.00001
           H2Z2            -0.00213    -0.00007    -0.00000    -0.00289     0.70431


 Zero point energy:  0.01016906 [H]     2231.85 [1/CM]       26.70 [KJ/MOL]
 Frequency information read from record  5400.2

 Dump information in style MOLDEN to ch4_aug-ccpvdz.molpro                                                           

 Molecular orbitals read from record     2100.2  Type=RHF/CANONICAL (state 1.1)
 Occupation numbers read from record     2100.2  Type=RHF/RHF (state 1.1)
 Orbital energies read from record       2100.2  Type=RHF/CANONICAL (state 1.1)
 Redundancy group numbers read from rec  2100.2  Type=RHF/RHF (state 1.1)

 DUMP ORBITAL  1.1 AS ORBITAL    1  occ=    2.0000  eig=   -0.5883  GROUP=   2

 Total charge:       2.000000
 Frequency information read from record  5400.2

 **********************************************************************************************************************************

       OPTG(MP2)        MP2             HF-SCF  
     -1.15621648     -1.15606043     -1.12877828
 **********************************************************************************************************************************
 Variable memory released
