
 Primary working directories    : /data/scratch
 Secondary working directories  : /data/scratch
 Wavefunction directory         : /home/ospite/wfu/
 Main file repository           : /data/scratch/

 ARCHNAME  : Linux/x86_64
 FC        : /usr/bin/gfortran
 FCVERSION : 4.8.5
 BLASLIB   : 
 id        : polimi

 Nodes     nprocs
 molmod       1

 Using default tuning parameters: mindgm=1; mindgv=20; mindgc=4; mindgr=1; noblas=0; mincuda=1000; minvec=7
 default implementation of scratch files=df  

 ***,hydrogen and sto-g3 basis set
 memory,100,m
 nosym
 
 basis=sto-3g
 
 geometry={angstrom
 H1
 H2, H1, d
 }
 
 d=0.74 Ang
 
 hf
 mp2
 optg
 frequencies
 put,molden,ch4_sto-3g.molpro

 Variables initialized (661), CPU time= 0.01 sec
 Commands  initialized (458), CPU time= 0.05 sec, 486 directives.
 Default parameters read. Elapsed time= 0.12 sec

 Checking input...
 Passed
1


                                         ***  PROGRAM SYSTEM MOLPRO  ***
                         Copyright, University College Cardiff Consultants Limited, 2008

                                    Version 2010.1 linked Mar  6 2018 16:01:50


 **********************************************************************************************************************************
 LABEL *   hydrogen and sto-g3 basis set                                                 
 Linux-3.10.0-1160.108.1.el7.x86_64/molmod(x86_64) 64 bit serial version                 DATE: 18-Aug-24          TIME: 15:20:36  
 **********************************************************************************************************************************

 SHA1:             d90fb18d49a3be29a79769f900c595ef3b8176e2
 **********************************************************************************************************************************

 Variable memory set to  100000000 words,  buffer space   230000 words

 SETTING BASIS          =    STO-3G
 ZSYMEL=NOSYM

 SETTING D              =         0.74000000  ANG                             


 Recomputing integrals since basis changed


 Using spherical harmonics

 Library entry H      S STO-3G               selected for orbital group  1

1PROGRAM * SEWARD (Integral evaluation for generally contracted gaussian basis sets)     Author: Roland Lindh, 1990

 Geometry written to block  1 of record 700

 Orientation using atomic masses  
 Molecule type: Linear
 Rotational constants:    1831.2560048   1831.2560048      0.0000000 GHz  (calculated with average atomic masses)

 Point group  C1  



 ATOMIC COORDINATES

 NR  ATOM    CHARGE       X              Y              Z

   1  H1      1.00    0.000000000    0.000000000   -0.699198669
   2  H2      1.00    0.000000000    0.000000000    0.699198669

 Bond lengths in Bohr (Angstrom)

 1-2  1.398397337
     ( 0.740000000)

 NUCLEAR CHARGE:                    2
 NUMBER OF PRIMITIVE AOS:           6
 NUMBER OF SYMMETRY AOS:            6
 NUMBER OF CONTRACTIONS:            2   (   2A   )
 NUMBER OF CORE ORBITALS:           0   (   0A   )
 NUMBER OF VALENCE ORBITALS:        2   (   2A   )


 NUCLEAR REPULSION ENERGY    0.71510434


 Eigenvalues of metric

         1 0.340E+00 0.166E+01


 Contracted 2-electron integrals neglected if value below      1.0D-11
 AO integral compression algorithm  1   Integral accuracy      1.0D-11

     0.262 MB (compressed) written to integral file (100.0%)


 NUMBER OF SORTED TWO-ELECTRON INTEGRALS:          6.     BUFFER LENGTH:  32768
 NUMBER OF SEGMENTS:   1  SEGMENT LENGTH:          6      RECORD LENGTH: 524288

 Memory used in sort:       0.56 MW

 SORT1 READ           7. AND WROTE           6. INTEGRALS IN      1 RECORDS. CPU TIME:     0.00 SEC, REAL TIME:     0.00 SEC
 SORT2 READ           6. AND WROTE           6. INTEGRALS IN      1 RECORDS. CPU TIME:     0.00 SEC, REAL TIME:     0.01 SEC

 FILE SIZES:   FILE 1:     2.8 MBYTE,  FILE 4:     4.2 MBYTE,   TOTAL:      7.0 MBYTE

 OPERATOR DM      FOR CENTER  0  COORDINATES:    0.000000    0.000000    0.000000


 **********************************************************************************************************************************
 DATASETS  * FILE   NREC   LENGTH (MB)   RECORD NAMES
              1      19        2.53       500      610      700      900      950      970     1000      129      960     1100   
                                          VAR    BASINP    GEOM    SYMINP    ZMAT    AOBASIS   BASIS     P2S    ABASIS      S 
                                         1400     1410     1200     1210     1080     1600     1650     1300     1700   
                                           T        V       H0       H01     AOSYM     SMH    MOLCAS    ERIS     OPER   

 PROGRAMS   *        TOTAL       INT
 CPU TIMES  *         0.57      0.11
 REAL TIME  *         0.71 SEC
 DISK USED  *         7.47 MB      
 **********************************************************************************************************************************

1PROGRAM * RHF-SCF (CLOSED SHELL)       Authors: W. Meyer, H.-J. Werner


 NUMBER OF ELECTRONS:       1+    1-    SPACE SYMMETRY=1    SPIN SYMMETRY: Singlet 
 CONVERGENCE THRESHOLDS:    1.00E-06 (Density)    1.00E-07 (Energy)
 MAX. NUMBER OF ITERATIONS:       60
 INTERPOLATION TYPE:            DIIS
 INTERPOLATION STEPS:              2 (START)      1 (STEP)
 LEVEL SHIFTS:                  0.00 (CLOSED)  0.00 (OPEN) 



 Orbital guess generated from atomic densities. Full valence occupancy:    1

 Molecular orbital dump at record        2100.2

 ITERATION    DDIFF          GRAD             ENERGY        2-EL.EN.            DIPOLE MOMENTS         DIIS
    1      0.000D+00      0.000D+00        -1.11675931      1.349512    0.00000    0.00000    0.00000    0
    2      0.000D+00      0.000D+00        -1.11675931      1.349512    0.00000    0.00000    0.00000    0
    3      0.222D-15      0.111D-15        -1.11675931      1.349512    0.00000    0.00000    0.00000    0
    4      0.231D-15      0.000D+00        -1.11675931      1.349512    0.00000    0.00000    0.00000    0

 Final occupancy:   1

 !RHF STATE 1.1 Energy                 -1.116759307275
 Nuclear energy                         0.71510434
 One-electron energy                   -2.50661957
 Two-electron energy                    0.67475593
 Virial quotient                       -0.92963559
 !RHF STATE 1.1 Dipole moment           0.00000000     0.00000000     0.00000000
 Dipole moment /Debye                   0.00000000     0.00000000     0.00000000

 Orbital energies:

         1.1          2.1
     -0.578554     0.671143


 **********************************************************************************************************************************
 DATASETS  * FILE   NREC   LENGTH (MB)   RECORD NAMES
              1      19        2.53       500      610      700      900      950      970     1000      129      960     1100   
                                          VAR    BASINP    GEOM    SYMINP    ZMAT    AOBASIS   BASIS     P2S    ABASIS      S 
                                         1400     1410     1200     1210     1080     1600     1650     1300     1700   
                                           T        V       H0       H01     AOSYM     SMH    MOLCAS    ERIS     OPER   

              2       3        0.26       700     1000     2100   
                                         GEOM     BASIS     RHF  

 PROGRAMS   *        TOTAL        HF       INT
 CPU TIMES  *         0.60      0.03      0.11
 REAL TIME  *         0.75 SEC
 DISK USED  *         7.47 MB      
 **********************************************************************************************************************************


1PROGRAM * MP2 (Closed-shell)     Authors: C. Hampel, H.-J. Werner, 1991, M. Deegan, P.J. Knowles, 1992


 Convergence thresholds:  THRVAR = 1.00D-12  THRDEN = 1.00D-08

 Number of closed-shell orbitals:   1 (   1 )
 Number of external orbitals:       1 (   1 )

 Molecular orbitals read from record     2100.2  Type=RHF/CANONICAL (state 1.1)

 Number of N-1 electron functions:               1
 Number of N-2 electron functions:               1
 Number of singly external CSFs:                 1
 Number of doubly external CSFs:                 1
 Total number of CSFs:                           3

 Length of J-op  integral file:               0.00 MB
 Length of K-op  integral file:               0.03 MB

 Integral transformation finished. Total CPU:   0.00 sec, npass=  1  Memory used:   0.07 MW

 Memory needed for MP2:                      0.00 MW

 SCS-MP2 correlation energy:           -0.015765688383   (PS=  1.200000  PT=  0.333333)
 SCS-MP2 total energy:                 -1.132524995659


  Reference energy                     -1.116759307275
  MP2 singlet pair energy              -0.013138073653
  MP2 triplet pair energy               0.000000000000
  MP2 correlation energy               -0.013138073653

 !MP2 total energy                     -1.129897380928

 KEXT needed  1 integral passes. Memory used:   0.03 MW  CPU time:      0.00 sec


 Starting Coupled-perturbed Hartree-Fock, convergence threshold= 1.0D-06

 ITER  FOCK  DIIS      VAR         VARC       CPU
   1     0     1    0.31D-16    0.00D+00     0.00

 CPHF convergence reached in  0 macroiterations and    0 microiterations.   Accuracy: 3.0846D-17

 CPHF solution written to record  4101.2

 Dipole moments (unrelaxed):            0.00000000     0.00000000     0.00000000
 Orbital relaxation contribution:      -0.00000000    -0.00000000     0.00000000
 !MP2 dipole moments:                   0.00000000     0.00000000     0.00000000

 CPU-time for density and lagrangian:                  0.00 sec
 CPU-time for coupled-perturbed hartree-fock:          0.00 sec

 MP2 Gradient info saved on record         5200.1


 **********************************************************************************************************************************
 DATASETS  * FILE   NREC   LENGTH (MB)   RECORD NAMES
              1      21        2.53       500      610      700      900      950      970     1000      129      960     1100   
                                          VAR    BASINP    GEOM    SYMINP    ZMAT    AOBASIS   BASIS     P2S    ABASIS      S 
                                         1400     1410     1200     1210     1080     1600     1650     1300     1700     1380   
                                           T        V       H0       H01     AOSYM     SMH    MOLCAS    ERIS     OPER     JKOP   
                                         5200   
                                          MP2  

              2       5        0.26       700     1000     2100     4100     4101   
                                         GEOM     BASIS     RHF     CPHF     CPHF   

 PROGRAMS   *        TOTAL       MP2        HF       INT
 CPU TIMES  *         0.85      0.24      0.03      0.11
 REAL TIME  *         1.21 SEC
 DISK USED  *         7.47 MB      
 **********************************************************************************************************************************


 PROGRAM * OPT (Geometry optimization)     Authors: F. Eckert and H.-J. Werner


 BFGS update of hessian

 *** Long output written to logfile /home/ospite/Desktop/MMfP/Project6/H2/molpro/MP2/h2_sto-3g.log ***


 Geometry optimization using default procedure for command MP2

 Geometry written to block  1 of record 700

 Making model hessian for Z-matrix coordinates

 Quadratic Steepest Descent - Minimum Search

 Optimization point 1

 Variable                      Last           Current        Next           Gradient       Hessian

 E(MP2) / Hartree            0.00000000    -1.12989738     0.00000000
 D / ANG                     0.00000000     0.74000000     0.71940079     0.02897965     1.40683292
 Convergence:                0.00000000  (line search)     0.03892687     0.01533537  (total)

 Optimization point 2

 Variable                      Last           Current        Next           Gradient       Hessian

 E(MP2) / Hartree           -1.12989738    -1.13011905     0.00000000
 D / ANG                     0.74000000     0.71940079     0.72396422    -0.00824696     1.80718629
 Convergence:                0.00000000  (line search)     0.00862363     0.00436411  (total)

 Optimization point 3

 Variable                      Last           Current        Next           Gradient       Hessian

 E(MP2) / Hartree           -1.13011905    -1.13013683     0.00000000
 D / ANG                     0.71940079     0.72396422     0.72374653     0.00041310     1.89771112
 Convergence:                0.00000000  (line search)     0.00041137     0.00021860  (total)

 END OF GEOMETRY OPTIMIZATION.    TOTAL CPU:         4.2 SEC

 ITER.   ENERGY(OLD)    ENERGY(NEW)      DE          GRADMAX     GRADNORM    GRADRMS     STEPMAX     STEPLEN     STEPRMS
   1    -1.12989738    -1.13011905    -0.00022167  0.01533537  0.01533537  0.01533537  0.03892687  0.03892687  0.03892687
   2    -1.13011905    -1.13013683    -0.00001778  0.00436411  0.00436411  0.00436411  0.00862363  0.00862363  0.00862363
   3    -1.13013683    -1.13013688    -0.00000005  0.00021860  0.00021860  0.00021860  0.00041137  0.00041137  0.00041137

 Geometry written to block  1 of record 700


 **********************************************************************************************************************************
 DATASETS  * FILE   NREC   LENGTH (MB)   RECORD NAMES
              1      21        2.53       500      610      700      900      950      970     1000      129      960     1100   
                                          VAR    BASINP    GEOM    SYMINP    ZMAT    AOBASIS   BASIS     P2S    ABASIS      S 
                                         1400     1410     1200     1210     1080     1600     1650     1300     1700     1380   
                                           T        V       H0       H01     AOSYM     SMH    MOLCAS    ERIS     OPER     JKOP   
                                         5200   
                                          MP2  

              2       6        0.26       700     1000     2100     4100     4101     9001   
                                         GEOM     BASIS     RHF     CPHF     CPHF    DEN_MP2    

 PROGRAMS   *        TOTAL      OPTG       MP2        HF       INT
 CPU TIMES  *         5.04      4.17      0.24      0.03      0.11
 REAL TIME  *         6.28 SEC
 DISK USED  *         7.51 MB      
 **********************************************************************************************************************************


 PROGRAM * HESSIAN

 Computing numerical hessian using default procedure for command MP2

 Symmetry elements for unique displacements: X  Y  Z  

 Using no symmetry in wavefunction calculations

 Running default procedure: HF-SCF000  MP2


 Numerically approximating hessian using central gradient differences

 Task list generated. Total number of displacements:      4


 Numerical MP2 hessian completed. CPU-time:     5.35 sec, Elapsed:     5.48 sec

 MP2 hessian saved to record  5300.2

 FREQUENCIES * CALCULATION OF HARMONIC VIBRATIONAL SPECTRA FOR MP2


 Permanent Dipole Moment [debye]
   1-  3    0.000000    0.000000    0.000000

 Dipole Moment Norm    0.0000000 [debye]

 Dipole Moment Derivatives [debye/ang]
                   1             2             3             4             5             6
         1    -0.0000000     0.0000000     0.0000000    -0.0000000     0.0000000    -0.0000000
         2     0.0000000    -0.0000000     0.0000000     0.0000000    -0.0000000    -0.0000000
         3     0.0000000     0.0000000    -0.0000000    -0.0000000    -0.0000000    -0.0000000

 Projecting out rotations and translations

   Low Vibration      Wavenumber
        Nr             [1/cm] 
        1                0.00
        2                0.00
        3                0.00
        4                0.00
        5                0.00

     Vibration        Wavenumber
        Nr             [1/cm] 
        1             5245.41

 FREQUENCIES * CALCULATION OF NORMAL MODES FOR MP2


 Atomic Coordinates

  Nr  Atom  Charge       X              Y              Z

   1   H1    1.00    0.000000000    0.000000000   -0.683841366
   2   H2    1.00    0.000000000    0.000000000    0.683841366

 Frequencies dumped to record   5400.2

 Gradient norm at reference geometry: 0.41310D-03

 Normal Modes

                              1 Ag 
 Wavenumbers [cm-1]         5245.41
 Intensities [km/mol]          0.00
 Intensities [relative]        0.00
           H1X1            -0.00000
           H1Y1            -0.00000
           H1Z1             0.70432
           H2X2            -0.00000
           H2Y2            -0.00000
           H2Z2            -0.70432


 Normal Modes of low/zero frequencies

                                  1           2           3           4           5
 Wavenumbers [cm-1]            0.00        0.00        0.00        0.00        0.00
 Intensities [km/mol]          0.00        0.00        0.00        0.00        0.00
 Intensities [relative]        0.00        0.00        0.00        0.00        0.00
           H1X1            -0.00000     0.00000     0.70432     0.00000     0.70432
           H1Y1             0.70432     0.00000     0.00000     0.70432    -0.00000
           H1Z1            -0.00000     0.70432    -0.00000     0.00000     0.00000
           H2X2            -0.00000     0.00000     0.70432     0.00000    -0.70432
           H2Y2             0.70432     0.00000     0.00000    -0.70432     0.00000
           H2Z2             0.00000     0.70432    -0.00000     0.00000     0.00000


 Zero point energy:  0.01194992 [H]     2622.70 [1/CM]       31.37 [KJ/MOL]
 Frequency information read from record  5400.2

 Dump information in style MOLDEN to ch4_sto-3g.molpro                                                               

 Molecular orbitals read from record     2100.2  Type=RHF/CANONICAL (state 1.1)
 Occupation numbers read from record     2100.2  Type=RHF/RHF (state 1.1)
 Orbital energies read from record       2100.2  Type=RHF/CANONICAL (state 1.1)
 Redundancy group numbers read from rec  2100.2  Type=RHF/RHF (state 1.1)

 DUMP ORBITAL  1.1 AS ORBITAL    1  occ=    2.0000  eig=   -0.5853  GROUP=   2

 Total charge:       2.000000
 Frequency information read from record  5400.2

 **********************************************************************************************************************************

       OPTG(MP2)        MP2             HF-SCF  
     -1.13013688     -1.12989738     -1.11675931
 **********************************************************************************************************************************
 Variable memory released
