 Entering Gaussian System, Link 0=/programs/64bit/g09/g09-gfortran/bin/g09
 Input=reactants_opt.com
 Output=reactants_opt.log
 Initial command:
 /programs/64bit/g09/g09-gfortran/bin/l1.exe /home/ospite/Desktop/MMfP/Project9/CH4/forward/iguess_search/Gau-31358.inp -scrdir=/home/ospite/Desktop/MMfP/Project9/CH4/forward/iguess_search/
 Entering Link 1 = /programs/64bit/g09/g09-gfortran/bin/l1.exe PID=     31359.
  
 Copyright (c) 1988,1990,1992,1993,1995,1998,2003,2009, Gaussian, Inc.
                  All Rights Reserved.
  
 This is part of the Gaussian(R) 09 program.  It is based on
 the Gaussian(R) 03 system (copyright 2003, Gaussian, Inc.),
 the Gaussian(R) 98 system (copyright 1998, Gaussian, Inc.),
 the Gaussian(R) 94 system (copyright 1995, Gaussian, Inc.),
 the Gaussian 92(TM) system (copyright 1992, Gaussian, Inc.),
 the Gaussian 90(TM) system (copyright 1990, Gaussian, Inc.),
 the Gaussian 88(TM) system (copyright 1988, Gaussian, Inc.),
 the Gaussian 86(TM) system (copyright 1986, Carnegie Mellon
 University), and the Gaussian 82(TM) system (copyright 1983,
 Carnegie Mellon University). Gaussian is a federally registered
 trademark of Gaussian, Inc.
  
 This software contains proprietary and confidential information,
 including trade secrets, belonging to Gaussian, Inc.
  
 This software is provided under written license and may be
 used, copied, transmitted, or stored only in accord with that
 written license.
  
 The following legend is applicable only to US Government
 contracts under FAR:
  
                    RESTRICTED RIGHTS LEGEND
  
 Use, reproduction and disclosure by the US Government is
 subject to restrictions as set forth in subparagraphs (a)
 and (c) of the Commercial Computer Software - Restricted
 Rights clause in FAR 52.227-19.
  
 Gaussian, Inc.
 340 Quinnipiac St., Bldg. 40, Wallingford CT 06492
  
  
 ---------------------------------------------------------------
 Warning -- This program may not be used in any manner that
 competes with the business of Gaussian, Inc. or will provide
 assistance to any competitor of Gaussian, Inc.  The licensee
 of this program is prohibited from giving any competitor of
 Gaussian, Inc. access to this program.  By using this program,
 the user acknowledges that Gaussian, Inc. is engaged in the
 business of creating and licensing software in the field of
 computational chemistry and represents and warrants to the
 licensee that it is not a competitor of Gaussian, Inc. and that
 it will not use this program in any manner prohibited above.
 ---------------------------------------------------------------
  

 Cite this work as:
 Gaussian 09, Revision A.02,
 M. J. Frisch, G. W. Trucks, H. B. Schlegel, G. E. Scuseria, 
 M. A. Robb, J. R. Cheeseman, G. Scalmani, V. Barone, B. Mennucci, 
 G. A. Petersson, H. Nakatsuji, M. Caricato, X. Li, H. P. Hratchian, 
 A. F. Izmaylov, J. Bloino, G. Zheng, J. L. Sonnenberg, M. Hada, 
 M. Ehara, K. Toyota, R. Fukuda, J. Hasegawa, M. Ishida, T. Nakajima, 
 Y. Honda, O. Kitao, H. Nakai, T. Vreven, J. A. Montgomery, Jr., 
 J. E. Peralta, F. Ogliaro, M. Bearpark, J. J. Heyd, E. Brothers, 
 K. N. Kudin, V. N. Staroverov, R. Kobayashi, J. Normand, 
 K. Raghavachari, A. Rendell, J. C. Burant, S. S. Iyengar, J. Tomasi, 
 M. Cossi, N. Rega, J. M. Millam, M. Klene, J. E. Knox, J. B. Cross, 
 V. Bakken, C. Adamo, J. Jaramillo, R. Gomperts, R. E. Stratmann, 
 O. Yazyev, A. J. Austin, R. Cammi, C. Pomelli, J. W. Ochterski, 
 R. L. Martin, K. Morokuma, V. G. Zakrzewski, G. A. Voth, 
 P. Salvador, J. J. Dannenberg, S. Dapprich, A. D. Daniels, 
 O. Farkas, J. B. Foresman, J. V. Ortiz, J. Cioslowski, 
 and D. J. Fox, Gaussian, Inc., Wallingford CT, 2009.
 
 ******************************************
 Gaussian 09:  EM64L-G09RevA.02 11-Jun-2009
                13-Sep-2024 
 ******************************************
 %nprocshared=2
 Will use up to    2 processors via shared memory.
 %mem=500MB
 %chk=ch4+h_to_ch3+h2.chk
 -------------------------------------------------------------------
 #p B3LYP/aug-cc-pVTZ opt(internal) temperature=300 pop=full gfinput
 -------------------------------------------------------------------
 1/10=7,14=-1,18=40,26=3,38=1,111=300000/1,3;
 2/12=2,17=6,18=5,29=3,40=1/2;
 3/5=16,6=1,7=10,11=2,16=1,24=10,25=1,30=1,71=1,74=-5/1,2,3;
 4//1;
 5/5=2,38=5/2;
 6/7=3,28=1/1;
 7/29=1/1,2,3,16;
 1/10=7,14=-1,18=40/3(2);
 2/29=3/2;
 99//99;
 2/29=3/2;
 3/5=16,6=1,7=10,11=2,16=1,25=1,30=1,71=1,74=-5/1,2,3;
 4/5=5,16=3/1;
 5/5=2,38=5/2;
 7//1,2,3,16;
 1/14=-1,18=40/3(-5);
 2/29=3/2;
 6/7=3,19=2,28=1/1;
 99/9=1/99;
 Leave Link    1 at Fri Sep 13 15:08:45 2024, MaxMem=   65536000 cpu:       0.1
 (Enter /programs/64bit/g09/g09-gfortran/bin/l101.exe)
 ---------------
 ch4+h to ch3+h2
 ---------------
 Symbolic Z-matrix:
 Charge =  0 Multiplicity = 2
 c
 h                    1    hc2
 h                    1    hc3      2    hch3
 h                    1    hc4      2    hch4     3    dih4     0
 h                    1    hc5      2    hch5     3    dih5     0
 h                    1    hc6      5    hch6     3    dih6     0
       Variables:
  hc2                   1.089                    
  hc3                   1.089                    
  hch3                109.471                    
  hc4                   1.089                    
  hch4                109.471                    
  dih4                120.                       
  hch5                109.471                    
  dih5               -120.                       
  hc6                   2.57                     
  hch6                  0.                       
  dih6                  0.                       
  hc5                   1.089                    
 
     3 tetrahedral angles replaced.
 NAtoms=      6 NQM=      6 NQMF=      0 NMic=      0 NMicF=      0 NTot=      6.
    3 tetrahedral angles replaced.
                    Isotopes and Nuclear Properties:
 (Nuclear quadrupole moments (NQMom) in fm**2, nuclear magnetic moments (NMagM)
  in nuclear magnetons)

  Atom         1           2           3           4           5           6
 IAtWgt=          12           1           1           1           1           1
 AtmWgt=  12.0000000   1.0078250   1.0078250   1.0078250   1.0078250   1.0078250
 NucSpn=           0           1           1           1           1           1
 AtZEff=   0.0000000   0.0000000   0.0000000   0.0000000   0.0000000   0.0000000
 NQMom=    0.0000000   0.0000000   0.0000000   0.0000000   0.0000000   0.0000000
 NMagM=    0.0000000   2.7928460   2.7928460   2.7928460   2.7928460   2.7928460
 Leave Link  101 at Fri Sep 13 15:08:45 2024, MaxMem=   65536000 cpu:       0.1
 (Enter /programs/64bit/g09/g09-gfortran/bin/l103.exe)

 GradGradGradGradGradGradGradGradGradGradGradGradGradGradGradGradGradGrad
 Berny optimization.
 Initialization pass.
                       ----------------------------
                       !    Initial Parameters    !
                       ! (Angstroms and Degrees)  !
 ----------------------                            ----------------------
 !      Name          Value   Derivative information (Atomic Units)     !
 ------------------------------------------------------------------------
 !       hc2         1.089    estimate D2E/DX2                          !
 !       hc3         1.089    estimate D2E/DX2                          !
 !      hch3       109.4712   estimate D2E/DX2                          !
 !       hc4         1.089    estimate D2E/DX2                          !
 !      hch4       109.4712   estimate D2E/DX2                          !
 !      dih4       120.0      estimate D2E/DX2                          !
 !      hch5       109.4712   estimate D2E/DX2                          !
 !      dih5      -120.0      estimate D2E/DX2                          !
 !       hc6         2.57     estimate D2E/DX2                          !
 !      hch6         0.0      estimate D2E/DX2                          !
 !      dih6         0.0      estimate D2E/DX2                          !
 !       hc5         1.089    estimate D2E/DX2                          !
 ------------------------------------------------------------------------
 Trust Radius=3.00D-01 FncErr=1.00D-07 GrdErr=1.00D-06
 Number of steps in this run=  22 maximum allowed number of steps= 100.
 GradGradGradGradGradGradGradGradGradGradGradGradGradGradGradGradGradGrad

 Leave Link  103 at Fri Sep 13 15:08:45 2024, MaxMem=   65536000 cpu:       0.0
 (Enter /programs/64bit/g09/g09-gfortran/bin/l202.exe)
 ---------------------------------------------------------------------------------------------------
                            Z-MATRIX (ANGSTROMS AND DEGREES)
   CD    Cent   Atom    N1       Length/X        N2       Alpha/Y        N3        Beta/Z          J
 ---------------------------------------------------------------------------------------------------
      1      1  C 
      2      2  H        1   1.089000(     1)
      3      3  H        1   1.089000(     2)      2  109.471(     6)
      4      4  H        1   1.089000(     3)      2  109.471(     7)      3  120.000(    10)      0
      5      5  H        1   1.089000(     4)      2  109.471(     8)      3 -120.000(    11)      0
      6      6  H        1   2.570000(     5)      5    0.000(     9)      3    0.000(    12)      0
 ---------------------------------------------------------------------------------------------------
                         Z-Matrix orientation:                         
 ---------------------------------------------------------------------
 Center     Atomic      Atomic             Coordinates (Angstroms)
 Number     Number       Type             X           Y           Z
 ---------------------------------------------------------------------
      1          6           0        0.000000    0.000000    0.000000
      2          1           0        0.000000    0.000000    1.089000
      3          1           0        1.026719    0.000000   -0.363000
      4          1           0       -0.513360   -0.889165   -0.363000
      5          1           0       -0.513360    0.889165   -0.363000
      6          1           0       -1.211510    2.098396   -0.856667
 ---------------------------------------------------------------------
                    Distance matrix (angstroms):
                    1          2          3          4          5
     1  C    0.000000
     2  H    1.089000   0.000000
     3  H    1.089000   1.778330   0.000000
     4  H    1.089000   1.778330   1.778330   0.000000
     5  H    1.089000   1.778330   1.778330   1.778330   0.000000
     6  H    2.570000   3.107514   3.107514   3.107514   1.481000
                    6
     6  H    0.000000
 Stoichiometry    CH5(2)
 Framework group  C3V[C3(HHC),3SGV(H)]
 Deg. of freedom     4
 Full point group                 C3V     NOp   6
 Largest Abelian subgroup         CS      NOp   2
 Largest concise Abelian subgroup CS      NOp   2
                         Standard orientation:                         
 ---------------------------------------------------------------------
 Center     Atomic      Atomic             Coordinates (Angstroms)
 Number     Number       Type             X           Y           Z
 ---------------------------------------------------------------------
      1          6           0       -0.000000   -0.000000    0.233636
      2          1           0       -0.000000    1.026719    0.596636
      3          1           0        0.889165   -0.513360    0.596636
      4          1           0       -0.889165   -0.513360    0.596636
      5          1           0        0.000000    0.000000   -0.855364
      6          1           0        0.000000    0.000000   -2.336364
 ---------------------------------------------------------------------
 Rotational constants (GHZ):    158.5650837     53.4788958     53.4788958
 Leave Link  202 at Fri Sep 13 15:08:45 2024, MaxMem=   65536000 cpu:       0.0
 (Enter /programs/64bit/g09/g09-gfortran/bin/l301.exe)
 Standard basis: Aug-CC-pVTZ (5D, 7F)
 Ernie: Thresh=  0.10000D-02 Tol=  0.10000D-05 Strict=F.
 Ernie:  3 primitive shells out of 85 were deleted.
 AO basis set in the form of general basis input (Overlap normalization):
      1 0
 S   7 1.00       0.000000000000
      0.8236000000D+04  0.5419783203D-03
      0.1235000000D+04  0.4192873817D-02
      0.2808000000D+03  0.2152216205D-01
      0.7927000000D+02  0.8353432195D-01
      0.2559000000D+02  0.2395828457D+00
      0.8997000000D+01  0.4428528419D+00
      0.3319000000D+01  0.3517995618D+00
 S   6 1.00       0.000000000000
      0.2808000000D+03 -0.5949224937D-04
      0.7927000000D+02 -0.1148158310D-02
      0.2559000000D+02 -0.1001913745D-01
      0.8997000000D+01 -0.6121949230D-01
      0.3319000000D+01 -0.1732698541D+00
      0.3643000000D+00  0.1072915192D+01
 S   1 1.00       0.000000000000
      0.9059000000D+00  0.1000000000D+01
 S   1 1.00       0.000000000000
      0.1285000000D+00  0.1000000000D+01
 S   1 1.00       0.000000000000
      0.4402000000D-01  0.1000000000D+01
 P   3 1.00       0.000000000000
      0.1871000000D+02  0.3942638716D-01
      0.4133000000D+01  0.2440889849D+00
      0.1200000000D+01  0.8154920089D+00
 P   1 1.00       0.000000000000
      0.3827000000D+00  0.1000000000D+01
 P   1 1.00       0.000000000000
      0.1209000000D+00  0.1000000000D+01
 P   1 1.00       0.000000000000
      0.3569000000D-01  0.1000000000D+01
 D   1 1.00       0.000000000000
      0.1097000000D+01  0.1000000000D+01
 D   1 1.00       0.000000000000
      0.3180000000D+00  0.1000000000D+01
 D   1 1.00       0.000000000000
      0.1000000000D+00  0.1000000000D+01
 F   1 1.00       0.000000000000
      0.7610000000D+00  0.1000000000D+01
 F   1 1.00       0.000000000000
      0.2680000000D+00  0.1000000000D+01
 ****
      2 0
 S   3 1.00       0.000000000000
      0.3387000000D+02  0.2549486323D-01
      0.5095000000D+01  0.1903627659D+00
      0.1159000000D+01  0.8521620222D+00
 S   1 1.00       0.000000000000
      0.3258000000D+00  0.1000000000D+01
 S   1 1.00       0.000000000000
      0.1027000000D+00  0.1000000000D+01
 S   1 1.00       0.000000000000
      0.2526000000D-01  0.1000000000D+01
 P   1 1.00       0.000000000000
      0.1407000000D+01  0.1000000000D+01
 P   1 1.00       0.000000000000
      0.3880000000D+00  0.1000000000D+01
 P   1 1.00       0.000000000000
      0.1020000000D+00  0.1000000000D+01
 D   1 1.00       0.000000000000
      0.1057000000D+01  0.1000000000D+01
 D   1 1.00       0.000000000000
      0.2470000000D+00  0.1000000000D+01
 ****
      3 0
 S   3 1.00       0.000000000000
      0.3387000000D+02  0.2549486323D-01
      0.5095000000D+01  0.1903627659D+00
      0.1159000000D+01  0.8521620222D+00
 S   1 1.00       0.000000000000
      0.3258000000D+00  0.1000000000D+01
 S   1 1.00       0.000000000000
      0.1027000000D+00  0.1000000000D+01
 S   1 1.00       0.000000000000
      0.2526000000D-01  0.1000000000D+01
 P   1 1.00       0.000000000000
      0.1407000000D+01  0.1000000000D+01
 P   1 1.00       0.000000000000
      0.3880000000D+00  0.1000000000D+01
 P   1 1.00       0.000000000000
      0.1020000000D+00  0.1000000000D+01
 D   1 1.00       0.000000000000
      0.1057000000D+01  0.1000000000D+01
 D   1 1.00       0.000000000000
      0.2470000000D+00  0.1000000000D+01
 ****
      4 0
 S   3 1.00       0.000000000000
      0.3387000000D+02  0.2549486323D-01
      0.5095000000D+01  0.1903627659D+00
      0.1159000000D+01  0.8521620222D+00
 S   1 1.00       0.000000000000
      0.3258000000D+00  0.1000000000D+01
 S   1 1.00       0.000000000000
      0.1027000000D+00  0.1000000000D+01
 S   1 1.00       0.000000000000
      0.2526000000D-01  0.1000000000D+01
 P   1 1.00       0.000000000000
      0.1407000000D+01  0.1000000000D+01
 P   1 1.00       0.000000000000
      0.3880000000D+00  0.1000000000D+01
 P   1 1.00       0.000000000000
      0.1020000000D+00  0.1000000000D+01
 D   1 1.00       0.000000000000
      0.1057000000D+01  0.1000000000D+01
 D   1 1.00       0.000000000000
      0.2470000000D+00  0.1000000000D+01
 ****
      5 0
 S   3 1.00       0.000000000000
      0.3387000000D+02  0.2549486323D-01
      0.5095000000D+01  0.1903627659D+00
      0.1159000000D+01  0.8521620222D+00
 S   1 1.00       0.000000000000
      0.3258000000D+00  0.1000000000D+01
 S   1 1.00       0.000000000000
      0.1027000000D+00  0.1000000000D+01
 S   1 1.00       0.000000000000
      0.2526000000D-01  0.1000000000D+01
 P   1 1.00       0.000000000000
      0.1407000000D+01  0.1000000000D+01
 P   1 1.00       0.000000000000
      0.3880000000D+00  0.1000000000D+01
 P   1 1.00       0.000000000000
      0.1020000000D+00  0.1000000000D+01
 D   1 1.00       0.000000000000
      0.1057000000D+01  0.1000000000D+01
 D   1 1.00       0.000000000000
      0.2470000000D+00  0.1000000000D+01
 ****
      6 0
 S   3 1.00       0.000000000000
      0.3387000000D+02  0.2549486323D-01
      0.5095000000D+01  0.1903627659D+00
      0.1159000000D+01  0.8521620222D+00
 S   1 1.00       0.000000000000
      0.3258000000D+00  0.1000000000D+01
 S   1 1.00       0.000000000000
      0.1027000000D+00  0.1000000000D+01
 S   1 1.00       0.000000000000
      0.2526000000D-01  0.1000000000D+01
 P   1 1.00       0.000000000000
      0.1407000000D+01  0.1000000000D+01
 P   1 1.00       0.000000000000
      0.3880000000D+00  0.1000000000D+01
 P   1 1.00       0.000000000000
      0.1020000000D+00  0.1000000000D+01
 D   1 1.00       0.000000000000
      0.1057000000D+01  0.1000000000D+01
 D   1 1.00       0.000000000000
      0.2470000000D+00  0.1000000000D+01
 ****

 There are   101 symmetry adapted basis functions of A'  symmetry.
 There are    60 symmetry adapted basis functions of A"  symmetry.
 Integral buffers will be    131072 words long.
 Raffenetti 2 integral format.
 Two-electron integral symmetry is turned on.
   161 basis functions,   207 primitive gaussians,   180 cartesian basis functions
     6 alpha electrons        5 beta electrons
       nuclear repulsion energy        15.5513392289 Hartrees.
 IExCor=  402 DFT=T Ex+Corr=B3LYP ExCW=0 ScaHFX=  0.200000
 ScaDFX=  0.800000  0.720000  1.000000  0.810000 ScalE2=  1.000000  1.000000
 IRadAn=      0 IRanWt=     -1 IRanGd=            0 ICorTp=0
 NAtoms=    6 NActive=    6 NUniq=    4 SFac= 1.69D+00 NAtFMM=   80 NAOKFM=F Big=F
 Leave Link  301 at Fri Sep 13 15:08:45 2024, MaxMem=   65536000 cpu:       0.1
 (Enter /programs/64bit/g09/g09-gfortran/bin/l302.exe)
 NPDir=0 NMtPBC=     1 NCelOv=     1 NCel=       1 NClECP=     1 NCelD=      1
         NCelK=      1 NCelE2=     1 NClLst=     1 CellRange=     0.0.
 One-electron integrals computed using PRISM.
 One-electron integral symmetry used in STVInt
 NBasis=   161 RedAO= T  NBF=   101    60
 NBsUse=   161 1.00D-06 NBFU=   101    60
 Precomputing XC quadrature grid using
 IXCGrd= 2 IRadAn=           0 IRanWt=          -1 IRanGd=           0 AccXCQ= 1.00D-10.
 NRdTot=     389 NPtTot=       49762 NUsed=       52576 NTot=       52608
 NSgBfM=   180   180   180   180   180 NAtAll=     6     6.
 Leave Link  302 at Fri Sep 13 15:08:46 2024, MaxMem=   65536000 cpu:       0.5
 (Enter /programs/64bit/g09/g09-gfortran/bin/l303.exe)
 DipDrv:  MaxL=1.
 Leave Link  303 at Fri Sep 13 15:08:46 2024, MaxMem=   65536000 cpu:       0.1
 (Enter /programs/64bit/g09/g09-gfortran/bin/l401.exe)
 Harris functional with IExCor=  402 diagonalized for initial guess.
 ExpMin= 2.53D-02 ExpMax= 8.24D+03 ExpMxC= 2.81D+02 IAcc=3 IRadAn=         0 AccDes= 0.00D+00
 HarFok:  IExCor=  402 AccDes= 0.00D+00 IRadAn=         0 IDoV= 1
 ScaDFX=  1.000000  1.000000  1.000000  1.000000
 FoFCou: FMM=F IPFlag=           0 FMFlag=      100000 FMFlg1=           0
         NFxFlg=           0 DoJE=T BraDBF=F KetDBF=T FulRan=T
         Omega=  0.000000  0.000000  1.000000  0.000000  0.000000 ICntrl=     500 IOpCl=  0
         NMat0=    1 NMatS0=    1 NMatT0=    0 NMatD0=    1 NMtDS0=    0 NMtDT0=    0
         I1Cent=           4 NGrid=           0.
 Petite list used in FoFCou.
 Harris En= -41.0512957023009    
 Initial guess orbital symmetries:
 Alpha Orbitals:
       Occupied  (A1) (A1) (A1) (E) (E) (A1)
       Virtual   (A1) (E) (E) (A1) (A1) (E) (E) (A1) (E) (E) (A1)
                 (E) (E) (A1) (E) (E) (A1) (E) (E) (A1) (A2) (E)
                 (E) (A1) (A1) (E) (E) (A1) (E) (E) (E) (E) (A1)
                 (A1) (E) (E) (A1) (E) (E) (A1) (A1) (E) (E) (E)
                 (E) (A2) (E) (E) (A1) (E) (E) (E) (E) (A1) (A1)
                 (E) (E) (A2) (E) (E) (E) (E) (A1) (E) (E) (A1)
                 (E) (E) (A1) (E) (E) (E) (E) (A1) (A2) (A1) (A1)
                 (E) (E) (E) (E) (A1) (E) (E) (A2) (E) (E) (A1)
                 (E) (E) (A1) (E) (E) (A1) (A1) (A1) (E) (E) (E)
                 (E) (A1) (E) (E) (A2) (A1) (E) (E) (E) (E) (A1)
                 (E) (E) (E) (E) (A2) (E) (E) (E) (E) (E) (E) (A1)
                 (A1) (A1) (E) (E) (E) (E) (A1) (E) (E) (E) (E)
                 (A1) (A2) (E) (E) (A1) (E) (E) (A1) (A1) (A2)
                 (E) (E) (A1) (E) (E) (E) (E) (A1) (E) (E) (A1)
                 (A1)
 Beta  Orbitals:
       Occupied  (A1) (A1) (A1) (E) (E)
       Virtual   (A1) (A1) (E) (E) (A1) (A1) (E) (E) (A1) (E) (E)
                 (A1) (E) (E) (A1) (E) (E) (A1) (E) (E) (A1) (A2)
                 (E) (E) (A1) (A1) (E) (E) (A1) (E) (E) (E) (E)
                 (A1) (A1) (E) (E) (A1) (E) (E) (A1) (A1) (E) (E)
                 (E) (E) (A2) (E) (E) (A1) (E) (E) (E) (E) (A1)
                 (A1) (E) (E) (A2) (E) (E) (E) (E) (A1) (E) (E)
                 (A1) (E) (E) (A1) (E) (E) (E) (E) (A1) (A2) (A1)
                 (A1) (E) (E) (E) (E) (A1) (E) (E) (A2) (E) (E)
                 (A1) (E) (E) (A1) (E) (E) (A1) (A1) (A1) (E) (E)
                 (E) (E) (A1) (E) (E) (A2) (A1) (E) (E) (E) (E)
                 (A1) (E) (E) (E) (E) (A2) (E) (E) (E) (E) (E)
                 (E) (A1) (A1) (A1) (E) (E) (E) (E) (A1) (E) (E)
                 (E) (E) (A1) (A2) (E) (E) (A1) (E) (E) (A1) (A1)
                 (A2) (E) (E) (A1) (E) (E) (E) (E) (A1) (E) (E)
                 (A1) (A1)
 The electronic state of the initial guess is 2-A1.
 Initial guess <Sx>= 0.0000 <Sy>= 0.0000 <Sz>= 0.5000 <S**2>= 0.7500 S= 0.5000
 Leave Link  401 at Fri Sep 13 15:08:52 2024, MaxMem=   65536000 cpu:       5.8
 (Enter /programs/64bit/g09/g09-gfortran/bin/l502.exe)
 UHF open shell SCF:
 Requested convergence on RMS density matrix=1.00D-08 within 128 cycles.
 Requested convergence on MAX density matrix=1.00D-06.
 Requested convergence on             energy=1.00D-06.
 No special actions if energy rises.
 Using DIIS extrapolation, IDIIS=  1040.
 Integral symmetry usage will be decided dynamically.
        52509 words used for storage of precomputed grid.
 IEnd=      170703 IEndB=      170703 NGot=    65536000 MDV=    65414518
 LenX=    65414518 LenY=    65381677
 Fock matrices will be formed incrementally for  20 cycles.

 Cycle   1  Pass 1  IDiag  1:
 FoFCou: FMM=F IPFlag=           0 FMFlag=      100000 FMFlg1=           0
         NFxFlg=           0 DoJE=F BraDBF=F KetDBF=F FulRan=T
         Omega=  0.000000  0.000000  1.000000  0.000000  0.000000 ICntrl=       0 IOpCl=  1
         NMat0=    1 NMatS0=    1 NMatT0=    0 NMatD0=    1 NMtDS0=    0 NMtDT0=    0
         I1Cent=           0 NGrid=           0.
 Petite list used in FoFCou.
 E= -40.9259821684681    
 DIIS: error= 3.36D-02 at cycle   1 NSaved=   1.
 NSaved= 1 IEnMin= 1 EnMin= -40.9259821684681     IErMin= 1 ErrMin= 3.36D-02
 ErrMax= 3.36D-02 EMaxC= 1.00D-01 BMatC= 4.33D-01 BMatP= 4.33D-01
 IDIUse=3 WtCom= 6.64D-01 WtEn= 3.36D-01
 Coeff-Com:  0.100D+01
 Coeff-En:   0.100D+01
 Coeff:      0.100D+01
 Gap=     0.282 Goal=   None    Shift=    0.000
 Gap=     0.149 Goal=   None    Shift=    0.000
 GapD=    0.149 DampG=1.000 DampE=0.500 DampFc=0.5000 IDamp=-1.
 Damping current iteration by 5.00D-01
 RMSDP=2.38D-03 MaxDP=7.55D-02              OVMax= 3.03D-01

 Cycle   2  Pass 1  IDiag  1:
 RMSU=  8.90D-04    CP:  9.63D-01
 E= -40.9711272730039     Delta-E=       -0.045145104536 Rises=F Damp=T
 DIIS: error= 6.42D-03 at cycle   2 NSaved=   2.
 NSaved= 2 IEnMin= 2 EnMin= -40.9711272730039     IErMin= 2 ErrMin= 6.42D-03
 ErrMax= 6.42D-03 EMaxC= 1.00D-01 BMatC= 1.42D-02 BMatP= 4.33D-01
 IDIUse=3 WtCom= 9.36D-01 WtEn= 6.42D-02
 Coeff-Com:  0.101D+00 0.899D+00
 Coeff-En:   0.204D+00 0.796D+00
 Coeff:      0.108D+00 0.892D+00
 Gap=     0.319 Goal=   None    Shift=    0.000
 Gap=     0.278 Goal=   None    Shift=    0.000
 RMSDP=4.87D-04 MaxDP=1.55D-02 DE=-4.51D-02 OVMax= 1.99D-01

 Cycle   3  Pass 1  IDiag  1:
 RMSU=  3.64D-04    CP:  9.78D-01  8.75D-01
 E= -41.0362218390401     Delta-E=       -0.065094566036 Rises=F Damp=F
 DIIS: error= 1.45D-03 at cycle   3 NSaved=   3.
 NSaved= 3 IEnMin= 3 EnMin= -41.0362218390401     IErMin= 3 ErrMin= 1.45D-03
 ErrMax= 1.45D-03 EMaxC= 1.00D-01 BMatC= 3.50D-04 BMatP= 1.42D-02
 IDIUse=3 WtCom= 9.86D-01 WtEn= 1.45D-02
 Coeff-Com: -0.229D-01-0.399D-02 0.103D+01
 Coeff-En:   0.000D+00 0.000D+00 0.100D+01
 Coeff:     -0.225D-01-0.393D-02 0.103D+01
 Gap=     0.286 Goal=   None    Shift=    0.000
 Gap=     0.295 Goal=   None    Shift=    0.000
 RMSDP=1.22D-04 MaxDP=7.58D-03 DE=-6.51D-02 OVMax= 8.87D-03

 Cycle   4  Pass 1  IDiag  1:
 RMSU=  8.52D-05    CP:  9.77D-01  9.32D-01  1.06D+00
 E= -41.0363897481974     Delta-E=       -0.000167909157 Rises=F Damp=F
 DIIS: error= 3.38D-04 at cycle   4 NSaved=   4.
 NSaved= 4 IEnMin= 4 EnMin= -41.0363897481974     IErMin= 4 ErrMin= 3.38D-04
 ErrMax= 3.38D-04 EMaxC= 1.00D-01 BMatC= 8.34D-06 BMatP= 3.50D-04
 IDIUse=3 WtCom= 9.97D-01 WtEn= 3.38D-03
 Coeff-Com:  0.311D-02-0.767D-02-0.960D-01 0.110D+01
 Coeff-En:   0.000D+00 0.000D+00 0.000D+00 0.100D+01
 Coeff:      0.310D-02-0.764D-02-0.957D-01 0.110D+01
 Gap=     0.286 Goal=   None    Shift=    0.000
 Gap=     0.298 Goal=   None    Shift=    0.000
 RMSDP=2.80D-05 MaxDP=1.64D-03 DE=-1.68D-04 OVMax= 3.64D-03

 Cycle   5  Pass 1  IDiag  1:
 RMSU=  1.05D-05    CP:  9.78D-01  9.32D-01  1.09D+00  1.22D+00
 E= -41.0363968001717     Delta-E=       -0.000007051974 Rises=F Damp=F
 DIIS: error= 7.44D-05 at cycle   5 NSaved=   5.
 NSaved= 5 IEnMin= 5 EnMin= -41.0363968001717     IErMin= 5 ErrMin= 7.44D-05
 ErrMax= 7.44D-05 EMaxC= 1.00D-01 BMatC= 9.85D-07 BMatP= 8.34D-06
 IDIUse=1 WtCom= 1.00D+00 WtEn= 0.00D+00
 Coeff-Com:  0.611D-03-0.716D-04-0.558D-01 0.121D+00 0.934D+00
 Coeff:      0.611D-03-0.716D-04-0.558D-01 0.121D+00 0.934D+00
 Gap=     0.286 Goal=   None    Shift=    0.000
 Gap=     0.298 Goal=   None    Shift=    0.000
 RMSDP=6.07D-06 MaxDP=3.22D-04 DE=-7.05D-06 OVMax= 5.25D-04

 Cycle   6  Pass 1  IDiag  1:
 RMSU=  2.39D-06    CP:  9.78D-01  9.34D-01  1.09D+00  1.27D+00  1.10D+00
 E= -41.0363971968901     Delta-E=       -0.000000396718 Rises=F Damp=F
 DIIS: error= 1.75D-05 at cycle   6 NSaved=   6.
 NSaved= 6 IEnMin= 6 EnMin= -41.0363971968901     IErMin= 6 ErrMin= 1.75D-05
 ErrMax= 1.75D-05 EMaxC= 1.00D-01 BMatC= 6.61D-08 BMatP= 9.85D-07
 IDIUse=1 WtCom= 1.00D+00 WtEn= 0.00D+00
 Coeff-Com: -0.234D-03 0.512D-03-0.468D-02-0.397D-01 0.176D+00 0.868D+00
 Coeff:     -0.234D-03 0.512D-03-0.468D-02-0.397D-01 0.176D+00 0.868D+00
 Gap=     0.286 Goal=   None    Shift=    0.000
 Gap=     0.298 Goal=   None    Shift=    0.000
 RMSDP=1.14D-06 MaxDP=6.05D-05 DE=-3.97D-07 OVMax= 9.93D-05

 Cycle   7  Pass 1  IDiag  1:
 RMSU=  6.24D-07    CP:  9.78D-01  9.34D-01  1.09D+00  1.27D+00  1.15D+00
                    CP:  1.02D+00
 E= -41.0363972211408     Delta-E=       -0.000000024251 Rises=F Damp=F
 DIIS: error= 2.78D-06 at cycle   7 NSaved=   7.
 NSaved= 7 IEnMin= 7 EnMin= -41.0363972211408     IErMin= 7 ErrMin= 2.78D-06
 ErrMax= 2.78D-06 EMaxC= 1.00D-01 BMatC= 1.76D-09 BMatP= 6.61D-08
 IDIUse=1 WtCom= 1.00D+00 WtEn= 0.00D+00
 Coeff-Com:  0.910D-05-0.423D-05 0.249D-02-0.113D-02-0.577D-01-0.109D-01
 Coeff-Com:  0.107D+01
 Coeff:      0.910D-05-0.423D-05 0.249D-02-0.113D-02-0.577D-01-0.109D-01
 Coeff:      0.107D+01
 Gap=     0.286 Goal=   None    Shift=    0.000
 Gap=     0.298 Goal=   None    Shift=    0.000
 RMSDP=2.83D-07 MaxDP=1.21D-05 DE=-2.43D-08 OVMax= 1.40D-05

 Cycle   8  Pass 1  IDiag  1:
 RMSU=  1.11D-07    CP:  9.78D-01  9.34D-01  1.09D+00  1.27D+00  1.15D+00
                    CP:  1.07D+00  1.18D+00
 E= -41.0363972220287     Delta-E=       -0.000000000888 Rises=F Damp=F
 DIIS: error= 5.02D-07 at cycle   8 NSaved=   8.
 NSaved= 8 IEnMin= 8 EnMin= -41.0363972220287     IErMin= 8 ErrMin= 5.02D-07
 ErrMax= 5.02D-07 EMaxC= 1.00D-01 BMatC= 7.17D-11 BMatP= 1.76D-09
 IDIUse=1 WtCom= 1.00D+00 WtEn= 0.00D+00
 Coeff-Com:  0.724D-05-0.147D-04-0.435D-04 0.794D-03 0.116D-02-0.290D-01
 Coeff-Com: -0.908D-01 0.112D+01
 Coeff:      0.724D-05-0.147D-04-0.435D-04 0.794D-03 0.116D-02-0.290D-01
 Coeff:     -0.908D-01 0.112D+01
 Gap=     0.286 Goal=   None    Shift=    0.000
 Gap=     0.298 Goal=   None    Shift=    0.000
 RMSDP=6.66D-08 MaxDP=2.73D-06 DE=-8.88D-10 OVMax= 4.10D-06

 Cycle   9  Pass 1  IDiag  1:
 RMSU=  3.72D-08    CP:  9.78D-01  9.34D-01  1.09D+00  1.27D+00  1.15D+00
                    CP:  1.07D+00  1.24D+00  1.18D+00
 E= -41.0363972220791     Delta-E=       -0.000000000050 Rises=F Damp=F
 DIIS: error= 1.22D-07 at cycle   9 NSaved=   9.
 NSaved= 9 IEnMin= 9 EnMin= -41.0363972220791     IErMin= 9 ErrMin= 1.22D-07
 ErrMax= 1.22D-07 EMaxC= 1.00D-01 BMatC= 5.12D-12 BMatP= 7.17D-11
 IDIUse=1 WtCom= 1.00D+00 WtEn= 0.00D+00
 Coeff-Com: -0.248D-05 0.200D-05-0.126D-03-0.158D-03 0.318D-02 0.586D-02
 Coeff-Com: -0.585D-01-0.141D+00 0.119D+01
 Coeff:     -0.248D-05 0.200D-05-0.126D-03-0.158D-03 0.318D-02 0.586D-02
 Coeff:     -0.585D-01-0.141D+00 0.119D+01
 Gap=     0.286 Goal=   None    Shift=    0.000
 Gap=     0.298 Goal=   None    Shift=    0.000
 RMSDP=2.07D-08 MaxDP=6.93D-07 DE=-5.04D-11 OVMax= 1.20D-06

 Cycle  10  Pass 1  IDiag  1:
 RMSU=  4.23D-09    CP:  9.78D-01  9.34D-01  1.09D+00  1.27D+00  1.15D+00
                    CP:  1.07D+00  1.25D+00  1.27D+00  1.26D+00
 E= -41.0363972220837     Delta-E=       -0.000000000005 Rises=F Damp=F
 DIIS: error= 2.39D-08 at cycle  10 NSaved=  10.
 NSaved=10 IEnMin=10 EnMin= -41.0363972220837     IErMin=10 ErrMin= 2.39D-08
 ErrMax= 2.39D-08 EMaxC= 1.00D-01 BMatC= 1.52D-13 BMatP= 5.12D-12
 IDIUse=1 WtCom= 1.00D+00 WtEn= 0.00D+00
 Coeff-Com:  0.259D-07 0.451D-06 0.951D-05-0.333D-04-0.235D-03 0.817D-03
 Coeff-Com:  0.828D-02-0.393D-01-0.118D+00 0.115D+01
 Coeff:      0.259D-07 0.451D-06 0.951D-05-0.333D-04-0.235D-03 0.817D-03
 Coeff:      0.828D-02-0.393D-01-0.118D+00 0.115D+01
 Gap=     0.286 Goal=   None    Shift=    0.000
 Gap=     0.298 Goal=   None    Shift=    0.000
 RMSDP=3.78D-09 MaxDP=1.04D-07 DE=-4.55D-12 OVMax= 2.53D-07

 SCF Done:  E(UB3LYP) =  -41.0363972221     A.U. after   10 cycles
             Convg  =    0.3780D-08             -V/T =  2.0068
 <Sx>= 0.0000 <Sy>= 0.0000 <Sz>= 0.5000 <S**2>= 0.7518 S= 0.5009
 <L.S>=  0.00000000000    
 KE= 4.075776337496D+01 PE=-1.252625952350D+02 EE= 2.791709540907D+01
 Annihilation of the first spin contaminant:
 S**2 before annihilation     0.7518,   after     0.7500
 Leave Link  502 at Fri Sep 13 15:11:24 2024, MaxMem=   65536000 cpu:     150.8
 (Enter /programs/64bit/g09/g09-gfortran/bin/l601.exe)
 Copying SCF densities to generalized density rwf, IOpCl= 1 IROHF=0.

 **********************************************************************

            Population analysis using the SCF density.

 **********************************************************************

 Orbital symmetries:
 Alpha Orbitals:
       Occupied  (A1) (A1) (A1) (E) (E) (A1)
       Virtual   (A1) (E) (E) (A1) (A1) (E) (E) (A1) (A1) (E) (E)
                 (E) (E) (A1) (E) (E) (A1) (E) (E) (A1) (A2) (E)
                 (E) (A1) (A1) (E) (E) (E) (E) (A1) (A1) (E) (E)
                 (A1) (E) (E) (A1) (A1) (E) (E) (E) (E) (E) (E)
                 (A1) (A2) (E) (E) (A1) (E) (E) (E) (E) (A1) (A1)
                 (E) (E) (A2) (E) (E) (E) (E) (A1) (E) (E) (A1)
                 (E) (E) (A1) (E) (E) (E) (E) (A1) (A2) (A1) (A1)
                 (E) (E) (E) (E) (A1) (E) (E) (A2) (E) (E) (A1)
                 (E) (E) (A1) (E) (E) (A1) (A1) (A1) (E) (E) (A1)
                 (E) (E) (E) (E) (A2) (A1) (E) (E) (A1) (E) (E)
                 (E) (E) (E) (E) (E) (E) (A2) (E) (E) (E) (E) (A1)
                 (A1) (E) (E) (A1) (E) (E) (A1) (E) (E) (E) (E)
                 (A1) (A2) (E) (E) (A1) (E) (E) (A1) (A1) (A2)
                 (E) (E) (E) (E) (A1) (E) (E) (A1) (E) (E) (A1)
                 (A1)
 Beta  Orbitals:
       Occupied  (A1) (A1) (A1) (E) (E)
       Virtual   (A1) (A1) (E) (E) (A1) (A1) (E) (E) (A1) (A1)
                 (E) (E) (E) (E) (A1) (E) (E) (A1) (E) (E) (A1)
                 (A2) (E) (E) (A1) (A1) (E) (E) (E) (E) (A1) (E)
                 (E) (A1) (A1) (E) (E) (A1) (A1) (E) (E) (E) (E)
                 (A1) (E) (E) (A2) (E) (E) (A1) (E) (E) (E) (E)
                 (A1) (E) (E) (A1) (A2) (E) (E) (E) (E) (A1) (E)
                 (E) (A1) (E) (E) (A1) (E) (E) (E) (E) (A1) (A2)
                 (A1) (A1) (E) (E) (E) (E) (A1) (E) (E) (A2) (E)
                 (E) (E) (E) (A1) (A1) (E) (E) (A1) (A1) (A1) (E)
                 (E) (E) (E) (A1) (E) (E) (A2) (A1) (E) (E) (E)
                 (E) (A1) (E) (E) (E) (E) (A2) (E) (E) (E) (E)
                 (E) (E) (A1) (A1) (A1) (E) (E) (E) (E) (A1) (E)
                 (E) (E) (E) (A2) (A1) (E) (E) (A1) (E) (E) (A1)
                 (A1) (A2) (E) (E) (E) (E) (A1) (E) (E) (A1) (E)
                 (E) (A1) (A1)
 The electronic state is 2-A1.
 Alpha  occ. eigenvalues --  -10.16077  -0.70650  -0.43197  -0.40089  -0.40089
 Alpha  occ. eigenvalues --   -0.28879
 Alpha virt. eigenvalues --   -0.00277   0.02404   0.02404   0.02744   0.04850
 Alpha virt. eigenvalues --    0.07272   0.07272   0.08854   0.11617   0.12414
 Alpha virt. eigenvalues --    0.12414   0.13505   0.13505   0.18235   0.21305
 Alpha virt. eigenvalues --    0.21305   0.22912   0.24861   0.24861   0.25500
 Alpha virt. eigenvalues --    0.28411   0.30780   0.30780   0.31375   0.33138
 Alpha virt. eigenvalues --    0.35395   0.35395   0.35705   0.35705   0.36201
 Alpha virt. eigenvalues --    0.41321   0.42022   0.42022   0.52769   0.56904
 Alpha virt. eigenvalues --    0.56904   0.57709   0.67010   0.67417   0.67417
 Alpha virt. eigenvalues --    0.70320   0.70320   0.71413   0.71413   0.72040
 Alpha virt. eigenvalues --    0.75704   0.80890   0.80890   0.82414   0.85612
 Alpha virt. eigenvalues --    0.85612   0.88717   0.88717   0.90370   0.90977
 Alpha virt. eigenvalues --    0.92490   0.92490   0.94566   0.96109   0.96109
 Alpha virt. eigenvalues --    1.02462   1.02462   1.08549   1.10962   1.10962
 Alpha virt. eigenvalues --    1.15340   1.16003   1.16003   1.23856   1.33968
 Alpha virt. eigenvalues --    1.33968   1.40382   1.40382   1.41503   1.43675
 Alpha virt. eigenvalues --    1.47932   1.50356   1.54501   1.54501   1.60433
 Alpha virt. eigenvalues --    1.60433   1.65473   1.67795   1.67795   1.73017
 Alpha virt. eigenvalues --    1.77565   1.77565   1.90130   1.94753   1.94753
 Alpha virt. eigenvalues --    1.99258   2.03680   2.03680   2.53017   2.65649
 Alpha virt. eigenvalues --    2.78786   2.94740   2.94740   3.15215   3.17173
 Alpha virt. eigenvalues --    3.17173   3.24516   3.24516   3.25457   3.28908
 Alpha virt. eigenvalues --    3.31869   3.31869   3.54852   3.56144   3.56144
 Alpha virt. eigenvalues --    3.59263   3.59263   3.70519   3.70519   3.73000
 Alpha virt. eigenvalues --    3.73000   3.75519   3.79549   3.79549   3.83028
 Alpha virt. eigenvalues --    3.83028   3.88274   3.90287   4.03158   4.03158
 Alpha virt. eigenvalues --    4.08740   4.25254   4.25254   4.27074   4.42962
 Alpha virt. eigenvalues --    4.42962   4.48833   4.48833   4.51125   4.54605
 Alpha virt. eigenvalues --    4.61310   4.61310   4.62878   4.90204   4.90204
 Alpha virt. eigenvalues --    5.02767   5.17174   5.27193   5.30075   5.30075
 Alpha virt. eigenvalues --    5.48779   5.48779   5.50594   5.84880   5.84880
 Alpha virt. eigenvalues --    5.89610   6.23714   6.23714   6.51394  17.52616
  Beta  occ. eigenvalues --  -10.15842  -0.70042  -0.40809  -0.39944  -0.39944
  Beta virt. eigenvalues --   -0.10171  -0.00006   0.02392   0.02392   0.04054
  Beta virt. eigenvalues --    0.04986   0.07539   0.07539   0.08962   0.11716
  Beta virt. eigenvalues --    0.12797   0.12797   0.13708   0.13708   0.20069
  Beta virt. eigenvalues --    0.22433   0.22433   0.24089   0.24912   0.24912
  Beta virt. eigenvalues --    0.26184   0.28352   0.30760   0.30760   0.31437
  Beta virt. eigenvalues --    0.33359   0.35525   0.35525   0.35778   0.35778
  Beta virt. eigenvalues --    0.37440   0.42090   0.42090   0.45118   0.54363
  Beta virt. eigenvalues --    0.57384   0.57384   0.59015   0.67536   0.67775
  Beta virt. eigenvalues --    0.67775   0.72410   0.72410   0.72625   0.73699
  Beta virt. eigenvalues --    0.73699   0.75672   0.81795   0.81795   0.82781
  Beta virt. eigenvalues --    0.87043   0.87043   0.89709   0.89709   0.91044
  Beta virt. eigenvalues --    0.93243   0.93243   0.93716   0.94562   0.96795
  Beta virt. eigenvalues --    0.96795   1.02889   1.02889   1.09534   1.11895
  Beta virt. eigenvalues --    1.11895   1.15547   1.16217   1.16217   1.27229
  Beta virt. eigenvalues --    1.36274   1.36274   1.40565   1.40565   1.42407
  Beta virt. eigenvalues --    1.43673   1.48231   1.51307   1.54805   1.54805
  Beta virt. eigenvalues --    1.61113   1.61113   1.66157   1.69102   1.69102
  Beta virt. eigenvalues --    1.72994   1.77585   1.77585   1.95067   1.95067
  Beta virt. eigenvalues --    1.96618   2.00039   2.03866   2.03866   2.55034
  Beta virt. eigenvalues --    2.73323   2.79461   2.95023   2.95023   3.17560
  Beta virt. eigenvalues --    3.17560   3.18240   3.24790   3.24790   3.25503
  Beta virt. eigenvalues --    3.31397   3.32977   3.32977   3.56834   3.56834
  Beta virt. eigenvalues --    3.58557   3.70730   3.70730   3.73131   3.73131
  Beta virt. eigenvalues --    3.75543   3.77193   3.77193   3.81539   3.81539
  Beta virt. eigenvalues --    3.86182   3.86182   3.89945   3.90806   4.14545
  Beta virt. eigenvalues --    4.16518   4.16518   4.25506   4.25506   4.27199
  Beta virt. eigenvalues --    4.43184   4.43184   4.49351   4.49351   4.54613
  Beta virt. eigenvalues --    4.55044   4.62039   4.62039   4.69015   4.90325
  Beta virt. eigenvalues --    4.90325   5.05128   5.18065   5.27349   5.30384
  Beta virt. eigenvalues --    5.30384   5.48836   5.48836   5.51715   5.84962
  Beta virt. eigenvalues --    5.84962   5.89783   6.23900   6.23900   6.53000
  Beta virt. eigenvalues --   17.52928
     Alpha Molecular Orbital Coefficients:
                           1         2         3         4         5
                        (A1)--O   (A1)--O   (A1)--O   (E)--O    (E)--O
     Eigenvalues --   -10.16077  -0.70650  -0.43197  -0.40089  -0.40089
   1 1   C  1S          0.97738  -0.18760  -0.01323   0.00000  -0.00000
   2        2S          0.01658   0.42345   0.03063   0.00000   0.00000
   3        3S          0.05507   0.10965   0.00806   0.00000  -0.00000
   4        4S         -0.00184   0.23205   0.00547   0.00000   0.00000
   5        5S          0.00283   0.00977  -0.00036   0.00000   0.00000
   6        6PX         0.00000   0.00000   0.00000   0.25409   0.00000
   7        6PY        -0.00000   0.00000  -0.00000   0.00000   0.25409
   8        6PZ         0.00022  -0.00488   0.21585   0.00000   0.00000
   9        7PX         0.00000   0.00000   0.00000   0.28539   0.00000
  10        7PY         0.00000  -0.00000  -0.00000   0.00000   0.28539
  11        7PZ        -0.00721  -0.01306   0.24395   0.00000  -0.00000
  12        8PX         0.00000   0.00000   0.00000   0.20891   0.00000
  13        8PY        -0.00000  -0.00000   0.00000   0.00000   0.20891
  14        8PZ        -0.01056  -0.00462   0.19117   0.00000  -0.00000
  15        9PX         0.00000   0.00000   0.00000   0.01618   0.00000
  16        9PY        -0.00000  -0.00000   0.00000   0.00000   0.01618
  17        9PZ         0.00075  -0.00137   0.01251   0.00000  -0.00000
  18       10D 0        0.00038   0.00129  -0.01323   0.00000   0.00000
  19       10D+1        0.00000   0.00000   0.00000   0.00788   0.00000
  20       10D-1        0.00000  -0.00000  -0.00000   0.00000   0.00788
  21       10D+2       -0.00000   0.00000  -0.00000   0.00000  -0.01174
  22       10D-2        0.00000   0.00000   0.00000  -0.01174   0.00000
  23       11D 0        0.00511   0.00598  -0.02223   0.00000   0.00000
  24       11D+1        0.00000   0.00000   0.00000   0.00780   0.00000
  25       11D-1       -0.00000  -0.00000   0.00000   0.00000   0.00780
  26       11D+2        0.00000   0.00000   0.00000   0.00000  -0.01516
  27       11D-2        0.00000   0.00000   0.00000  -0.01516   0.00000
  28       12D 0        0.00047   0.00198  -0.01738   0.00000   0.00000
  29       12D+1        0.00000   0.00000   0.00000   0.00700   0.00000
  30       12D-1       -0.00000  -0.00000   0.00000   0.00000   0.00700
  31       12D+2        0.00000   0.00000   0.00000   0.00000  -0.01377
  32       12D-2        0.00000   0.00000   0.00000  -0.01377   0.00000
  33       13F 0       -0.00196  -0.00328   0.00068   0.00000  -0.00000
  34       13F+1        0.00000   0.00000   0.00000   0.00063   0.00000
  35       13F-1       -0.00000   0.00000   0.00000   0.00000   0.00063
  36       13F+2       -0.00000   0.00000   0.00000   0.00000  -0.00006
  37       13F-2        0.00000   0.00000   0.00000  -0.00006   0.00000
  38       13F+3        0.00000   0.00000   0.00000  -0.00000   0.00000
  39       13F-3       -0.00148  -0.00277  -0.00031   0.00000   0.00000
  40       14F 0        0.00269  -0.00272   0.00226   0.00000  -0.00000
  41       14F+1        0.00000   0.00000   0.00000  -0.00051   0.00000
  42       14F-1        0.00000   0.00000   0.00000   0.00000  -0.00051
  43       14F+2        0.00000   0.00000   0.00000   0.00000  -0.00192
  44       14F-2        0.00000   0.00000   0.00000  -0.00192   0.00000
  45       14F+3        0.00000   0.00000   0.00000   0.00000   0.00000
  46       14F-3        0.00617  -0.00106  -0.00264   0.00000   0.00000
  47 2   H  1S         -0.00004   0.08419   0.05851   0.00000   0.17378
  48        2S          0.00788   0.08728   0.07252   0.00000   0.22885
  49        3S          0.01192   0.00361  -0.01165   0.00000   0.01773
  50        4S         -0.00049   0.00011  -0.00379   0.00000  -0.00890
  51        5PX         0.00000   0.00000   0.00000   0.00553   0.00000
  52        5PY         0.00074  -0.00841  -0.00594   0.00000  -0.01204
  53        5PZ         0.00040  -0.00296   0.00252   0.00000  -0.00619
  54        6PX         0.00000   0.00000   0.00000   0.01310   0.00000
  55        6PY         0.00234  -0.00347  -0.00393   0.00000  -0.00141
  56        6PZ        -0.00112  -0.00197   0.00991   0.00000  -0.00460
  57        7PX         0.00000   0.00000   0.00000   0.00178   0.00000
  58        7PY        -0.00127   0.00594   0.00970   0.00000   0.02115
  59        7PZ        -0.00325   0.00195   0.00654   0.00000   0.00792
  60        8D 0        0.00051  -0.00073  -0.00146   0.00000  -0.00058
  61        8D+1        0.00000   0.00000   0.00000  -0.00084   0.00000
  62        8D-1       -0.00063   0.00119  -0.00103   0.00000   0.00237
  63        8D+2        0.00102  -0.00168  -0.00149   0.00000  -0.00213
  64        8D-2        0.00000   0.00000   0.00000  -0.00244   0.00000
  65        9D 0        0.00140   0.00114  -0.00071   0.00000   0.00057
  66        9D+1        0.00000   0.00000   0.00000   0.00039   0.00000
  67        9D-1       -0.00077  -0.00149  -0.00050   0.00000  -0.00083
  68        9D+2        0.00118   0.00256   0.00060   0.00000   0.00059
  69        9D-2        0.00000   0.00000   0.00000  -0.00055   0.00000
  70 3   H  1S         -0.00004   0.08419   0.05851   0.15050  -0.08689
  71        2S          0.00788   0.08728   0.07252   0.19819  -0.11443
  72        3S          0.01192   0.00361  -0.01165   0.01535  -0.00887
  73        4S         -0.00049   0.00011  -0.00379  -0.00770   0.00445
  74        5PX         0.00064  -0.00728  -0.00515  -0.00765   0.00761
  75        5PY        -0.00037   0.00421   0.00297   0.00761   0.00114
  76        5PZ         0.00040  -0.00296   0.00252  -0.00536   0.00309
  77        6PX         0.00202  -0.00301  -0.00340   0.00222   0.00628
  78        6PY        -0.00117   0.00174   0.00197   0.00628   0.00947
  79        6PZ        -0.00112  -0.00197   0.00991  -0.00398   0.00230
  80        7PX        -0.00110   0.00514   0.00840   0.01630  -0.00838
  81        7PY         0.00063  -0.00297  -0.00485  -0.00838   0.00662
  82        7PZ        -0.00325   0.00195   0.00654   0.00685  -0.00396
  83        8D 0        0.00051  -0.00073  -0.00146  -0.00051   0.00029
  84        8D+1       -0.00055   0.00103  -0.00089   0.00156  -0.00139
  85        8D-1        0.00031  -0.00059   0.00052  -0.00139  -0.00004
  86        8D+2       -0.00051   0.00084   0.00074  -0.00013  -0.00236
  87        8D-2        0.00088  -0.00146  -0.00129  -0.00221  -0.00013
  88        9D 0        0.00140   0.00114  -0.00071   0.00049  -0.00028
  89        9D+1       -0.00066  -0.00129  -0.00043  -0.00052   0.00053
  90        9D-1        0.00038   0.00074   0.00025   0.00053   0.00009
  91        9D+2       -0.00059  -0.00128  -0.00030  -0.00049  -0.00027
  92        9D-2        0.00102   0.00222   0.00052   0.00030  -0.00049
  93 4   H  1S         -0.00004   0.08419   0.05851  -0.15050  -0.08689
  94        2S          0.00788   0.08728   0.07252  -0.19819  -0.11443
  95        3S          0.01192   0.00361  -0.01165  -0.01535  -0.00887
  96        4S         -0.00049   0.00011  -0.00379   0.00770   0.00445
  97        5PX        -0.00064   0.00728   0.00515  -0.00765  -0.00761
  98        5PY        -0.00037   0.00421   0.00297  -0.00761   0.00114
  99        5PZ         0.00040  -0.00296   0.00252   0.00536   0.00309
 100        6PX        -0.00202   0.00301   0.00340   0.00222  -0.00628
 101        6PY        -0.00117   0.00174   0.00197  -0.00628   0.00947
 102        6PZ        -0.00112  -0.00197   0.00991   0.00398   0.00230
 103        7PX         0.00110  -0.00514  -0.00840   0.01630   0.00838
 104        7PY         0.00063  -0.00297  -0.00485   0.00838   0.00662
 105        7PZ        -0.00325   0.00195   0.00654  -0.00685  -0.00396
 106        8D 0        0.00051  -0.00073  -0.00146   0.00051   0.00029
 107        8D+1        0.00055  -0.00103   0.00089   0.00156   0.00139
 108        8D-1        0.00031  -0.00059   0.00052   0.00139  -0.00004
 109        8D+2       -0.00051   0.00084   0.00074   0.00013  -0.00236
 110        8D-2       -0.00088   0.00146   0.00129  -0.00221   0.00013
 111        9D 0        0.00140   0.00114  -0.00071  -0.00049  -0.00028
 112        9D+1        0.00066   0.00129   0.00043  -0.00052  -0.00053
 113        9D-1        0.00038   0.00074   0.00025  -0.00053   0.00009
 114        9D+2       -0.00059  -0.00128  -0.00030   0.00049  -0.00027
 115        9D-2       -0.00102  -0.00222  -0.00052   0.00030   0.00049
 116 5   H  1S          0.00042   0.08969  -0.16508   0.00000   0.00000
 117        2S         -0.00688   0.08070  -0.20854   0.00000  -0.00000
 118        3S         -0.04476  -0.00695   0.05785   0.00000  -0.00000
 119        4S         -0.00015  -0.00471   0.01543   0.00000  -0.00000
 120        5PX         0.00000   0.00000   0.00000   0.00565   0.00000
 121        5PY        -0.00000  -0.00000  -0.00000   0.00000   0.00565
 122        5PZ        -0.00117   0.00930  -0.00969   0.00000  -0.00000
 123        6PX         0.00000   0.00000   0.00000   0.01129   0.00000
 124        6PY        -0.00000  -0.00000   0.00000   0.00000   0.01129
 125        6PZ        -0.00802  -0.00346   0.00482   0.00000  -0.00000
 126        7PX         0.00000   0.00000   0.00000  -0.00497   0.00000
 127        7PY        -0.00000  -0.00000   0.00000   0.00000  -0.00497
 128        7PZ        -0.03223   0.00383   0.04580   0.00000  -0.00000
 129        8D 0       -0.00162   0.00243  -0.00385   0.00000  -0.00000
 130        8D+1        0.00000   0.00000   0.00000   0.00246   0.00000
 131        8D-1       -0.00000  -0.00000   0.00000   0.00000   0.00246
 132        8D+2       -0.00000  -0.00000   0.00000   0.00000  -0.00001
 133        8D-2        0.00000   0.00000   0.00000  -0.00001   0.00000
 134        9D 0       -0.01038  -0.00574   0.00177   0.00000  -0.00000
 135        9D+1        0.00000   0.00000   0.00000  -0.00259   0.00000
 136        9D-1       -0.00000  -0.00000   0.00000   0.00000  -0.00259
 137        9D+2        0.00000  -0.00000  -0.00000   0.00000  -0.00050
 138        9D-2        0.00000   0.00000   0.00000  -0.00050   0.00000
 139 6   H  1S         -0.00048   0.01260  -0.10392   0.00000  -0.00000
 140        2S          0.00595   0.02274  -0.19260   0.00000   0.00000
 141        3S         -0.01136   0.01393  -0.10611   0.00000  -0.00000
 142        4S          0.00040   0.00165  -0.00543   0.00000   0.00000
 143        5PX         0.00000   0.00000   0.00000   0.00028   0.00000
 144        5PY         0.00000   0.00000   0.00000   0.00000   0.00028
 145        5PZ        -0.00020   0.00115  -0.00297   0.00000   0.00000
 146        6PX         0.00000   0.00000   0.00000   0.00066   0.00000
 147        6PY         0.00000  -0.00000  -0.00000   0.00000   0.00066
 148        6PZ         0.00298   0.00357  -0.01274   0.00000  -0.00000
 149        7PX         0.00000   0.00000   0.00000   0.00248   0.00000
 150        7PY         0.00000   0.00000  -0.00000   0.00000   0.00248
 151        7PZ        -0.00242   0.00384  -0.00457   0.00000  -0.00000
 152        8D 0        0.00022   0.00034  -0.00152   0.00000  -0.00000
 153        8D+1        0.00000   0.00000   0.00000   0.00006   0.00000
 154        8D-1       -0.00000  -0.00000   0.00000   0.00000   0.00006
 155        8D+2       -0.00000  -0.00000   0.00000   0.00000  -0.00001
 156        8D-2        0.00000   0.00000   0.00000  -0.00001   0.00000
 157        9D 0        0.00031  -0.00055  -0.00086   0.00000   0.00000
 158        9D+1        0.00000   0.00000   0.00000  -0.00018   0.00000
 159        9D-1        0.00000   0.00000  -0.00000   0.00000  -0.00018
 160        9D+2        0.00000  -0.00000  -0.00000   0.00000   0.00005
 161        9D-2        0.00000   0.00000   0.00000   0.00005   0.00000
                           6         7         8         9        10
                        (A1)--O   (A1)--V   (E)--V    (E)--V    (A1)--V
     Eigenvalues --    -0.28879  -0.00277   0.02404   0.02404   0.02744
   1 1   C  1S          0.02701  -0.04922  -0.00000   0.00000  -0.01587
   2        2S         -0.06617   0.12423   0.00000   0.00000   0.04810
   3        3S         -0.01774   0.02432   0.00000   0.00000   0.03184
   4        4S         -0.09086   1.68282  -0.00000   0.00000  -1.30600
   5        5S         -0.00461   1.53647  -0.00000   0.00000  -0.77367
   6        6PX         0.00000   0.00000   0.00000  -0.06639   0.00000
   7        6PY         0.00000   0.00000  -0.06639   0.00000   0.00000
   8        6PZ         0.15739   0.04304  -0.00000   0.00000  -0.01093
   9        7PX         0.00000   0.00000   0.00000  -0.16183   0.00000
  10        7PY         0.00000  -0.00000  -0.16183   0.00000   0.00000
  11        7PZ         0.18444   0.05729   0.00000   0.00000   0.03395
  12        8PX         0.00000   0.00000   0.00000  -0.87991   0.00000
  13        8PY         0.00000   0.00000  -0.87991   0.00000   0.00000
  14        8PZ         0.16846   0.22727   0.00000   0.00000   0.77237
  15        9PX         0.00000   0.00000   0.00000  -1.01784   0.00000
  16        9PY         0.00000   0.00000  -1.01784   0.00000  -0.00000
  17        9PZ         0.02521   0.53569   0.00000   0.00000   0.64380
  18       10D 0       -0.00639   0.00024  -0.00000   0.00000  -0.00339
  19       10D+1        0.00000   0.00000   0.00000  -0.00239   0.00000
  20       10D-1       -0.00000  -0.00000  -0.00239   0.00000   0.00000
  21       10D+2       -0.00000  -0.00000   0.00264   0.00000  -0.00000
  22       10D-2        0.00000   0.00000   0.00000   0.00264   0.00000
  23       11D 0       -0.00752   0.00114  -0.00000   0.00000  -0.06788
  24       11D+1        0.00000   0.00000   0.00000  -0.02636   0.00000
  25       11D-1        0.00000  -0.00000  -0.02636   0.00000   0.00000
  26       11D+2        0.00000   0.00000   0.04975   0.00000  -0.00000
  27       11D-2        0.00000   0.00000   0.00000   0.04975   0.00000
  28       12D 0       -0.00980  -0.04933  -0.00000   0.00000  -0.13937
  29       12D+1        0.00000   0.00000   0.00000  -0.23408   0.00000
  30       12D-1        0.00000   0.00000  -0.23408   0.00000  -0.00000
  31       12D+2        0.00000   0.00000   0.11118   0.00000  -0.00000
  32       12D-2        0.00000   0.00000   0.00000   0.11118   0.00000
  33       13F 0        0.00055  -0.00322   0.00000   0.00000   0.00682
  34       13F+1        0.00000   0.00000   0.00000  -0.00005   0.00000
  35       13F-1        0.00000   0.00000  -0.00005   0.00000  -0.00000
  36       13F+2       -0.00000   0.00000   0.00207   0.00000  -0.00000
  37       13F-2        0.00000   0.00000   0.00000   0.00207   0.00000
  38       13F+3        0.00000   0.00000   0.00000  -0.00000   0.00000
  39       13F-3        0.00028  -0.00324   0.00000   0.00000   0.00232
  40       14F 0       -0.00005  -0.02906   0.00000   0.00000   0.03767
  41       14F+1        0.00000   0.00000   0.00000   0.00963   0.00000
  42       14F-1        0.00000   0.00000   0.00963   0.00000  -0.00000
  43       14F+2        0.00000   0.00000   0.01062   0.00000  -0.00000
  44       14F-2        0.00000   0.00000   0.00000   0.01062   0.00000
  45       14F+3        0.00000   0.00000   0.00000  -0.00000   0.00000
  46       14F-3       -0.00050  -0.02113  -0.00000   0.00000   0.00985
  47 2   H  1S          0.02461   0.00435  -0.02033   0.00000   0.00110
  48        2S          0.03577  -0.11037   0.09896   0.00000   0.06733
  49        3S         -0.00122  -0.57038   1.71423   0.00000  -0.16246
  50        4S         -0.00846  -1.12849   4.04363   0.00000  -0.49689
  51        5PX         0.00000   0.00000   0.00000  -0.00149   0.00000
  52        5PY        -0.00245  -0.00533   0.00450   0.00000  -0.00096
  53        5PZ         0.00277  -0.00025   0.00190   0.00000  -0.00115
  54        6PX         0.00000   0.00000   0.00000  -0.00071   0.00000
  55        6PY        -0.00138   0.02284  -0.04504   0.00000  -0.02730
  56        6PZ         0.00805   0.00469  -0.01756   0.00000  -0.01156
  57        7PX         0.00000   0.00000   0.00000   0.07548   0.00000
  58        7PY         0.00661   0.06073  -0.44267   0.00000   0.08232
  59        7PZ         0.00310  -0.02587  -0.12769   0.00000  -0.01922
  60        8D 0       -0.00086  -0.00002  -0.00102   0.00000  -0.00101
  61        8D+1        0.00000   0.00000   0.00000   0.00019   0.00000
  62        8D-1       -0.00111  -0.00100   0.00077   0.00000   0.00082
  63        8D+2       -0.00069   0.00052  -0.00156   0.00000  -0.00198
  64        8D-2        0.00000   0.00000   0.00000   0.00122   0.00000
  65        9D 0       -0.00004   0.00485  -0.00500   0.00000   0.00279
  66        9D+1        0.00000   0.00000   0.00000   0.00318   0.00000
  67        9D-1       -0.00035   0.00500   0.01782   0.00000  -0.00034
  68        9D+2        0.00015  -0.00248  -0.01912   0.00000   0.00653
  69        9D-2        0.00000   0.00000   0.00000  -0.00320   0.00000
  70 3   H  1S          0.02461   0.00435   0.01017  -0.01761   0.00110
  71        2S          0.03577  -0.11037  -0.04948   0.08570   0.06733
  72        3S         -0.00122  -0.57038  -0.85712   1.48457  -0.16246
  73        4S         -0.00846  -1.12849  -2.02181   3.50188  -0.49689
  74        5PX        -0.00212  -0.00462  -0.00259   0.00300  -0.00083
  75        5PY         0.00122   0.00267   0.00001  -0.00259   0.00048
  76        5PZ         0.00277  -0.00025  -0.00095   0.00164  -0.00115
  77        6PX        -0.00120   0.01978   0.01920  -0.03396  -0.02365
  78        6PY         0.00069  -0.01142  -0.01179   0.01920   0.01365
  79        6PZ         0.00805   0.00469   0.00878  -0.01521  -0.01156
  80        7PX         0.00573   0.05259   0.22436  -0.31313   0.07129
  81        7PY        -0.00331  -0.03036  -0.05406   0.22436  -0.04116
  82        7PZ         0.00310  -0.02587   0.06385  -0.11059  -0.01922
  83        8D 0       -0.00086  -0.00002   0.00051  -0.00088  -0.00101
  84        8D+1       -0.00096  -0.00087  -0.00025   0.00063   0.00071
  85        8D-1        0.00056   0.00050   0.00034  -0.00025  -0.00041
  86        8D+2        0.00035  -0.00026   0.00053   0.00121   0.00099
  87        8D-2       -0.00060   0.00045   0.00121  -0.00086  -0.00172
  88        9D 0       -0.00004   0.00485   0.00250  -0.00433   0.00279
  89        9D+1       -0.00030   0.00433  -0.00634   0.01416  -0.00030
  90        9D-1        0.00017  -0.00250   0.00684  -0.00634   0.00017
  91        9D+2       -0.00007   0.00124  -0.00718   0.00689  -0.00327
  92        9D-2        0.00013  -0.00215   0.00689  -0.01514   0.00566
  93 4   H  1S          0.02461   0.00435   0.01017   0.01761   0.00110
  94        2S          0.03577  -0.11037  -0.04948  -0.08570   0.06733
  95        3S         -0.00122  -0.57038  -0.85712  -1.48457  -0.16246
  96        4S         -0.00846  -1.12849  -2.02181  -3.50188  -0.49689
  97        5PX         0.00212   0.00462   0.00259   0.00300   0.00083
  98        5PY         0.00122   0.00267   0.00001   0.00259   0.00048
  99        5PZ         0.00277  -0.00025  -0.00095  -0.00164  -0.00115
 100        6PX         0.00120  -0.01978  -0.01920  -0.03396   0.02365
 101        6PY         0.00069  -0.01142  -0.01179  -0.01920   0.01365
 102        6PZ         0.00805   0.00469   0.00878   0.01521  -0.01156
 103        7PX        -0.00573  -0.05259  -0.22436  -0.31313  -0.07129
 104        7PY        -0.00331  -0.03036  -0.05406  -0.22436  -0.04116
 105        7PZ         0.00310  -0.02587   0.06385   0.11059  -0.01922
 106        8D 0       -0.00086  -0.00002   0.00051   0.00088  -0.00101
 107        8D+1        0.00096   0.00087   0.00025   0.00063  -0.00071
 108        8D-1        0.00056   0.00050   0.00034   0.00025  -0.00041
 109        8D+2        0.00035  -0.00026   0.00053  -0.00121   0.00099
 110        8D-2        0.00060  -0.00045  -0.00121  -0.00086   0.00172
 111        9D 0       -0.00004   0.00485   0.00250   0.00433   0.00279
 112        9D+1        0.00030  -0.00433   0.00634   0.01416   0.00030
 113        9D-1        0.00017  -0.00250   0.00684   0.00634   0.00017
 114        9D+2       -0.00007   0.00124  -0.00718  -0.00689  -0.00327
 115        9D-2       -0.00013   0.00215  -0.00689  -0.01514  -0.00566
 116 5   H  1S         -0.07562  -0.00358  -0.00000   0.00000  -0.02172
 117        2S         -0.08720  -0.09783   0.00000   0.00000   0.22942
 118        3S          0.02301  -0.10025   0.00000   0.00000   1.20262
 119        4S          0.02483   1.93026  -0.00000   0.00000   0.66984
 120        5PX         0.00000   0.00000   0.00000  -0.00111   0.00000
 121        5PY        -0.00000   0.00000  -0.00111   0.00000   0.00000
 122        5PZ        -0.01444   0.00067   0.00000   0.00000   0.00478
 123        6PX         0.00000   0.00000   0.00000   0.00122   0.00000
 124        6PY         0.00000  -0.00000   0.00122   0.00000   0.00000
 125        6PZ        -0.01566  -0.03084   0.00000   0.00000   0.09558
 126        7PX         0.00000   0.00000   0.00000  -0.19346   0.00000
 127        7PY         0.00000   0.00000  -0.19346   0.00000   0.00000
 128        7PZ         0.03480  -0.39418   0.00000   0.00000   1.10437
 129        8D 0       -0.00070  -0.00046   0.00000   0.00000   0.00461
 130        8D+1        0.00000   0.00000   0.00000  -0.00111   0.00000
 131        8D-1        0.00000  -0.00000  -0.00111   0.00000   0.00000
 132        8D+2        0.00000   0.00000  -0.00046   0.00000  -0.00000
 133        8D-2        0.00000   0.00000   0.00000  -0.00046   0.00000
 134        9D 0       -0.00395   0.00331  -0.00000   0.00000  -0.03094
 135        9D+1        0.00000   0.00000   0.00000   0.01643   0.00000
 136        9D-1        0.00000  -0.00000   0.01643   0.00000   0.00000
 137        9D+2       -0.00000  -0.00000   0.00214   0.00000   0.00000
 138        9D-2        0.00000   0.00000   0.00000   0.00214   0.00000
 139 6   H  1S          0.22447   0.03134  -0.00000   0.00000  -0.06319
 140        2S          0.43871   0.06812  -0.00000   0.00000  -0.09086
 141        3S          0.41180  -0.19302   0.00000   0.00000   0.40751
 142        4S          0.03307  -0.58564   0.00000   0.00000   1.86342
 143        5PX         0.00000   0.00000   0.00000   0.00185   0.00000
 144        5PY        -0.00000   0.00000   0.00185   0.00000  -0.00000
 145        5PZ        -0.00092  -0.00040  -0.00000   0.00000  -0.00258
 146        6PX         0.00000   0.00000   0.00000   0.00761   0.00000
 147        6PY         0.00000  -0.00000   0.00761   0.00000  -0.00000
 148        6PZ        -0.00231  -0.00644   0.00000   0.00000  -0.00410
 149        7PX         0.00000   0.00000   0.00000   0.13604   0.00000
 150        7PY        -0.00000  -0.00000   0.13604   0.00000  -0.00000
 151        7PZ        -0.00104  -0.16271   0.00000   0.00000   0.33527
 152        8D 0        0.00018   0.00009   0.00000   0.00000  -0.00095
 153        8D+1        0.00000   0.00000   0.00000  -0.00074   0.00000
 154        8D-1        0.00000   0.00000  -0.00074   0.00000  -0.00000
 155        8D+2        0.00000   0.00000  -0.00011   0.00000  -0.00000
 156        8D-2        0.00000   0.00000   0.00000  -0.00011   0.00000
 157        9D 0       -0.00030  -0.00646   0.00000   0.00000   0.02704
 158        9D+1        0.00000   0.00000   0.00000   0.01634   0.00000
 159        9D-1       -0.00000  -0.00000   0.01634   0.00000  -0.00000
 160        9D+2       -0.00000  -0.00000  -0.00037   0.00000   0.00000
 161        9D-2        0.00000   0.00000   0.00000  -0.00037   0.00000
                          11        12        13        14        15
                        (A1)--V   (E)--V    (E)--V    (A1)--V   (A1)--V
     Eigenvalues --     0.04850   0.07272   0.07272   0.08854   0.11617
   1 1   C  1S          0.02476   0.00000   0.00000   0.05647  -0.03753
   2        2S         -0.05527   0.00000  -0.00000  -0.14497   0.09230
   3        3S         -0.00123   0.00000  -0.00000  -0.08631   0.09218
   4        4S         -1.45835   0.00000  -0.00000   4.61696  -8.59122
   5        5S         -3.51641   0.00000  -0.00000   5.33983  -9.54253
   6        6PX         0.00000   0.00213   0.00000   0.00000   0.00000
   7        6PY        -0.00000   0.00000   0.00213  -0.00000  -0.00000
   8        6PZ         0.01470   0.00000  -0.00000  -0.05074   0.02093
   9        7PX         0.00000   0.06853   0.00000   0.00000   0.00000
  10        7PY         0.00000   0.00000   0.06853  -0.00000   0.00000
  11        7PZ         0.10313   0.00000   0.00000   0.01501   0.03400
  12        8PX         0.00000  -1.26074   0.00000   0.00000   0.00000
  13        8PY         0.00000   0.00000  -1.26074   0.00000   0.00000
  14        8PZ         1.10801   0.00000   0.00000   1.88081   2.76764
  15        9PX         0.00000  -3.62633   0.00000   0.00000   0.00000
  16        9PY         0.00000   0.00000  -3.62633   0.00000   0.00000
  17        9PZ         2.24336   0.00000   0.00000   3.72869   5.99854
  18       10D 0       -0.00562   0.00000  -0.00000   0.00136   0.01106
  19       10D+1        0.00000   0.00925   0.00000   0.00000   0.00000
  20       10D-1        0.00000   0.00000   0.00925  -0.00000   0.00000
  21       10D+2       -0.00000   0.00000  -0.00759  -0.00000   0.00000
  22       10D-2        0.00000  -0.00759   0.00000   0.00000   0.00000
  23       11D 0       -0.11971   0.00000  -0.00000  -0.03521   0.05587
  24       11D+1        0.00000   0.01829   0.00000   0.00000   0.00000
  25       11D-1        0.00000   0.00000   0.01829  -0.00000   0.00000
  26       11D+2       -0.00000   0.00000  -0.08408   0.00000  -0.00000
  27       11D-2        0.00000  -0.08408   0.00000   0.00000   0.00000
  28       12D 0       -0.32714   0.00000  -0.00000  -0.35531  -0.25524
  29       12D+1        0.00000   0.16947   0.00000   0.00000   0.00000
  30       12D-1       -0.00000   0.00000   0.16947   0.00000  -0.00000
  31       12D+2       -0.00000   0.00000   0.06389   0.00000  -0.00000
  32       12D-2        0.00000   0.06389   0.00000   0.00000   0.00000
  33       13F 0        0.00618   0.00000   0.00000  -0.00904   0.01955
  34       13F+1        0.00000   0.00132   0.00000   0.00000   0.00000
  35       13F-1       -0.00000   0.00000   0.00132   0.00000  -0.00000
  36       13F+2       -0.00000   0.00000  -0.00074   0.00000  -0.00000
  37       13F-2        0.00000  -0.00074   0.00000   0.00000   0.00000
  38       13F+3        0.00000  -0.00000   0.00000   0.00000   0.00000
  39       13F-3        0.00000   0.00000   0.00000  -0.01213   0.01766
  40       14F 0        0.05330   0.00000   0.00000  -0.11026   0.08601
  41       14F+1        0.00000  -0.02885   0.00000   0.00000   0.00000
  42       14F-1       -0.00000   0.00000  -0.02885   0.00000  -0.00000
  43       14F+2       -0.00000   0.00000  -0.03540   0.00000  -0.00000
  44       14F-2        0.00000  -0.03540   0.00000   0.00000   0.00000
  45       14F+3        0.00000  -0.00000   0.00000   0.00000   0.00000
  46       14F-3        0.00295   0.00000  -0.00000  -0.07322   0.14078
  47 2   H  1S          0.00840   0.00000   0.04210   0.00380  -0.03119
  48        2S          0.04880   0.00000   0.09448  -0.45302   0.48223
  49        3S         -0.09768   0.00000   0.45077  -2.58450   0.65939
  50        4S         -3.02684   0.00000   5.54434  -3.24872  -3.95474
  51        5PX         0.00000  -0.00744   0.00000   0.00000   0.00000
  52        5PY         0.00216   0.00000  -0.00239   0.00410  -0.00741
  53        5PZ        -0.00014   0.00000   0.00238   0.00584   0.00600
  54        6PX         0.00000   0.05395   0.00000   0.00000   0.00000
  55        6PY        -0.00582   0.00000   0.05115   0.17177  -0.17628
  56        6PZ         0.00163   0.00000   0.01635   0.01960  -0.10786
  57        7PX         0.00000   0.43395   0.00000   0.00000   0.00000
  58        7PY         0.12855   0.00000   0.66931   0.62061  -0.33310
  59        7PZ         0.01471   0.00000   0.11543  -0.08372  -0.34956
  60        8D 0       -0.00095   0.00000  -0.00020   0.00356  -0.00210
  61        8D+1        0.00000   0.00139   0.00000   0.00000   0.00000
  62        8D-1       -0.00044   0.00000   0.00016  -0.00543   0.00501
  63        8D+2       -0.00091   0.00000  -0.00148   0.00761  -0.00817
  64        8D-2        0.00000   0.00001   0.00000   0.00000   0.00000
  65        9D 0       -0.00084   0.00000   0.03413   0.04002   0.03416
  66        9D+1        0.00000  -0.00886   0.00000   0.00000   0.00000
  67        9D-1       -0.01078   0.00000  -0.05023   0.03947   0.05374
  68        9D+2        0.00931   0.00000   0.07169  -0.00548  -0.01463
  69        9D-2        0.00000  -0.08222   0.00000   0.00000   0.00000
  70 3   H  1S          0.00840   0.03646  -0.02105   0.00380  -0.03119
  71        2S          0.04880   0.08182  -0.04724  -0.45302   0.48223
  72        3S         -0.09768   0.39038  -0.22538  -2.58450   0.65939
  73        4S         -3.02684   4.80154  -2.77217  -3.24872  -3.95474
  74        5PX         0.00187  -0.00365  -0.00218   0.00355  -0.00642
  75        5PY        -0.00108  -0.00218  -0.00617  -0.00205   0.00371
  76        5PZ        -0.00014   0.00206  -0.00119   0.00584   0.00600
  77        6PX        -0.00504   0.05185   0.00121   0.14876  -0.15267
  78        6PY         0.00291   0.00121   0.05325  -0.08588   0.08814
  79        6PZ         0.00163   0.01416  -0.00818   0.01960  -0.10786
  80        7PX         0.11133   0.61047  -0.10191   0.53746  -0.28847
  81        7PY        -0.06427  -0.10191   0.49279  -0.31030   0.16655
  82        7PZ         0.01471   0.09997  -0.05772  -0.08372  -0.34956
  83        8D 0       -0.00095  -0.00018   0.00010   0.00356  -0.00210
  84        8D+1       -0.00038   0.00047   0.00053  -0.00470   0.00434
  85        8D-1        0.00022   0.00053   0.00108   0.00271  -0.00251
  86        8D+2        0.00045   0.00065  -0.00036  -0.00381   0.00408
  87        8D-2       -0.00079  -0.00110   0.00065   0.00659  -0.00707
  88        9D 0       -0.00084   0.02956  -0.01707   0.04002   0.03416
  89        9D+1       -0.00933  -0.03989   0.01792   0.03418   0.04654
  90        9D-1        0.00539   0.01792  -0.01920  -0.01973  -0.02687
  91        9D+2       -0.00466  -0.06664  -0.04374   0.00274   0.00731
  92        9D-2        0.00807   0.03321  -0.06664  -0.00475  -0.01267
  93 4   H  1S          0.00840  -0.03646  -0.02105   0.00380  -0.03119
  94        2S          0.04880  -0.08182  -0.04724  -0.45302   0.48223
  95        3S         -0.09768  -0.39038  -0.22538  -2.58450   0.65939
  96        4S         -3.02684  -4.80154  -2.77217  -3.24872  -3.95474
  97        5PX        -0.00187  -0.00365   0.00218  -0.00355   0.00642
  98        5PY        -0.00108   0.00218  -0.00617  -0.00205   0.00371
  99        5PZ        -0.00014  -0.00206  -0.00119   0.00584   0.00600
 100        6PX         0.00504   0.05185  -0.00121  -0.14876   0.15267
 101        6PY         0.00291  -0.00121   0.05325  -0.08588   0.08814
 102        6PZ         0.00163  -0.01416  -0.00818   0.01960  -0.10786
 103        7PX        -0.11133   0.61047   0.10191  -0.53746   0.28847
 104        7PY        -0.06427   0.10191   0.49279  -0.31030   0.16655
 105        7PZ         0.01471  -0.09997  -0.05772  -0.08372  -0.34956
 106        8D 0       -0.00095   0.00018   0.00010   0.00356  -0.00210
 107        8D+1        0.00038   0.00047  -0.00053   0.00470  -0.00434
 108        8D-1        0.00022  -0.00053   0.00108   0.00271  -0.00251
 109        8D+2        0.00045  -0.00065  -0.00036  -0.00381   0.00408
 110        8D-2        0.00079  -0.00110  -0.00065  -0.00659   0.00707
 111        9D 0       -0.00084  -0.02956  -0.01707   0.04002   0.03416
 112        9D+1        0.00933  -0.03989  -0.01792  -0.03418  -0.04654
 113        9D-1        0.00539  -0.01792  -0.01920  -0.01973  -0.02687
 114        9D+2       -0.00466   0.06664  -0.04374   0.00274   0.00731
 115        9D-2       -0.00807   0.03321   0.06664   0.00475   0.01267
 116 5   H  1S         -0.02841   0.00000  -0.00000   0.02821   0.03704
 117        2S          0.31455   0.00000   0.00000  -0.13596   0.67715
 118        3S          2.99312   0.00000   0.00000   1.05357   6.44792
 119        4S         16.85812   0.00000   0.00000   7.58091  23.19057
 120        5PX         0.00000  -0.00894   0.00000   0.00000   0.00000
 121        5PY         0.00000   0.00000  -0.00894  -0.00000   0.00000
 122        5PZ        -0.00130   0.00000   0.00000  -0.00114  -0.00209
 123        6PX         0.00000   0.03307   0.00000   0.00000   0.00000
 124        6PY        -0.00000   0.00000   0.03307  -0.00000  -0.00000
 125        6PZ         0.10597   0.00000   0.00000  -0.06407   0.23403
 126        7PX         0.00000   0.91327   0.00000   0.00000   0.00000
 127        7PY         0.00000   0.00000   0.91327   0.00000  -0.00000
 128        7PZ         0.55227   0.00000   0.00000   0.07170   3.78081
 129        8D 0        0.00489   0.00000   0.00000  -0.00260   0.01435
 130        8D+1        0.00000  -0.00119   0.00000   0.00000   0.00000
 131        8D-1        0.00000   0.00000  -0.00119  -0.00000  -0.00000
 132        8D+2       -0.00000   0.00000   0.00058   0.00000  -0.00000
 133        8D-2        0.00000   0.00058   0.00000   0.00000   0.00000
 134        9D 0        0.01093   0.00000   0.00000  -0.05592  -0.09497
 135        9D+1        0.00000   0.03544   0.00000   0.00000   0.00000
 136        9D-1        0.00000   0.00000   0.03544  -0.00000  -0.00000
 137        9D+2        0.00000   0.00000  -0.02984  -0.00000   0.00000
 138        9D-2        0.00000  -0.02984   0.00000   0.00000   0.00000
 139 6   H  1S         -0.00921   0.00000  -0.00000  -0.01822   0.01654
 140        2S         -0.01714   0.00000  -0.00000  -0.04538  -0.01131
 141        3S         -0.19484   0.00000   0.00000   0.12288   2.68328
 142        4S         -6.43005   0.00000   0.00000  -0.85062  -6.60186
 143        5PX         0.00000  -0.00656   0.00000   0.00000   0.00000
 144        5PY        -0.00000   0.00000  -0.00656   0.00000  -0.00000
 145        5PZ         0.00228   0.00000  -0.00000  -0.00054  -0.00119
 146        6PX         0.00000  -0.02089   0.00000   0.00000   0.00000
 147        6PY         0.00000   0.00000  -0.02089  -0.00000  -0.00000
 148        6PZ         0.00108   0.00000   0.00000   0.03149   0.06213
 149        7PX         0.00000  -0.42789   0.00000   0.00000   0.00000
 150        7PY        -0.00000   0.00000  -0.42789  -0.00000  -0.00000
 151        7PZ        -0.12854   0.00000   0.00000   0.15264   1.01405
 152        8D 0        0.00196   0.00000   0.00000  -0.00038   0.00431
 153        8D+1        0.00000   0.00289   0.00000   0.00000   0.00000
 154        8D-1        0.00000   0.00000   0.00289   0.00000   0.00000
 155        8D+2       -0.00000   0.00000   0.00047   0.00000  -0.00000
 156        8D-2        0.00000   0.00047   0.00000   0.00000   0.00000
 157        9D 0       -0.02657   0.00000  -0.00000   0.02416   0.04968
 158        9D+1        0.00000  -0.03799   0.00000   0.00000   0.00000
 159        9D-1       -0.00000   0.00000  -0.03799  -0.00000  -0.00000
 160        9D+2        0.00000   0.00000  -0.00404  -0.00000   0.00000
 161        9D-2        0.00000  -0.00404   0.00000   0.00000   0.00000
                          16        17        18        19        20
                        (E)--V    (E)--V    (E)--V    (E)--V    (A1)--V
     Eigenvalues --     0.12414   0.12414   0.13505   0.13505   0.18235
   1 1   C  1S         -0.00000   0.00000   0.00000   0.00000  -0.03246
   2        2S          0.00000   0.00000   0.00000  -0.00000   0.09245
   3        3S          0.00000   0.00000   0.00000   0.00000   0.01205
   4        4S         -0.00000   0.00000   0.00000  -0.00000   3.47499
   5        5S         -0.00000   0.00000   0.00000   0.00000  -2.78909
   6        6PX         0.00000   0.11673   0.12789   0.00000   0.00000
   7        6PY         0.11673   0.00000   0.00000   0.12789   0.00000
   8        6PZ         0.00000   0.00000   0.00000  -0.00000  -0.14920
   9        7PX         0.00000  -0.06299  -0.14918   0.00000   0.00000
  10        7PY        -0.06299   0.00000   0.00000  -0.14918   0.00000
  11        7PZ         0.00000   0.00000   0.00000   0.00000  -0.08960
  12        8PX         0.00000  -2.52405  -2.22219   0.00000   0.00000
  13        8PY        -2.52405   0.00000   0.00000  -2.22219   0.00000
  14        8PZ         0.00000   0.00000   0.00000   0.00000   0.07168
  15        9PX         0.00000  -2.80829  -1.07903   0.00000   0.00000
  16        9PY        -2.80829   0.00000   0.00000  -1.07903   0.00000
  17        9PZ         0.00000   0.00000   0.00000  -0.00000   2.41002
  18       10D 0        0.00000   0.00000   0.00000  -0.00000  -0.00875
  19       10D+1        0.00000  -0.01876   0.00355   0.00000   0.00000
  20       10D-1       -0.01876   0.00000   0.00000   0.00355  -0.00000
  21       10D+2       -0.00068   0.00000   0.00000   0.02304   0.00000
  22       10D-2        0.00000  -0.00068   0.02304   0.00000   0.00000
  23       11D 0       -0.00000   0.00000   0.00000  -0.00000  -0.19484
  24       11D+1        0.00000   0.07374  -0.36593   0.00000   0.00000
  25       11D-1        0.07374   0.00000   0.00000  -0.36593   0.00000
  26       11D+2        0.21986   0.00000   0.00000   0.16504  -0.00000
  27       11D-2        0.00000   0.21986   0.16504   0.00000   0.00000
  28       12D 0       -0.00000   0.00000   0.00000  -0.00000  -0.74231
  29       12D+1        0.00000   0.26090  -1.97563   0.00000   0.00000
  30       12D-1        0.26090   0.00000   0.00000  -1.97563   0.00000
  31       12D+2        1.29779   0.00000   0.00000  -0.62967  -0.00000
  32       12D-2        0.00000   1.29779  -0.62967   0.00000   0.00000
  33       13F 0        0.00000   0.00000   0.00000   0.00000  -0.00329
  34       13F+1        0.00000  -0.00040   0.00507   0.00000   0.00000
  35       13F-1       -0.00040   0.00000   0.00000   0.00507  -0.00000
  36       13F+2        0.00533   0.00000   0.00000   0.01106  -0.00000
  37       13F-2        0.00000   0.00533   0.01106   0.00000   0.00000
  38       13F+3        0.00000  -0.00000  -0.00000   0.00000   0.00000
  39       13F-3        0.00000   0.00000   0.00000   0.00000  -0.01144
  40       14F 0        0.00000   0.00000   0.00000   0.00000   0.04172
  41       14F+1        0.00000   0.01373   0.06051   0.00000   0.00000
  42       14F-1        0.01373   0.00000   0.00000   0.06051  -0.00000
  43       14F+2        0.02005   0.00000   0.00000   0.08008  -0.00000
  44       14F-2        0.00000   0.02005   0.08008   0.00000   0.00000
  45       14F+3        0.00000  -0.00000  -0.00000   0.00000   0.00000
  46       14F-3        0.00000   0.00000   0.00000   0.00000  -0.04959
  47 2   H  1S         -0.01756   0.00000   0.00000  -0.04568   0.01224
  48        2S          0.30251   0.00000   0.00000   0.56881  -0.19750
  49        3S          5.69285   0.00000   0.00000   4.64035  -0.16030
  50        4S          4.84050   0.00000   0.00000   2.69219  -2.05441
  51        5PX         0.00000  -0.00006   0.00503   0.00000   0.00000
  52        5PY        -0.00713   0.00000   0.00000  -0.01044   0.00448
  53        5PZ        -0.00379   0.00000   0.00000  -0.00522  -0.00296
  54        6PX         0.00000  -0.04540   0.07822   0.00000   0.00000
  55        6PY        -0.13079   0.00000   0.00000  -0.29094   0.06859
  56        6PZ        -0.13015   0.00000   0.00000  -0.01491   0.04084
  57        7PX         0.00000  -0.88424   1.43763   0.00000   0.00000
  58        7PY        -1.35427   0.00000   0.00000  -2.35962   0.16603
  59        7PZ        -1.47214   0.00000   0.00000   0.66937   0.15657
  60        8D 0       -0.00159   0.00000   0.00000  -0.00587  -0.00006
  61        8D+1        0.00000  -0.00177  -0.00003   0.00000   0.00000
  62        8D-1        0.00626   0.00000   0.00000   0.00399  -0.00158
  63        8D+2       -0.00541   0.00000   0.00000  -0.00898   0.00322
  64        8D-2        0.00000   0.00204  -0.00208   0.00000   0.00000
  65        9D 0        0.06268   0.00000   0.00000  -0.11129  -0.00735
  66        9D+1        0.00000   0.01941  -0.01953   0.00000   0.00000
  67        9D-1        0.08674   0.00000   0.00000  -0.00318  -0.02737
  68        9D+2       -0.01696   0.00000   0.00000  -0.08191   0.00864
  69        9D-2        0.00000   0.05162  -0.08638   0.00000   0.00000
  70 3   H  1S          0.00878  -0.01521  -0.03956   0.02284   0.01224
  71        2S         -0.15126   0.26198   0.49261  -0.28441  -0.19750
  72        3S         -2.84643   4.93015   4.01866  -2.32017  -0.16030
  73        4S         -2.42025   4.19200   2.33151  -1.34610  -2.05441
  74        5PX         0.00306  -0.00536  -0.00657   0.00670   0.00388
  75        5PY        -0.00183   0.00306   0.00670   0.00116  -0.00224
  76        5PZ         0.00189  -0.00328  -0.00452   0.00261  -0.00296
  77        6PX         0.03697  -0.10944  -0.19865   0.15985   0.05940
  78        6PY        -0.06675   0.03697   0.15985  -0.01407  -0.03429
[...]
 106         (E)--V            3.171729          4.277510
 107         (E)--V            3.171729          4.277510
 108         (E)--V            3.245157          4.717364
 109         (E)--V            3.245157          4.717364
 110         (A2)--V           3.254565          4.031744
 111         (A1)--V           3.289077          4.974443
 112         (E)--V            3.318695          4.233766
 113         (E)--V            3.318695          4.233766
 114         (A1)--V           3.548521          5.130034
 115         (E)--V            3.561443          5.053962
 116         (E)--V            3.561443          5.053962
 117         (E)--V            3.592632          4.326811
 118         (E)--V            3.592632          4.326811
 119         (E)--V            3.705195          4.369114
 120         (E)--V            3.705195          4.369114
 121         (E)--V            3.729996          4.864377
 122         (E)--V            3.729996          4.864377
 123         (A2)--V           3.755190          4.364445
 124         (E)--V            3.795493          4.412464
 125         (E)--V            3.795493          4.412464
 126         (E)--V            3.830278          4.442797
 127         (E)--V            3.830278          4.442797
 128         (A1)--V           3.882740          5.090164
 129         (A1)--V           3.902873          5.185317
 130         (E)--V            4.031579          4.898171
 131         (E)--V            4.031579          4.898171
 132         (A1)--V           4.087398          5.082433
 133         (E)--V            4.252538          5.048133
 134         (E)--V            4.252538          5.048133
 135         (A1)--V           4.270736          5.074312
 136         (E)--V            4.429621          5.461600
 137         (E)--V            4.429621          5.461600
 138         (E)--V            4.488330          5.654373
 139         (E)--V            4.488330          5.654373
 140         (A1)--V           4.511252          5.651465
 141         (A2)--V           4.546051          5.198003
 142         (E)--V            4.613104          5.299159
 143         (E)--V            4.613104          5.299159
 144         (A1)--V           4.628782          5.788805
 145         (E)--V            4.902039          5.669960
 146         (E)--V            4.902039          5.669960
 147         (A1)--V           5.027665          5.948908
 148         (A1)--V           5.171740          7.070081
 149         (A2)--V           5.271934          6.168725
 150         (E)--V            5.300752          6.197447
 151         (E)--V            5.300752          6.197447
 152         (E)--V            5.487794          6.254559
 153         (E)--V            5.487794          6.254559
 154         (A1)--V           5.505944          7.066801
 155         (E)--V            5.848802          7.149733
 156         (E)--V            5.848802          7.149733
 157         (A1)--V           5.896105          7.172865
 158         (E)--V            6.237144          7.546993
 159         (E)--V            6.237144          7.546993
 160         (A1)--V           6.513936          7.848920
 161         (A1)--V          17.526157         42.713896
 Orbital energies and kinetic energies (beta):
                                 1                 2
   1         (A1)--O         -10.158418         15.918887
   2         (A1)--O          -0.700416          1.258541
   3         (A1)--O          -0.408088          0.907492
   4         (E)--O           -0.399441          0.974397
   5         (E)--O           -0.399441          0.974397
   6         (A1)--V          -0.101710          0.484617
   7         (A1)--V          -0.000060          0.167345
   8         (E)--V            0.023925          0.103374
   9         (E)--V            0.023925          0.103374
  10         (A1)--V           0.040542          0.152080
  11         (A1)--V           0.049865          0.115863
  12         (E)--V            0.075394          0.173891
  13         (E)--V            0.075394          0.173891
  14         (A1)--V           0.089616          0.281015
  15         (A1)--V           0.117158          0.276643
  16         (E)--V            0.127973          0.404982
  17         (E)--V            0.127973          0.404982
  18         (E)--V            0.137084          0.335186
  19         (E)--V            0.137084          0.335186
  20         (A1)--V           0.200688          0.519427
  21         (E)--V            0.224331          0.348257
  22         (E)--V            0.224331          0.348257
  23         (A1)--V           0.240886          0.474355
  24         (E)--V            0.249124          0.436068
  25         (E)--V            0.249124          0.436068
  26         (A1)--V           0.261842          0.476700
  27         (A2)--V           0.283518          0.367193
  28         (E)--V            0.307602          0.467350
  29         (E)--V            0.307602          0.467350
  30         (A1)--V           0.314369          0.603379
  31         (A1)--V           0.333589          0.560543
  32         (E)--V            0.355246          0.584049
  33         (E)--V            0.355246          0.584049
  34         (E)--V            0.357784          0.688218
  35         (E)--V            0.357784          0.688218
  36         (A1)--V           0.374401          0.951940
  37         (E)--V            0.420898          0.589312
  38         (E)--V            0.420898          0.589312
  39         (A1)--V           0.451180          0.745179
  40         (A1)--V           0.543631          0.943481
  41         (E)--V            0.573837          0.914254
  42         (E)--V            0.573837          0.914254
  43         (A1)--V           0.590154          0.948257
  44         (A1)--V           0.675361          1.297242
  45         (E)--V            0.677749          1.261815
  46         (E)--V            0.677749          1.261815
  47         (E)--V            0.724098          0.913262
  48         (E)--V            0.724098          0.913262
  49         (A1)--V           0.726249          1.413890
  50         (E)--V            0.736990          1.006623
  51         (E)--V            0.736990          1.006623
  52         (A2)--V           0.756720          0.968599
  53         (E)--V            0.817946          1.061911
  54         (E)--V            0.817946          1.061911
  55         (A1)--V           0.827805          1.253033
  56         (E)--V            0.870432          1.101193
  57         (E)--V            0.870432          1.101193
  58         (E)--V            0.897093          1.198312
  59         (E)--V            0.897093          1.198312
  60         (A1)--V           0.910438          1.190777
  61         (E)--V            0.932425          1.205822
  62         (E)--V            0.932425          1.205822
  63         (A1)--V           0.937159          1.187715
  64         (A2)--V           0.945616          1.115818
  65         (E)--V            0.967953          1.183745
  66         (E)--V            0.967953          1.183745
  67         (E)--V            1.028891          1.234809
  68         (E)--V            1.028891          1.234809
  69         (A1)--V           1.095341          1.393452
  70         (E)--V            1.118948          1.297680
  71         (E)--V            1.118948          1.297680
  72         (A1)--V           1.155468          1.437378
  73         (E)--V            1.162168          1.363167
  74         (E)--V            1.162168          1.363167
  75         (A1)--V           1.272294          1.784618
  76         (E)--V            1.362742          1.644633
  77         (E)--V            1.362742          1.644633
  78         (E)--V            1.405646          2.039251
  79         (E)--V            1.405646          2.039251
  80         (A1)--V           1.424069          2.099846
  81         (A2)--V           1.436729          1.735370
  82         (A1)--V           1.482309          2.204764
  83         (A1)--V           1.513070          2.078608
  84         (E)--V            1.548055          1.896265
  85         (E)--V            1.548055          1.896265
  86         (E)--V            1.611134          2.293683
  87         (E)--V            1.611134          2.293683
  88         (A1)--V           1.661566          2.074938
  89         (E)--V            1.691018          2.275531
  90         (E)--V            1.691018          2.275531
  91         (A2)--V           1.729939          2.046383
  92         (E)--V            1.775855          2.108594
  93         (E)--V            1.775855          2.108594
  94         (E)--V            1.950671          2.421932
  95         (E)--V            1.950671          2.421932
  96         (A1)--V           1.966183          2.852289
  97         (A1)--V           2.000391          2.740474
  98         (E)--V            2.038660          2.519722
  99         (E)--V            2.038660          2.519722
 100         (A1)--V           2.550338          4.146663
 101         (A1)--V           2.733229          3.990386
 102         (A1)--V           2.794611          4.040913
 103         (E)--V            2.950227          4.258056
 104         (E)--V            2.950227          4.258056
 105         (E)--V            3.175605          4.280761
 106         (E)--V            3.175605          4.280761
 107         (A1)--V           3.182398          4.241602
 108         (E)--V            3.247899          4.703042
 109         (E)--V            3.247899          4.703042
 110         (A2)--V           3.255029          4.031638
 111         (A1)--V           3.313974          5.000594
 112         (E)--V            3.329775          4.246926
 113         (E)--V            3.329775          4.246926
 114         (E)--V            3.568337          5.231332
 115         (E)--V            3.568337          5.231332
 116         (A1)--V           3.585567          5.151318
 117         (E)--V            3.707298          4.320034
 118         (E)--V            3.707298          4.320034
 119         (E)--V            3.731309          4.715200
 120         (E)--V            3.731309          4.715200
 121         (A2)--V           3.755433          4.364492
 122         (E)--V            3.771925          4.386388
 123         (E)--V            3.771925          4.386388
 124         (E)--V            3.815392          4.414441
 125         (E)--V            3.815392          4.414441
 126         (E)--V            3.861822          4.400727
 127         (E)--V            3.861822          4.400727
 128         (A1)--V           3.899449          5.124168
 129         (A1)--V           3.908058          5.174855
 130         (A1)--V           4.145454          5.022578
 131         (E)--V            4.165179          4.916022
 132         (E)--V            4.165179          4.916022
 133         (E)--V            4.255063          5.042306
 134         (E)--V            4.255063          5.042306
 135         (A1)--V           4.271994          5.076173
 136         (E)--V            4.431841          5.461807
 137         (E)--V            4.431841          5.461807
 138         (E)--V            4.493510          5.644306
 139         (E)--V            4.493510          5.644306
 140         (A2)--V           4.546128          5.198289
 141         (A1)--V           4.550438          5.820098
 142         (E)--V            4.620388          5.304591
 143         (E)--V            4.620388          5.304591
 144         (A1)--V           4.690154          5.626629
 145         (E)--V            4.903248          5.671529
 146         (E)--V            4.903248          5.671529
 147         (A1)--V           5.051279          5.973138
 148         (A1)--V           5.180647          7.040348
 149         (A2)--V           5.273486          6.168553
 150         (E)--V            5.303842          6.196718
 151         (E)--V            5.303842          6.196718
 152         (E)--V            5.488355          6.255726
 153         (E)--V            5.488355          6.255726
 154         (A1)--V           5.517153          7.063744
 155         (E)--V            5.849621          7.149643
 156         (E)--V            5.849621          7.149643
 157         (A1)--V           5.897826          7.176232
 158         (E)--V            6.238997          7.547616
 159         (E)--V            6.238997          7.547616
 160         (A1)--V           6.530001          7.850519
 161         (A1)--V          17.529275         42.711859
 Total kinetic energy from orbitals= 4.075776337496D+01
                          Isotropic Fermi Contact Couplings
        Atom                 a.u.       MegaHertz       Gauss      10(-4) cm-1
     1  C(13)              0.06140      69.02798      24.63090      23.02526
     2  H(1)              -0.00054      -2.42746      -0.86618      -0.80971
     3  H(1)              -0.00054      -2.42746      -0.86618      -0.80971
     4  H(1)              -0.00054      -2.42746      -0.86618      -0.80971
     5  H(1)              -0.00198      -8.84968      -3.15779      -2.95194
     6  H(1)               0.28698    1282.75786     457.71989     427.88196
 --------------------------------------------------------
       Center         ----  Spin Dipole Couplings  ----
                      3XX-RR        3YY-RR        3ZZ-RR
 --------------------------------------------------------
     1   Atom       -0.084868     -0.084868      0.169735
     2   Atom       -0.012301      0.005494      0.006807
     3   Atom        0.001045     -0.007853      0.006807
     4   Atom        0.001045     -0.007853      0.006807
     5   Atom       -0.057382     -0.057382      0.114764
     6   Atom        0.002195      0.002195     -0.004390
 --------------------------------------------------------
                        XY            XZ            YZ
 --------------------------------------------------------
     1   Atom        0.000000     -0.000000      0.000000
     2   Atom       -0.000000     -0.000000      0.007996
     3   Atom       -0.007706      0.006925     -0.003998
     4   Atom        0.007706     -0.006925     -0.003998
     5   Atom       -0.000000     -0.000000     -0.000000
     6   Atom        0.000000     -0.000000      0.000000
 --------------------------------------------------------


 ---------------------------------------------------------------------------------
              Anisotropic Spin Dipole Couplings in Principal Axis System
 ---------------------------------------------------------------------------------

       Atom             a.u.   MegaHertz   Gauss  10(-4) cm-1        Axes

              Baa    -0.0849   -11.388    -4.064    -3.799  0.9232 -0.3843  0.0000
     1 C(13)  Bbb    -0.0849   -11.388    -4.064    -3.799  0.3843  0.9232  0.0000
              Bcc     0.1697    22.777     8.127     7.598 -0.0000  0.0000  1.0000
 
              Baa    -0.0123    -6.563    -2.342    -2.189  1.0000  0.0000  0.0000
     2 H(1)   Bbb    -0.0019    -0.999    -0.356    -0.333 -0.0000  0.7355 -0.6776
              Bcc     0.0142     7.562     2.698     2.523 -0.0000  0.6776  0.7355
 
              Baa    -0.0123    -6.563    -2.342    -2.189  0.5000  0.8660 -0.0000
     3 H(1)   Bbb    -0.0019    -0.999    -0.356    -0.333 -0.6369  0.3677  0.6776
              Bcc     0.0142     7.562     2.698     2.523  0.5868 -0.3388  0.7355
 
              Baa    -0.0123    -6.563    -2.342    -2.189 -0.5000  0.8660 -0.0000
     4 H(1)   Bbb    -0.0019    -0.999    -0.356    -0.333  0.6369  0.3677  0.6776
              Bcc     0.0142     7.562     2.698     2.523 -0.5868 -0.3388  0.7355
 
              Baa    -0.0574   -30.616   -10.925   -10.213  0.9953  0.0965  0.0000
     5 H(1)   Bbb    -0.0574   -30.616   -10.925   -10.213 -0.0965  0.9953 -0.0000
              Bcc     0.1148    61.233    21.849    20.425 -0.0000 -0.0000  1.0000
 
              Baa    -0.0044    -2.342    -0.836    -0.781  0.0000 -0.0000  1.0000
     6 H(1)   Bbb     0.0022     1.171     0.418     0.391 -0.0153  0.9999  0.0000
              Bcc     0.0022     1.171     0.418     0.391  0.9999  0.0153 -0.0000
 

 ---------------------------------------------------------------------------------

 No NMR shielding tensors so no spin-rotation constants.
 Leave Link  601 at Fri Sep 13 15:11:26 2024, MaxMem=   65536000 cpu:       1.4
 (Enter /programs/64bit/g09/g09-gfortran/bin/l701.exe)
 Compute integral first derivatives.
 ... and contract with generalized density number  0.
 Leave Link  701 at Fri Sep 13 15:11:26 2024, MaxMem=   65536000 cpu:       0.6
 (Enter /programs/64bit/g09/g09-gfortran/bin/l702.exe)
 L702 exits ... SP integral derivatives will be done elsewhere.
 Leave Link  702 at Fri Sep 13 15:11:26 2024, MaxMem=   65536000 cpu:       0.1
 (Enter /programs/64bit/g09/g09-gfortran/bin/l703.exe)
 Compute integral first derivatives, UseDBF=F ICtDFT=           0.
 Integral derivatives from FoFDir, PRISM(SPDF).
 Calling FoFJK, ICntrl=      2127 FMM=F ISym2X=1 I1Cent= 0 IOpClX= 1 NMat=1 NMatS=1 NMatT=0.
 FoFCou: FMM=F IPFlag=           0 FMFlag=      100000 FMFlg1=         800
         NFxFlg=           0 DoJE=F BraDBF=F KetDBF=F FulRan=T
         Omega=  0.000000  0.000000  1.000000  0.000000  0.000000 ICntrl=    2127 IOpCl=  1
         NMat0=    1 NMatS0=    1 NMatT0=    0 NMatD0=    1 NMtDS0=    0 NMtDT0=    0
         I1Cent=           0 NGrid=           0.
 Petite list used in FoFCou.
 Leave Link  703 at Fri Sep 13 15:12:11 2024, MaxMem=   65536000 cpu:      44.7
 (Enter /programs/64bit/g09/g09-gfortran/bin/l716.exe)
 Dipole        = 1.96474117D-16-3.05165659D-16 1.32395705D-01
 ***** Axes restored to original set *****
 -------------------------------------------------------------------
 Center     Atomic                   Forces (Hartrees/Bohr)
 Number     Number              X              Y              Z
 -------------------------------------------------------------------
      1        6           0.006468433   -0.011203655    0.004573873
      2        1          -0.000482894    0.000836396   -0.000308278
      3        1          -0.000451612    0.000836396   -0.000352517
      4        1          -0.000498535    0.000809305   -0.000352517
      5        1          -0.001873113    0.003244326   -0.001324491
      6        1          -0.003162281    0.005477231   -0.002236070
 -------------------------------------------------------------------
 Cartesian Forces:  Max     0.011203655 RMS     0.003742806
 Error on Z-matrix card number    6
 angle Alpha is outside the valid range of 0 to 180.
 Conversion from Z-matrix to cartesian coordinates failed:
 ---------------------------------------------------------------------------------------------------
                            Z-MATRIX (ANGSTROMS AND DEGREES)
   CD    Cent   Atom    N1       Length/X        N2       Alpha/Y        N3        Beta/Z          J
 ---------------------------------------------------------------------------------------------------
      1      1  C 
      2      2  H        1   1.089000(     1)
      3      3  H        1   1.089000(     2)      2  109.471(     6)
      4      4  H        1   1.089000(     3)      2  109.471(     7)      3  120.000(    10)      0
      5      5  H        1   1.089000(     4)      2  109.471(     8)      3 -120.000(    11)      0
      6      6  H        1   2.570000(     5)      5    0.000(     9)      3    0.000(    12)      0
 ---------------------------------------------------------------------------------------------------
 Error termination via Lnk1e in /programs/64bit/g09/g09-gfortran/bin/l716.exe at Fri Sep 13 15:12:11 2024.
 Job cpu time:  0 days  0 hours  3 minutes 24.7 seconds.
 File lengths (MBytes):  RWF=     30 Int=      0 D2E=      0 Chk=      1 Scr=      1
