 Entering Gaussian System, Link 0=/programs/64bit/g09/g09-gfortran/bin/g09
 Input=reactants_opt.com
 Output=reactants_opt.log
 Initial command:
 /programs/64bit/g09/g09-gfortran/bin/l1.exe /home/ospite/Desktop/MMfP/Project9/CH4/forward/iguess_search/Gau-31880.inp -scrdir=/home/ospite/Desktop/MMfP/Project9/CH4/forward/iguess_search/
 Entering Link 1 = /programs/64bit/g09/g09-gfortran/bin/l1.exe PID=     31881.
  
 Copyright (c) 1988,1990,1992,1993,1995,1998,2003,2009, Gaussian, Inc.
                  All Rights Reserved.
  
 This is part of the Gaussian(R) 09 program.  It is based on
 the Gaussian(R) 03 system (copyright 2003, Gaussian, Inc.),
 the Gaussian(R) 98 system (copyright 1998, Gaussian, Inc.),
 the Gaussian(R) 94 system (copyright 1995, Gaussian, Inc.),
 the Gaussian 92(TM) system (copyright 1992, Gaussian, Inc.),
 the Gaussian 90(TM) system (copyright 1990, Gaussian, Inc.),
 the Gaussian 88(TM) system (copyright 1988, Gaussian, Inc.),
 the Gaussian 86(TM) system (copyright 1986, Carnegie Mellon
 University), and the Gaussian 82(TM) system (copyright 1983,
 Carnegie Mellon University). Gaussian is a federally registered
 trademark of Gaussian, Inc.
  
 This software contains proprietary and confidential information,
 including trade secrets, belonging to Gaussian, Inc.
  
 This software is provided under written license and may be
 used, copied, transmitted, or stored only in accord with that
 written license.
  
 The following legend is applicable only to US Government
 contracts under FAR:
  
                    RESTRICTED RIGHTS LEGEND
  
 Use, reproduction and disclosure by the US Government is
 subject to restrictions as set forth in subparagraphs (a)
 and (c) of the Commercial Computer Software - Restricted
 Rights clause in FAR 52.227-19.
  
 Gaussian, Inc.
 340 Quinnipiac St., Bldg. 40, Wallingford CT 06492
  
  
 ---------------------------------------------------------------
 Warning -- This program may not be used in any manner that
 competes with the business of Gaussian, Inc. or will provide
 assistance to any competitor of Gaussian, Inc.  The licensee
 of this program is prohibited from giving any competitor of
 Gaussian, Inc. access to this program.  By using this program,
 the user acknowledges that Gaussian, Inc. is engaged in the
 business of creating and licensing software in the field of
 computational chemistry and represents and warrants to the
 licensee that it is not a competitor of Gaussian, Inc. and that
 it will not use this program in any manner prohibited above.
 ---------------------------------------------------------------
  

 Cite this work as:
 Gaussian 09, Revision A.02,
 M. J. Frisch, G. W. Trucks, H. B. Schlegel, G. E. Scuseria, 
 M. A. Robb, J. R. Cheeseman, G. Scalmani, V. Barone, B. Mennucci, 
 G. A. Petersson, H. Nakatsuji, M. Caricato, X. Li, H. P. Hratchian, 
 A. F. Izmaylov, J. Bloino, G. Zheng, J. L. Sonnenberg, M. Hada, 
 M. Ehara, K. Toyota, R. Fukuda, J. Hasegawa, M. Ishida, T. Nakajima, 
 Y. Honda, O. Kitao, H. Nakai, T. Vreven, J. A. Montgomery, Jr., 
 J. E. Peralta, F. Ogliaro, M. Bearpark, J. J. Heyd, E. Brothers, 
 K. N. Kudin, V. N. Staroverov, R. Kobayashi, J. Normand, 
 K. Raghavachari, A. Rendell, J. C. Burant, S. S. Iyengar, J. Tomasi, 
 M. Cossi, N. Rega, J. M. Millam, M. Klene, J. E. Knox, J. B. Cross, 
 V. Bakken, C. Adamo, J. Jaramillo, R. Gomperts, R. E. Stratmann, 
 O. Yazyev, A. J. Austin, R. Cammi, C. Pomelli, J. W. Ochterski, 
 R. L. Martin, K. Morokuma, V. G. Zakrzewski, G. A. Voth, 
 P. Salvador, J. J. Dannenberg, S. Dapprich, A. D. Daniels, 
 O. Farkas, J. B. Foresman, J. V. Ortiz, J. Cioslowski, 
 and D. J. Fox, Gaussian, Inc., Wallingford CT, 2009.
 
 ******************************************
 Gaussian 09:  EM64L-G09RevA.02 11-Jun-2009
                13-Sep-2024 
 ******************************************
 %nprocshared=2
 Will use up to    2 processors via shared memory.
 %mem=500MB
 %chk=ch4+h.chk
 ------------------------------------------------------------------
 #p B3LYP/6-31+g(d,p) opt=Z-matrix temperature=300 pop=full gfinput
 ------------------------------------------------------------------
 1/10=7,14=-1,18=40,26=3,38=1,111=300000/1,3;
 2/12=2,17=6,18=5,29=3,40=1/2;
 3/5=1,6=6,7=111,11=2,16=1,24=10,25=1,30=1,71=1,74=-5/1,2,3;
 4//1;
 5/5=2,38=5/2;
 6/7=3,28=1/1;
 7/29=1/1,2,3,16;
 1/10=7,14=-1,18=40/3(2);
 2/29=3/2;
 99//99;
 2/29=3/2;
 3/5=1,6=6,7=111,11=2,16=1,25=1,30=1,71=1,74=-5/1,2,3;
 4/5=5,16=3/1;
 5/5=2,38=5/2;
 7//1,2,3,16;
 1/14=-1,18=40/3(-5);
 2/29=3/2;
 6/7=3,19=2,28=1/1;
 99/9=1/99;
 Leave Link    1 at Fri Sep 13 15:41:57 2024, MaxMem=   65536000 cpu:       0.1
 (Enter /programs/64bit/g09/g09-gfortran/bin/l101.exe)
 -----
 ch4+h
 -----
 Symbolic Z-matrix:
 Charge =  0 Multiplicity = 2
 c
 h                    1    hc2
 h                    1    hc3      2    hch3
 h                    1    hc4      2    hch4     3    dih4     0
 h                    1    hc5      2    hch5     3    dih5     0
 xx                   5    xxh6     1    xxhc6    4    dih6     0
 h                    5    hh7      6    hhxx7    1    dih7     0
       Variables:
  hc2                   1.089                    
  hc3                   1.089                    
  hch3                109.471                    
  hc4                   1.089                    
  hch4                109.471                    
  dih4                120.                       
  hc5                   1.089                    
  hch5                109.471                    
  dih5               -120.                       
  xxh6                  1.                       
  xxhc6                90.                       
  dih6                 90.                       
  hh7                   2.                       
  hhxx7                90.                       
  dih7                180.                       
 
     3 tetrahedral angles replaced.
 NAtoms=      6 NQM=      6 NQMF=      0 NMic=      0 NMicF=      0 NTot=      6.
    3 tetrahedral angles replaced.
                    Isotopes and Nuclear Properties:
 (Nuclear quadrupole moments (NQMom) in fm**2, nuclear magnetic moments (NMagM)
  in nuclear magnetons)

  Atom         1           2           3           4           5           6
 IAtWgt=          12           1           1           1           1           1
 AtmWgt=  12.0000000   1.0078250   1.0078250   1.0078250   1.0078250   1.0078250
 NucSpn=           0           1           1           1           1           1
 AtZEff=   0.0000000   0.0000000   0.0000000   0.0000000   0.0000000   0.0000000
 NQMom=    0.0000000   0.0000000   0.0000000   0.0000000   0.0000000   0.0000000
 NMagM=    0.0000000   2.7928460   2.7928460   2.7928460   2.7928460   2.7928460
 Leave Link  101 at Fri Sep 13 15:41:57 2024, MaxMem=   65536000 cpu:       0.1
 (Enter /programs/64bit/g09/g09-gfortran/bin/l103.exe)

 GradGradGradGradGradGradGradGradGradGradGradGradGradGradGradGradGradGrad
 Berny optimization.
 Initialization pass.
                       ----------------------------
                       !    Initial Parameters    !
                       ! (Angstroms and Degrees)  !
 ----------------------                            ----------------------
 !      Name          Value   Derivative information (Atomic Units)     !
 ------------------------------------------------------------------------
 !       hc2         1.089    estimate D2E/DX2                          !
 !       hc3         1.089    estimate D2E/DX2                          !
 !      hch3       109.4712   estimate D2E/DX2                          !
 !       hc4         1.089    estimate D2E/DX2                          !
 !      hch4       109.4712   estimate D2E/DX2                          !
 !      dih4       120.0      estimate D2E/DX2                          !
 !       hc5         1.089    estimate D2E/DX2                          !
 !      hch5       109.4712   estimate D2E/DX2                          !
 !      dih5      -120.0      estimate D2E/DX2                          !
 !      xxh6         1.0      estimate D2E/DX2                          !
 !      xxhc6       90.0      estimate D2E/DX2                          !
 !      dih6        90.0      estimate D2E/DX2                          !
 !       hh7         2.0      estimate D2E/DX2                          !
 !      hhxx7       90.0      estimate D2E/DX2                          !
 !      dih7       180.0      estimate D2E/DX2                          !
 ------------------------------------------------------------------------
 Trust Radius=3.00D-01 FncErr=1.00D-07 GrdErr=1.00D-06
 Number of steps in this run=  25 maximum allowed number of steps= 100.
 GradGradGradGradGradGradGradGradGradGradGradGradGradGradGradGradGradGrad

 Leave Link  103 at Fri Sep 13 15:41:57 2024, MaxMem=   65536000 cpu:       0.0
 (Enter /programs/64bit/g09/g09-gfortran/bin/l202.exe)
 ---------------------------------------------------------------------------------------------------
                            Z-MATRIX (ANGSTROMS AND DEGREES)
   CD    Cent   Atom    N1       Length/X        N2       Alpha/Y        N3        Beta/Z          J
 ---------------------------------------------------------------------------------------------------
      1      1  C 
      2      2  H        1   1.089000(     1)
      3      3  H        1   1.089000(     2)      2  109.471(     7)
      4      4  H        1   1.089000(     3)      2  109.471(     8)      3  120.000(    12)      0
      5      5  H        1   1.089000(     4)      2  109.471(     9)      3 -120.000(    13)      0
      6         X        5   1.000000(     5)      1   90.000(    10)      4   90.000(    14)      0
      7      6  H        5   2.000000(     6)      6   90.000(    11)      1  180.000(    15)      0
 ---------------------------------------------------------------------------------------------------
                         Z-Matrix orientation:                         
 ---------------------------------------------------------------------
 Center     Atomic      Atomic             Coordinates (Angstroms)
 Number     Number       Type             X           Y           Z
 ---------------------------------------------------------------------
      1          6           0        0.000000    0.000000    0.000000
      2          1           0        0.000000    0.000000    1.089000
      3          1           0        1.026719    0.000000   -0.363000
      4          1           0       -0.513360   -0.889165   -0.363000
      5          1           0       -0.513360    0.889165   -0.363000
      6         -1           0       -1.090710    0.889165    0.453497
      7          1           0       -1.456169    2.522158   -1.029667
 ---------------------------------------------------------------------
                    Distance matrix (angstroms):
                    1          2          3          4          5
     1  C    0.000000
     2  H    1.089000   0.000000
     3  H    1.089000   1.778330   0.000000
     4  H    1.089000   1.778330   1.778330   0.000000
     5  H    1.089000   1.778330   1.778330   1.778330   0.000000
     6  X    1.478486   1.544062   2.437373   2.040210   1.000000
     7  H    3.089000   3.601452   3.601452   3.601452   2.000000
                    6          7
     6  X    0.000000
     7  H    2.236068   0.000000
 Stoichiometry    CH5(2)
 Framework group  C3V[C3(HHC),3SGV(H)]
 Deg. of freedom     4
 Full point group                 C3V     NOp   6
 Largest Abelian subgroup         CS      NOp   2
 Largest concise Abelian subgroup CS      NOp   2
                         Standard orientation:                         
 ---------------------------------------------------------------------
 Center     Atomic      Atomic             Coordinates (Angstroms)
 Number     Number       Type             X           Y           Z
 ---------------------------------------------------------------------
      1          6           0        0.000000   -0.000000    0.280818
      2          1           0        0.000000    1.026719    0.643818
      3          1           0        0.889165   -0.513360    0.643818
      4          1           0       -0.889165   -0.513360    0.643818
      5          1           0       -0.000000    0.000000   -0.808182
      6          1           0       -0.000000    0.000000   -2.808182
 ---------------------------------------------------------------------
 Rotational constants (GHZ):    158.5650837     41.3060407     41.3060407
 Leave Link  202 at Fri Sep 13 15:41:57 2024, MaxMem=   65536000 cpu:       0.0
 (Enter /programs/64bit/g09/g09-gfortran/bin/l301.exe)
 Standard basis: 6-31+G(d,p) (6D, 7F)
 Ernie: Thresh=  0.10000D-02 Tol=  0.10000D-05 Strict=F.
 AO basis set in the form of general basis input (Overlap normalization):
      1 0
 S   6 1.00       0.000000000000
      0.3047524880D+04  0.1834737132D-02
      0.4573695180D+03  0.1403732281D-01
      0.1039486850D+03  0.6884262226D-01
      0.2921015530D+02  0.2321844432D+00
      0.9286662960D+01  0.4679413484D+00
      0.3163926960D+01  0.3623119853D+00
 SP   3 1.00       0.000000000000
      0.7868272350D+01 -0.1193324198D+00  0.6899906659D-01
      0.1881288540D+01 -0.1608541517D+00  0.3164239610D+00
      0.5442492580D+00  0.1143456438D+01  0.7443082909D+00
 SP   1 1.00       0.000000000000
      0.1687144782D+00  0.1000000000D+01  0.1000000000D+01
 SP   1 1.00       0.000000000000
      0.4380000000D-01  0.1000000000D+01  0.1000000000D+01
 D   1 1.00       0.000000000000
      0.8000000000D+00  0.1000000000D+01
 ****
      2 0
 S   3 1.00       0.000000000000
      0.1873113696D+02  0.3349460434D-01
      0.2825394365D+01  0.2347269535D+00
      0.6401216923D+00  0.8137573261D+00
 S   1 1.00       0.000000000000
      0.1612777588D+00  0.1000000000D+01
 P   1 1.00       0.000000000000
      0.1100000000D+01  0.1000000000D+01
 ****
      3 0
 S   3 1.00       0.000000000000
      0.1873113696D+02  0.3349460434D-01
      0.2825394365D+01  0.2347269535D+00
      0.6401216923D+00  0.8137573261D+00
 S   1 1.00       0.000000000000
      0.1612777588D+00  0.1000000000D+01
 P   1 1.00       0.000000000000
      0.1100000000D+01  0.1000000000D+01
 ****
      4 0
 S   3 1.00       0.000000000000
      0.1873113696D+02  0.3349460434D-01
      0.2825394365D+01  0.2347269535D+00
      0.6401216923D+00  0.8137573261D+00
 S   1 1.00       0.000000000000
      0.1612777588D+00  0.1000000000D+01
 P   1 1.00       0.000000000000
      0.1100000000D+01  0.1000000000D+01
 ****
      5 0
 S   3 1.00       0.000000000000
      0.1873113696D+02  0.3349460434D-01
      0.2825394365D+01  0.2347269535D+00
      0.6401216923D+00  0.8137573261D+00
 S   1 1.00       0.000000000000
      0.1612777588D+00  0.1000000000D+01
 P   1 1.00       0.000000000000
      0.1100000000D+01  0.1000000000D+01
 ****
      6 0
 S   3 1.00       0.000000000000
      0.1873113696D+02  0.3349460434D-01
      0.2825394365D+01  0.2347269535D+00
      0.6401216923D+00  0.8137573261D+00
 S   1 1.00       0.000000000000
      0.1612777588D+00  0.1000000000D+01
 P   1 1.00       0.000000000000
      0.1100000000D+01  0.1000000000D+01
 ****

 There are    31 symmetry adapted basis functions of A'  symmetry.
 There are    13 symmetry adapted basis functions of A"  symmetry.
 Integral buffers will be    131072 words long.
 Raffenetti 2 integral format.
 Two-electron integral symmetry is turned on.
    44 basis functions,    67 primitive gaussians,    44 cartesian basis functions
     6 alpha electrons        5 beta electrons
       nuclear repulsion energy        15.1809795902 Hartrees.
 IExCor=  402 DFT=T Ex+Corr=B3LYP ExCW=0 ScaHFX=  0.200000
 ScaDFX=  0.800000  0.720000  1.000000  0.810000 ScalE2=  1.000000  1.000000
 IRadAn=      0 IRanWt=     -1 IRanGd=            0 ICorTp=0
 NAtoms=    6 NActive=    6 NUniq=    4 SFac= 1.69D+00 NAtFMM=   80 NAOKFM=F Big=F
 Leave Link  301 at Fri Sep 13 15:41:57 2024, MaxMem=   65536000 cpu:       0.1
 (Enter /programs/64bit/g09/g09-gfortran/bin/l302.exe)
 NPDir=0 NMtPBC=     1 NCelOv=     1 NCel=       1 NClECP=     1 NCelD=      1
         NCelK=      1 NCelE2=     1 NClLst=     1 CellRange=     0.0.
 One-electron integrals computed using PRISM.
 One-electron integral symmetry used in STVInt
 NBasis=    44 RedAO= T  NBF=    31    13
 NBsUse=    44 1.00D-06 NBFU=    31    13
 Precomputing XC quadrature grid using
 IXCGrd= 2 IRadAn=           0 IRanWt=          -1 IRanGd=           0 AccXCQ= 1.00D-10.
 NRdTot=     383 NPtTot=       48740 NUsed=       51512 NTot=       51544
 NSgBfM=    44    44    44    44    44 NAtAll=     6     6.
 Leave Link  302 at Fri Sep 13 15:41:58 2024, MaxMem=   65536000 cpu:       0.3
 (Enter /programs/64bit/g09/g09-gfortran/bin/l303.exe)
 DipDrv:  MaxL=1.
 Leave Link  303 at Fri Sep 13 15:41:58 2024, MaxMem=   65536000 cpu:       0.1
 (Enter /programs/64bit/g09/g09-gfortran/bin/l401.exe)
 Harris functional with IExCor=  402 diagonalized for initial guess.
 ExpMin= 4.38D-02 ExpMax= 3.05D+03 ExpMxC= 4.57D+02 IAcc=2 IRadAn=         0 AccDes= 0.00D+00
 HarFok:  IExCor=  402 AccDes= 0.00D+00 IRadAn=         0 IDoV= 1
 ScaDFX=  1.000000  1.000000  1.000000  1.000000
 FoFCou: FMM=F IPFlag=           0 FMFlag=      100000 FMFlg1=           0
         NFxFlg=           0 DoJE=T BraDBF=F KetDBF=T FulRan=T
         Omega=  0.000000  0.000000  1.000000  0.000000  0.000000 ICntrl=     500 IOpCl=  0
         NMat0=    1 NMatS0=    1 NMatT0=    0 NMatD0=    1 NMtDS0=    0 NMtDT0=    0
         I1Cent=           4 NGrid=           0.
 Petite list used in FoFCou.
 Harris En= -41.0350022554985    
 Initial guess orbital symmetries:
 Alpha Orbitals:
       Occupied  (A1) (A1) (A1) (E) (E) (A1)
       Virtual   (A1) (E) (E) (A1) (E) (E) (A1) (A1) (E) (E) (A1)
                 (E) (E) (A1) (A1) (A1) (A1) (E) (E) (E) (E) (A2)
                 (E) (E) (A1) (E) (E) (A1) (E) (E) (A1) (E) (E)
                 (A1) (E) (E) (A1) (A1)
 Beta  Orbitals:
       Occupied  (A1) (A1) (A1) (E) (E)
       Virtual   (A1) (A1) (E) (E) (A1) (E) (E) (A1) (A1) (E) (E)
                 (A1) (E) (E) (A1) (A1) (A1) (A1) (E) (E) (E) (E)
                 (A2) (E) (E) (A1) (E) (E) (A1) (E) (E) (A1) (E)
                 (E) (A1) (E) (E) (A1) (A1)
 The electronic state of the initial guess is 2-A1.
 Initial guess <Sx>= 0.0000 <Sy>= 0.0000 <Sz>= 0.5000 <S**2>= 0.7500 S= 0.5000
 Leave Link  401 at Fri Sep 13 15:41:59 2024, MaxMem=   65536000 cpu:       1.0
 (Enter /programs/64bit/g09/g09-gfortran/bin/l502.exe)
 UHF open shell SCF:
 Requested convergence on RMS density matrix=1.00D-08 within 128 cycles.
 Requested convergence on MAX density matrix=1.00D-06.
 Requested convergence on             energy=1.00D-06.
 No special actions if energy rises.
 Using DIIS extrapolation, IDIIS=  1040.
 Integral symmetry usage will be decided dynamically.
        51445 words used for storage of precomputed grid.
 Keep R1 and R2 ints in memory in canonical form, NReq=1920772.
 IEnd=       76147 IEndB=       76147 NGot=    65536000 MDV=    64497356
 LenX=    64497356 LenY=    64494979
 Symmetry not used in FoFDir.
 MinBra= 0 MaxBra= 2 Meth= 1.
 IRaf=       0 NMat=   1 IRICut=       1 DoRegI=T DoRafI=F ISym2E= 0 JSym2E=0.

 Cycle   1  Pass 1  IDiag  1:
 E= -40.9251522382166    
 DIIS: error= 4.23D-02 at cycle   1 NSaved=   1.
 NSaved= 1 IEnMin= 1 EnMin= -40.9251522382166     IErMin= 1 ErrMin= 4.23D-02
 ErrMax= 4.23D-02 EMaxC= 1.00D-01 BMatC= 3.60D-01 BMatP= 3.60D-01
 IDIUse=3 WtCom= 5.77D-01 WtEn= 4.23D-01
 Coeff-Com:  0.100D+01
 Coeff-En:   0.100D+01
 Coeff:      0.100D+01
 Gap=     0.313 Goal=   None    Shift=    0.000
 Gap=     0.164 Goal=   None    Shift=    0.000
 GapD=    0.164 DampG=1.000 DampE=0.500 DampFc=0.5000 IDamp=-1.
 Damping current iteration by 5.00D-01
 RMSDP=1.17D-02 MaxDP=1.59D-01              OVMax= 2.46D-01

 Cycle   2  Pass 1  IDiag  1:
 E= -40.9693762572899     Delta-E=       -0.044224019073 Rises=F Damp=T
 DIIS: error= 1.14D-02 at cycle   2 NSaved=   2.
 NSaved= 2 IEnMin= 2 EnMin= -40.9693762572899     IErMin= 2 ErrMin= 1.14D-02
 ErrMax= 1.14D-02 EMaxC= 1.00D-01 BMatC= 9.45D-03 BMatP= 3.60D-01
 IDIUse=3 WtCom= 8.86D-01 WtEn= 1.14D-01
 Coeff-Com:  0.903D-01 0.910D+00
 Coeff-En:   0.151D+00 0.849D+00
 Coeff:      0.973D-01 0.903D+00
 Gap=     0.381 Goal=   None    Shift=    0.000
 Gap=     0.287 Goal=   None    Shift=    0.000
 RMSDP=1.41D-03 MaxDP=1.82D-02 DE=-4.42D-02 OVMax= 1.44D-01

 Cycle   3  Pass 1  IDiag  1:
 E= -41.0261495239885     Delta-E=       -0.056773266699 Rises=F Damp=F
 DIIS: error= 7.44D-04 at cycle   3 NSaved=   3.
 NSaved= 3 IEnMin= 3 EnMin= -41.0261495239885     IErMin= 3 ErrMin= 7.44D-04
 ErrMax= 7.44D-04 EMaxC= 1.00D-01 BMatC= 3.56D-05 BMatP= 9.45D-03
 IDIUse=3 WtCom= 9.93D-01 WtEn= 7.44D-03
 Coeff-Com: -0.839D-03-0.384D-01 0.104D+01
 Coeff-En:   0.000D+00 0.000D+00 0.100D+01
 Coeff:     -0.833D-03-0.381D-01 0.104D+01
 Gap=     0.335 Goal=   None    Shift=    0.000
 Gap=     0.311 Goal=   None    Shift=    0.000
 RMSDP=1.77D-04 MaxDP=3.21D-03 DE=-5.68D-02 OVMax= 6.81D-03

 Cycle   4  Pass 1  IDiag  1:
 E= -41.0261788930881     Delta-E=       -0.000029369100 Rises=F Damp=F
 DIIS: error= 1.63D-04 at cycle   4 NSaved=   4.
 NSaved= 4 IEnMin= 4 EnMin= -41.0261788930881     IErMin= 4 ErrMin= 1.63D-04
 ErrMax= 1.63D-04 EMaxC= 1.00D-01 BMatC= 9.37D-07 BMatP= 3.56D-05
 IDIUse=3 WtCom= 9.98D-01 WtEn= 1.63D-03
 Coeff-Com:  0.522D-03 0.417D-02-0.155D+00 0.115D+01
 Coeff-En:   0.000D+00 0.000D+00 0.000D+00 0.100D+01
 Coeff:      0.521D-03 0.417D-02-0.155D+00 0.115D+01
 Gap=     0.335 Goal=   None    Shift=    0.000
 Gap=     0.313 Goal=   None    Shift=    0.000
 RMSDP=2.67D-05 MaxDP=4.17D-04 DE=-2.94D-05 OVMax= 1.54D-03

 Cycle   5  Pass 1  IDiag  1:
 E= -41.0261799059866     Delta-E=       -0.000001012898 Rises=F Damp=F
 DIIS: error= 2.16D-05 at cycle   5 NSaved=   5.
 NSaved= 5 IEnMin= 5 EnMin= -41.0261799059866     IErMin= 5 ErrMin= 2.16D-05
 ErrMax= 2.16D-05 EMaxC= 1.00D-01 BMatC= 5.65D-08 BMatP= 9.37D-07
 IDIUse=1 WtCom= 1.00D+00 WtEn= 0.00D+00
 Coeff-Com: -0.350D-03 0.379D-03-0.118D-01-0.432D-01 0.105D+01
 Coeff:     -0.350D-03 0.379D-03-0.118D-01-0.432D-01 0.105D+01
 Gap=     0.335 Goal=   None    Shift=    0.000
 Gap=     0.313 Goal=   None    Shift=    0.000
 RMSDP=3.71D-06 MaxDP=5.71D-05 DE=-1.01D-06 OVMax= 1.59D-04

 Cycle   6  Pass 1  IDiag  1:
 E= -41.0261799317045     Delta-E=       -0.000000025718 Rises=F Damp=F
 DIIS: error= 3.55D-06 at cycle   6 NSaved=   6.
 NSaved= 6 IEnMin= 6 EnMin= -41.0261799317045     IErMin= 6 ErrMin= 3.55D-06
 ErrMax= 3.55D-06 EMaxC= 1.00D-01 BMatC= 1.34D-09 BMatP= 5.65D-08
 IDIUse=1 WtCom= 1.00D+00 WtEn= 0.00D+00
 Coeff-Com: -0.146D-04-0.778D-04 0.349D-02-0.296D-01 0.269D-01 0.999D+00
 Coeff:     -0.146D-04-0.778D-04 0.349D-02-0.296D-01 0.269D-01 0.999D+00
 Gap=     0.335 Goal=   None    Shift=    0.000
 Gap=     0.313 Goal=   None    Shift=    0.000
 RMSDP=6.46D-07 MaxDP=1.15D-05 DE=-2.57D-08 OVMax= 1.82D-05

 Cycle   7  Pass 1  IDiag  1:
 E= -41.0261799323137     Delta-E=       -0.000000000609 Rises=F Damp=F
 DIIS: error= 1.11D-06 at cycle   7 NSaved=   7.
 NSaved= 7 IEnMin= 7 EnMin= -41.0261799323137     IErMin= 7 ErrMin= 1.11D-06
 ErrMax= 1.11D-06 EMaxC= 1.00D-01 BMatC= 1.85D-10 BMatP= 1.34D-09
 IDIUse=1 WtCom= 1.00D+00 WtEn= 0.00D+00
 Coeff-Com:  0.317D-04-0.456D-04 0.163D-02-0.161D-02-0.806D-01 0.168D+00
 Coeff-Com:  0.913D+00
 Coeff:      0.317D-04-0.456D-04 0.163D-02-0.161D-02-0.806D-01 0.168D+00
 Coeff:      0.913D+00
 Gap=     0.335 Goal=   None    Shift=    0.000
 Gap=     0.313 Goal=   None    Shift=    0.000
 RMSDP=2.45D-07 MaxDP=3.17D-06 DE=-6.09D-10 OVMax= 6.31D-06

 Cycle   8  Pass 1  IDiag  1:
 E= -41.0261799324030     Delta-E=       -0.000000000089 Rises=F Damp=F
 DIIS: error= 2.10D-07 at cycle   8 NSaved=   8.
 NSaved= 8 IEnMin= 8 EnMin= -41.0261799324030     IErMin= 8 ErrMin= 2.10D-07
 ErrMax= 2.10D-07 EMaxC= 1.00D-01 BMatC= 8.20D-12 BMatP= 1.85D-10
 IDIUse=1 WtCom= 1.00D+00 WtEn= 0.00D+00
 Coeff-Com: -0.530D-05 0.120D-04-0.518D-03 0.175D-02 0.154D-01-0.978D-01
 Coeff-Com: -0.215D+00 0.130D+01
 Coeff:     -0.530D-05 0.120D-04-0.518D-03 0.175D-02 0.154D-01-0.978D-01
 Coeff:     -0.215D+00 0.130D+01
 Gap=     0.335 Goal=   None    Shift=    0.000
 Gap=     0.313 Goal=   None    Shift=    0.000
 RMSDP=8.98D-08 MaxDP=1.11D-06 DE=-8.93D-11 OVMax= 2.21D-06

 Cycle   9  Pass 1  IDiag  1:
 E= -41.0261799324106     Delta-E=       -0.000000000008 Rises=F Damp=F
 DIIS: error= 3.19D-08 at cycle   9 NSaved=   9.
 NSaved= 9 IEnMin= 9 EnMin= -41.0261799324106     IErMin= 9 ErrMin= 3.19D-08
 ErrMax= 3.19D-08 EMaxC= 1.00D-01 BMatC= 1.73D-13 BMatP= 8.20D-12
 IDIUse=1 WtCom= 1.00D+00 WtEn= 0.00D+00
 Coeff-Com: -0.102D-06-0.706D-06 0.397D-04-0.258D-03-0.646D-03 0.115D-01
 Coeff-Com:  0.125D-01-0.234D+00 0.121D+01
 Coeff:     -0.102D-06-0.706D-06 0.397D-04-0.258D-03-0.646D-03 0.115D-01
 Coeff:      0.125D-01-0.234D+00 0.121D+01
 Gap=     0.335 Goal=   None    Shift=    0.000
 Gap=     0.313 Goal=   None    Shift=    0.000
 RMSDP=1.21D-08 MaxDP=1.46D-07 DE=-7.63D-12 OVMax= 2.38D-07

 Cycle  10  Pass 1  IDiag  1:
 E= -41.0261799324108     Delta-E=       -0.000000000000 Rises=F Damp=F
 DIIS: error= 4.34D-09 at cycle  10 NSaved=  10.
 NSaved=10 IEnMin=10 EnMin= -41.0261799324108     IErMin=10 ErrMin= 4.34D-09
 ErrMax= 4.34D-09 EMaxC= 1.00D-01 BMatC= 2.71D-15 BMatP= 1.73D-13
 IDIUse=1 WtCom= 1.00D+00 WtEn= 0.00D+00
 Coeff-Com:  0.104D-06-0.192D-06 0.983D-05-0.369D-04-0.265D-03 0.211D-02
 Coeff-Com:  0.371D-02-0.278D-01 0.123D-01 0.101D+01
 Coeff:      0.104D-06-0.192D-06 0.983D-05-0.369D-04-0.265D-03 0.211D-02
 Coeff:      0.371D-02-0.278D-01 0.123D-01 0.101D+01
 Gap=     0.335 Goal=   None    Shift=    0.000
 Gap=     0.313 Goal=   None    Shift=    0.000
 RMSDP=1.25D-09 MaxDP=1.89D-08 DE=-1.99D-13 OVMax= 2.26D-08

 SCF Done:  E(UB3LYP) =  -41.0261799324     A.U. after   10 cycles
             Convg  =    0.1252D-08             -V/T =  2.0105
 <Sx>= 0.0000 <Sy>= 0.0000 <Sz>= 0.5000 <S**2>= 0.7503 S= 0.5002
 <L.S>=  0.00000000000    
 KE= 4.060158270710D+01 PE=-1.243858905964D+02 EE= 2.757714836670D+01
 Annihilation of the first spin contaminant:
 S**2 before annihilation     0.7503,   after     0.7500
 Leave Link  502 at Fri Sep 13 15:42:08 2024, MaxMem=   65536000 cpu:       9.3
 (Enter /programs/64bit/g09/g09-gfortran/bin/l601.exe)
 Copying SCF densities to generalized density rwf, IOpCl= 1 IROHF=0.

 **********************************************************************

            Population analysis using the SCF density.

 **********************************************************************

 Orbital symmetries:
 Alpha Orbitals:
       Occupied  (A1) (A1) (A1) (E) (E) (A1)
       Virtual   (A1) (E) (E) (A1) (E) (E) (A1) (A1) (E) (E) (A1)
                 (A1) (E) (E) (A1) (A1) (A1) (E) (E) (E) (E) (E)
                 (E) (A2) (A1) (E) (E) (A1) (E) (E) (A1) (E) (E)
                 (A1) (E) (E) (A1) (A1)
 Beta  Orbitals:
       Occupied  (A1) (A1) (A1) (E) (E)
       Virtual   (A1) (A1) (E) (E) (A1) (E) (E) (A1) (A1) (E) (E)
                 (A1) (E) (E) (A1) (A1) (A1) (A1) (E) (E) (E) (E)
                 (A2) (E) (E) (A1) (E) (E) (A1) (E) (E) (A1) (E)
                 (E) (A1) (E) (E) (A1) (A1)
 The electronic state is 2-A1.
 Alpha  occ. eigenvalues --  -10.17073  -0.69805  -0.40342  -0.39455  -0.39455
 Alpha  occ. eigenvalues --   -0.31217
 Alpha virt. eigenvalues --    0.02321   0.05982   0.05982   0.07854   0.18218
 Alpha virt. eigenvalues --    0.18218   0.20191   0.27391   0.63737   0.63737
 Alpha virt. eigenvalues --    0.64265   0.78921   0.91102   0.91102   0.92411
 Alpha virt. eigenvalues --    1.06243   1.12644   1.35651   1.35651   1.94761
 Alpha virt. eigenvalues --    1.94761   2.04369   2.04369   2.04397   2.07704
 Alpha virt. eigenvalues --    2.08979   2.08979   2.10926   2.62871   2.62871
 Alpha virt. eigenvalues --    2.64655   2.91214   2.91214   3.18181   3.42043
 Alpha virt. eigenvalues --    3.42043   3.43711   4.43829
  Beta  occ. eigenvalues --  -10.17008  -0.69632  -0.39547  -0.39413  -0.39413
  Beta virt. eigenvalues --   -0.08067   0.02712   0.05943   0.05943   0.08773
  Beta virt. eigenvalues --    0.18235   0.18235   0.21610   0.27478   0.63750
  Beta virt. eigenvalues --    0.63750   0.64552   0.91152   0.91152   0.93086
  Beta virt. eigenvalues --    0.96599   1.07520   1.13389   1.35778   1.35778
  Beta virt. eigenvalues --    2.04350   2.04350   2.04393   2.08967   2.08967
  Beta virt. eigenvalues --    2.09330   2.16179   2.16179   2.27958   2.62866
  Beta virt. eigenvalues --    2.62866   2.65070   2.91266   2.91266   3.18280
  Beta virt. eigenvalues --    3.42096   3.42096   3.43883   4.43989
     Alpha Molecular Orbital Coefficients:
                           1         2         3         4         5
                        (A1)--O   (A1)--O   (A1)--O   (E)--O    (E)--O
     Eigenvalues --   -10.17073  -0.69805  -0.40342  -0.39455  -0.39455
   1 1   C  1S          0.99285  -0.19990  -0.00426   0.00000  -0.00000
   2        2S          0.04994   0.38649   0.00659   0.00000  -0.00000
   3        2PX         0.00000   0.00000   0.00000   0.44546   0.00000
   4        2PY         0.00000  -0.00000  -0.00000   0.00000   0.44546
   5        2PZ        -0.00004  -0.00196   0.41743   0.00000   0.00000
   6        3S         -0.01601   0.35761   0.02011   0.00000   0.00000
   7        3PX         0.00000   0.00000   0.00000   0.19687   0.00000
   8        3PY        -0.00000  -0.00000  -0.00000   0.00000   0.19687
   9        3PZ         0.00040  -0.00011   0.17531   0.00000  -0.00000
  10        4S         -0.00052   0.01424  -0.00437   0.00000  -0.00000
  11        4PX         0.00000   0.00000   0.00000   0.03639   0.00000
  12        4PY        -0.00000  -0.00000   0.00000   0.00000   0.03639
  13        4PZ        -0.00019   0.00078   0.03705   0.00000   0.00000
  14        5XX        -0.00914  -0.00973   0.01046   0.00000  -0.01618
  15        5YY        -0.00914  -0.00973   0.01046   0.00000   0.01618
  16        5ZZ        -0.00917  -0.00900  -0.02221   0.00000   0.00000
  17        5XY         0.00000   0.00000   0.00000  -0.01868   0.00000
  18        5XZ         0.00000   0.00000   0.00000   0.01309   0.00000
  19        5YZ        -0.00000  -0.00000  -0.00000   0.00000   0.01309
  20 2   H  1S         -0.00025   0.13829   0.09550   0.00000   0.28073
  21        2S          0.00299   0.03576   0.07495   0.00000   0.22317
  22        3PX         0.00000   0.00000   0.00000   0.00862   0.00000
  23        3PY         0.00015  -0.01225  -0.00486   0.00000  -0.00521
  24        3PZ         0.00003  -0.00433   0.00640   0.00000  -0.00481
  25 3   H  1S         -0.00025   0.13829   0.09550   0.24312  -0.14036
  26        2S          0.00299   0.03576   0.07495   0.19327  -0.11159
  27        3PX         0.00013  -0.01061  -0.00421  -0.00176   0.00599
  28        3PY        -0.00008   0.00612   0.00243   0.00599   0.00516
  29        3PZ         0.00003  -0.00433   0.00640  -0.00417   0.00241
  30 4   H  1S         -0.00025   0.13829   0.09550  -0.24312  -0.14036
  31        2S          0.00299   0.03576   0.07495  -0.19327  -0.11159
  32        3PX        -0.00013   0.01061   0.00421  -0.00176  -0.00599
  33        3PY        -0.00008   0.00612   0.00243  -0.00599   0.00516
  34        3PZ         0.00003  -0.00433   0.00640   0.00417   0.00241
  35 5   H  1S         -0.00028   0.13964  -0.28199   0.00000  -0.00000
  36        2S          0.00359   0.03716  -0.23444   0.00000  -0.00000
  37        3PX         0.00000   0.00000   0.00000   0.00867   0.00000
  38        3PY        -0.00000   0.00000  -0.00000   0.00000   0.00867
  39        3PZ        -0.00011   0.01301  -0.00563   0.00000  -0.00000
  40 6   H  1S          0.00007   0.00694  -0.11955   0.00000  -0.00000
  41        2S         -0.00050   0.00739  -0.15019   0.00000  -0.00000
  42        3PX         0.00000   0.00000   0.00000   0.00031   0.00000
  43        3PY         0.00000   0.00000   0.00000   0.00000   0.00031
  44        3PZ        -0.00014   0.00114  -0.00368   0.00000  -0.00000
                           6         7         8         9        10
                        (A1)--O   (A1)--V   (E)--V    (E)--V    (A1)--V
     Eigenvalues --    -0.31217   0.02321   0.05982   0.05982   0.07854
   1 1   C  1S          0.01412   0.08576   0.00000   0.00000  -0.01755
   2        2S         -0.03315  -0.17659   0.00000   0.00000   0.03990
   3        2PX         0.00000   0.00000   0.00000  -0.17805   0.00000
   4        2PY         0.00000   0.00000  -0.17805   0.00000  -0.00000
   5        2PZ         0.17786  -0.06118   0.00000   0.00000  -0.09893
   6        3S         -0.03896  -0.59415  -0.00000   0.00000   0.09978
   7        3PX         0.00000   0.00000   0.00000  -0.17265   0.00000
   8        3PY         0.00000   0.00000  -0.17265   0.00000  -0.00000
   9        3PZ         0.10111  -0.09840  -0.00000   0.00000   0.06935
  10        4S          0.05678   1.46684  -0.00000   0.00000  -0.46532
  11        4PX         0.00000   0.00000   0.00000   1.17898   0.00000
  12        4PY        -0.00000  -0.00000   1.17898   0.00000   0.00000
  13        4PZ        -0.01733   0.24832  -0.00000   0.00000   1.27824
  14        5XX         0.00416   0.01036   0.00803   0.00000  -0.01006
  15        5YY         0.00416   0.01036  -0.00803   0.00000  -0.01006
  16        5ZZ        -0.00602   0.01370   0.00000   0.00000   0.01189
  17        5XY         0.00000   0.00000   0.00000   0.00927   0.00000
  18        5XZ         0.00000   0.00000   0.00000  -0.00649   0.00000
  19        5YZ         0.00000   0.00000  -0.00649   0.00000  -0.00000
  20 2   H  1S          0.02914   0.00712  -0.05292   0.00000  -0.02554
  21        2S          0.01439  -0.09276  -0.23391   0.00000  -0.13291
  22        3PX         0.00000   0.00000   0.00000   0.00272   0.00000
  23        3PY        -0.00082   0.01291   0.00956   0.00000  -0.00160
  24        3PZ         0.00333   0.00458   0.00241   0.00000   0.00496
  25 3   H  1S          0.02914   0.00712   0.02646  -0.04583  -0.02554
  26        2S          0.01439  -0.09276   0.11696  -0.20258  -0.13291
  27        3PX        -0.00071   0.01118  -0.00296   0.00785  -0.00138
  28        3PY         0.00041  -0.00645   0.00443  -0.00296   0.00080
  29        3PZ         0.00333   0.00458  -0.00120   0.00209   0.00496
  30 4   H  1S          0.02914   0.00712   0.02646   0.04583  -0.02554
  31        2S          0.01439  -0.09276   0.11696   0.20258  -0.13291
  32        3PX         0.00071  -0.01118   0.00296   0.00785   0.00138
  33        3PY         0.00041  -0.00645   0.00443   0.00296   0.00080
  34        3PZ         0.00333   0.00458  -0.00120  -0.00209   0.00496
  35 5   H  1S         -0.09074   0.02223  -0.00000   0.00000   0.07302
  36        2S         -0.07304  -0.11197   0.00000   0.00000   0.63394
  37        3PX         0.00000   0.00000   0.00000   0.00271   0.00000
  38        3PY         0.00000   0.00000   0.00271   0.00000   0.00000
  39        3PZ        -0.00827  -0.00992  -0.00000   0.00000   0.01078
  40 6   H  1S          0.41581  -0.05654  -0.00000   0.00000   0.09257
  41        2S          0.62581  -0.11798  -0.00000   0.00000   0.36068
  42        3PX         0.00000   0.00000   0.00000   0.00637   0.00000
  43        3PY         0.00000  -0.00000   0.00637   0.00000   0.00000
  44        3PZ        -0.00068   0.00459   0.00000   0.00000  -0.00259
                          11        12        13        14        15
                        (E)--V    (E)--V    (A1)--V   (A1)--V   (E)--V
     Eigenvalues --     0.18218   0.18218   0.20191   0.27391   0.63737
   1 1   C  1S         -0.00000   0.00000   0.01516  -0.15638  -0.00000
   2        2S         -0.00000   0.00000  -0.03426   0.19105   0.00000
   3        2PX         0.00000  -0.32246   0.00000   0.00000   0.00000
   4        2PY        -0.32246   0.00000  -0.00000   0.00000  -0.92512
   5        2PZ        -0.00000   0.00000   0.37616   0.00641  -0.00000
   6        3S          0.00000   0.00000  -0.19402   3.20513  -0.00000
   7        3PX         0.00000  -1.39759   0.00000   0.00000   0.00000
   8        3PY        -1.39759   0.00000  -0.00000   0.00000   1.66598
   9        3PZ        -0.00000   0.00000   1.42131   0.04927   0.00000
  10        4S          0.00000   0.00000   0.15989   1.83554  -0.00000
  11        4PX         0.00000  -0.30930   0.00000   0.00000   0.00000
  12        4PY        -0.30930   0.00000  -0.00000   0.00000  -0.57451
  13        4PZ         0.00000   0.00000  -0.01464   0.03676  -0.00000
  14        5XX        -0.01978   0.00000  -0.01323  -0.01412   0.03015
  15        5YY         0.01978   0.00000  -0.01323  -0.01412  -0.03015
  16        5ZZ        -0.00000   0.00000   0.02919  -0.00867  -0.00000
  17        5XY         0.00000  -0.02284   0.00000   0.00000   0.00000
  18        5XZ         0.00000   0.01637   0.00000   0.00000   0.00000
  19        5YZ         0.01637   0.00000   0.00000  -0.00000  -0.02450
  20 2   H  1S          0.16388   0.00000  -0.05544  -0.07474  -0.30079
  21        2S          1.87735   0.00000  -0.60530  -1.64828  -0.17000
  22        3PX         0.00000  -0.01349   0.00000   0.00000   0.00000
  23        3PY        -0.00062   0.00000  -0.00460  -0.00538   0.06382
  24        3PZ         0.00459   0.00000   0.01162  -0.00068   0.01770
  25 3   H  1S         -0.08194   0.14193  -0.05544  -0.07474   0.15040
  26        2S         -0.93867   1.62583  -0.60530  -1.64828   0.08500
  27        3PX        -0.00557  -0.00384  -0.00398  -0.00466  -0.02166
  28        3PY        -0.01027  -0.00557   0.00230   0.00269   0.02630
  29        3PZ        -0.00229   0.00397   0.01162  -0.00068  -0.00885
  30 4   H  1S         -0.08194  -0.14193  -0.05544  -0.07474   0.15040
  31        2S         -0.93867  -1.62583  -0.60530  -1.64828   0.08500
  32        3PX         0.00557  -0.00384   0.00398   0.00466   0.02166
  33        3PY        -0.01027   0.00557   0.00230   0.00269   0.02630
  34        3PZ        -0.00229  -0.00397   0.01162  -0.00068  -0.00885
  35 5   H  1S         -0.00000   0.00000   0.16735  -0.05141   0.00000
  36        2S         -0.00000   0.00000   2.01211  -1.57115   0.00000
  37        3PX         0.00000  -0.01360   0.00000   0.00000   0.00000
  38        3PY        -0.01360   0.00000  -0.00000   0.00000   0.01378
  39        3PZ        -0.00000   0.00000  -0.00528   0.00448   0.00000
  40 6   H  1S         -0.00000   0.00000  -0.10770  -0.02826   0.00000
  41        2S          0.00000   0.00000  -0.31890   0.05757  -0.00000
  42        3PX         0.00000  -0.00409   0.00000   0.00000   0.00000
  43        3PY        -0.00409   0.00000   0.00000   0.00000  -0.00427
  44        3PZ        -0.00000   0.00000   0.03039  -0.01808  -0.00000
                          16        17        18        19        20
                        (E)--V    (A1)--V   (A1)--V   (E)--V    (E)--V
     Eigenvalues --     0.63737   0.64265   0.78921   0.91102   0.91102
   1 1   C  1S          0.00000   0.00200   0.00908  -0.00000   0.00000
   2        2S          0.00000  -0.05710  -0.02319  -0.00000   0.00000
   3        2PX        -0.92512   0.00000   0.00000   0.00000   0.56736
   4        2PY         0.00000   0.00000  -0.00000   0.56736   0.00000
   5        2PZ         0.00000  -0.87808   0.05882  -0.00000   0.00000
   6        3S          0.00000   0.08944   0.18805   0.00000   0.00000
   7        3PX         1.66598   0.00000   0.00000   0.00000  -0.98477
   8        3PY         0.00000  -0.00000   0.00000  -0.98477   0.00000
   9        3PZ         0.00000   1.67647  -0.48904   0.00000   0.00000
  10        4S          0.00000   0.02334  -0.21784   0.00000   0.00000
  11        4PX        -0.57451   0.00000   0.00000   0.00000  -0.35980
  12        4PY         0.00000   0.00000   0.00000  -0.35980   0.00000
  13        4PZ         0.00000  -0.62907   0.34823   0.00000   0.00000
  14        5XX         0.00000  -0.03349   0.01758   0.19954   0.00000
  15        5YY         0.00000  -0.03349   0.01758  -0.19954   0.00000
  16        5ZZ         0.00000   0.05684  -0.01360  -0.00000   0.00000
  17        5XY         0.03481   0.00000   0.00000   0.00000   0.23041
  18        5XZ        -0.02450   0.00000   0.00000   0.00000  -0.16361
  19        5YZ         0.00000   0.00000   0.00000  -0.16361   0.00000
  20 2   H  1S          0.00000  -0.12355   0.12004  -0.89291   0.00000
  21        2S          0.00000  -0.06682   0.04586   1.87690   0.00000
  22        3PX         0.01379   0.00000   0.00000   0.00000   0.06057
  23        3PY         0.00000   0.01552   0.00885  -0.07259   0.00000
  24        3PZ         0.00000   0.02429  -0.00182  -0.04727   0.00000
  25 3   H  1S         -0.26049  -0.12355   0.12004   0.44645  -0.77328
  26        2S         -0.14722  -0.06682   0.04586  -0.93845   1.62544
  27        3PX         0.05132   0.01344   0.00767   0.05766  -0.03930
  28        3PY        -0.02166  -0.00776  -0.00443   0.02728   0.05766
  29        3PZ         0.01533   0.02429  -0.00182   0.02363  -0.04094
  30 4   H  1S          0.26049  -0.12355   0.12004   0.44645   0.77328
  31        2S          0.14722  -0.06682   0.04586  -0.93845  -1.62544
  32        3PX         0.05132  -0.01344  -0.00767  -0.05766  -0.03930
  33        3PY         0.02166  -0.00776  -0.00443   0.02728  -0.05766
  34        3PZ        -0.01533   0.02429  -0.00182   0.02363   0.04094
  35 5   H  1S          0.00000   0.37922   0.04141  -0.00000   0.00000
  36        2S          0.00000   0.13253  -0.53280   0.00000   0.00000
  37        3PX         0.01378   0.00000   0.00000   0.00000   0.06084
  38        3PY         0.00000  -0.00000   0.00000   0.06084   0.00000
  39        3PZ         0.00000   0.06186  -0.03475   0.00000   0.00000
  40 6   H  1S          0.00000  -0.12017  -1.26764   0.00000   0.00000
  41        2S          0.00000  -0.02604   1.41643  -0.00000   0.00000
  42        3PX        -0.00427   0.00000   0.00000   0.00000  -0.01243
  43        3PY         0.00000  -0.00000  -0.00000  -0.01243   0.00000
  44        3PZ         0.00000  -0.01284  -0.03912   0.00000   0.00000
                          21        22        23        24        25
                        (A1)--V   (A1)--V   (A1)--V   (E)--V    (E)--V
     Eigenvalues --     0.92411   1.06243   1.12644   1.35651   1.35651
   1 1   C  1S         -0.01264   0.09945  -0.08093   0.00000   0.00000
   2        2S         -0.12666  -0.25722  -2.24841   0.00000   0.00000
   3        2PX         0.00000   0.00000   0.00000   0.00059   0.00000
   4        2PY        -0.00000  -0.00000  -0.00000   0.00000   0.00059
   5        2PZ        -0.62231  -0.06247   0.07186   0.00000  -0.00000
   6        3S          0.35049   0.63639   6.20035   0.00000  -0.00000
   7        3PX         0.00000   0.00000   0.00000  -0.00018   0.00000
   8        3PY         0.00000   0.00000   0.00000   0.00000  -0.00018
   9        3PZ         1.19936   0.20611  -0.21937   0.00000   0.00000
  10        4S          0.07039   1.00701   0.39781   0.00000  -0.00000
  11        4PX         0.00000   0.00000   0.00000  -0.00022   0.00000
  12        4PY         0.00000   0.00000   0.00000   0.00000  -0.00022
  13        4PZ         0.20987  -0.04149   0.09615   0.00000  -0.00000
  14        5XX         0.12252   0.07779  -0.08639   0.00000   0.33364
  15        5YY         0.12252   0.07779  -0.08639   0.00000  -0.33364
  16        5ZZ        -0.28501   0.04566  -0.07415   0.00000  -0.00000
  17        5XY         0.00000   0.00000   0.00000   0.38525   0.00000
  18        5XZ         0.00000   0.00000   0.00000   0.54521   0.00000
  19        5YZ         0.00000   0.00000   0.00000   0.00000   0.54521
  20 2   H  1S          0.24117   0.72873  -0.10628   0.00000  -0.00099
  21        2S         -0.74725  -0.97167  -1.41092   0.00000   0.00099
  22        3PX         0.00000   0.00000   0.00000   0.24543   0.00000
  23        3PY         0.04340   0.06711   0.03058   0.00000  -0.08193
  24        3PZ        -0.04034   0.02076   0.00952   0.00000   0.23119
  25 3   H  1S          0.24117   0.72873  -0.10628  -0.00085   0.00049
  26        2S         -0.74725  -0.97167  -1.41092   0.00086  -0.00050
  27        3PX         0.03758   0.05812   0.02649  -0.00009   0.14175
  28        3PY        -0.02170  -0.03355  -0.01529   0.14175   0.16359
  29        3PZ        -0.04034   0.02076   0.00952   0.20022  -0.11560
  30 4   H  1S          0.24117   0.72873  -0.10628   0.00085   0.00049
  31        2S         -0.74725  -0.97167  -1.41092  -0.00086  -0.00050
  32        3PX        -0.03758  -0.05812  -0.02649  -0.00009  -0.14175
  33        3PY        -0.02170  -0.03355  -0.01529  -0.14175   0.16359
  34        3PZ        -0.04034   0.02076   0.00952  -0.20022  -0.11560
  35 5   H  1S         -0.98087   0.62165  -0.04137   0.00000   0.00000
  36        2S          2.05108  -0.57215  -1.71129   0.00000   0.00000
  37        3PX         0.00000   0.00000   0.00000  -0.24567   0.00000
  38        3PY        -0.00000   0.00000  -0.00000   0.00000  -0.24567
  39        3PZ         0.09867  -0.05505  -0.04520   0.00000   0.00000
  40 6   H  1S          0.02078   0.22182  -0.03224   0.00000   0.00000
  41        2S         -0.25818  -0.27772   0.23666   0.00000  -0.00000
  42        3PX         0.00000   0.00000   0.00000  -0.00127   0.00000
  43        3PY        -0.00000  -0.00000  -0.00000   0.00000  -0.00127
  44        3PZ         0.10505  -0.01215  -0.11909   0.00000   0.00000
                          26        27        28        29        30
                        (E)--V    (E)--V    (E)--V    (E)--V    (A2)--V
     Eigenvalues --     1.94761   1.94761   2.04369   2.04369   2.04397
   1 1   C  1S          0.00000   0.00000   0.00000   0.00000   0.00000
   2        2S          0.00000  -0.00000  -0.00000   0.00000   0.00000
   3        2PX         0.00961   0.00000   0.00000  -0.00020  -0.00000
   4        2PY         0.00000   0.00961  -0.00020   0.00000   0.00000
   5        2PZ         0.00000  -0.00000  -0.00000   0.00000   0.00000
   6        3S          0.00000  -0.00000  -0.00000   0.00000   0.00000
   7        3PX        -0.03598   0.00000   0.00000  -0.00029   0.00000
   8        3PY         0.00000  -0.03598  -0.00029   0.00000   0.00000
   9        3PZ         0.00000  -0.00000   0.00000   0.00000   0.00000
  10        4S          0.00000  -0.00000   0.00000   0.00000   0.00000
  11        4PX        -0.04753   0.00000   0.00000   0.00125  -0.00000
  12        4PY         0.00000  -0.04753   0.00125   0.00000   0.00000
  13        4PZ         0.00000  -0.00000  -0.00000   0.00000   0.00000
  14        5XX         0.00000   0.02426   0.00012   0.00000   0.00000
  15        5YY         0.00000  -0.02426  -0.00012   0.00000   0.00000
  16        5ZZ         0.00000  -0.00000  -0.00000   0.00000   0.00000
  17        5XY         0.02801   0.00000   0.00000   0.00013  -0.00000
  18        5XZ        -0.01677   0.00000   0.00000   0.00012   0.00000
  19        5YZ         0.00000  -0.01677   0.00012   0.00000   0.00000
  20 2   H  1S          0.00000   0.00551   0.00067   0.00000   0.00000
  21        2S          0.00000   0.05686  -0.00127   0.00000   0.00000
  22        3PX         0.00400   0.00000   0.00000  -0.20521   0.58157
  23        3PY         0.00000   0.01205  -0.20561   0.00000   0.00000
  24        3PZ         0.00000   0.01428   0.58139   0.00000   0.00000
  25 3   H  1S          0.00477  -0.00275  -0.00033   0.00058  -0.00000
  26        2S          0.04925  -0.02843   0.00063  -0.00110   0.00000
  27        3PX         0.01004  -0.00349   0.00017  -0.20551  -0.29079
  28        3PY        -0.00349   0.00601  -0.20531   0.00017  -0.50366
  29        3PZ         0.01236  -0.00714  -0.29069   0.50349  -0.00000
  30 4   H  1S         -0.00477  -0.00275  -0.00033  -0.00058   0.00000
  31        2S         -0.04925  -0.02843   0.00063   0.00110  -0.00000
  32        3PX         0.01004   0.00349  -0.00017  -0.20551  -0.29079
  33        3PY         0.00349   0.00601  -0.20531  -0.00017   0.50366
  34        3PZ        -0.01236  -0.00714  -0.29069  -0.50349   0.00000
  35 5   H  1S          0.00000   0.00000   0.00000   0.00000   0.00000
  36        2S          0.00000   0.00000   0.00000   0.00000   0.00000
  37        3PX         0.02226   0.00000   0.00000   0.61696  -0.00000
  38        3PY         0.00000   0.02226   0.61696   0.00000   0.00000
  39        3PZ         0.00000  -0.00000  -0.00000   0.00000   0.00000
  40 6   H  1S          0.00000   0.00000   0.00000   0.00000   0.00000
  41        2S          0.00000  -0.00000  -0.00000   0.00000   0.00000
  42        3PX         0.99912   0.00000   0.00000  -0.02120   0.00000
  43        3PY         0.00000   0.99912  -0.02120   0.00000   0.00000
  44        3PZ         0.00000  -0.00000  -0.00000   0.00000   0.00000
                          31        32        33        34        35
                        (A1)--V   (E)--V    (E)--V    (A1)--V   (E)--V
     Eigenvalues --     2.07704   2.08979   2.08979   2.10926   2.62871
   1 1   C  1S         -0.00788   0.00000  -0.00000   0.00522   0.00000
   2        2S         -0.40498   0.00000   0.00000   0.34986   0.00000
   3        2PX         0.00000  -0.13491   0.00000   0.00000   0.16835
   4        2PY         0.00000   0.00000   0.13491   0.00000   0.00000
   5        2PZ         0.21610   0.00000  -0.00000  -0.00223   0.00000
   6        3S          1.09805   0.00000  -0.00000  -0.93697   0.00000
   7        3PX         0.00000   0.63402   0.00000   0.00000   0.65454
   8        3PY        -0.00000   0.00000  -0.63402   0.00000   0.00000
   9        3PZ        -0.79854   0.00000   0.00000  -0.18423   0.00000
  10        4S          0.08363   0.00000  -0.00000  -0.11489   0.00000
  11        4PX         0.00000  -0.21055   0.00000   0.00000   0.01192
  12        4PY         0.00000   0.00000   0.21055  -0.00000   0.00000
  13        4PZ         0.17919   0.00000  -0.00000   0.15592   0.00000
  14        5XX        -0.23089   0.00000   0.47359  -0.24401   0.00000
  15        5YY        -0.23089   0.00000  -0.47359  -0.24401   0.00000
  16        5ZZ         0.54098   0.00000  -0.00000   0.41449   0.00000
  17        5XY         0.00000  -0.54685   0.00000   0.00000   0.39364
  18        5XZ         0.00000   0.38662   0.00000   0.00000  -0.27926
  19        5YZ        -0.00000   0.00000  -0.38662   0.00000   0.00000
  20 2   H  1S          0.12270   0.00000   0.65507   0.19334   0.00000
  21        2S         -0.19002   0.00000  -0.24830   0.06787   0.00000
  22        3PX         0.00000  -0.24920   0.00000   0.00000  -0.64925
  23        3PY         0.04236   0.00000   0.34928   0.01130   0.00000
  24        3PZ         0.14748   0.00000   0.03505   0.22024   0.00000
  25 3   H  1S          0.12270  -0.56731  -0.32754   0.19334   0.05284
  26        2S         -0.19002   0.21503   0.12415   0.06787  -0.44670
  27        3PX         0.03668  -0.32426  -0.04334   0.00979  -0.09619
  28        3PY        -0.02118   0.04334   0.27422  -0.00565  -0.31931
  29        3PZ         0.14748  -0.03036  -0.01753   0.22024   0.22645
  30 4   H  1S          0.12270   0.56731  -0.32754   0.19334  -0.05284
  31        2S         -0.19002  -0.21503   0.12415   0.06787   0.44670
  32        3PX        -0.03668  -0.32426   0.04334  -0.00979  -0.09619
  33        3PY        -0.02118  -0.04334   0.27422  -0.00565   0.31931
  34        3PZ         0.14748   0.03036  -0.01753   0.22024  -0.22645
  35 5   H  1S         -0.31932   0.00000   0.00000  -0.65258   0.00000
  36        2S         -0.72644   0.00000   0.00000   0.96165   0.00000
  37        3PX         0.00000  -0.24773   0.00000   0.00000  -0.64985
  38        3PY         0.00000   0.00000   0.24773  -0.00000   0.00000
  39        3PZ         0.29450   0.00000  -0.00000   0.21868   0.00000
  40 6   H  1S         -0.11487   0.00000   0.00000   0.03206   0.00000
  41        2S          0.26847   0.00000  -0.00000  -0.12731   0.00000
  42        3PX         0.00000   0.04377   0.00000   0.00000  -0.00541
  43        3PY         0.00000   0.00000  -0.04377   0.00000   0.00000
  44        3PZ         0.69948   0.00000  -0.00000  -0.70695   0.00000
                          36        37        38        39        40
                        (E)--V    (A1)--V   (E)--V    (E)--V    (A1)--V
     Eigenvalues --     2.62871   2.64655   2.91214   2.91214   3.18181
   1 1   C  1S         -0.00000  -0.00140  -0.00000   0.00000  -0.14036
   2        2S          0.00000   0.12062   0.00000   0.00000   0.80922
   3        2PX         0.00000   0.00000   0.00000   0.00043   0.00000
   4        2PY         0.16835  -0.00000   0.00043   0.00000  -0.00000
   5        2PZ         0.00000   0.12197  -0.00000   0.00000   0.03570
   6        3S         -0.00000  -0.23204   0.00000   0.00000   1.82994
   7        3PX         0.00000   0.00000   0.00000   0.00042   0.00000
   8        3PY         0.65454  -0.00000   0.00042   0.00000  -0.00000
   9        3PZ         0.00000   0.77772  -0.00000   0.00000  -0.03536
  10        4S          0.00000   0.01263  -0.00000   0.00000   0.38189
  11        4PX         0.00000   0.00000   0.00000   0.00013   0.00000
  12        4PY         0.01192  -0.00000   0.00013   0.00000  -0.00000
  13        4PZ        -0.00000  -0.02454   0.00000   0.00000   0.00645
  14        5XX         0.34090  -0.26374   0.45871   0.00000  -0.02614
  15        5YY        -0.34090  -0.26374  -0.45871   0.00000  -0.02614
  16        5ZZ         0.00000   0.47552  -0.00000   0.00000  -0.09073
  17        5XY         0.00000   0.00000   0.00000   0.52967   0.00000
  18        5XZ         0.00000   0.00000   0.00000   0.74845   0.00000
  19        5YZ        -0.27926   0.00000   0.74845   0.00000  -0.00000
  20 2   H  1S          0.06101   0.03552   0.00005   0.00000  -0.24178
  21        2S         -0.51581  -0.17564  -0.00055   0.00000  -0.63036
  22        3PX         0.00000   0.00000   0.00000  -0.50843   0.00000
  23        3PY         0.08816   0.26124   0.16964   0.00000   0.63979
  24        3PZ         0.26148  -0.55865  -0.47867   0.00000   0.23723
  25 3   H  1S         -0.03051   0.03552  -0.00002   0.00004  -0.24178
  26        2S          0.25790  -0.17564   0.00028  -0.00048  -0.63036
  27        3PX        -0.31931   0.22624  -0.29362   0.00012   0.55408
  28        3PY        -0.46490  -0.13062  -0.33892  -0.29362  -0.31990
  29        3PZ        -0.13074  -0.55865   0.23934  -0.41454   0.23723
  30 4   H  1S         -0.03051   0.03552  -0.00002  -0.00004  -0.24178
  31        2S          0.25790  -0.17564   0.00028   0.00048  -0.63036
  32        3PX         0.31931  -0.22624   0.29362   0.00012  -0.55408
  33        3PY        -0.46490  -0.13062  -0.33892   0.29362  -0.31990
  34        3PZ        -0.13074  -0.55865   0.23934   0.41454   0.23723
  35 5   H  1S         -0.00000  -0.10968  -0.00000   0.00000  -0.18850
  36        2S          0.00000   0.76906  -0.00000   0.00000  -0.69785
  37        3PX         0.00000   0.00000   0.00000   0.50747   0.00000
  38        3PY        -0.64985   0.00000   0.50747   0.00000  -0.00000
  39        3PZ         0.00000   0.14754  -0.00000   0.00000  -0.63498
  40 6   H  1S          0.00000   0.01753   0.00000   0.00000   0.02146
  41        2S         -0.00000  -0.11587   0.00000   0.00000   0.01625
  42        3PX         0.00000   0.00000   0.00000  -0.00191   0.00000
  43        3PY        -0.00541   0.00000  -0.00191   0.00000   0.00000
  44        3PZ        -0.00000  -0.13263   0.00000   0.00000   0.06987
                          41        42        43        44
                        (E)--V    (E)--V    (A1)--V   (A1)--V
     Eigenvalues --     3.42043   3.42043   3.43711   4.43829
   1 1   C  1S          0.00000   0.00000   0.00029  -0.48490
   2        2S         -0.00000   0.00000   0.07334   2.78272
   3        2PX         0.00000  -0.92895   0.00000   0.00000
   4        2PY         0.92895   0.00000  -0.00000   0.00000
   5        2PZ         0.00000   0.00000   0.91490  -0.00557
   6        3S         -0.00000   0.00000  -0.20993   2.38278
   7        3PX         0.00000  -0.53549   0.00000   0.00000
   8        3PY         0.53549   0.00000  -0.00000   0.00000
   9        3PZ         0.00000   0.00000   0.65443  -0.10887
  10        4S          0.00000   0.00000   0.00081   0.04231
  11        4PX         0.00000  -0.00338   0.00000   0.00000
  12        4PY         0.00338   0.00000  -0.00000   0.00000
  13        4PZ        -0.00000   0.00000  -0.03028   0.03488
  14        5XX        -0.83773   0.00000   0.56003  -2.06699
  15        5YY         0.83773   0.00000   0.56003  -2.06699
  16        5ZZ        -0.00000   0.00000  -1.21562  -2.02787
  17        5XY         0.00000   0.96733   0.00000   0.00000
  18        5XZ         0.00000  -0.68378   0.00000   0.00000
  19        5YZ         0.68378   0.00000  -0.00000   0.00000
  20 2   H  1S         -0.78217   0.00000  -0.25741   0.25986
  21        2S         -0.52324   0.00000  -0.16932  -0.42774
  22        3PX         0.00000  -0.01639   0.00000   0.00000
  23        3PY         1.08896   0.00000   0.36032  -0.29408
  24        3PZ         0.37934   0.00000   0.12670  -0.09490
  25 3   H  1S          0.39109   0.67738  -0.25741   0.25986
  26        2S          0.26162   0.45314  -0.16932  -0.42774
  27        3PX        -0.46444  -0.82082   0.31205  -0.25468
  28        3PY         0.28453   0.46444  -0.18016   0.14704
  29        3PZ        -0.18967  -0.32852   0.12670  -0.09490
  30 4   H  1S          0.39109  -0.67738  -0.25741   0.25986
  31        2S          0.26162  -0.45314  -0.16932  -0.42774
  32        3PX         0.46444  -0.82082  -0.31205   0.25468
  33        3PY         0.28453  -0.46444  -0.18016   0.14704
  34        3PZ        -0.18967   0.32852   0.12670  -0.09490
  35 5   H  1S          0.00000   0.00000   0.82559   0.25417
  36        2S          0.00000   0.00000   0.75584  -0.59277
  37        3PX         0.00000  -0.01631   0.00000   0.00000
  38        3PY         0.01631   0.00000  -0.00000  -0.00000
  39        3PZ         0.00000   0.00000   1.25816   0.27047
  40 6   H  1S          0.00000   0.00000   0.00162  -0.01916
  41        2S         -0.00000   0.00000  -0.09346   0.09930
  42        3PX         0.00000   0.00351   0.00000   0.00000
  43        3PY        -0.00351   0.00000   0.00000  -0.00000
  44        3PZ        -0.00000   0.00000  -0.07947   0.05145
     Beta Molecular Orbital Coefficients:
                           1         2         3         4         5
                        (A1)--O   (A1)--O   (A1)--O   (E)--O    (E)--O
     Eigenvalues --   -10.17008  -0.69632  -0.39547  -0.39413  -0.39413
   1 1   C  1S          0.99287  -0.19957  -0.00165   0.00000  -0.00000
   2        2S          0.04982   0.38540   0.00081   0.00000  -0.00000
   3        2PX         0.00000   0.00000   0.00000   0.44465   0.00000
   4        2PY         0.00000  -0.00000  -0.00000   0.00000   0.44465
   5        2PZ        -0.00000   0.00154   0.43784   0.00000   0.00000
   6        3S         -0.01602   0.35410   0.02410   0.00000   0.00000
   7        3PX         0.00000   0.00000   0.00000   0.19683   0.00000
   8        3PY         0.00000  -0.00000  -0.00000   0.00000   0.19683
   9        3PZ         0.00040   0.00158   0.18203   0.00000   0.00000
  10        4S         -0.00052   0.01443  -0.00039   0.00000  -0.00000
  11        4PX         0.00000   0.00000   0.00000   0.03687   0.00000
  12        4PY        -0.00000  -0.00000  -0.00000   0.00000   0.03687
  13        4PZ        -0.00019   0.00042   0.03831   0.00000   0.00000
  14        5XX        -0.00908  -0.00926   0.01062   0.00000  -0.01619
  15        5YY        -0.00908  -0.00926   0.01062   0.00000   0.01619
  16        5ZZ        -0.00918  -0.00987  -0.02265   0.00000  -0.00000
  17        5XY         0.00000   0.00000   0.00000  -0.01870   0.00000
  18        5XZ         0.00000   0.00000   0.00000   0.01345   0.00000
  19        5YZ         0.00000  -0.00000  -0.00000   0.00000   0.01345
  20 2   H  1S         -0.00025   0.13903   0.09852   0.00000   0.28099
  21        2S          0.00299   0.03661   0.07751   0.00000   0.22338
  22        3PX         0.00000   0.00000   0.00000   0.00862   0.00000
  23        3PY         0.00016  -0.01226  -0.00498   0.00000  -0.00517
  24        3PZ         0.00004  -0.00436   0.00694   0.00000  -0.00490
  25 3   H  1S         -0.00025   0.13903   0.09852   0.24335  -0.14050
  26        2S          0.00299   0.03661   0.07751   0.19346  -0.11169
  27        3PX         0.00013  -0.01062  -0.00431  -0.00172   0.00597
  28        3PY        -0.00008   0.00613   0.00249   0.00597   0.00518
  29        3PZ         0.00004  -0.00436   0.00694  -0.00424   0.00245
  30 4   H  1S         -0.00025   0.13903   0.09852  -0.24335  -0.14050
  31        2S          0.00299   0.03661   0.07751  -0.19346  -0.11169
  32        3PX        -0.00013   0.01062   0.00431  -0.00172  -0.00597
  33        3PY        -0.00008   0.00613   0.00249  -0.00597   0.00518
  34        3PZ         0.00004  -0.00436   0.00694   0.00424   0.00245
  35 5   H  1S         -0.00027   0.13860  -0.29636   0.00000  -0.00000
  36        2S          0.00360   0.04069  -0.26413   0.00000  -0.00000
  37        3PX         0.00000   0.00000   0.00000   0.00862   0.00000
  38        3PY        -0.00000   0.00000  -0.00000   0.00000   0.00862
  39        3PZ        -0.00010   0.01277  -0.00634   0.00000  -0.00000
  40 6   H  1S          0.00008   0.00273  -0.02165   0.00000  -0.00000
  41        2S         -0.00050   0.00356  -0.02356   0.00000  -0.00000
  42        3PX         0.00000   0.00000   0.00000   0.00019   0.00000
  43        3PY         0.00000   0.00000   0.00000   0.00000   0.00019
  44        3PZ        -0.00014   0.00079  -0.00225   0.00000  -0.00000
                           6         7         8         9        10
                        (A1)--V   (A1)--V   (E)--V    (E)--V    (A1)--V
     Eigenvalues --    -0.08067   0.02712   0.05943   0.05943   0.08773
   1 1   C  1S          0.03372   0.07913   0.00000   0.00000  -0.01987
   2        2S         -0.06693  -0.16318   0.00000   0.00000   0.04503
   3        2PX         0.00000   0.00000   0.00000  -0.17743   0.00000
   4        2PY         0.00000   0.00000  -0.17743   0.00000  -0.00000
   5        2PZ         0.13049  -0.09639  -0.00000   0.00000  -0.04555
   6        3S         -0.20959  -0.54665  -0.00000   0.00000   0.10781
   7        3PX         0.00000   0.00000   0.00000  -0.16804   0.00000
   8        3PY         0.00000   0.00000  -0.16804   0.00000  -0.00000
   9        3PZ         0.18299  -0.15328  -0.00000   0.00000   0.21182
  10        4S          0.35551   1.38680  -0.00000   0.00000  -0.57582
  11        4PX         0.00000   0.00000   0.00000   1.17992   0.00000
  12        4PY         0.00000  -0.00000   1.17992   0.00000   0.00000
  13        4PZ        -0.17080   0.38620  -0.00000   0.00000   1.23506
  14        5XX         0.00536   0.00883   0.00804   0.00000  -0.01106
  15        5YY         0.00536   0.00883  -0.00804   0.00000  -0.01106
  16        5ZZ         0.00088   0.01423   0.00000   0.00000   0.01248
  17        5XY         0.00000   0.00000   0.00000   0.00928   0.00000
  18        5XZ         0.00000   0.00000   0.00000  -0.00664   0.00000
  19        5YZ         0.00000   0.00000  -0.00664   0.00000  -0.00000
  20 2   H  1S          0.01357   0.00396  -0.05369   0.00000  -0.02758
  21        2S         -0.04031  -0.08870  -0.24004   0.00000  -0.16698
  22        3PX         0.00000   0.00000   0.00000   0.00269   0.00000
  23        3PY         0.00255   0.01251   0.00960   0.00000  -0.00281
  24        3PZ         0.00288   0.00440   0.00244   0.00000   0.00579
  25 3   H  1S          0.01357   0.00396   0.02685  -0.04650  -0.02758
  26        2S         -0.04031  -0.08870   0.12002  -0.20788  -0.16698
  27        3PX         0.00221   0.01084  -0.00299   0.00787  -0.00243
  28        3PY        -0.00128  -0.00626   0.00442  -0.00299   0.00140
  29        3PZ         0.00288   0.00440  -0.00122   0.00211   0.00579
  30 4   H  1S          0.01357   0.00396   0.02685   0.04650  -0.02758
  31        2S         -0.04031  -0.08870   0.12002   0.20788  -0.16698
  32        3PX        -0.00221  -0.01084   0.00299   0.00787   0.00243
  33        3PY        -0.00128  -0.00626   0.00442   0.00299   0.00140
  34        3PZ         0.00288   0.00440  -0.00122  -0.00211   0.00579
  35 5   H  1S         -0.02417   0.02648  -0.00000   0.00000   0.08296
  36        2S          0.07751  -0.12053   0.00000   0.00000   0.81304
  37        3PX         0.00000   0.00000   0.00000   0.00280   0.00000
  38        3PY        -0.00000   0.00000   0.00280   0.00000   0.00000
  39        3PZ        -0.01117  -0.00717  -0.00000   0.00000   0.00887
  40 6   H  1S          0.24895  -0.06660  -0.00000   0.00000   0.09144
  41        2S          0.63467  -0.19433  -0.00000   0.00000   0.51083
  42        3PX         0.00000   0.00000   0.00000   0.00361   0.00000
  43        3PY        -0.00000  -0.00000   0.00361   0.00000   0.00000
  44        3PZ         0.00277   0.00177   0.00000   0.00000   0.00078
                          11        12        13        14        15
                        (E)--V    (E)--V    (A1)--V   (A1)--V   (E)--V
     Eigenvalues --     0.18235   0.18235   0.21610   0.27478   0.63750
   1 1   C  1S         -0.00000   0.00000   0.01266  -0.15718  -0.00000
   2        2S         -0.00000   0.00000  -0.03699   0.19474   0.00000
   3        2PX         0.00000  -0.32211   0.00000   0.00000   0.00000
   4        2PY        -0.32211   0.00000   0.00000   0.00000  -0.92522
   5        2PZ         0.00000   0.00000   0.37547  -0.00577  -0.00000
   6        3S          0.00000   0.00000  -0.11110   3.20619  -0.00000
   7        3PX         0.00000  -1.40047   0.00000   0.00000   0.00000
   8        3PY        -1.40047   0.00000   0.00000   0.00000   1.66451
   9        3PZ         0.00000   0.00000   1.39942   0.01322   0.00000
  10        4S          0.00000   0.00000   0.30047   1.82427  -0.00000
  11        4PX         0.00000  -0.30546   0.00000   0.00000   0.00000
  12        4PY        -0.30546   0.00000   0.00000   0.00000  -0.57520
  13        4PZ         0.00000   0.00000  -0.10805   0.04293  -0.00000
  14        5XX        -0.01963   0.00000  -0.01413  -0.01289   0.03005
  15        5YY         0.01963   0.00000  -0.01413  -0.01289  -0.03005
  16        5ZZ        -0.00000   0.00000   0.02929  -0.01040   0.00000
  17        5XY         0.00000  -0.02266   0.00000   0.00000   0.00000
  18        5XZ         0.00000   0.01571   0.00000   0.00000   0.00000
  19        5YZ         0.01571   0.00000  -0.00000  -0.00000  -0.02472
  20 2   H  1S          0.16331   0.00000  -0.05797  -0.07269  -0.30104
  21        2S          1.87805   0.00000  -0.64607  -1.63222  -0.16788
  22        3PX         0.00000  -0.01349   0.00000   0.00000   0.00000
  23        3PY        -0.00067   0.00000  -0.00470  -0.00520   0.06389
  24        3PZ         0.00452   0.00000   0.01151  -0.00122   0.01773
  25 3   H  1S         -0.08166   0.14143  -0.05797  -0.07269   0.15052
  26        2S         -0.93902   1.62643  -0.64607  -1.63222   0.08394
  27        3PX        -0.00555  -0.00388  -0.00407  -0.00451  -0.02173
  28        3PY        -0.01028  -0.00555   0.00235   0.00260   0.02626
  29        3PZ        -0.00226   0.00392   0.01151  -0.00122  -0.00886
  30 4   H  1S         -0.08166  -0.14143  -0.05797  -0.07269   0.15052
  31        2S         -0.93902  -1.62643  -0.64607  -1.63222   0.08394
  32        3PX         0.00555  -0.00388   0.00407   0.00451   0.02173
  33        3PY        -0.01028   0.00555   0.00235   0.00260   0.02626
  34        3PZ        -0.00226  -0.00392   0.01151  -0.00122  -0.00886
  35 5   H  1S         -0.00000   0.00000   0.16251  -0.05758   0.00000
  36        2S         -0.00000   0.00000   1.90298  -1.61492   0.00000
  37        3PX         0.00000  -0.01354   0.00000   0.00000   0.00000
  38        3PY        -0.01354   0.00000   0.00000   0.00000   0.01394
  39        3PZ        -0.00000   0.00000  -0.00590   0.00556   0.00000
  40 6   H  1S         -0.00000   0.00000  -0.10398  -0.01128   0.00000
  41        2S          0.00000   0.00000  -0.50556   0.06930  -0.00000
  42        3PX         0.00000  -0.00284   0.00000   0.00000   0.00000
  43        3PY        -0.00284   0.00000   0.00000   0.00000  -0.00270
  44        3PZ        -0.00000   0.00000   0.01780  -0.01200  -0.00000
                          16        17        18        19        20
                        (E)--V    (A1)--V   (E)--V    (E)--V    (A1)--V
     Eigenvalues --     0.63750   0.64552   0.91152   0.91152   0.93086
   1 1   C  1S          0.00000   0.00146  -0.00000   0.00000  -0.01148
   2        2S          0.00000  -0.05895  -0.00000   0.00000  -0.19135
   3        2PX        -0.92522   0.00000   0.00000   0.56807   0.00000
   4        2PY         0.00000   0.00000   0.56807   0.00000  -0.00000
   5        2PZ         0.00000  -0.87880  -0.00000   0.00000  -0.62159
   6        3S          0.00000   0.09063   0.00000   0.00000   0.51590
   7        3PX         1.66451   0.00000   0.00000  -0.98399   0.00000
   8        3PY         0.00000  -0.00000  -0.98399   0.00000   0.00000
   9        3PZ         0.00000   1.70433   0.00000   0.00000   1.19234
  10        4S          0.00000   0.04678   0.00000   0.00000   0.08151
  11        4PX        -0.57520   0.00000   0.00000  -0.35972   0.00000
  12        4PY         0.00000   0.00000  -0.35972   0.00000   0.00000
  13        4PZ         0.00000  -0.65287   0.00000   0.00000   0.22779
  14        5XX         0.00000  -0.03398   0.19984   0.00000   0.12198
  15        5YY         0.00000  -0.03398  -0.19984   0.00000   0.12198
  16        5ZZ         0.00000   0.05781  -0.00000   0.00000  -0.28729
  17        5XY         0.03470   0.00000   0.00000   0.23076   0.00000
  18        5XZ        -0.02472   0.00000   0.00000  -0.16239   0.00000
  19        5YZ         0.00000   0.00000  -0.16239   0.00000   0.00000
  20 2   H  1S          0.00000  -0.12940  -0.89322   0.00000   0.25881
  21        2S          0.00000  -0.07696   1.87600   0.00000  -0.79837
  22        3PX         0.01372   0.00000   0.00000   0.06090   0.00000
  23        3PY         0.00000   0.01524  -0.07275   0.00000   0.04606
  24        3PZ         0.00000   0.02452  -0.04711   0.00000  -0.03930
  25 3   H  1S         -0.26071  -0.12940   0.44661  -0.77355   0.25881
  26        2S         -0.14538  -0.07696  -0.93800   1.62466  -0.79837
  27        3PX         0.05135   0.01320   0.05787  -0.03934   0.03989
  28        3PY        -0.02173  -0.00762   0.02749   0.05787  -0.02303
  29        3PZ         0.01535   0.02452   0.02356  -0.04080  -0.03930
  30 4   H  1S          0.26071  -0.12940   0.44661   0.77355   0.25881
  31        2S          0.14538  -0.07696  -0.93800  -1.62466  -0.79837
  32        3PX         0.05135  -0.01320  -0.05787  -0.03934  -0.03989
  33        3PY         0.02173  -0.00762   0.02749  -0.05787  -0.02303
  34        3PZ        -0.01535   0.02452   0.02356   0.04080  -0.03930
  35 5   H  1S          0.00000   0.38332  -0.00000   0.00000  -0.96570
  36        2S          0.00000   0.15774   0.00000   0.00000   1.99570
  37        3PX         0.01394   0.00000   0.00000   0.06050   0.00000
  38        3PY         0.00000  -0.00000   0.06050   0.00000  -0.00000
  39        3PZ         0.00000   0.06323   0.00000   0.00000   0.09452
  40 6   H  1S          0.00000  -0.04253  -0.00000   0.00000  -0.07370
  41        2S          0.00000  -0.12269  -0.00000   0.00000  -0.17542
  42        3PX        -0.00270   0.00000   0.00000  -0.00901   0.00000
  43        3PY         0.00000  -0.00000  -0.00901   0.00000  -0.00000
  44        3PZ         0.00000  -0.01002   0.00000   0.00000   0.07174
                          21        22        23        24        25
                        (A1)--V   (A1)--V   (A1)--V   (E)--V    (E)--V
     Eigenvalues --     0.96599   1.07520   1.13389   1.35778   1.35778
   1 1   C  1S         -0.03923   0.09175  -0.08180   0.00000   0.00000
   2        2S          0.01820  -0.27879  -2.25450   0.00000   0.00000
   3        2PX         0.00000   0.00000   0.00000   0.00000  -0.00080
   4        2PY        -0.00000  -0.00000  -0.00000  -0.00080   0.00000
   5        2PZ        -0.03906  -0.06052   0.09688  -0.00000   0.00000
   6        3S         -0.15582   0.66439   6.23672  -0.00000   0.00000
   7        3PX         0.00000   0.00000   0.00000   0.00000   0.00080
   8        3PY         0.00000   0.00000   0.00000   0.00080   0.00000
   9        3PZ         0.35446   0.27420  -0.29485   0.00000   0.00000
  10        4S         -0.10510   1.01301   0.38898  -0.00000   0.00000
  11        4PX         0.00000   0.00000   0.00000   0.00000   0.00032
  12        4PY         0.00000   0.00000   0.00000   0.00032   0.00000
  13        4PZ        -0.22936  -0.10430   0.10051  -0.00000   0.00000
  14        5XX        -0.03157   0.06848  -0.09108   0.33357   0.00000
  15        5YY        -0.03157   0.06848  -0.09108  -0.33357   0.00000
  16        5ZZ        -0.02502   0.04611  -0.06282  -0.00000   0.00000
  17        5XY         0.00000   0.00000   0.00000   0.00000   0.38517
  18        5XZ         0.00000   0.00000   0.00000   0.00000   0.54449
  19        5YZ         0.00000   0.00000   0.00000   0.54449   0.00000
  20 2   H  1S         -0.28781   0.67116  -0.11706   0.00090   0.00000
  21        2S          0.15660  -0.95893  -1.38331  -0.00146   0.00000
  22        3PX         0.00000   0.00000   0.00000   0.00000   0.24568
  23        3PY        -0.02412   0.06224   0.02923  -0.08176   0.00000
  24        3PZ        -0.00701   0.02042   0.01030   0.23176   0.00000
  25 3   H  1S         -0.28781   0.67116  -0.11706  -0.00045   0.00078
  26        2S          0.15660  -0.95893  -1.38331   0.00073  -0.00127
  27        3PX        -0.02089   0.05390   0.02532   0.14179   0.00010
  28        3PY         0.01206  -0.03112  -0.01462   0.16382   0.14179
  29        3PZ        -0.00701   0.02042   0.01030  -0.11588   0.20071
  30 4   H  1S         -0.28781   0.67116  -0.11706  -0.00045  -0.00078
  31        2S          0.15660  -0.95893  -1.38331   0.00073   0.00127
  32        3PX         0.02089  -0.05390  -0.02532  -0.14179   0.00010
  33        3PY         0.01206  -0.03112  -0.01462   0.16382  -0.14179
  34        3PZ        -0.00701   0.02042   0.01030  -0.11588  -0.20071
  35 5   H  1S         -0.31302   0.57334  -0.00734  -0.00000   0.00000
  36        2S          0.72956  -0.45260  -1.83915   0.00000   0.00000
  37        3PX         0.00000   0.00000   0.00000   0.00000  -0.24598
  38        3PY        -0.00000   0.00000  -0.00000  -0.24598   0.00000
  39        3PZ         0.05380  -0.04433  -0.04887   0.00000   0.00000
  40 6   H  1S          1.20357   0.57741  -0.07788   0.00000   0.00000
  41        2S         -1.18887  -0.60491   0.30288  -0.00000   0.00000
  42        3PX         0.00000   0.00000   0.00000   0.00000  -0.00095
  43        3PY         0.00000  -0.00000  -0.00000  -0.00095   0.00000
  44        3PZ         0.04350   0.00375  -0.09212   0.00000   0.00000
                          26        27        28        29        30
                        (E)--V    (E)--V    (A2)--V   (E)--V    (E)--V
     Eigenvalues --     2.04350   2.04350   2.04393   2.08967   2.08967
   1 1   C  1S          0.00000   0.00000   0.00000  -0.00000   0.00000
   2        2S          0.00000  -0.00000   0.00000   0.00000   0.00000
   3        2PX         0.00054   0.00000  -0.00000   0.00000  -0.13567
   4        2PY         0.00000   0.00054   0.00000   0.13567   0.00000
   5        2PZ         0.00000  -0.00000   0.00000   0.00000   0.00000
   6        3S          0.00000   0.00000   0.00000   0.00000   0.00000
   7        3PX        -0.00260   0.00000   0.00000   0.00000   0.63383
   8        3PY         0.00000  -0.00260   0.00000  -0.63383   0.00000
   9        3PZ         0.00000   0.00000   0.00000  -0.00000   0.00000
  10        4S          0.00000  -0.00000   0.00000  -0.00000   0.00000
  11        4PX        -0.00042   0.00000  -0.00000   0.00000  -0.20353
  12        4PY         0.00000  -0.00042   0.00000   0.20353   0.00000
  13        4PZ         0.00000  -0.00000   0.00000   0.00000   0.00000
  14        5XX         0.00000   0.00119   0.00000   0.47240   0.00000
  15        5YY         0.00000  -0.00119   0.00000  -0.47240   0.00000
  16        5ZZ         0.00000  -0.00000   0.00000   0.00000   0.00000
  17        5XY         0.00138   0.00000  -0.00000   0.00000  -0.54548
  18        5XZ        -0.00014   0.00000   0.00000   0.00000   0.38533
  19        5YZ         0.00000  -0.00014   0.00000  -0.38533   0.00000
  20 2   H  1S          0.00000   0.00112   0.00000   0.65033   0.00000
  21        2S          0.00000   0.00114   0.00000  -0.23968   0.00000
  22        3PX        -0.20472   0.00000   0.58157   0.00000  -0.24886
  23        3PY         0.00000  -0.20457   0.00000   0.34970   0.00000
  24        3PZ         0.00000   0.58111   0.00000   0.03296   0.00000
  25 3   H  1S          0.00097  -0.00056  -0.00000  -0.32517  -0.56321
  26        2S          0.00098  -0.00057   0.00000   0.11984   0.20757
  27        3PX        -0.20461  -0.00007  -0.29079  -0.04367  -0.32449
  28        3PY        -0.00007  -0.20468  -0.50366   0.27407   0.04367
  29        3PZ         0.50326  -0.29056  -0.00000  -0.01648  -0.02855
  30 4   H  1S         -0.00097  -0.00056   0.00000  -0.32517   0.56321
  31        2S         -0.00098  -0.00057  -0.00000   0.11984  -0.20757
  32        3PX        -0.20461   0.00007  -0.29079   0.04367  -0.32449
  33        3PY         0.00007  -0.20468   0.50366   0.27407  -0.04367
  34        3PZ        -0.50326  -0.29056   0.00000  -0.01648   0.02855
  35 5   H  1S          0.00000   0.00000   0.00000  -0.00000   0.00000
  36        2S          0.00000  -0.00000   0.00000   0.00000   0.00000
  37        3PX         0.61822   0.00000  -0.00000   0.00000  -0.24626
  38        3PY         0.00000   0.61822   0.00000   0.24626   0.00000
  39        3PZ         0.00000  -0.00000   0.00000   0.00000   0.00000
  40 6   H  1S          0.00000   0.00000   0.00000  -0.00000   0.00000
  41        2S          0.00000  -0.00000   0.00000   0.00000   0.00000
  42        3PX         0.01716   0.00000  -0.00000   0.00000  -0.07960
  43        3PY         0.00000   0.01716   0.00000   0.07960   0.00000
  44        3PZ         0.00000  -0.00000   0.00000   0.00000   0.00000
                          31        32        33        34        35
                        (A1)--V   (E)--V    (E)--V    (A1)--V   (E)--V
     Eigenvalues --     2.09330   2.16179   2.16179   2.27958   2.62866
   1 1   C  1S          0.00228   0.00000   0.00000  -0.00370  -0.00000
   2        2S          0.07376   0.00000  -0.00000  -0.47180   0.00000
   3        2PX         0.00000  -0.00691   0.00000   0.00000   0.00000
   4        2PY         0.00000   0.00000  -0.00691  -0.00000   0.16896
   5        2PZ        -0.16275   0.00000  -0.00000   0.14152   0.00000
   6        3S         -0.20278   0.00000  -0.00000   1.17992  -0.00000
   7        3PX         0.00000   0.04597   0.00000   0.00000   0.00000
   8        3PY        -0.00000   0.00000   0.04597   0.00000   0.65416
   9        3PZ         0.72094   0.00000  -0.00000  -0.27519   0.00000
[...]
  30 4   H  1S         -0.00543   0.00000   0.00009   0.00000  -0.00037
  31        2S         -0.01376   0.00000   0.00026  -0.00006  -0.00544
  32        3PX        -0.00000   0.00000   0.00000  -0.00000  -0.00000
  33        3PY         0.00005  -0.00000   0.00000   0.00000   0.00005
  34        3PZ         0.00016  -0.00000   0.00000   0.00000   0.00004
  35 5   H  1S         -0.00553   0.00009   0.00000   0.00000  -0.00037
  36        2S         -0.01445   0.00030  -0.00002  -0.00006  -0.00562
  37        3PX        -0.00001   0.00000   0.00000   0.00000   0.00004
  38        3PY         0.00006   0.00000  -0.00000   0.00000   0.00001
  39        3PZ         0.00016   0.00000   0.00000   0.00000   0.00004
  40 6   H  1S         -0.00000  -0.00000  -0.00000  -0.00000   0.00000
  41        2S         -0.00004  -0.00000  -0.00000  -0.00000   0.00000
  42        3PX        -0.00000   0.00000  -0.00000  -0.00000  -0.00000
  43        3PY         0.00000   0.00000  -0.00000   0.00000   0.00000
  44        3PZ         0.00000   0.00000   0.00000   0.00000   0.00000
                          26        27        28        29        30
  26        2S          0.11532
  27        3PX         0.00000   0.00018
  28        3PY         0.00000   0.00000   0.00021
  29        3PZ         0.00000   0.00000   0.00000   0.00034
  30 4   H  1S         -0.00544   0.00000   0.00008   0.00000   0.21540
  31        2S         -0.01376   0.00000   0.00026  -0.00006   0.09952
  32        3PX        -0.00000   0.00000   0.00000  -0.00000   0.00000
  33        3PY         0.00003  -0.00000   0.00000   0.00000   0.00000
  34        3PZ         0.00017  -0.00000   0.00000   0.00000   0.00000
  35 5   H  1S         -0.00552   0.00009   0.00000   0.00000  -0.00037
  36        2S         -0.01442   0.00030  -0.00002  -0.00007  -0.00561
  37        3PX        -0.00001   0.00000   0.00000   0.00000   0.00004
  38        3PY         0.00005   0.00000   0.00000   0.00000   0.00006
  39        3PZ         0.00017   0.00000   0.00000   0.00000   0.00000
  40 6   H  1S         -0.00000  -0.00000  -0.00000  -0.00000   0.00000
  41        2S         -0.00004  -0.00000  -0.00000  -0.00000   0.00000
  42        3PX        -0.00000   0.00000  -0.00000  -0.00000  -0.00000
  43        3PY         0.00000   0.00000   0.00000   0.00000   0.00000
  44        3PZ         0.00000   0.00000   0.00000   0.00000   0.00000
                          31        32        33        34        35
  31        2S          0.11521
  32        3PX         0.00000   0.00018
  33        3PY         0.00000   0.00000   0.00040
  34        3PZ         0.00000   0.00000   0.00000   0.00014
  35 5   H  1S         -0.00551   0.00009   0.00001   0.00000   0.21464
  36        2S         -0.01438   0.00030  -0.00009  -0.00000   0.10147
  37        3PX        -0.00001   0.00000   0.00000   0.00000   0.00000
  38        3PY         0.00022   0.00000   0.00000   0.00000   0.00000
  39        3PZ         0.00000   0.00000   0.00000   0.00000   0.00000
  40 6   H  1S         -0.00000  -0.00000  -0.00000  -0.00000  -0.00000
  41        2S         -0.00004  -0.00000  -0.00000  -0.00000  -0.00012
  42        3PX        -0.00000   0.00000  -0.00000  -0.00000   0.00000
  43        3PY         0.00000   0.00000   0.00000   0.00000  -0.00000
  44        3PZ         0.00000   0.00000   0.00000   0.00000   0.00000
                          36        37        38        39        40
  36        2S          0.12059
  37        3PX         0.00000   0.00044
  38        3PY         0.00000   0.00000   0.00015
  39        3PZ         0.00000   0.00000   0.00000   0.00015
  40 6   H  1S          0.00017   0.00000   0.00000   0.00000   0.18665
  41        2S          0.00098   0.00005   0.00000   0.00000   0.18419
  42        3PX         0.00001  -0.00000   0.00000   0.00000   0.00000
  43        3PY        -0.00000   0.00000   0.00000  -0.00000   0.00000
  44        3PZ         0.00000   0.00000  -0.00000   0.00000   0.00000
                          41        42        43        44
  41        2S          0.41948
  42        3PX         0.00000   0.00000
  43        3PY         0.00000   0.00000   0.00000
  44        3PZ         0.00000   0.00000   0.00000   0.00000
     Gross orbital populations:
                         Total     Alpha     Beta      Spin
   1 1   C  1S          1.99178   0.99589   0.99589   0.00000
   2        2S          0.68414   0.34232   0.34182   0.00050
   3        2PX         0.71036   0.35773   0.35263   0.00510
   4        2PY         0.71083   0.35552   0.35530   0.00022
   5        2PZ         0.71081   0.35552   0.35529   0.00022
   6        3S          0.67551   0.33859   0.33692   0.00167
   7        3PX         0.33949   0.17246   0.16702   0.00544
   8        3PY         0.34101   0.17049   0.17051  -0.00002
   9        3PZ         0.34104   0.17051   0.17053  -0.00002
  10        4S          0.02496   0.01508   0.00989   0.00519
  11        4PX         0.04100   0.02320   0.01780   0.00541
  12        4PY         0.03278   0.01632   0.01646  -0.00013
  13        4PZ         0.03281   0.01634   0.01647  -0.00013
  14        5XX        -0.00899  -0.00440  -0.00459   0.00019
  15        5YY        -0.01000  -0.00505  -0.00495  -0.00011
  16        5ZZ        -0.01002  -0.00506  -0.00495  -0.00011
  17        5XY         0.00264   0.00131   0.00132  -0.00001
  18        5XZ         0.00262   0.00131   0.00131  -0.00001
  19        5YZ         0.00561   0.00280   0.00280  -0.00000
  20 2   H  1S          0.52843   0.26421   0.26423  -0.00002
  21        2S          0.30729   0.15356   0.15373  -0.00017
  22        3PX         0.00291   0.00146   0.00145   0.00001
  23        3PY         0.00348   0.00174   0.00174  -0.00000
  24        3PZ         0.00546   0.00273   0.00273  -0.00000
  25 3   H  1S          0.52843   0.26420   0.26422  -0.00002
  26        2S          0.30729   0.15356   0.15373  -0.00017
  27        3PX         0.00291   0.00146   0.00145   0.00001
  28        3PY         0.00335   0.00168   0.00168  -0.00000
  29        3PZ         0.00559   0.00279   0.00280  -0.00000
  30 4   H  1S          0.52842   0.26420   0.26422  -0.00002
  31        2S          0.30726   0.15355   0.15371  -0.00017
  32        3PX         0.00291   0.00146   0.00145   0.00001
  33        3PY         0.00658   0.00329   0.00329  -0.00000
  34        3PZ         0.00236   0.00118   0.00118   0.00000
  35 5   H  1S          0.52695   0.26370   0.26325   0.00045
  36        2S          0.31427   0.15346   0.16081  -0.00735
  37        3PX         0.00719   0.00368   0.00351   0.00017
  38        3PY         0.00237   0.00118   0.00118   0.00000
  39        3PZ         0.00237   0.00119   0.00118   0.00000
  40 6   H  1S          0.37311   0.37294   0.00017   0.37278
  41        2S          0.61266   0.61188   0.00078   0.61110
  42        3PX         0.00002   0.00002   0.00001   0.00001
  43        3PY         0.00000   0.00000   0.00000   0.00000
  44        3PZ         0.00000   0.00000   0.00000   0.00000
          Condensed to atoms (all electrons):
              1          2          3          4          5          6
     1  C    5.045316   0.391190   0.391208   0.391259   0.389079   0.010316
     2  H    0.391190   0.530651  -0.024451  -0.024405  -0.025364  -0.000036
     3  H    0.391208  -0.024451   0.530579  -0.024414  -0.025312  -0.000036
     4  H    0.391259  -0.024405  -0.024414   0.530382  -0.025249  -0.000036
     5  H    0.389079  -0.025364  -0.025312  -0.025249   0.538911   0.001081
     6  H    0.010316  -0.000036  -0.000036  -0.000036   0.001081   0.974506
 Mulliken atomic charges:
              1
     1  C   -0.618368
     2  H    0.152417
     3  H    0.152427
     4  H    0.152463
     5  H    0.146855
     6  H    0.014206
 Sum of Mulliken atomic charges =  -0.00000
 Mulliken charges with hydrogens summed into heavy atoms:
              1
     1  C   -0.000000
 Sum of Mulliken charges with hydrogens summed into heavy atoms =  -0.00000
          Atomic-Atomic Spin Densities.
              1          2          3          4          5          6
     1  C    0.014102  -0.000406  -0.000405  -0.000403   0.000739   0.009766
     2  H   -0.000406  -0.000104  -0.000041  -0.000041   0.000435  -0.000027
     3  H   -0.000405  -0.000041  -0.000104  -0.000041   0.000434  -0.000026
     4  H   -0.000403  -0.000041  -0.000041  -0.000103   0.000433  -0.000026
     5  H    0.000739   0.000435   0.000434   0.000433  -0.008890   0.000121
     6  H    0.009766  -0.000027  -0.000026  -0.000026   0.000121   0.974077
 Mulliken atomic spin densities:
              1
     1  C    0.023394
     2  H   -0.000184
     3  H   -0.000184
     4  H   -0.000183
     5  H   -0.006727
     6  H    0.983884
 Sum of Mulliken atomic spin densities =   1.00000
 Electronic spatial extent (au):  <R**2>=             82.6879
 Charge=             -0.0000 electrons
 Dipole moment (field-independent basis, Debye):
    X=             -0.0917    Y=             -0.0007    Z=             -0.0002  Tot=              0.0917
 Quadrupole moment (field-independent basis, Debye-Ang):
   XX=             -9.4092   YY=             -9.8173   ZZ=             -9.8201
   XY=              0.0017   XZ=              0.0010   YZ=             -0.0001
 Traceless Quadrupole moment (field-independent basis, Debye-Ang):
   XX=              0.2730   YY=             -0.1351   ZZ=             -0.1379
   XY=              0.0017   XZ=              0.0010   YZ=             -0.0001
 Octapole moment (field-independent basis, Debye-Ang**2):
  XXX=              1.5118  YYY=              0.5760  ZZZ=              0.0297  XYY=              1.8761
  XXY=              0.0018  XXZ=              0.0011  XZZ=              1.8725  YZZ=             -0.5784
  YYZ=             -0.0307  XYZ=             -0.0005
 Hexadecapole moment (field-independent basis, Debye-Ang**3):
 XXXX=           -102.7438 YYYY=            -18.4357 ZZZZ=            -18.4360 XXXY=              0.0042
 XXXZ=              0.0023 YYYX=              0.5227 YYYZ=             -0.0001 ZZZX=              0.0295
 ZZZY=              0.0003 XXYY=            -21.4189 XXZZ=            -21.4226 YYZZ=             -6.1440
 XXYZ=             -0.0008 YYXZ=             -0.0267 ZZXY=             -0.5175
 N-N= 1.483492911350D+01 E-N=-1.842679371531D+02  KE= 6.059159636042D+01
 Orbital energies and kinetic energies (alpha):
                                 1                 2
   1         O               -10.172299         15.881105
   2         O                -0.695159          1.276313
   3         O                -0.394045          0.957707
   4         O                -0.393920          0.957773
   5         O                -0.392690          0.937792
   6         O                -0.318472          0.535631
   7         V                 0.020257          0.365249
   8         V                 0.060910          0.231442
   9         V                 0.060917          0.231431
  10         V                 0.073913          0.253650
  11         V                 0.181974          0.809116
  12         V                 0.182034          0.810339
  13         V                 0.182357          0.857690
  14         V                 0.276596          1.103753
  15         V                 0.638394          1.866141
  16         V                 0.638418          1.866104
  17         V                 0.644116          1.879157
  18         V                 0.752346          1.800104
  19         V                 0.911300          2.283909
  20         V                 0.911471          2.284191
  21         V                 0.929075          2.288721
  22         V                 1.053289          2.502507
  23         V                 1.122730          2.079841
  24         V                 1.358225          2.345765
  25         V                 1.358352          2.345894
  26         V                 1.946369          2.751065
  27         V                 1.946369          2.751062
  28         V                 1.970861          2.786965
  29         V                 2.040696          2.831541
  30         V                 2.042849          2.840245
  31         V                 2.043079          2.840773
  32         V                 2.082355          3.177643
  33         V                 2.082933          3.177911
  34         V                 2.088326          3.193601
  35         V                 2.617870          3.500254
  36         V                 2.627173          3.519588
  37         V                 2.628442          3.521188
  38         V                 2.901598          3.890411
  39         V                 2.901871          3.890769
  40         V                 3.162268          4.736737
  41         V                 3.411456          5.065603
  42         V                 3.411673          5.065541
  43         V                 3.419594          5.052524
  44         V                 4.424021          9.902316
 Orbital energies and kinetic energies (beta):
                                 1                 2
   1         O               -10.172141         15.881305
   2         O                -0.694727          1.275096
   3         O                -0.393938          0.957475
   4         O                -0.393815          0.957485
   5         O                -0.391165          0.951276
   6         V                -0.061016          0.331638
   7         V                 0.024128          0.362463
   8         V                 0.060275          0.230866
   9         V                 0.060283          0.230856
  10         V                 0.084331          0.272944
  11         V                 0.181929          0.808920
  12         V                 0.181997          0.808810
  13         V                 0.186835          0.879540
  14         V                 0.275879          1.102463
  15         V                 0.638412          1.866273
  16         V                 0.638436          1.866236
  17         V                 0.649334          1.849319
  18         V                 0.883601          2.183110
  19         V                 0.911356          2.284397
  20         V                 0.911527          2.284681
  21         V                 1.000624          2.046737
  22         V                 1.055516          2.558808
  23         V                 1.132967          2.069933
  24         V                 1.358559          2.345695
  25         V                 1.358686          2.345825
  26         V                 2.040687          2.831542
  27         V                 2.042825          2.840417
  28         V                 2.043054          2.840946
  29         V                 2.082074          3.176065
  30         V                 2.082651          3.176309
  31         V                 2.088185          3.192761
  32         V                 2.187769          2.752398
  33         V                 2.187770          2.752414
  34         V                 2.201943          2.788054
  35         V                 2.618843          3.499279
  36         V                 2.627171          3.519681
  37         V                 2.628440          3.521278
  38         V                 2.901739          3.890479
  39         V                 2.902012          3.890837
  40         V                 3.162367          4.736432
  41         V                 3.411589          5.065626
  42         V                 3.411806          5.065564
  43         V                 3.419955          5.052572
  44         V                 4.424405          9.902258
 Total kinetic energy from orbitals= 4.056895902266D+01
                          Isotropic Fermi Contact Couplings
        Atom                 a.u.       MegaHertz       Gauss      10(-4) cm-1
     1  C(13)              0.00398       4.47929       1.59832       1.49413
     2  H(1)              -0.00001      -0.05005      -0.01786      -0.01669
     3  H(1)              -0.00001      -0.04971      -0.01774      -0.01658
     4  H(1)              -0.00001      -0.04887      -0.01744      -0.01630
     5  H(1)               0.00057       2.54344       0.90756       0.84840
     6  H(1)               0.30033    1342.43720     479.01496     447.78885
 --------------------------------------------------------
       Center         ----  Spin Dipole Couplings  ----
                      3XX-RR        3YY-RR        3ZZ-RR
 --------------------------------------------------------
     1   Atom        0.016481     -0.008241     -0.008240
     2   Atom        0.003647     -0.002204     -0.001443
     3   Atom        0.003646     -0.002252     -0.001394
     4   Atom        0.003644     -0.001012     -0.002633
     5   Atom        0.020355     -0.010177     -0.010177
     6   Atom        0.000246     -0.000123     -0.000123
 --------------------------------------------------------
                        XY            XZ            YZ
 --------------------------------------------------------
     1   Atom       -0.000014     -0.000007      0.000000
     2   Atom       -0.000916     -0.001522      0.000718
     3   Atom       -0.000862      0.001551     -0.000689
     4   Atom        0.001773     -0.000032     -0.000029
     5   Atom        0.000001     -0.000000      0.000000
     6   Atom       -0.000000     -0.000000     -0.000000
 --------------------------------------------------------


 ---------------------------------------------------------------------------------
              Anisotropic Spin Dipole Couplings in Principal Axis System
 ---------------------------------------------------------------------------------

       Atom             a.u.   MegaHertz   Gauss  10(-4) cm-1        Axes

              Baa    -0.0082    -1.106    -0.395    -0.369  0.0005  0.9997 -0.0231
     1 C(13)  Bbb    -0.0082    -1.106    -0.395    -0.369  0.0003  0.0231  0.9997
              Bcc     0.0165     2.212     0.789     0.738  1.0000 -0.0005 -0.0003
 
              Baa    -0.0026    -1.406    -0.502    -0.469  0.0001  0.8568 -0.5156
     2 H(1)   Bbb    -0.0016    -0.860    -0.307    -0.287  0.3200  0.4885  0.8118
              Bcc     0.0042     2.266     0.809     0.756  0.9474 -0.1651 -0.2742
 
              Baa    -0.0026    -1.406    -0.502    -0.469  0.0002  0.8744  0.4853
     3 H(1)   Bbb    -0.0016    -0.859    -0.307    -0.287 -0.3199 -0.4597  0.8284
              Bcc     0.0042     2.265     0.808     0.756  0.9475 -0.1554  0.2796
 
              Baa    -0.0026    -1.405    -0.501    -0.469  0.0001  0.0177  0.9998
     4 H(1)   Bbb    -0.0016    -0.859    -0.306    -0.286 -0.3198  0.9473 -0.0167
              Bcc     0.0042     2.264     0.808     0.755  0.9475  0.3197 -0.0057
 
              Baa    -0.0102    -5.430    -1.938    -1.811 -0.0000  0.9886 -0.1506
     5 H(1)   Bbb    -0.0102    -5.430    -1.938    -1.811  0.0000  0.1506  0.9886
              Bcc     0.0204    10.860     3.875     3.623  1.0000  0.0000 -0.0000
 
              Baa    -0.0001    -0.066    -0.023    -0.022  0.0003  0.2427  0.9701
     6 H(1)   Bbb    -0.0001    -0.066    -0.023    -0.022  0.0003  0.9701 -0.2427
              Bcc     0.0002     0.131     0.047     0.044  1.0000 -0.0004 -0.0002
 

 ---------------------------------------------------------------------------------

 No NMR shielding tensors so no spin-rotation constants.
 Leave Link  601 at Fri Sep 13 15:51:17 2024, MaxMem=   65536000 cpu:       0.5
 (Enter /programs/64bit/g09/g09-gfortran/bin/l9999.exe)


 MEMORIES ARE LIKE AN ENGLISH GRAMMER LESSON -
 PRESENT TENSE, AND PAST PERFECT.
 Error termination request processed by link 9999.
 Error termination via Lnk1e in /programs/64bit/g09/g09-gfortran/bin/l9999.exe at Fri Sep 13 15:51:17 2024.
 Job cpu time:  0 days  0 hours  8 minutes 45.3 seconds.
 File lengths (MBytes):  RWF=      5 Int=      0 D2E=      0 Chk=      1 Scr=      1
