 Entering Gaussian System, Link 0=/programs/64bit/g09/g09-gfortran/bin/g09
 Input=gas.com
 Output=gas.log
 Initial command:
 /programs/64bit/g09/g09-gfortran/bin/l1.exe /home/ospite/Desktop/MMfP/Project10/HO2-/Gau-22859.inp -scrdir=/home/ospite/Desktop/MMfP/Project10/HO2-/
 Entering Link 1 = /programs/64bit/g09/g09-gfortran/bin/l1.exe PID=     22860.
  
 Copyright (c) 1988,1990,1992,1993,1995,1998,2003,2009, Gaussian, Inc.
                  All Rights Reserved.
  
 This is part of the Gaussian(R) 09 program.  It is based on
 the Gaussian(R) 03 system (copyright 2003, Gaussian, Inc.),
 the Gaussian(R) 98 system (copyright 1998, Gaussian, Inc.),
 the Gaussian(R) 94 system (copyright 1995, Gaussian, Inc.),
 the Gaussian 92(TM) system (copyright 1992, Gaussian, Inc.),
 the Gaussian 90(TM) system (copyright 1990, Gaussian, Inc.),
 the Gaussian 88(TM) system (copyright 1988, Gaussian, Inc.),
 the Gaussian 86(TM) system (copyright 1986, Carnegie Mellon
 University), and the Gaussian 82(TM) system (copyright 1983,
 Carnegie Mellon University). Gaussian is a federally registered
 trademark of Gaussian, Inc.
  
 This software contains proprietary and confidential information,
 including trade secrets, belonging to Gaussian, Inc.
  
 This software is provided under written license and may be
 used, copied, transmitted, or stored only in accord with that
 written license.
  
 The following legend is applicable only to US Government
 contracts under FAR:
  
                    RESTRICTED RIGHTS LEGEND
  
 Use, reproduction and disclosure by the US Government is
 subject to restrictions as set forth in subparagraphs (a)
 and (c) of the Commercial Computer Software - Restricted
 Rights clause in FAR 52.227-19.
  
 Gaussian, Inc.
 340 Quinnipiac St., Bldg. 40, Wallingford CT 06492
  
  
 ---------------------------------------------------------------
 Warning -- This program may not be used in any manner that
 competes with the business of Gaussian, Inc. or will provide
 assistance to any competitor of Gaussian, Inc.  The licensee
 of this program is prohibited from giving any competitor of
 Gaussian, Inc. access to this program.  By using this program,
 the user acknowledges that Gaussian, Inc. is engaged in the
 business of creating and licensing software in the field of
 computational chemistry and represents and warrants to the
 licensee that it is not a competitor of Gaussian, Inc. and that
 it will not use this program in any manner prohibited above.
 ---------------------------------------------------------------
  

 Cite this work as:
 Gaussian 09, Revision A.02,
 M. J. Frisch, G. W. Trucks, H. B. Schlegel, G. E. Scuseria, 
 M. A. Robb, J. R. Cheeseman, G. Scalmani, V. Barone, B. Mennucci, 
 G. A. Petersson, H. Nakatsuji, M. Caricato, X. Li, H. P. Hratchian, 
 A. F. Izmaylov, J. Bloino, G. Zheng, J. L. Sonnenberg, M. Hada, 
 M. Ehara, K. Toyota, R. Fukuda, J. Hasegawa, M. Ishida, T. Nakajima, 
 Y. Honda, O. Kitao, H. Nakai, T. Vreven, J. A. Montgomery, Jr., 
 J. E. Peralta, F. Ogliaro, M. Bearpark, J. J. Heyd, E. Brothers, 
 K. N. Kudin, V. N. Staroverov, R. Kobayashi, J. Normand, 
 K. Raghavachari, A. Rendell, J. C. Burant, S. S. Iyengar, J. Tomasi, 
 M. Cossi, N. Rega, J. M. Millam, M. Klene, J. E. Knox, J. B. Cross, 
 V. Bakken, C. Adamo, J. Jaramillo, R. Gomperts, R. E. Stratmann, 
 O. Yazyev, A. J. Austin, R. Cammi, C. Pomelli, J. W. Ochterski, 
 R. L. Martin, K. Morokuma, V. G. Zakrzewski, G. A. Voth, 
 P. Salvador, J. J. Dannenberg, S. Dapprich, A. D. Daniels, 
 O. Farkas, J. B. Foresman, J. V. Ortiz, J. Cioslowski, 
 and D. J. Fox, Gaussian, Inc., Wallingford CT, 2009.
 
 ******************************************
 Gaussian 09:  EM64L-G09RevA.02 11-Jun-2009
                16-Sep-2024 
 ******************************************
 %mem=100Mb
 %nprocshared=2
 Will use up to    2 processors via shared memory.
 ------------------------
 #p B3LYP/6-31+g(d,p) opt
 ------------------------
 1/14=-1,18=20,19=15,26=3,38=1/1,3;
 2/9=110,12=2,17=6,18=5,40=1/2;
 3/5=1,6=6,7=111,11=2,16=1,25=1,30=1,71=1,74=-5/1,2,3;
 4//1;
 5/5=2,38=5/2;
 6/7=2,8=2,9=2,10=2,28=1/1;
 7//1,2,3,16;
 1/14=-1,18=20,19=15/3(2);
 2/9=110/2;
 99//99;
 2/9=110/2;
 3/5=1,6=6,7=111,11=2,16=1,25=1,30=1,71=1,74=-5/1,2,3;
 4/5=5,16=3/1;
 5/5=2,38=5/2;
 7//1,2,3,16;
 1/14=-1,18=20,19=15/3(-5);
 2/9=110/2;
 6/7=2,8=2,9=2,10=2,19=2,28=1/1;
 99/9=1/99;
 Leave Link    1 at Mon Sep 16 17:13:54 2024, MaxMem=   13107200 cpu:       0.1
 (Enter /programs/64bit/g09/g09-gfortran/bin/l101.exe)
 --------
 ho2- gas
 --------
 Symbolic Z-matrix:
 Charge = -1 Multiplicity = 1
 o
 o                    1    oo2
 h                    1    ho3      2    hoo3
       Variables:
  oo2                   1.26                     
  ho3                   0.95                     
  hoo3                109.471                    
 
     1 tetrahedral angles replaced.
 NAtoms=      3 NQM=      3 NQMF=      0 NMic=      0 NMicF=      0 NTot=      3.
                    Isotopes and Nuclear Properties:
 (Nuclear quadrupole moments (NQMom) in fm**2, nuclear magnetic moments (NMagM)
  in nuclear magnetons)

  Atom         1           2           3
 IAtWgt=          16          16           1
 AtmWgt=  15.9949146  15.9949146   1.0078250
 NucSpn=           0           0           1
 AtZEff=   0.0000000   0.0000000   0.0000000
 NQMom=    0.0000000   0.0000000   0.0000000
 NMagM=    0.0000000   0.0000000   2.7928460
 Leave Link  101 at Mon Sep 16 17:13:54 2024, MaxMem=   13107200 cpu:       0.2
 (Enter /programs/64bit/g09/g09-gfortran/bin/l103.exe)

 GradGradGradGradGradGradGradGradGradGradGradGradGradGradGradGradGradGrad
 Berny optimization.
 Initialization pass.
                           ----------------------------
                           !    Initial Parameters    !
                           ! (Angstroms and Degrees)  !
 --------------------------                            --------------------------
 ! Name  Definition              Value          Derivative Info.                !
 --------------------------------------------------------------------------------
 ! R1    R(1,2)                  1.26           estimate D2E/DX2                !
 ! R2    R(1,3)                  0.95           estimate D2E/DX2                !
 ! A1    A(2,1,3)              109.4712         estimate D2E/DX2                !
 --------------------------------------------------------------------------------
 Trust Radius=3.00D-01 FncErr=1.00D-07 GrdErr=1.00D-06
 Number of steps in this run=  20 maximum allowed number of steps= 100.
 GradGradGradGradGradGradGradGradGradGradGradGradGradGradGradGradGradGrad

 Leave Link  103 at Mon Sep 16 17:13:54 2024, MaxMem=   13107200 cpu:       0.0
 (Enter /programs/64bit/g09/g09-gfortran/bin/l202.exe)
                          Input orientation:                          
 ---------------------------------------------------------------------
 Center     Atomic      Atomic             Coordinates (Angstroms)
 Number     Number       Type             X           Y           Z
 ---------------------------------------------------------------------
      1          8           0        0.000000    0.000000    0.000000
      2          8           0        0.000000    0.000000    1.260000
      3          1           0        0.895669    0.000000   -0.316667
 ---------------------------------------------------------------------
                    Distance matrix (angstroms):
                    1          2          3
     1  O    0.000000
     2  O    1.260000   0.000000
     3  H    0.950000   1.813312   0.000000
 Stoichiometry    HO2(1-)
 Framework group  CS[SG(HO2)]
 Deg. of freedom     3
 Full point group                 CS      NOp   2
 Largest Abelian subgroup         CS      NOp   2
 Largest concise Abelian subgroup C1      NOp   1
                         Standard orientation:                         
 ---------------------------------------------------------------------
 Center     Atomic      Atomic             Coordinates (Angstroms)
 Number     Number       Type             X           Y           Z
 ---------------------------------------------------------------------
      1          8           0        0.052686   -0.574314    0.000000
      2          8           0        0.052686    0.685686    0.000000
      3          1           0       -0.842982   -0.890980   -0.000000
 ---------------------------------------------------------------------
 Rotational constants (GHZ):    691.9549607     37.0898313     35.2029026
 Leave Link  202 at Mon Sep 16 17:13:54 2024, MaxMem=   13107200 cpu:       0.0
 (Enter /programs/64bit/g09/g09-gfortran/bin/l301.exe)
 Standard basis: 6-31+G(d,p) (6D, 7F)
 Ernie: Thresh=  0.10000D-02 Tol=  0.10000D-05 Strict=F.
 There are    32 symmetry adapted basis functions of A'  symmetry.
 There are    11 symmetry adapted basis functions of A"  symmetry.
 Integral buffers will be    131072 words long.
 Raffenetti 2 integral format.
 Two-electron integral symmetry is turned on.
    43 basis functions,    71 primitive gaussians,    43 cartesian basis functions
     9 alpha electrons        9 beta electrons
       nuclear repulsion energy        33.6697044097 Hartrees.
 IExCor=  402 DFT=T Ex+Corr=B3LYP ExCW=0 ScaHFX=  0.200000
 ScaDFX=  0.800000  0.720000  1.000000  0.810000 ScalE2=  1.000000  1.000000
 IRadAn=      0 IRanWt=     -1 IRanGd=            0 ICorTp=0
 NAtoms=    3 NActive=    3 NUniq=    3 SFac= 7.50D-01 NAtFMM=   80 NAOKFM=F Big=F
 Leave Link  301 at Mon Sep 16 17:13:54 2024, MaxMem=   13107200 cpu:       0.1
 (Enter /programs/64bit/g09/g09-gfortran/bin/l302.exe)
 NPDir=0 NMtPBC=     1 NCelOv=     1 NCel=       1 NClECP=     1 NCelD=      1
         NCelK=      1 NCelE2=     1 NClLst=     1 CellRange=     0.0.
 One-electron integrals computed using PRISM.
 NBasis=    43 RedAO= T  NBF=    32    11
 NBsUse=    43 1.00D-06 NBFU=    32    11
 Precomputing XC quadrature grid using
 IXCGrd= 2 IRadAn=           0 IRanWt=          -1 IRanGd=           0 AccXCQ= 1.00D-10.
 NRdTot=     189 NPtTot=       23968 NUsed=       25343 NTot=       25375
 NSgBfM=    43    43    43    43    43 NAtAll=     3     3.
 Leave Link  302 at Mon Sep 16 17:13:54 2024, MaxMem=   13107200 cpu:       0.3
 (Enter /programs/64bit/g09/g09-gfortran/bin/l303.exe)
 DipDrv:  MaxL=1.
 Leave Link  303 at Mon Sep 16 17:13:54 2024, MaxMem=   13107200 cpu:       0.1
 (Enter /programs/64bit/g09/g09-gfortran/bin/l401.exe)
 Harris functional with IExCor=  402 diagonalized for initial guess.
 ExpMin= 8.45D-02 ExpMax= 5.48D+03 ExpMxC= 8.25D+02 IAcc=2 IRadAn=         0 AccDes= 0.00D+00
 HarFok:  IExCor=  402 AccDes= 0.00D+00 IRadAn=         0 IDoV= 1
 ScaDFX=  1.000000  1.000000  1.000000  1.000000
 FoFCou: FMM=F IPFlag=           0 FMFlag=      100000 FMFlg1=           0
         NFxFlg=           0 DoJE=T BraDBF=F KetDBF=T FulRan=T
         Omega=  0.000000  0.000000  1.000000  0.000000  0.000000 ICntrl=     500 IOpCl=  0
         NMat0=    1 NMatS0=    1 NMatT0=    0 NMatD0=    1 NMtDS0=    0 NMtDT0=    0
         I1Cent=           4 NGrid=           0.
 Petite list used in FoFCou.
 Harris En= -151.137949584442    
 Initial guess orbital symmetries:
       Occupied  (A') (A') (A') (A') (A') (A') (A") (A') (A")
       Virtual   (A') (A') (A') (A") (A') (A') (A') (A") (A') (A')
                 (A') (A') (A") (A') (A') (A") (A') (A') (A") (A')
                 (A") (A') (A') (A") (A') (A') (A') (A") (A") (A')
                 (A') (A') (A') (A')
 The electronic state of the initial guess is 1-A'.
 Leave Link  401 at Mon Sep 16 17:13:55 2024, MaxMem=   13107200 cpu:       0.7
 (Enter /programs/64bit/g09/g09-gfortran/bin/l502.exe)
 Closed shell SCF:
 Requested convergence on RMS density matrix=1.00D-08 within 128 cycles.
 Requested convergence on MAX density matrix=1.00D-06.
 Requested convergence on             energy=1.00D-06.
 No special actions if energy rises.
 Using DIIS extrapolation, IDIIS=  1040.
 Integral symmetry usage will be decided dynamically.
        25303 words used for storage of precomputed grid.
 Keep R1 ints in memory in canonical form, NReq=1356912.
 IEnd=       49587 IEndB=       49587 NGot=    13107200 MDV=    12628187
 LenX=    12628187 LenY=    12625897
 Symmetry not used in FoFDir.
 MinBra= 0 MaxBra= 2 Meth= 1.
 IRaf=       0 NMat=   1 IRICut=       1 DoRegI=T DoRafI=F ISym2E= 0 JSym2E=0.
 Integral accuracy reduced to 1.0D-05 until final iterations.

 Cycle   1  Pass 0  IDiag  1:
 E= -150.768864502396    
 DIIS: error= 4.84D-02 at cycle   1 NSaved=   1.
 NSaved= 1 IEnMin= 1 EnMin= -150.768864502396     IErMin= 1 ErrMin= 4.84D-02
 ErrMax= 4.84D-02 EMaxC= 1.00D-01 BMatC= 1.47D-01 BMatP= 1.47D-01
 IDIUse=3 WtCom= 5.16D-01 WtEn= 4.84D-01
 Coeff-Com:  0.100D+01
 Coeff-En:   0.100D+01
 Coeff:      0.100D+01
 Gap=     0.024 Goal=   None    Shift=    0.000
 GapD=    0.024 DampG=0.250 DampE=0.500 DampFc=0.2500 IDamp=-1.
 Damping current iteration by 2.50D-01
 RMSDP=5.98D-01 MaxDP=1.28D+01              OVMax= 4.54D-01

 Cycle   2  Pass 0  IDiag  1:
 E= -150.748145766864     Delta-E=        0.020718735532 Rises=F Damp=T
 DIIS: error= 1.31D-02 at cycle   2 NSaved=   2.
 NSaved= 2 IEnMin= 1 EnMin= -150.768864502396     IErMin= 2 ErrMin= 1.31D-02
 ErrMax= 1.31D-02 EMaxC= 1.00D-01 BMatC= 1.22D-02 BMatP= 1.47D-01
 IDIUse=3 WtCom= 8.69D-01 WtEn= 1.31D-01
 Coeff-Com:  0.414D-01 0.959D+00
 Coeff-En:   0.575D+00 0.425D+00
 Coeff:      0.111D+00 0.889D+00
 Gap=     0.099 Goal=   None    Shift=    0.000
 RMSDP=1.51D-01 MaxDP=3.20D+00 DE= 2.07D-02 OVMax= 4.84D-01

 Cycle   3  Pass 0  IDiag  1:
 E= -150.887641183843     Delta-E=       -0.139495416979 Rises=F Damp=F
 DIIS: error= 2.12D-02 at cycle   3 NSaved=   3.
 NSaved= 3 IEnMin= 3 EnMin= -150.887641183843     IErMin= 2 ErrMin= 1.31D-02
 ErrMax= 2.12D-02 EMaxC= 1.00D-01 BMatC= 3.04D-02 BMatP= 1.22D-02
 IDIUse=2 WtCom= 0.00D+00 WtEn= 1.00D+00
 Coeff-En:   0.000D+00 0.000D+00 0.100D+01
 Coeff:      0.000D+00 0.000D+00 0.100D+01
 Gap=     0.094 Goal=   None    Shift=    0.000
 RMSDP=1.43D-02 MaxDP=1.62D-01 DE=-1.39D-01 OVMax= 1.53D-01

 Cycle   4  Pass 0  IDiag  1:
 E= -150.818181108173     Delta-E=        0.069460075670 Rises=F Damp=F
 DIIS: error= 3.50D-02 at cycle   4 NSaved=   4.
 NSaved= 4 IEnMin= 3 EnMin= -150.887641183843     IErMin= 2 ErrMin= 1.31D-02
 ErrMax= 3.50D-02 EMaxC= 1.00D-01 BMatC= 1.25D-01 BMatP= 1.22D-02
 IDIUse=2 WtCom= 0.00D+00 WtEn= 1.00D+00
 Coeff-En:   0.000D+00 0.000D+00 0.751D+00 0.249D+00
 Coeff:      0.000D+00 0.000D+00 0.751D+00 0.249D+00
 Gap=     0.124 Goal=   None    Shift=    0.000
 RMSDP=7.73D-03 MaxDP=9.54D-02 DE= 6.95D-02 OVMax= 8.43D-02

 Cycle   5  Pass 0  IDiag  1:
 E= -150.908324753533     Delta-E=       -0.090143645360 Rises=F Damp=F
 DIIS: error= 8.27D-03 at cycle   5 NSaved=   5.
 NSaved= 5 IEnMin= 5 EnMin= -150.908324753533     IErMin= 5 ErrMin= 8.27D-03
 ErrMax= 8.27D-03 EMaxC= 1.00D-01 BMatC= 6.08D-03 BMatP= 1.22D-02
 IDIUse=3 WtCom= 9.17D-01 WtEn= 8.27D-02
 Coeff-Com: -0.317D-01 0.382D-01 0.203D+00-0.127D+00 0.918D+00
 Coeff-En:   0.000D+00 0.000D+00 0.160D+00 0.000D+00 0.840D+00
 Coeff:     -0.290D-01 0.350D-01 0.200D+00-0.117D+00 0.911D+00
 Gap=     0.142 Goal=   None    Shift=    0.000
 RMSDP=1.90D-03 MaxDP=1.63D-02 DE=-9.01D-02 OVMax= 2.15D-02

 Cycle   6  Pass 0  IDiag  1:
 E= -150.912644072194     Delta-E=       -0.004319318661 Rises=F Damp=F
 DIIS: error= 1.18D-03 at cycle   6 NSaved=   6.
 NSaved= 6 IEnMin= 6 EnMin= -150.912644072194     IErMin= 6 ErrMin= 1.18D-03
 ErrMax= 1.18D-03 EMaxC= 1.00D-01 BMatC= 9.96D-05 BMatP= 6.08D-03
 IDIUse=3 WtCom= 9.88D-01 WtEn= 1.18D-02
 Coeff-Com: -0.185D-03-0.107D-01 0.106D-01-0.114D-01 0.185D+00 0.827D+00
 Coeff-En:   0.000D+00 0.000D+00 0.000D+00 0.000D+00 0.000D+00 0.100D+01
 Coeff:     -0.182D-03-0.106D-01 0.105D-01-0.112D-01 0.183D+00 0.829D+00
 Gap=     0.140 Goal=   None    Shift=    0.000
 RMSDP=3.48D-04 MaxDP=3.48D-03 DE=-4.32D-03 OVMax= 3.31D-03

 Cycle   7  Pass 0  IDiag  1:
 E= -150.912711344641     Delta-E=       -0.000067272447 Rises=F Damp=F
 DIIS: error= 2.92D-04 at cycle   7 NSaved=   7.
 NSaved= 7 IEnMin= 7 EnMin= -150.912711344641     IErMin= 7 ErrMin= 2.92D-04
 ErrMax= 2.92D-04 EMaxC= 1.00D-01 BMatC= 7.02D-06 BMatP= 9.96D-05
 IDIUse=3 WtCom= 9.97D-01 WtEn= 2.92D-03
 Coeff-Com:  0.294D-02-0.225D-02 0.720D-02-0.461D-02 0.409D-01 0.149D+00
 Coeff-Com:  0.807D+00
 Coeff-En:   0.000D+00 0.000D+00 0.000D+00 0.000D+00 0.000D+00 0.315D-01
 Coeff-En:   0.968D+00
 Coeff:      0.293D-02-0.224D-02 0.718D-02-0.460D-02 0.408D-01 0.148D+00
 Coeff:      0.808D+00
 Gap=     0.141 Goal=   None    Shift=    0.000
 RMSDP=8.69D-05 MaxDP=7.74D-04 DE=-6.73D-05 OVMax= 8.24D-04

 Cycle   8  Pass 0  IDiag  1:
 E= -150.912717636449     Delta-E=       -0.000006291808 Rises=F Damp=F
 DIIS: error= 5.66D-05 at cycle   8 NSaved=   8.
 NSaved= 8 IEnMin= 8 EnMin= -150.912717636449     IErMin= 8 ErrMin= 5.66D-05
 ErrMax= 5.66D-05 EMaxC= 1.00D-01 BMatC= 2.81D-07 BMatP= 7.02D-06
 IDIUse=1 WtCom= 1.00D+00 WtEn= 0.00D+00
 Coeff-Com:  0.691D-03-0.405D-03 0.209D-02-0.198D-02 0.744D-02-0.179D-01
 Coeff-Com:  0.204D-01 0.990D+00
 Coeff:      0.691D-03-0.405D-03 0.209D-02-0.198D-02 0.744D-02-0.179D-01
 Coeff:      0.204D-01 0.990D+00
 Gap=     0.141 Goal=   None    Shift=    0.000
 RMSDP=1.71D-05 MaxDP=1.44D-04 DE=-6.29D-06 OVMax= 1.66D-04

 Cycle   9  Pass 0  IDiag  1:
 E= -150.912717877144     Delta-E=       -0.000000240694 Rises=F Damp=F
 DIIS: error= 1.28D-05 at cycle   9 NSaved=   9.
 NSaved= 9 IEnMin= 9 EnMin= -150.912717877144     IErMin= 9 ErrMin= 1.28D-05
 ErrMax= 1.28D-05 EMaxC= 1.00D-01 BMatC= 1.42D-08 BMatP= 2.81D-07
 IDIUse=1 WtCom= 1.00D+00 WtEn= 0.00D+00
 Coeff-Com:  0.130D-03-0.121D-03 0.294D-03-0.223D-03 0.347D-03-0.767D-02
 Coeff-Com: -0.278D-01 0.792D-01 0.956D+00
 Coeff:      0.130D-03-0.121D-03 0.294D-03-0.223D-03 0.347D-03-0.767D-02
 Coeff:     -0.278D-01 0.792D-01 0.956D+00
 Gap=     0.141 Goal=   None    Shift=    0.000
 RMSDP=3.39D-06 MaxDP=2.92D-05 DE=-2.41D-07 OVMax= 3.51D-05

 Initial convergence to 1.0D-05 achieved.  Increase integral accuracy.
 Cycle  10  Pass 1  IDiag  1:
 E= -150.912705724836     Delta-E=        0.000012152307 Rises=F Damp=F
 DIIS: error= 1.04D-05 at cycle   1 NSaved=   1.
 NSaved= 1 IEnMin= 1 EnMin= -150.912705724836     IErMin= 1 ErrMin= 1.04D-05
 ErrMax= 1.04D-05 EMaxC= 1.00D-01 BMatC= 3.52D-09 BMatP= 3.52D-09
 IDIUse=1 WtCom= 1.00D+00 WtEn= 0.00D+00
 Coeff-Com:  0.100D+01
 Coeff:      0.100D+01
 Gap=     0.141 Goal=   None    Shift=    0.000
 RMSDP=3.39D-06 MaxDP=2.92D-05 DE= 1.22D-05 OVMax= 8.37D-05

 Cycle  11  Pass 1  IDiag  1:
 E= -150.912705731835     Delta-E=       -0.000000006999 Rises=F Damp=F
 DIIS: error= 6.43D-06 at cycle   2 NSaved=   2.
 NSaved= 2 IEnMin= 2 EnMin= -150.912705731835     IErMin= 2 ErrMin= 6.43D-06
 ErrMax= 6.43D-06 EMaxC= 1.00D-01 BMatC= 3.34D-09 BMatP= 3.52D-09
 IDIUse=1 WtCom= 1.00D+00 WtEn= 0.00D+00
 Coeff-Com:  0.491D+00 0.509D+00
 Coeff:      0.491D+00 0.509D+00
 Gap=     0.141 Goal=   None    Shift=    0.000
 RMSDP=2.53D-06 MaxDP=2.62D-05 DE=-7.00D-09 OVMax= 2.79D-05

 Cycle  12  Pass 1  IDiag  1:
 E= -150.912705734050     Delta-E=       -0.000000002215 Rises=F Damp=F
 DIIS: error= 3.47D-06 at cycle   3 NSaved=   3.
 NSaved= 3 IEnMin= 3 EnMin= -150.912705734050     IErMin= 3 ErrMin= 3.47D-06
 ErrMax= 3.47D-06 EMaxC= 1.00D-01 BMatC= 8.64D-10 BMatP= 3.34D-09
 IDIUse=1 WtCom= 1.00D+00 WtEn= 0.00D+00
 Coeff-Com: -0.435D-01 0.335D+00 0.708D+00
 Coeff:     -0.435D-01 0.335D+00 0.708D+00
 Gap=     0.141 Goal=   None    Shift=    0.000
 RMSDP=1.00D-06 MaxDP=1.08D-05 DE=-2.21D-09 OVMax= 1.05D-05

 Cycle  13  Pass 1  IDiag  1:
 E= -150.912705734744     Delta-E=       -0.000000000693 Rises=F Damp=F
 DIIS: error= 3.45D-07 at cycle   4 NSaved=   4.
 NSaved= 4 IEnMin= 4 EnMin= -150.912705734744     IErMin= 4 ErrMin= 3.45D-07
 ErrMax= 3.45D-07 EMaxC= 1.00D-01 BMatC= 1.22D-11 BMatP= 8.64D-10
 IDIUse=1 WtCom= 1.00D+00 WtEn= 0.00D+00
 Coeff-Com: -0.177D-01 0.135D+00 0.255D+00 0.628D+00
 Coeff:     -0.177D-01 0.135D+00 0.255D+00 0.628D+00
 Gap=     0.141 Goal=   None    Shift=    0.000
 RMSDP=1.50D-07 MaxDP=1.85D-06 DE=-6.93D-10 OVMax= 1.91D-06

 Cycle  14  Pass 1  IDiag  1:
 E= -150.912705734751     Delta-E=       -0.000000000007 Rises=F Damp=F
 DIIS: error= 3.17D-07 at cycle   5 NSaved=   5.
 NSaved= 5 IEnMin= 5 EnMin= -150.912705734751     IErMin= 5 ErrMin= 3.17D-07
 ErrMax= 3.17D-07 EMaxC= 1.00D-01 BMatC= 5.92D-12 BMatP= 1.22D-11
 IDIUse=1 WtCom= 1.00D+00 WtEn= 0.00D+00
 Coeff-Com: -0.476D-02 0.150D-01 0.128D-02 0.418D+00 0.570D+00
 Coeff:     -0.476D-02 0.150D-01 0.128D-02 0.418D+00 0.570D+00
 Gap=     0.141 Goal=   None    Shift=    0.000
 RMSDP=5.58D-08 MaxDP=6.07D-07 DE=-6.99D-12 OVMax= 6.98D-07

 Cycle  15  Pass 1  IDiag  1:
 E= -150.912705734755     Delta-E=       -0.000000000004 Rises=F Damp=F
 DIIS: error= 1.23D-08 at cycle   6 NSaved=   6.
 NSaved= 6 IEnMin= 6 EnMin= -150.912705734755     IErMin= 6 ErrMin= 1.23D-08
 ErrMax= 1.23D-08 EMaxC= 1.00D-01 BMatC= 1.93D-14 BMatP= 5.92D-12
 IDIUse=1 WtCom= 1.00D+00 WtEn= 0.00D+00
 Coeff-Com:  0.850D-03-0.603D-02-0.163D-01 0.103D-01 0.311D-01 0.980D+00
 Coeff:      0.850D-03-0.603D-02-0.163D-01 0.103D-01 0.311D-01 0.980D+00
 Gap=     0.141 Goal=   None    Shift=    0.000
 RMSDP=1.86D-08 MaxDP=1.81D-07 DE=-4.32D-12 OVMax= 2.44D-07

 Cycle  16  Pass 1  IDiag  1:
 E= -150.912705734755     Delta-E=       -0.000000000000 Rises=F Damp=F
 DIIS: error= 4.20D-09 at cycle   7 NSaved=   7.
 NSaved= 7 IEnMin= 7 EnMin= -150.912705734755     IErMin= 7 ErrMin= 4.20D-09
 ErrMax= 4.20D-09 EMaxC= 1.00D-01 BMatC= 1.24D-15 BMatP= 1.93D-14
 IDIUse=1 WtCom= 1.00D+00 WtEn= 0.00D+00
 Coeff-Com:  0.131D-03-0.789D-03-0.721D-03-0.743D-02-0.206D-01 0.754D-01
 Coeff-Com:  0.954D+00
 Coeff:      0.131D-03-0.789D-03-0.721D-03-0.743D-02-0.206D-01 0.754D-01
 Coeff:      0.954D+00
 Gap=     0.141 Goal=   None    Shift=    0.000
 RMSDP=2.24D-09 MaxDP=2.07D-08 DE=-1.71D-13 OVMax= 4.03D-08

 SCF Done:  E(RB3LYP) =  -150.912705735     A.U. after   16 cycles
             Convg  =    0.2241D-08             -V/T =  2.0050
 KE= 1.501615138192D+02 PE=-4.299715233388D+02 EE= 9.522759937519D+01
 Leave Link  502 at Mon Sep 16 17:14:00 2024, MaxMem=   13107200 cpu:       4.1
 (Enter /programs/64bit/g09/g09-gfortran/bin/l601.exe)
 Copying SCF densities to generalized density rwf, IOpCl= 0 IROHF=0.

 **********************************************************************

            Population analysis using the SCF density.

 **********************************************************************

 Orbital symmetries:
       Occupied  (A') (A') (A') (A') (A') (A') (A") (A') (A")
       Virtual   (A') (A') (A') (A") (A') (A') (A") (A') (A') (A')
                 (A') (A') (A") (A') (A') (A') (A") (A') (A") (A')
                 (A") (A') (A') (A") (A') (A') (A') (A") (A") (A')
                 (A') (A') (A') (A')
 The electronic state is 1-A'.
 Alpha  occ. eigenvalues --  -18.93226 -18.82213  -0.88690  -0.51686  -0.23906
 Alpha  occ. eigenvalues --   -0.15014  -0.14352   0.06655   0.10692
 Alpha virt. eigenvalues --    0.24769   0.31093   0.34316   0.35406   0.40525
 Alpha virt. eigenvalues --    0.41621   0.42197   0.47403   0.54298   0.56753
 Alpha virt. eigenvalues --    1.18530   1.26983   1.36979   1.38969   1.41638
 Alpha virt. eigenvalues --    1.46480   1.47289   1.51709   1.76372   1.78645
 Alpha virt. eigenvalues --    1.86478   1.90356   2.13767   2.18003   2.49748
 Alpha virt. eigenvalues --    2.62479   2.81869   2.87853   2.93182   3.24728
 Alpha virt. eigenvalues --    3.28958   3.68645   4.07326   4.47422
          Condensed to atoms (all electrons):
              1          2          3
     1  O    8.654240  -0.465108   0.182761
     2  O   -0.465108   9.457538  -0.098821
     3  H    0.182761  -0.098821   0.650558
 Mulliken atomic charges:
              1
     1  O   -0.371894
     2  O   -0.893609
     3  H    0.265502
 Sum of Mulliken atomic charges =  -1.00000
 Mulliken charges with hydrogens summed into heavy atoms:
              1
     1  O   -0.106391
     2  O   -0.893609
 Sum of Mulliken charges with hydrogens summed into heavy atoms =  -1.00000
 Electronic spatial extent (au):  <R**2>=             63.3472
 Charge=             -1.0000 electrons
 Dipole moment (field-independent basis, Debye):
    X=             -1.6794    Y=             -2.7558    Z=             -0.0000  Tot=              3.2272
 Quadrupole moment (field-independent basis, Debye-Ang):
   XX=            -13.5349   YY=            -18.0243   ZZ=            -15.4648
   XY=              1.3990   XZ=             -0.0000   YZ=              0.0000
 Traceless Quadrupole moment (field-independent basis, Debye-Ang):
   XX=              2.1398   YY=             -2.3496   ZZ=              0.2099
   XY=              1.3990   XZ=             -0.0000   YZ=              0.0000
 Octapole moment (field-independent basis, Debye-Ang**2):
  XXX=             -1.8348  YYY=             -4.6979  ZZZ=             -0.0000  XYY=             -1.6846
  XXY=             -2.8161  XXZ=             -0.0000  XZZ=             -0.4095  YZZ=             -1.6224
  YYZ=             -0.0000  XYZ=             -0.0000
 Hexadecapole moment (field-independent basis, Debye-Ang**3):
 XXXX=            -18.3048 YYYY=            -56.0142 ZZZZ=            -19.1304 XXXY=             -0.4814
 XXXZ=             -0.0000 YYYX=              0.4335 YYYZ=              0.0000 ZZZX=             -0.0000
 ZZZY=             -0.0000 XXYY=            -13.4383 XXZZ=             -6.3760 YYZZ=            -15.0084
 XXYZ=              0.0000 YYXZ=             -0.0000 ZZXY=             -0.2761
 N-N= 3.366970440965D+01 E-N=-4.299715230034D+02  KE= 1.501615138192D+02
 Symmetry A'   KE= 1.410268065478D+02
 Symmetry A"   KE= 9.134707271370D+00
 No NMR shielding tensors so no spin-rotation constants.
 Leave Link  601 at Mon Sep 16 17:14:00 2024, MaxMem=   13107200 cpu:       0.3
 (Enter /programs/64bit/g09/g09-gfortran/bin/l701.exe)
 Compute integral first derivatives.
 ... and contract with generalized density number  0.
 Leave Link  701 at Mon Sep 16 17:14:00 2024, MaxMem=   13107200 cpu:       0.3
 (Enter /programs/64bit/g09/g09-gfortran/bin/l702.exe)
 L702 exits ... SP integral derivatives will be done elsewhere.
 Leave Link  702 at Mon Sep 16 17:14:00 2024, MaxMem=   13107200 cpu:       0.0
 (Enter /programs/64bit/g09/g09-gfortran/bin/l703.exe)
 Compute integral first derivatives, UseDBF=F ICtDFT=           0.
 Integral derivatives from FoFDir, PRISM(SPDF).
 Calling FoFJK, ICntrl=      2127 FMM=F ISym2X=1 I1Cent= 0 IOpClX= 0 NMat=1 NMatS=1 NMatT=0.
 FoFCou: FMM=F IPFlag=           0 FMFlag=      100000 FMFlg1=         800
         NFxFlg=           0 DoJE=F BraDBF=F KetDBF=F FulRan=T
         Omega=  0.000000  0.000000  1.000000  0.000000  0.000000 ICntrl=    2127 IOpCl=  0
         NMat0=    1 NMatS0=    1 NMatT0=    0 NMatD0=    1 NMtDS0=    0 NMtDT0=    0
         I1Cent=           0 NGrid=           0.
 Petite list used in FoFCou.
 Leave Link  703 at Mon Sep 16 17:14:02 2024, MaxMem=   13107200 cpu:       1.5
 (Enter /programs/64bit/g09/g09-gfortran/bin/l716.exe)
 Dipole        =-6.60743453D-01-1.08420687D+00-1.42952306D-30
 ***** Axes restored to original set *****
 -------------------------------------------------------------------
 Center     Atomic                   Forces (Hartrees/Bohr)
 Number     Number              X              Y              Z
 -------------------------------------------------------------------
      1        8          -0.028691878   -0.000000000   -0.193014922
      2        8          -0.000378166    0.000000000    0.203839812
      3        1           0.029070044    0.000000000   -0.010824891
 -------------------------------------------------------------------
 Cartesian Forces:  Max     0.203839812 RMS     0.094628538
 Leave Link  716 at Mon Sep 16 17:14:02 2024, MaxMem=   13107200 cpu:       0.0
 (Enter /programs/64bit/g09/g09-gfortran/bin/l103.exe)

 GradGradGradGradGradGradGradGradGradGradGradGradGradGradGradGradGradGrad
 Berny optimization.
 Internal  Forces:  Max     0.203837718 RMS     0.119041739
 Search for a local minimum.
 Step number   1 out of a maximum of   20
 All quantities printed in internal units (Hartrees-Bohrs-Radians)
 RMS Force = .11904D+00 SwitMx=.10000D-02 MixMth= 1
 Mixed Optimization -- RFO/linear search
 Second derivative matrix not updated -- first step.
 The second derivative matrix:
                          R1        R2        A1
           R1           0.79649
           R2           0.00000   0.57681
           A1           0.00000   0.00000   0.16000
     Eigenvalues ---    0.16000   0.57681   0.79649
 RFO step:  Lambda=-5.05884242D-02 EMin= 1.60000000D-01
 Linear search not attempted -- first point.
 Iteration  1 RMS(Cart)=  0.10059516 RMS(Int)=  0.02346080
 Iteration  2 RMS(Cart)=  0.01872629 RMS(Int)=  0.00002988
 Iteration  3 RMS(Cart)=  0.00003251 RMS(Int)=  0.00000000
 Iteration  4 RMS(Cart)=  0.00000000 RMS(Int)=  0.00000000
 ClnCor:  largest displacement from symmetrization is 3.53D-15 for atom     3.
 Variable       Old X    -DE/DX   Delta X   Delta X   Delta X     New X
                                 (Linear)    (Quad)   (Total)
    R1        2.38105   0.20384   0.00000   0.24064   0.24064   2.62169
    R2        1.79524   0.03102   0.00000   0.04944   0.04944   1.84468
    A1        1.91063   0.00092   0.00000   0.00435   0.00435   1.91498
         Item               Value     Threshold  Converged?
 Maximum Force            0.203838     0.000450     NO 
 RMS     Force            0.119042     0.000300     NO 
 Maximum Displacement     0.159560     0.001800     NO 
 RMS     Displacement     0.118994     0.001200     NO 
 Predicted change in Energy=-2.682121D-02
 GradGradGradGradGradGradGradGradGradGradGradGradGradGradGradGradGradGrad

 Leave Link  103 at Mon Sep 16 17:14:02 2024, MaxMem=   13107200 cpu:       0.0
 (Enter /programs/64bit/g09/g09-gfortran/bin/l202.exe)
                          Input orientation:                          
 ---------------------------------------------------------------------
 Center     Atomic      Atomic             Coordinates (Angstroms)
 Number     Number       Type             X           Y           Z
 ---------------------------------------------------------------------
      1          8           0       -0.002437   -0.000000   -0.042749
      2          8           0       -0.023192    0.000000    1.344435
      3          1           0        0.921298    0.000000   -0.358353
 ---------------------------------------------------------------------
                    Distance matrix (angstroms):
                    1          2          3
     1  O    0.000000
     2  O    1.387340   0.000000
     3  H    0.976162   1.947191   0.000000
 Stoichiometry    HO2(1-)
 Framework group  CS[SG(HO2)]
 Deg. of freedom     3
 Full point group                 CS      NOp   2
 Largest Abelian subgroup         CS      NOp   2
 Largest concise Abelian subgroup C1      NOp   1
                         Standard orientation:                         
 ---------------------------------------------------------------------
 Center     Atomic      Atomic             Coordinates (Angstroms)
 Number     Number       Type             X           Y           Z
 ---------------------------------------------------------------------
      1          8           0        0.054054   -0.633490   -0.000000
      2          8           0        0.054054    0.753850    0.000000
      3          1           0       -0.864857   -0.962878   -0.000000
 ---------------------------------------------------------------------
 Rotational constants (GHZ):    655.4139746     30.6860418     29.3135988
 Leave Link  202 at Mon Sep 16 17:14:02 2024, MaxMem=   13107200 cpu:       0.0
 (Enter /programs/64bit/g09/g09-gfortran/bin/l301.exe)
 Standard basis: 6-31+G(d,p) (6D, 7F)
 Ernie: Thresh=  0.10000D-02 Tol=  0.10000D-05 Strict=F.
 There are    32 symmetry adapted basis functions of A'  symmetry.
 There are    11 symmetry adapted basis functions of A"  symmetry.
 Integral buffers will be    131072 words long.
 Raffenetti 2 integral format.
 Two-electron integral symmetry is turned on.
    43 basis functions,    71 primitive gaussians,    43 cartesian basis functions
     9 alpha electrons        9 beta electrons
       nuclear repulsion energy        30.9226286689 Hartrees.
 IExCor=  402 DFT=T Ex+Corr=B3LYP ExCW=0 ScaHFX=  0.200000
 ScaDFX=  0.800000  0.720000  1.000000  0.810000 ScalE2=  1.000000  1.000000
 IRadAn=      0 IRanWt=     -1 IRanGd=            0 ICorTp=0
 NAtoms=    3 NActive=    3 NUniq=    3 SFac= 7.50D-01 NAtFMM=   80 NAOKFM=F Big=F
 Leave Link  301 at Mon Sep 16 17:14:02 2024, MaxMem=   13107200 cpu:       0.1
 (Enter /programs/64bit/g09/g09-gfortran/bin/l302.exe)
 NPDir=0 NMtPBC=     1 NCelOv=     1 NCel=       1 NClECP=     1 NCelD=      1
         NCelK=      1 NCelE2=     1 NClLst=     1 CellRange=     0.0.
 One-electron integrals computed using PRISM.
 NBasis=    43 RedAO= T  NBF=    32    11
 NBsUse=    43 1.00D-06 NBFU=    32    11
 Precomputing XC quadrature grid using
 IXCGrd= 2 IRadAn=           0 IRanWt=          -1 IRanGd=           0 AccXCQ= 1.00D-10.
 NRdTot=     189 NPtTot=       23968 NUsed=       25343 NTot=       25375
 NSgBfM=    43    43    43    43    43 NAtAll=     3     3.
 Leave Link  302 at Mon Sep 16 17:14:03 2024, MaxMem=   13107200 cpu:       0.3
 (Enter /programs/64bit/g09/g09-gfortran/bin/l303.exe)
 DipDrv:  MaxL=1.
 Leave Link  303 at Mon Sep 16 17:14:03 2024, MaxMem=   13107200 cpu:       0.1
 (Enter /programs/64bit/g09/g09-gfortran/bin/l401.exe)
 Initial guess read from the read-write file.
 B after Tr=     0.000000    0.000000    0.000000
         Rot=    1.000000    0.000000    0.000000    0.000000 Ang=   0.00 deg.
 Guess basis will be translated and rotated to current coordinates.
 Initial guess orbital symmetries:
       Occupied  (A') (A') (A') (A') (A') (A') (A") (A') (A")
       Virtual   (A') (A') (A') (A") (A') (A') (A") (A') (A') (A')
                 (A') (A') (A") (A') (A') (A') (A") (A') (A") (A')
                 (A") (A') (A') (A") (A') (A') (A') (A") (A") (A')
                 (A') (A') (A') (A')
 The electronic state of the initial guess is 1-A'.
 Generating alternative initial guess.
 Harris functional with IExCor=  402 diagonalized for initial guess.
 ExpMin= 8.45D-02 ExpMax= 5.48D+03 ExpMxC= 8.25D+02 IAcc=2 IRadAn=         0 AccDes= 0.00D+00
 HarFok:  IExCor=  402 AccDes= 0.00D+00 IRadAn=         0 IDoV= 1
 ScaDFX=  1.000000  1.000000  1.000000  1.000000
 FoFCou: FMM=F IPFlag=           0 FMFlag=      100000 FMFlg1=           0
         NFxFlg=           0 DoJE=T BraDBF=F KetDBF=T FulRan=T
         Omega=  0.000000  0.000000  1.000000  0.000000  0.000000 ICntrl=     500 IOpCl=  0
         NMat0=    1 NMatS0=    1 NMatT0=    0 NMatD0=    1 NMtDS0=    0 NMtDT0=    0
         I1Cent=           4 NGrid=           0.
 Petite list used in FoFCou.
 Harris En= -151.161473197691    
 Leave Link  401 at Mon Sep 16 17:14:04 2024, MaxMem=   13107200 cpu:       0.7
 (Enter /programs/64bit/g09/g09-gfortran/bin/l502.exe)
 Closed shell SCF:
 Requested convergence on RMS density matrix=1.00D-08 within 128 cycles.
 Requested convergence on MAX density matrix=1.00D-06.
 Requested convergence on             energy=1.00D-06.
 No special actions if energy rises.
 Using DIIS extrapolation, IDIIS=  1040.
 Integral symmetry usage will be decided dynamically.
        25303 words used for storage of precomputed grid.
 Keep R1 ints in memory in canonical form, NReq=1356912.
 IEnd=       49587 IEndB=       49587 NGot=    13107200 MDV=    12628187
 LenX=    12628187 LenY=    12625897
 Symmetry not used in FoFDir.
 MinBra= 0 MaxBra= 2 Meth= 1.
 IRaf=       0 NMat=   1 IRICut=       1 DoRegI=T DoRafI=F ISym2E= 0 JSym2E=0.
 Integral accuracy reduced to 1.0D-05 until final iterations.

 Cycle   1  Pass 0  IDiag  1:
 E= -150.931753510107    
 DIIS: error= 1.06D-02 at cycle   1 NSaved=   1.
 NSaved= 1 IEnMin= 1 EnMin= -150.931753510107     IErMin= 1 ErrMin= 1.06D-02
 ErrMax= 1.06D-02 EMaxC= 1.00D-01 BMatC= 7.52D-03 BMatP= 7.52D-03
 IDIUse=3 WtCom= 8.94D-01 WtEn= 1.06D-01
 Coeff-Com:  0.100D+01
 Coeff-En:   0.100D+01
 Coeff:      0.100D+01
 Recover alternate guess density for next cycle.
 RMSDP=1.37D-02 MaxDP=1.23D-01              OVMax= 0.00D+00

 Cycle   2  Pass 0  IDiag  1:
 E= -150.820286908386     Delta-E=        0.111466601721 Rises=F Damp=F
 Switch densities from cycles 1 and 2 for lowest energy.
 DIIS: error= 5.09D-02 at cycle   2 NSaved=   2.
 NSaved= 2 IEnMin= 1 EnMin= -150.931753510107     IErMin= 1 ErrMin= 1.06D-02
 ErrMax= 5.09D-02 EMaxC= 1.00D+00 BMatC= 1.23D-01 BMatP= 7.52D-03
 IDIUse=1 WtCom= 1.00D+00 WtEn= 0.00D+00
 Coeff-Com:  0.951D+00 0.487D-01
 Coeff:      0.951D+00 0.487D-01
 Gap=     0.252 Goal=   None    Shift=    0.000
 RMSDP=3.23D-03 MaxDP=2.52D-02 DE= 1.11D-01 OVMax= 3.49D-02

 Cycle   3  Pass 0  IDiag  1:
 E= -150.943130941464     Delta-E=       -0.122844033078 Rises=F Damp=F
 DIIS: error= 2.54D-03 at cycle   3 NSaved=   3.
 NSaved= 3 IEnMin= 3 EnMin= -150.943130941464     IErMin= 3 ErrMin= 2.54D-03
 ErrMax= 2.54D-03 EMaxC= 1.00D+00 BMatC= 4.47D-04 BMatP= 7.52D-03
 IDIUse=1 WtCom= 1.00D+00 WtEn= 0.00D+00
 Coeff-Com: -0.485D-01 0.541D-01 0.994D+00
 Coeff:     -0.485D-01 0.541D-01 0.994D+00
 Gap=     0.160 Goal=   None    Shift=    0.000
 RMSDP=7.98D-04 MaxDP=6.73D-03 DE=-1.23D-01 OVMax= 9.03D-03

 Cycle   4  Pass 0  IDiag  1:
 E= -150.943487471359     Delta-E=       -0.000356529895 Rises=F Damp=F
 DIIS: error= 1.20D-03 at cycle   4 NSaved=   4.
 NSaved= 4 IEnMin= 4 EnMin= -150.943487471359     IErMin= 4 ErrMin= 1.20D-03
 ErrMax= 1.20D-03 EMaxC= 1.00D+00 BMatC= 9.04D-05 BMatP= 4.47D-04
 IDIUse=1 WtCom= 1.00D+00 WtEn= 0.00D+00
 Coeff-Com: -0.257D-01 0.304D-01 0.525D+00 0.470D+00
 Coeff:     -0.257D-01 0.304D-01 0.525D+00 0.470D+00
 Gap=     0.159 Goal=   None    Shift=    0.000
 RMSDP=2.08D-04 MaxDP=2.54D-03 DE=-3.57D-04 OVMax= 3.36D-03

 Cycle   5  Pass 0  IDiag  1:
 E= -150.943539914929     Delta-E=       -0.000052443570 Rises=F Damp=F
 DIIS: error= 5.08D-04 at cycle   5 NSaved=   5.
 NSaved= 5 IEnMin= 5 EnMin= -150.943539914929     IErMin= 5 ErrMin= 5.08D-04
 ErrMax= 5.08D-04 EMaxC= 1.00D+00 BMatC= 2.03D-05 BMatP= 9.04D-05
 IDIUse=1 WtCom= 1.00D+00 WtEn= 0.00D+00
 Coeff-Com: -0.254D-02 0.433D-02 0.854D-02 0.310D+00 0.680D+00
 Coeff:     -0.254D-02 0.433D-02 0.854D-02 0.310D+00 0.680D+00
 Gap=     0.160 Goal=   None    Shift=    0.000
 RMSDP=7.44D-05 MaxDP=7.91D-04 DE=-5.24D-05 OVMax= 1.07D-03

 Cycle   6  Pass 0  IDiag  1:
 E= -150.943554371872     Delta-E=       -0.000014456944 Rises=F Damp=F
 DIIS: error= 4.75D-05 at cycle   6 NSaved=   6.
 NSaved= 6 IEnMin= 6 EnMin= -150.943554371872     IErMin= 6 ErrMin= 4.75D-05
 ErrMax= 4.75D-05 EMaxC= 1.00D+00 BMatC= 1.27D-07 BMatP= 2.03D-05
 IDIUse=1 WtCom= 1.00D+00 WtEn= 0.00D+00
 Coeff-Com:  0.846D-04 0.316D-03-0.134D-01 0.852D-01 0.200D+00 0.728D+00
 Coeff:      0.846D-04 0.316D-03-0.134D-01 0.852D-01 0.200D+00 0.728D+00
 Gap=     0.160 Goal=   None    Shift=    0.000
 RMSDP=8.11D-06 MaxDP=7.41D-05 DE=-1.45D-05 OVMax= 1.08D-04

 Initial convergence to 1.0D-05 achieved.  Increase integral accuracy.
 Cycle   7  Pass 1  IDiag  1:
 E= -150.943528915873     Delta-E=        0.000025455999 Rises=F Damp=F
 DIIS: error= 6.62D-06 at cycle   1 NSaved=   1.
 NSaved= 1 IEnMin= 1 EnMin= -150.943528915873     IErMin= 1 ErrMin= 6.62D-06
 ErrMax= 6.62D-06 EMaxC= 1.00D+00 BMatC= 5.50D-09 BMatP= 5.50D-09
 IDIUse=1 WtCom= 1.00D+00 WtEn= 0.00D+00
 Coeff-Com:  0.100D+01
 Coeff:      0.100D+01
 Gap=     0.160 Goal=   None    Shift=    0.000
 RMSDP=8.11D-06 MaxDP=7.41D-05 DE= 2.55D-05 OVMax= 7.30D-05

 Cycle   8  Pass 1  IDiag  1:
 E= -150.943528916389     Delta-E=       -0.000000000516 Rises=F Damp=F
 DIIS: error= 1.19D-05 at cycle   2 NSaved=   2.
 NSaved= 2 IEnMin= 2 EnMin= -150.943528916389     IErMin= 1 ErrMin= 6.62D-06
 ErrMax= 1.19D-05 EMaxC= 1.00D+00 BMatC= 1.08D-08 BMatP= 5.50D-09
 IDIUse=1 WtCom= 1.00D+00 WtEn= 0.00D+00
 Coeff-Com:  0.599D+00 0.401D+00
 Coeff:      0.599D+00 0.401D+00
 Gap=     0.160 Goal=   None    Shift=    0.000
 RMSDP=2.22D-06 MaxDP=2.20D-05 DE=-5.16D-10 OVMax= 3.20D-05

 Cycle   9  Pass 1  IDiag  1:
 E= -150.943528923757     Delta-E=       -0.000000007368 Rises=F Damp=F
 DIIS: error= 3.26D-06 at cycle   3 NSaved=   3.
 NSaved= 3 IEnMin= 3 EnMin= -150.943528923757     IErMin= 3 ErrMin= 3.26D-06
 ErrMax= 3.26D-06 EMaxC= 1.00D+00 BMatC= 8.35D-10 BMatP= 5.50D-09
 IDIUse=1 WtCom= 1.00D+00 WtEn= 0.00D+00
 Coeff-Com: -0.107D-01 0.212D+00 0.798D+00
 Coeff:     -0.107D-01 0.212D+00 0.798D+00
 Gap=     0.160 Goal=   None    Shift=    0.000
 RMSDP=6.73D-07 MaxDP=8.89D-06 DE=-7.37D-09 OVMax= 8.82D-06

 Cycle  10  Pass 1  IDiag  1:
 E= -150.943528924378     Delta-E=       -0.000000000621 Rises=F Damp=F
 DIIS: error= 3.50D-07 at cycle   4 NSaved=   4.
 NSaved= 4 IEnMin= 4 EnMin= -150.943528924378     IErMin= 4 ErrMin= 3.50D-07
 ErrMax= 3.50D-07 EMaxC= 1.00D+00 BMatC= 6.90D-12 BMatP= 8.35D-10
 IDIUse=1 WtCom= 1.00D+00 WtEn= 0.00D+00
 Coeff-Com: -0.184D-01 0.550D-01 0.235D+00 0.728D+00
 Coeff:     -0.184D-01 0.550D-01 0.235D+00 0.728D+00
 Gap=     0.160 Goal=   None    Shift=    0.000
 RMSDP=9.40D-08 MaxDP=7.57D-07 DE=-6.21D-10 OVMax= 1.24D-06

 Cycle  11  Pass 1  IDiag  1:
 E= -150.943528924383     Delta-E=       -0.000000000005 Rises=F Damp=F
 DIIS: error= 2.13D-07 at cycle   5 NSaved=   5.
 NSaved= 5 IEnMin= 5 EnMin= -150.943528924383     IErMin= 5 ErrMin= 2.13D-07
 ErrMax= 2.13D-07 EMaxC= 1.00D+00 BMatC= 2.30D-12 BMatP= 6.90D-12
 IDIUse=1 WtCom= 1.00D+00 WtEn= 0.00D+00
 Coeff-Com: -0.937D-02 0.241D-01 0.105D+00 0.434D+00 0.446D+00
 Coeff:     -0.937D-02 0.241D-01 0.105D+00 0.434D+00 0.446D+00
 Gap=     0.160 Goal=   None    Shift=    0.000
 RMSDP=4.05D-08 MaxDP=4.09D-07 DE=-4.55D-12 OVMax= 4.76D-07

 Cycle  12  Pass 1  IDiag  1:
 E= -150.943528924384     Delta-E=       -0.000000000002 Rises=F Damp=F
 DIIS: error= 2.83D-08 at cycle   6 NSaved=   6.
 NSaved= 6 IEnMin= 6 EnMin= -150.943528924384     IErMin= 6 ErrMin= 2.83D-08
 ErrMax= 2.83D-08 EMaxC= 1.00D+00 BMatC= 5.21D-14 BMatP= 2.30D-12
 IDIUse=1 WtCom= 1.00D+00 WtEn= 0.00D+00
 Coeff-Com:  0.190D-03-0.267D-02-0.108D-01 0.898D-02 0.127D+00 0.877D+00
 Coeff:      0.190D-03-0.267D-02-0.108D-01 0.898D-02 0.127D+00 0.877D+00
 Gap=     0.160 Goal=   None    Shift=    0.000
 RMSDP=1.35D-08 MaxDP=1.67D-07 DE=-1.65D-12 OVMax= 1.65D-07

 Cycle  13  Pass 1  IDiag  1:
 E= -150.943528924384     Delta-E=       -0.000000000000 Rises=F Damp=F
 DIIS: error= 2.30D-09 at cycle   7 NSaved=   7.
 NSaved= 7 IEnMin= 7 EnMin= -150.943528924384     IErMin= 7 ErrMin= 2.30D-09
 ErrMax= 2.30D-09 EMaxC= 1.00D+00 BMatC= 5.73D-16 BMatP= 5.21D-14
 IDIUse=1 WtCom= 1.00D+00 WtEn= 0.00D+00
 Coeff-Com:  0.276D-03-0.910D-03-0.407D-02-0.105D-01 0.102D-01 0.118D+00
 Coeff-Com:  0.887D+00
 Coeff:      0.276D-03-0.910D-03-0.407D-02-0.105D-01 0.102D-01 0.118D+00
 Coeff:      0.887D+00
 Gap=     0.160 Goal=   None    Shift=    0.000
 RMSDP=1.82D-09 MaxDP=1.88D-08 DE=-1.42D-13 OVMax= 2.62D-08

 SCF Done:  E(RB3LYP) =  -150.943528924     A.U. after   13 cycles
             Convg  =    0.1815D-08             -V/T =  2.0076
 KE= 1.498098107035D+02 PE=-4.243492455575D+02 EE= 9.267327726070D+01
 Leave Link  502 at Mon Sep 16 17:14:07 2024, MaxMem=   13107200 cpu:       3.6
 (Enter /programs/64bit/g09/g09-gfortran/bin/l701.exe)
 Compute integral first derivatives.
 ... and contract with generalized density number  0.
 Leave Link  701 at Mon Sep 16 17:14:08 2024, MaxMem=   13107200 cpu:       0.3
 (Enter /programs/64bit/g09/g09-gfortran/bin/l702.exe)
 L702 exits ... SP integral derivatives will be done elsewhere.
 Leave Link  702 at Mon Sep 16 17:14:08 2024, MaxMem=   13107200 cpu:       0.0
 (Enter /programs/64bit/g09/g09-gfortran/bin/l703.exe)
 Compute integral first derivatives, UseDBF=F ICtDFT=           0.
 Integral derivatives from FoFDir, PRISM(SPDF).
 Calling FoFJK, ICntrl=      2127 FMM=F ISym2X=1 I1Cent= 0 IOpClX= 0 NMat=1 NMatS=1 NMatT=0.
 FoFCou: FMM=F IPFlag=           0 FMFlag=      100000 FMFlg1=         800
         NFxFlg=           0 DoJE=F BraDBF=F KetDBF=F FulRan=T
         Omega=  0.000000  0.000000  1.000000  0.000000  0.000000 ICntrl=    2127 IOpCl=  0
         NMat0=    1 NMatS0=    1 NMatT0=    0 NMatD0=    1 NMtDS0=    0 NMtDT0=    0
         I1Cent=           0 NGrid=           0.
 Petite list used in FoFCou.
 Leave Link  703 at Mon Sep 16 17:14:09 2024, MaxMem=   13107200 cpu:       1.6
 (Enter /programs/64bit/g09/g09-gfortran/bin/l716.exe)
 Dipole        =-6.78563043D-01-1.06491302D+00-1.01338469D-30
 ***** Axes restored to original set *****
 -------------------------------------------------------------------
 Center     Atomic                   Forces (Hartrees/Bohr)
 Number     Number              X              Y              Z
 -------------------------------------------------------------------
      1        8          -0.006053356   -0.000000000   -0.073046945
      2        8           0.005469342    0.000000000    0.063620676
      3        1           0.000584014    0.000000000    0.009426269
 -------------------------------------------------------------------
 Cartesian Forces:  Max     0.073046945 RMS     0.032556275
 Leave Link  716 at Mon Sep 16 17:14:09 2024, MaxMem=   13107200 cpu:       0.0
 (Enter /programs/64bit/g09/g09-gfortran/bin/l103.exe)

 GradGradGradGradGradGradGradGradGradGradGradGradGradGradGradGradGradGrad
 Berny optimization.
 Using GEDIIS/GDIIS optimizer.
 Internal  Forces:  Max     0.063529563 RMS     0.037968872
 Search for a local minimum.
 Step number   2 out of a maximum of   20
 All quantities printed in internal units (Hartrees-Bohrs-Radians)
 RMS Force = .37969D-01 SwitMx=.10000D-02 MixMth= 1
 Mixed Optimization -- RFO/linear search
 Update second derivatives using D2CorX and points    1    2
 DE= -3.08D-02 DEPred=-2.68D-02 R= 1.15D+00
 SS=  1.41D+00  RLast= 2.46D-01 DXNew= 5.0454D-01 7.3711D-01
 Trust test= 1.15D+00 RLast= 2.46D-01 DXMaxT set to 5.05D-01
 The second derivative matrix:
                          R1        R2        A1
           R1           0.57826
           R2           0.01747   0.59134
           A1           0.06727   0.01632   0.16885
 Use linear search instead of GDIIS.
     Eigenvalues ---    0.15766   0.57053   0.61026
 RFO step:  Lambda=-6.93830158D-03 EMin= 1.57662887D-01
 Quartic linear search produced a step of  0.95619.
 Iteration  1 RMS(Cart)=  0.11758613 RMS(Int)=  0.03491232
 Iteration  2 RMS(Cart)=  0.02449312 RMS(Int)=  0.00011928
 Iteration  3 RMS(Cart)=  0.00011558 RMS(Int)=  0.00000001
 Iteration  4 RMS(Cart)=  0.00000001 RMS(Int)=  0.00000000
 ClnCor:  largest displacement from symmetrization is 1.11D-16 for atom     3.
 Variable       Old X    -DE/DX   Delta X   Delta X   Delta X     New X
                                 (Linear)    (Quad)   (Total)
    R1        2.62169   0.06353   0.23009   0.03078   0.26088   2.88257
    R2        1.84468  -0.00249   0.04727  -0.02754   0.01974   1.86442
    A1        1.91498  -0.01681   0.00416  -0.19359  -0.18942   1.72556
         Item               Value     Threshold  Converged?
 Maximum Force            0.063530     0.000450     NO 
 RMS     Force            0.037969     0.000300     NO 
 Maximum Displacement     0.170279     0.001800     NO 
 RMS     Displacement     0.132032     0.001200     NO 
 Predicted change in Energy=-1.828195D-04
 GradGradGradGradGradGradGradGradGradGradGradGradGradGradGradGradGradGrad

 Leave Link  103 at Mon Sep 16 17:14:09 2024, MaxMem=   13107200 cpu:       0.0
 (Enter /programs/64bit/g09/g09-gfortran/bin/l202.exe)
                          Input orientation:                          
 ---------------------------------------------------------------------
 Center     Atomic      Atomic             Coordinates (Angstroms)
 Number     Number       Type             X           Y           Z
 ---------------------------------------------------------------------
      1          8           0       -0.040648   -0.000000   -0.132857
      2          8           0        0.007427    0.000000    1.391775
      3          1           0        0.928890    0.000000   -0.315585
 ---------------------------------------------------------------------
                    Distance matrix (angstroms):
                    1          2          3
     1  O    0.000000
     2  O    1.525389   0.000000
     3  H    0.986607   1.940147   0.000000
 Stoichiometry    HO2(1-)
 Framework group  CS[SG(HO2)]
 Deg. of freedom     3
 Full point group                 CS      NOp   2
 Largest Abelian subgroup         CS      NOp   2
 Largest concise Abelian subgroup C1      NOp   1
                         Standard orientation:                         
 ---------------------------------------------------------------------
 Center     Atomic      Atomic             Coordinates (Angstroms)
 Number     Number       Type             X           Y           Z
 ---------------------------------------------------------------------
      1          8           0        0.057342   -0.708884   -0.000000
      2          8           0        0.057342    0.816505   -0.000000
      3          1           0       -0.917473   -0.860965    0.000000
 ---------------------------------------------------------------------
 Rotational constants (GHZ):    569.4394415     25.9606372     24.8287014
 Leave Link  202 at Mon Sep 16 17:14:10 2024, MaxMem=   13107200 cpu:       0.0
 (Enter /programs/64bit/g09/g09-gfortran/bin/l301.exe)
 Standard basis: 6-31+G(d,p) (6D, 7F)
 Ernie: Thresh=  0.10000D-02 Tol=  0.10000D-05 Strict=F.
 There are    32 symmetry adapted basis functions of A'  symmetry.
 There are    11 symmetry adapted basis functions of A"  symmetry.
 Integral buffers will be    131072 words long.
 Raffenetti 2 integral format.
 Two-electron integral symmetry is turned on.
    43 basis functions,    71 primitive gaussians,    43 cartesian basis functions
     9 alpha electrons        9 beta electrons
       nuclear repulsion energy        28.6753253002 Hartrees.
 IExCor=  402 DFT=T Ex+Corr=B3LYP ExCW=0 ScaHFX=  0.200000
 ScaDFX=  0.800000  0.720000  1.000000  0.810000 ScalE2=  1.000000  1.000000
 IRadAn=      0 IRanWt=     -1 IRanGd=            0 ICorTp=0
 NAtoms=    3 NActive=    3 NUniq=    3 SFac= 7.50D-01 NAtFMM=   80 NAOKFM=F Big=F
 Leave Link  301 at Mon Sep 16 17:14:10 2024, MaxMem=   13107200 cpu:       0.1
 (Enter /programs/64bit/g09/g09-gfortran/bin/l302.exe)
 NPDir=0 NMtPBC=     1 NCelOv=     1 NCel=       1 NClECP=     1 NCelD=      1
         NCelK=      1 NCelE2=     1 NClLst=     1 CellRange=     0.0.
 One-electron integrals computed using PRISM.
 NBasis=    43 RedAO= T  NBF=    32    11
 NBsUse=    43 1.00D-06 NBFU=    32    11
 Precomputing XC quadrature grid using
 IXCGrd= 2 IRadAn=           0 IRanWt=          -1 IRanGd=           0 AccXCQ= 1.00D-10.
 NRdTot=     189 NPtTot=       23968 NUsed=       25343 NTot=       25375
 NSgBfM=    43    43    43    43    43 NAtAll=     3     3.
 Leave Link  302 at Mon Sep 16 17:14:10 2024, MaxMem=   13107200 cpu:       0.3
 (Enter /programs/64bit/g09/g09-gfortran/bin/l303.exe)
 DipDrv:  MaxL=1.
 Leave Link  303 at Mon Sep 16 17:14:10 2024, MaxMem=   13107200 cpu:       0.0
 (Enter /programs/64bit/g09/g09-gfortran/bin/l401.exe)
 Initial guess read from the read-write file.
 B after Tr=     0.000000    0.000000    0.000000
         Rot=    1.000000    0.000000    0.000000    0.000000 Ang=   0.00 deg.
 Guess basis will be translated and rotated to current coordinates.
 Initial guess orbital symmetries:
       Occupied  (A') (A') (A') (A') (A') (A') (A") (A') (A")
       Virtual   (A') (A') (A') (A") (A') (A') (A") (A') (A') (A')
                 (A') (A') (A') (A") (A') (A") (A') (A') (A") (A')
                 (A") (A') (A') (A") (A') (A') (A') (A") (A") (A')
                 (A') (A') (A') (A')
 The electronic state of the initial guess is 1-A'.
 Generating alternative initial guess.
 Harris functional with IExCor=  402 diagonalized for initial guess.
 ExpMin= 8.45D-02 ExpMax= 5.48D+03 ExpMxC= 8.25D+02 IAcc=2 IRadAn=         0 AccDes= 0.00D+00
 HarFok:  IExCor=  402 AccDes= 0.00D+00 IRadAn=         0 IDoV= 1
 ScaDFX=  1.000000  1.000000  1.000000  1.000000
 FoFCou: FMM=F IPFlag=           0 FMFlag=      100000 FMFlg1=           0
         NFxFlg=           0 DoJE=T BraDBF=F KetDBF=T FulRan=T
         Omega=  0.000000  0.000000  1.000000  0.000000  0.000000 ICntrl=     500 IOpCl=  0
         NMat0=    1 NMatS0=    1 NMatT0=    0 NMatD0=    1 NMtDS0=    0 NMtDT0=    0
         I1Cent=           4 NGrid=           0.
 Petite list used in FoFCou.
 Harris En= -151.162726256487    
 Leave Link  401 at Mon Sep 16 17:14:11 2024, MaxMem=   13107200 cpu:       0.7
 (Enter /programs/64bit/g09/g09-gfortran/bin/l502.exe)
 Closed shell SCF:
 Requested convergence on RMS density matrix=1.00D-08 within 128 cycles.
 Requested convergence on MAX density matrix=1.00D-06.
 Requested convergence on             energy=1.00D-06.
 No special actions if energy rises.
 Using DIIS extrapolation, IDIIS=  1040.
 Integral symmetry usage will be decided dynamically.
        25303 words used for storage of precomputed grid.
 Keep R1 ints in memory in canonical form, NReq=1356912.
 IEnd=       49587 IEndB=       49587 NGot=    13107200 MDV=    12628187
 LenX=    12628187 LenY=    12625897
 Symmetry not used in FoFDir.
 MinBra= 0 MaxBra= 2 Meth= 1.
 IRaf=       0 NMat=   1 IRICut=       1 DoRegI=T DoRafI=F ISym2E= 0 JSym2E=0.
 Integral accuracy reduced to 1.0D-05 until final iterations.

 Cycle   1  Pass 0  IDiag  1:
 E= -150.938863598994    
 DIIS: error= 1.18D-02 at cycle   1 NSaved=   1.
 NSaved= 1 IEnMin= 1 EnMin= -150.938863598994     IErMin= 1 ErrMin= 1.18D-02
 ErrMax= 1.18D-02 EMaxC= 1.00D-01 BMatC= 7.89D-03 BMatP= 7.89D-03
 IDIUse=3 WtCom= 8.82D-01 WtEn= 1.18D-01
 Coeff-Com:  0.100D+01
 Coeff-En:   0.100D+01
 Coeff:      0.100D+01
 Recover alternate guess density for next cycle.
 RMSDP=1.15D-02 MaxDP=1.03D-01              OVMax= 0.00D+00

 Cycle   2  Pass 0  IDiag  1:
 E= -150.844074236401     Delta-E=        0.094789362593 Rises=F Damp=F
 Switch densities from cycles 1 and 2 for lowest energy.
 DIIS: error= 5.10D-02 at cycle   2 NSaved=   2.
 NSaved= 2 IEnMin= 1 EnMin= -150.938863598994     IErMin= 1 ErrMin= 1.18D-02
 ErrMax= 5.10D-02 EMaxC= 1.00D+00 BMatC= 1.05D-01 BMatP= 7.89D-03
 IDIUse=1 WtCom= 1.00D+00 WtEn= 0.00D+00
 Coeff-Com:  0.945D+00 0.553D-01
 Coeff:      0.945D+00 0.553D-01
 Gap=     0.278 Goal=   None    Shift=    0.000
 RMSDP=4.12D-03 MaxDP=4.06D-02 DE= 9.48D-02 OVMax= 4.96D-02

 Cycle   3  Pass 0  IDiag  1:
 E= -150.950194001829     Delta-E=       -0.106119765428 Rises=F Damp=F
 DIIS: error= 4.61D-03 at cycle   3 NSaved=   3.
 NSaved= 3 IEnMin= 3 EnMin= -150.950194001829     IErMin= 3 ErrMin= 4.61D-03
 ErrMax= 4.61D-03 EMaxC= 1.00D+00 BMatC= 1.85D-03 BMatP= 7.89D-03
 IDIUse=1 WtCom= 1.00D+00 WtEn= 0.00D+00
 Coeff-Com:  0.583D-01 0.839D-01 0.858D+00
 Coeff:      0.583D-01 0.839D-01 0.858D+00
 Gap=     0.179 Goal=   None    Shift=    0.000
 RMSDP=1.50D-03 MaxDP=1.88D-02 DE=-1.06D-01 OVMax= 3.03D-02

 Cycle   4  Pass 0  IDiag  1:
 E= -150.949067321090     Delta-E=        0.001126680739 Rises=F Damp=F
 DIIS: error= 8.76D-03 at cycle   4 NSaved=   4.
 NSaved= 4 IEnMin= 3 EnMin= -150.950194001829     IErMin= 3 ErrMin= 4.61D-03
 ErrMax= 8.76D-03 EMaxC= 1.00D+00 BMatC= 3.59D-03 BMatP= 1.85D-03
 IDIUse=1 WtCom= 1.00D+00 WtEn= 0.00D+00
 Coeff-Com: -0.394D-01 0.572D-01 0.648D+00 0.335D+00
 Coeff:     -0.394D-01 0.572D-01 0.648D+00 0.335D+00
 Gap=     0.176 Goal=   None    Shift=    0.000
 RMSDP=8.44D-04 MaxDP=1.28D-02 DE= 1.13D-03 OVMax= 1.90D-02

 Cycle   5  Pass 0  IDiag  1:
 E= -150.951729730669     Delta-E=       -0.002662409578 Rises=F Damp=F
 DIIS: error= 2.44D-04 at cycle   5 NSaved=   5.
 NSaved= 5 IEnMin= 5 EnMin= -150.951729730669     IErMin= 5 ErrMin= 2.44D-04
 ErrMax= 2.44D-04 EMaxC= 1.00D+00 BMatC= 4.88D-06 BMatP= 1.85D-03
 IDIUse=1 WtCom= 1.00D+00 WtEn= 0.00D+00
 Coeff-Com:  0.952D-03 0.169D-02-0.384D-01 0.472D-02 0.103D+01
 Coeff:      0.952D-03 0.169D-02-0.384D-01 0.472D-02 0.103D+01
 Gap=     0.176 Goal=   None    Shift=    0.000
 RMSDP=6.61D-05 MaxDP=5.60D-04 DE=-2.66D-03 OVMax= 1.10D-03

 Cycle   6  Pass 0  IDiag  1:
 E= -150.951734137307     Delta-E=       -0.000004406638 Rises=F Damp=F
 DIIS: error= 2.43D-05 at cycle   6 NSaved=   6.
 NSaved= 6 IEnMin= 6 EnMin= -150.951734137307     IErMin= 6 ErrMin= 2.43D-05
 ErrMax= 2.43D-05 EMaxC= 1.00D+00 BMatC= 3.56D-08 BMatP= 4.88D-06
 IDIUse=1 WtCom= 1.00D+00 WtEn= 0.00D+00
 Coeff-Com:  0.413D-03-0.634D-04-0.110D-01-0.594D-03 0.147D+00 0.864D+00
 Coeff:      0.413D-03-0.634D-04-0.110D-01-0.594D-03 0.147D+00 0.864D+00
 Gap=     0.176 Goal=   None    Shift=    0.000
 RMSDP=8.70D-06 MaxDP=8.20D-05 DE=-4.41D-06 OVMax= 1.62D-04

 Initial convergence to 1.0D-05 achieved.  Increase integral accuracy.
 Cycle   7  Pass 1  IDiag  1:
 E= -150.951726699333     Delta-E=        0.000007437974 Rises=F Damp=F
 DIIS: error= 8.62D-06 at cycle   1 NSaved=   1.
 NSaved= 1 IEnMin= 1 EnMin= -150.951726699333     IErMin= 1 ErrMin= 8.62D-06
 ErrMax= 8.62D-06 EMaxC= 1.00D+00 BMatC= 6.62D-09 BMatP= 6.62D-09
 IDIUse=1 WtCom= 1.00D+00 WtEn= 0.00D+00
 Coeff-Com:  0.100D+01
 Coeff:      0.100D+01
 Gap=     0.176 Goal=   None    Shift=    0.000
 RMSDP=8.70D-06 MaxDP=8.20D-05 DE= 7.44D-06 OVMax= 7.03D-05

 Cycle   8  Pass 1  IDiag  1:
 E= -150.951726709082     Delta-E=       -0.000000009749 Rises=F Damp=F
 DIIS: error= 4.21D-06 at cycle   2 NSaved=   2.
 NSaved= 2 IEnMin= 2 EnMin= -150.951726709082     IErMin= 2 ErrMin= 4.21D-06
 ErrMax= 4.21D-06 EMaxC= 1.00D+00 BMatC= 9.47D-10 BMatP= 6.62D-09
 IDIUse=1 WtCom= 1.00D+00 WtEn= 0.00D+00
 Coeff-Com:  0.158D+00 0.842D+00
 Coeff:      0.158D+00 0.842D+00
 Gap=     0.176 Goal=   None    Shift=    0.000
 RMSDP=1.21D-06 MaxDP=1.32D-05 DE=-9.75D-09 OVMax= 1.85D-05

 Cycle   9  Pass 1  IDiag  1:
 E= -150.951726708585     Delta-E=        0.000000000497 Rises=F Damp=F
 DIIS: error= 6.04D-06 at cycle   3 NSaved=   3.
 NSaved= 3 IEnMin= 2 EnMin= -150.951726709082     IErMin= 2 ErrMin= 4.21D-06
 ErrMax= 6.04D-06 EMaxC= 1.00D+00 BMatC= 1.87D-09 BMatP= 9.47D-10
 IDIUse=1 WtCom= 1.00D+00 WtEn= 0.00D+00
 Coeff-Com:  0.822D-02 0.589D+00 0.402D+00
 Coeff:      0.822D-02 0.589D+00 0.402D+00
 Gap=     0.176 Goal=   None    Shift=    0.000
 RMSDP=7.58D-07 MaxDP=1.08D-05 DE= 4.97D-10 OVMax= 1.61D-05

 Cycle  10  Pass 1  IDiag  1:
 E= -150.951726709895     Delta-E=       -0.000000001310 Rises=F Damp=F
 DIIS: error= 1.44D-06 at cycle   4 NSaved=   4.
 NSaved= 4 IEnMin= 4 EnMin= -150.951726709895     IErMin= 4 ErrMin= 1.44D-06
 ErrMax= 1.44D-06 EMaxC= 1.00D+00 BMatC= 1.23D-10 BMatP= 9.47D-10
 IDIUse=1 WtCom= 1.00D+00 WtEn= 0.00D+00
 Coeff-Com: -0.110D-01 0.200D+00 0.236D+00 0.575D+00
 Coeff:     -0.110D-01 0.200D+00 0.236D+00 0.575D+00
 Gap=     0.176 Goal=   None    Shift=    0.000
 RMSDP=3.01D-07 MaxDP=2.48D-06 DE=-1.31D-09 OVMax= 4.63D-06

 Cycle  11  Pass 1  IDiag  1:
 E= -150.951726709985     Delta-E=       -0.000000000090 Rises=F Damp=F
 DIIS: error= 6.06D-07 at cycle   5 NSaved=   5.
 NSaved= 5 IEnMin= 5 EnMin= -150.951726709985     IErMin= 5 ErrMin= 6.06D-07
 ErrMax= 6.06D-07 EMaxC= 1.00D+00 BMatC= 2.07D-11 BMatP= 1.23D-10
 IDIUse=1 WtCom= 1.00D+00 WtEn= 0.00D+00
 Coeff-Com: -0.105D-01 0.587D-01 0.103D+00 0.359D+00 0.490D+00
 Coeff:     -0.105D-01 0.587D-01 0.103D+00 0.359D+00 0.490D+00
 Gap=     0.176 Goal=   None    Shift=    0.000
 RMSDP=1.26D-07 MaxDP=1.19D-06 DE=-8.98D-11 OVMax= 2.06D-06

 Cycle  12  Pass 1  IDiag  1:
 E= -150.951726710003     Delta-E=       -0.000000000018 Rises=F Damp=F
 DIIS: error= 1.10D-07 at cycle   6 NSaved=   6.
 NSaved= 6 IEnMin= 6 EnMin= -150.951726710003     IErMin= 6 ErrMin= 1.10D-07
 ErrMax= 1.10D-07 EMaxC= 1.00D+00 BMatC= 5.54D-13 BMatP= 2.07D-11
 IDIUse=1 WtCom= 1.00D+00 WtEn= 0.00D+00
 Coeff-Com:  0.192D-02-0.369D-01-0.346D-01-0.526D-01 0.846D-01 0.104D+01
 Coeff:      0.192D-02-0.369D-01-0.346D-01-0.526D-01 0.846D-01 0.104D+01
 Gap=     0.176 Goal=   None    Shift=    0.000
 RMSDP=6.75D-08 MaxDP=8.26D-07 DE=-1.82D-11 OVMax= 1.22D-06

 Cycle  13  Pass 1  IDiag  1:
 E= -150.951726710004     Delta-E=       -0.000000000001 Rises=F Damp=F
 DIIS: error= 1.42D-08 at cycle   7 NSaved=   7.
 NSaved= 7 IEnMin= 7 EnMin= -150.951726710004     IErMin= 7 ErrMin= 1.42D-08
 ErrMax= 1.42D-08 EMaxC= 1.00D+00 BMatC= 1.21D-14 BMatP= 5.54D-13
 IDIUse=1 WtCom= 1.00D+00 WtEn= 0.00D+00
 Coeff-Com:  0.394D-03-0.578D-02-0.611D-02-0.875D-02-0.798D-02 0.140D+00
 Coeff-Com:  0.888D+00
 Coeff:      0.394D-03-0.578D-02-0.611D-02-0.875D-02-0.798D-02 0.140D+00
 Coeff:      0.888D+00
 Gap=     0.176 Goal=   None    Shift=    0.000
 RMSDP=4.69D-09 MaxDP=4.05D-08 DE=-1.11D-12 OVMax= 7.31D-08

 SCF Done:  E(RB3LYP) =  -150.951726710     A.U. after   13 cycles
             Convg  =    0.4693D-08             -V/T =  2.0090
 KE= 1.496019447480D+02 PE=-4.197172967030D+02 EE= 9.048829994477D+01
 Leave Link  502 at Mon Sep 16 17:14:15 2024, MaxMem=   13107200 cpu:       3.6
 (Enter /programs/64bit/g09/g09-gfortran/bin/l701.exe)
 Compute integral first derivatives.
 ... and contract with generalized density number  0.
 Leave Link  701 at Mon Sep 16 17:14:15 2024, MaxMem=   13107200 cpu:       0.3
 (Enter /programs/64bit/g09/g09-gfortran/bin/l702.exe)
 L702 exits ... SP integral derivatives will be done elsewhere.
 Leave Link  702 at Mon Sep 16 17:14:15 2024, MaxMem=   13107200 cpu:       0.0
 (Enter /programs/64bit/g09/g09-gfortran/bin/l703.exe)
 Compute integral first derivatives, UseDBF=F ICtDFT=           0.
 Integral derivatives from FoFDir, PRISM(SPDF).
 Calling FoFJK, ICntrl=      2127 FMM=F ISym2X=1 I1Cent= 0 IOpClX= 0 NMat=1 NMatS=1 NMatT=0.
 FoFCou: FMM=F IPFlag=           0 FMFlag=      100000 FMFlg1=         800
         NFxFlg=           0 DoJE=F BraDBF=F KetDBF=F FulRan=T
         Omega=  0.000000  0.000000  1.000000  0.000000  0.000000 ICntrl=    2127 IOpCl=  0
         NMat0=    1 NMatS0=    1 NMatT0=    0 NMatD0=    1 NMtDS0=    0 NMtDT0=    0
         I1Cent=           0 NGrid=           0.
 Petite list used in FoFCou.
 Leave Link  703 at Mon Sep 16 17:14:17 2024, MaxMem=   13107200 cpu:       1.5
 (Enter /programs/64bit/g09/g09-gfortran/bin/l716.exe)
 Dipole        =-7.19102439D-01-9.49830003D-01 1.01161679D-30
 ***** Axes restored to original set *****
 -------------------------------------------------------------------
 Center     Atomic                   Forces (Hartrees/Bohr)
 Number     Number              X              Y              Z
 -------------------------------------------------------------------
      1        8           0.018888946    0.000000000   -0.001630764
      2        8          -0.000279888   -0.000000000   -0.001521823
      3        1          -0.018609057   -0.000000000    0.003152587
 -------------------------------------------------------------------
 Cartesian Forces:  Max     0.018888946 RMS     0.008932349
 Leave Link  716 at Mon Sep 16 17:14:17 2024, MaxMem=   13107200 cpu:       0.0
 (Enter /programs/64bit/g09/g09-gfortran/bin/l103.exe)

 GradGradGradGradGradGradGradGradGradGradGradGradGradGradGradGradGradGrad
 Berny optimization.
 Using GEDIIS/GDIIS optimizer.
 Internal  Forces:  Max     0.018873065 RMS     0.010938596
 Search for a local minimum.
 Step number   3 out of a maximum of   20
 All quantities printed in internal units (Hartrees-Bohrs-Radians)
 RMS Force = .10939D-01 SwitMx=.10000D-02 MixMth= 1
 Mixed Optimization -- RFO/linear search
 Update second derivatives using D2CorX and points    1    2    3
 DE= -8.20D-03 DEPred=-1.83D-04 R= 4.48D+01
 SS=  1.41D+00  RLast= 3.23D-01 DXNew= 8.4853D-01 9.6899D-01
 Trust test= 4.48D+01 RLast= 3.23D-01 DXMaxT set to 8.49D-01
 The second derivative matrix:
                          R1        R2        A1
           R1           0.29077
           R2           0.02376   0.60508
           A1           0.05947   0.00928   0.17509
 Use linear search instead of GDIIS.
     Eigenvalues ---    0.14997   0.31366   0.60731
 RFO step:  Lambda=-5.47700649D-04 EMin= 1.49971113D-01
 Quartic linear search produced a step of -0.06323.
 Iteration  1 RMS(Cart)=  0.01383217 RMS(Int)=  0.00008123
 Iteration  2 RMS(Cart)=  0.00010623 RMS(Int)=  0.00000000
 Iteration  3 RMS(Cart)=  0.00000000 RMS(Int)=  0.00000000
 ClnCor:  largest displacement from symmetrization is 8.01D-16 for atom     3.
 Variable       Old X    -DE/DX   Delta X   Delta X   Delta X     New X
                                 (Linear)    (Quad)   (Total)
    R1        2.88257  -0.00153  -0.01650   0.00769  -0.00881   2.87376
    R2        1.86442  -0.01887  -0.00125  -0.02989  -0.03114   1.83328
    A1        1.72556   0.00066   0.01198   0.00063   0.01261   1.73817
         Item               Value     Threshold  Converged?
 Maximum Force            0.018873     0.000450     NO 
 RMS     Force            0.010939     0.000300     NO 
 Maximum Displacement     0.017425     0.001800     NO 
 RMS     Displacement     0.013832     0.001200     NO 
 Predicted change in Energy=-2.945976D-04
 GradGradGradGradGradGradGradGradGradGradGradGradGradGradGradGradGradGrad

 Leave Link  103 at Mon Sep 16 17:14:17 2024, MaxMem=   13107200 cpu:       0.0
 (Enter /programs/64bit/g09/g09-gfortran/bin/l202.exe)
                          Input orientation:                          
 ---------------------------------------------------------------------
 Center     Atomic      Atomic             Coordinates (Angstroms)
 Number     Number       Type             X           Y           Z
 ---------------------------------------------------------------------
      1          8           0       -0.031427   -0.000000   -0.130554
      2          8           0        0.006248    0.000000    1.389706
      3          1           0        0.920847    0.000000   -0.315819
 ---------------------------------------------------------------------
                    Distance matrix (angstroms):
                    1          2          3
     1  O    0.000000
     2  O    1.520727   0.000000
     3  H    0.970129   1.935280   0.000000
 Stoichiometry    HO2(1-)
 Framework group  CS[SG(HO2)]
 Deg. of freedom     3
 Full point group                 CS      NOp   2
 Largest Abelian subgroup         CS      NOp   2
 Largest concise Abelian subgroup C1      NOp   1
                         Standard orientation:                         
 ---------------------------------------------------------------------
 Center     Atomic      Atomic             Coordinates (Angstroms)
 Number     Number       Type             X           Y           Z
 ---------------------------------------------------------------------
      1          8           0        0.056269   -0.706129   -0.000000
      2          8           0        0.056269    0.814597    0.000000
      3          1           0       -0.900303   -0.867745   -0.000000
 ---------------------------------------------------------------------
 Rotational constants (GHZ):    591.8986873     26.0965653     24.9945653
 Leave Link  202 at Mon Sep 16 17:14:17 2024, MaxMem=   13107200 cpu:       0.0
 (Enter /programs/64bit/g09/g09-gfortran/bin/l301.exe)
 Standard basis: 6-31+G(d,p) (6D, 7F)
 Ernie: Thresh=  0.10000D-02 Tol=  0.10000D-05 Strict=F.
 There are    32 symmetry adapted basis functions of A'  symmetry.
 There are    11 symmetry adapted basis functions of A"  symmetry.
 Integral buffers will be    131072 words long.
 Raffenetti 2 integral format.
 Two-electron integral symmetry is turned on.
    43 basis functions,    71 primitive gaussians,    43 cartesian basis functions
     9 alpha electrons        9 beta electrons
       nuclear repulsion energy        28.8217628582 Hartrees.
 IExCor=  402 DFT=T Ex+Corr=B3LYP ExCW=0 ScaHFX=  0.200000
 ScaDFX=  0.800000  0.720000  1.000000  0.810000 ScalE2=  1.000000  1.000000
 IRadAn=      0 IRanWt=     -1 IRanGd=            0 ICorTp=0
 NAtoms=    3 NActive=    3 NUniq=    3 SFac= 7.50D-01 NAtFMM=   80 NAOKFM=F Big=F
 Leave Link  301 at Mon Sep 16 17:14:17 2024, MaxMem=   13107200 cpu:       0.1
 (Enter /programs/64bit/g09/g09-gfortran/bin/l302.exe)
 NPDir=0 NMtPBC=     1 NCelOv=     1 NCel=       1 NClECP=     1 NCelD=      1
         NCelK=      1 NCelE2=     1 NClLst=     1 CellRange=     0.0.
 One-electron integrals computed using PRISM.
 NBasis=    43 RedAO= T  NBF=    32    11
 NBsUse=    43 1.00D-06 NBFU=    32    11
 Precomputing XC quadrature grid using
 IXCGrd= 2 IRadAn=           0 IRanWt=          -1 IRanGd=           0 AccXCQ= 1.00D-10.
 NRdTot=     189 NPtTot=       23968 NUsed=       25343 NTot=       25375
 NSgBfM=    43    43    43    43    43 NAtAll=     3     3.
 Leave Link  302 at Mon Sep 16 17:14:17 2024, MaxMem=   13107200 cpu:       0.3
 (Enter /programs/64bit/g09/g09-gfortran/bin/l303.exe)
 DipDrv:  MaxL=1.
 Leave Link  303 at Mon Sep 16 17:14:17 2024, MaxMem=   13107200 cpu:       0.0
 (Enter /programs/64bit/g09/g09-gfortran/bin/l401.exe)
 Initial guess read from the read-write file.
 B after Tr=     0.000000    0.000000    0.000000
         Rot=    1.000000    0.000000    0.000000    0.000000 Ang=   0.00 deg.
 Guess basis will be translated and rotated to current coordinates.
 Initial guess orbital symmetries:
       Occupied  (A') (A') (A') (A') (A') (A') (A") (A') (A")
       Virtual   (A') (A') (A') (A") (A') (A') (A') (A") (A') (A')
                 (A') (A') (A") (A') (A') (A") (A') (A') (A') (A")
                 (A") (A') (A') (A") (A') (A') (A") (A') (A") (A')
                 (A') (A') (A') (A')
 The electronic state of the initial guess is 1-A'.
 Leave Link  401 at Mon Sep 16 17:14:18 2024, MaxMem=   13107200 cpu:       0.2
 (Enter /programs/64bit/g09/g09-gfortran/bin/l502.exe)
 Closed shell SCF:
 Requested convergence on RMS density matrix=1.00D-08 within 128 cycles.
 Requested convergence on MAX density matrix=1.00D-06.
 Requested convergence on             energy=1.00D-06.
 No special actions if energy rises.
 Using DIIS extrapolation, IDIIS=  1040.
 Integral symmetry usage will be decided dynamically.
        25303 words used for storage of precomputed grid.
 Keep R1 ints in memory in canonical form, NReq=1356912.
 IEnd=       49587 IEndB=       49587 NGot=    13107200 MDV=    12628187
 LenX=    12628187 LenY=    12625897
 Symmetry not used in FoFDir.
 MinBra= 0 MaxBra= 2 Meth= 1.
 IRaf=       0 NMat=   1 IRICut=       1 DoRegI=T DoRafI=F ISym2E= 0 JSym2E=0.

 Cycle   1  Pass 1  IDiag  1:
 E= -150.951992524491    
 DIIS: error= 1.21D-03 at cycle   1 NSaved=   1.
 NSaved= 1 IEnMin= 1 EnMin= -150.951992524491     IErMin= 1 ErrMin= 1.21D-03
 ErrMax= 1.21D-03 EMaxC= 1.00D-01 BMatC= 8.55D-05 BMatP= 8.55D-05
 IDIUse=3 WtCom= 9.88D-01 WtEn= 1.21D-02
 Coeff-Com:  0.100D+01
 Coeff-En:   0.100D+01
 Coeff:      0.100D+01
 Gap=     0.177 Goal=   None    Shift=    0.000
 GapD=    0.177 DampG=1.000 DampE=1.000 DampFc=1.0000 IDamp=-1.
 RMSDP=2.96D-04 MaxDP=3.00D-03              OVMax= 4.62D-03

 Cycle   2  Pass 1  IDiag  1:
 E= -150.952079355068     Delta-E=       -0.000086830577 Rises=F Damp=F
 DIIS: error= 4.92D-04 at cycle   2 NSaved=   2.
 NSaved= 2 IEnMin= 2 EnMin= -150.952079355068     IErMin= 2 ErrMin= 4.92D-04
 ErrMax= 4.92D-04 EMaxC= 1.00D-01 BMatC= 1.62D-05 BMatP= 8.55D-05
 IDIUse=3 WtCom= 9.95D-01 WtEn= 4.92D-03
 Coeff-Com:  0.195D+00 0.805D+00
 Coeff-En:   0.000D+00 0.100D+01
 Coeff:      0.194D+00 0.806D+00
 Gap=     0.177 Goal=   None    Shift=    0.000
 RMSDP=1.49D-04 MaxDP=2.29D-03 DE=-8.68D-05 OVMax= 3.19D-03

 Cycle   3  Pass 1  IDiag  1:
 E= -150.952062523923     Delta-E=        0.000016831145 Rises=F Damp=F
 DIIS: error= 8.57D-04 at cycle   3 NSaved=   3.
 NSaved= 3 IEnMin= 2 EnMin= -150.952079355068     IErMin= 2 ErrMin= 4.92D-04
 ErrMax= 8.57D-04 EMaxC= 1.00D-01 BMatC= 3.99D-05 BMatP= 1.62D-05
 IDIUse=3 WtCom= 2.55D-01 WtEn= 7.45D-01
 Coeff-Com:  0.213D-02 0.613D+00 0.385D+00
 Coeff-En:   0.000D+00 0.658D+00 0.342D+00
 Coeff:      0.543D-03 0.647D+00 0.353D+00
 Gap=     0.176 Goal=   None    Shift=    0.000
 RMSDP=8.33D-05 MaxDP=1.24D-03 DE= 1.68D-05 OVMax= 1.84D-03

 Cycle   4  Pass 1  IDiag  1:
 E= -150.952091408994     Delta-E=       -0.000028885071 Rises=F Damp=F
 DIIS: error= 1.43D-04 at cycle   4 NSaved=   4.
 NSaved= 4 IEnMin= 4 EnMin= -150.952091408994     IErMin= 4 ErrMin= 1.43D-04
 ErrMax= 1.43D-04 EMaxC= 1.00D-01 BMatC= 8.93D-07 BMatP= 1.62D-05
 IDIUse=3 WtCom= 9.99D-01 WtEn= 1.43D-03
 Coeff-Com: -0.917D-02 0.328D+00 0.172D+00 0.509D+00
 Coeff-En:   0.000D+00 0.000D+00 0.000D+00 0.100D+01
 Coeff:     -0.915D-02 0.328D+00 0.172D+00 0.510D+00
 Gap=     0.176 Goal=   None    Shift=    0.000
 RMSDP=2.43D-05 MaxDP=2.29D-04 DE=-2.89D-05 OVMax= 3.17D-04

 Cycle   5  Pass 1  IDiag  1:
 E= -150.952092066281     Delta-E=       -0.000000657287 Rises=F Damp=F
 DIIS: error= 3.85D-05 at cycle   5 NSaved=   5.
 NSaved= 5 IEnMin= 5 EnMin= -150.952092066281     IErMin= 5 ErrMin= 3.85D-05
 ErrMax= 3.85D-05 EMaxC= 1.00D-01 BMatC= 8.77D-08 BMatP= 8.93D-07
 IDIUse=1 WtCom= 1.00D+00 WtEn= 0.00D+00
 Coeff-Com: -0.627D-02 0.773D-01 0.287D-01 0.279D+00 0.622D+00
 Coeff:     -0.627D-02 0.773D-01 0.287D-01 0.279D+00 0.622D+00
 Gap=     0.176 Goal=   None    Shift=    0.000
 RMSDP=7.42D-06 MaxDP=6.35D-05 DE=-6.57D-07 OVMax= 1.01D-04

 Cycle   6  Pass 1  IDiag  1:
 E= -150.952092140533     Delta-E=       -0.000000074252 Rises=F Damp=F
 DIIS: error= 3.39D-06 at cycle   6 NSaved=   6.
 NSaved= 6 IEnMin= 6 EnMin= -150.952092140533     IErMin= 6 ErrMin= 3.39D-06
 ErrMax= 3.39D-06 EMaxC= 1.00D-01 BMatC= 7.30D-10 BMatP= 8.77D-08
 IDIUse=1 WtCom= 1.00D+00 WtEn= 0.00D+00
 Coeff-Com: -0.308D-03-0.373D-02-0.347D-02 0.149D-01 0.110D+00 0.882D+00
 Coeff:     -0.308D-03-0.373D-02-0.347D-02 0.149D-01 0.110D+00 0.882D+00
 Gap=     0.176 Goal=   None    Shift=    0.000
 RMSDP=1.12D-06 MaxDP=1.13D-05 DE=-7.43D-08 OVMax= 1.93D-05

 Cycle   7  Pass 1  IDiag  1:
 E= -150.952092141407     Delta-E=       -0.000000000875 Rises=F Damp=F
 DIIS: error= 3.61D-07 at cycle   7 NSaved=   7.
 NSaved= 7 IEnMin= 7 EnMin= -150.952092141407     IErMin= 7 ErrMin= 3.61D-07
 ErrMax= 3.61D-07 EMaxC= 1.00D-01 BMatC= 9.13D-12 BMatP= 7.30D-10
 IDIUse=1 WtCom= 1.00D+00 WtEn= 0.00D+00
 Coeff-Com:  0.743D-04-0.237D-02-0.112D-02-0.390D-02 0.274D-03 0.116D+00
 Coeff-Com:  0.891D+00
 Coeff:      0.743D-04-0.237D-02-0.112D-02-0.390D-02 0.274D-03 0.116D+00
 Coeff:      0.891D+00
 Gap=     0.176 Goal=   None    Shift=    0.000
 RMSDP=2.36D-07 MaxDP=2.86D-06 DE=-8.75D-10 OVMax= 4.53D-06

 Cycle   8  Pass 1  IDiag  1:
 E= -150.952092141425     Delta-E=       -0.000000000018 Rises=F Damp=F
 DIIS: error= 5.93D-08 at cycle   8 NSaved=   8.
 NSaved= 8 IEnMin= 8 EnMin= -150.952092141425     IErMin= 8 ErrMin= 5.93D-08
 ErrMax= 5.93D-08 EMaxC= 1.00D-01 BMatC= 3.08D-13 BMatP= 9.13D-12
 IDIUse=1 WtCom= 1.00D+00 WtEn= 0.00D+00
 Coeff-Com:  0.700D-05 0.723D-04 0.146D-03-0.503D-03-0.348D-02-0.262D-01
 Coeff-Com:  0.322D-01 0.998D+00
 Coeff:      0.700D-05 0.723D-04 0.146D-03-0.503D-03-0.348D-02-0.262D-01
 Coeff:      0.322D-01 0.998D+00
 Gap=     0.176 Goal=   None    Shift=    0.000
 RMSDP=5.17D-08 MaxDP=6.23D-07 DE=-1.82D-11 OVMax= 1.13D-06

 Cycle   9  Pass 1  IDiag  1:
 E= -150.952092141426     Delta-E=       -0.000000000001 Rises=F Damp=F
 DIIS: error= 1.17D-08 at cycle   9 NSaved=   9.
 NSaved= 9 IEnMin= 9 EnMin= -150.952092141426     IErMin= 9 ErrMin= 1.17D-08
 ErrMax= 1.17D-08 EMaxC= 1.00D-01 BMatC= 1.06D-14 BMatP= 3.08D-13
 IDIUse=1 WtCom= 1.00D+00 WtEn= 0.00D+00
 Coeff-Com: -0.676D-06 0.615D-04 0.470D-04 0.115D-04-0.428D-03-0.670D-02
 Coeff-Com: -0.608D-02 0.117D+00 0.896D+00
 Coeff:     -0.676D-06 0.615D-04 0.470D-04 0.115D-04-0.428D-03-0.670D-02
 Coeff:     -0.608D-02 0.117D+00 0.896D+00
 Gap=     0.176 Goal=   None    Shift=    0.000
 RMSDP=6.64D-09 MaxDP=7.17D-08 DE=-7.39D-13 OVMax= 1.46D-07

 SCF Done:  E(RB3LYP) =  -150.952092141     A.U. after    9 cycles
             Convg  =    0.6644D-08             -V/T =  2.0088
 KE= 1.496330362996D+02 PE=-4.200278404015D+02 EE= 9.062094910239D+01
 Leave Link  502 at Mon Sep 16 17:14:21 2024, MaxMem=   13107200 cpu:       3.4
 (Enter /programs/64bit/g09/g09-gfortran/bin/l701.exe)
 Compute integral first derivatives.
 ... and contract with generalized density number  0.
 Leave Link  701 at Mon Sep 16 17:14:22 2024, MaxMem=   13107200 cpu:       0.3
 (Enter /programs/64bit/g09/g09-gfortran/bin/l702.exe)
 L702 exits ... SP integral derivatives will be done elsewhere.
 Leave Link  702 at Mon Sep 16 17:14:22 2024, MaxMem=   13107200 cpu:       0.0
 (Enter /programs/64bit/g09/g09-gfortran/bin/l703.exe)
 Compute integral first derivatives, UseDBF=F ICtDFT=           0.
 Integral derivatives from FoFDir, PRISM(SPDF).
 Calling FoFJK, ICntrl=      2127 FMM=F ISym2X=1 I1Cent= 0 IOpClX= 0 NMat=1 NMatS=1 NMatT=0.
 FoFCou: FMM=F IPFlag=           0 FMFlag=      100000 FMFlg1=         800
         NFxFlg=           0 DoJE=F BraDBF=F KetDBF=F FulRan=T
         Omega=  0.000000  0.000000  1.000000  0.000000  0.000000 ICntrl=    2127 IOpCl=  0
         NMat0=    1 NMatS0=    1 NMatT0=    0 NMatD0=    1 NMtDS0=    0 NMtDT0=    0
         I1Cent=           0 NGrid=           0.
 Petite list used in FoFCou.
 Leave Link  703 at Mon Sep 16 17:14:23 2024, MaxMem=   13107200 cpu:       1.6
 (Enter /programs/64bit/g09/g09-gfortran/bin/l716.exe)
 Dipole        =-7.17483817D-01-9.57541712D-01-1.14529066D-30
 ***** Axes restored to original set *****
 -------------------------------------------------------------------
 Center     Atomic                   Forces (Hartrees/Bohr)
 Number     Number              X              Y              Z
 -------------------------------------------------------------------
      1        8           0.003405216    0.000000000   -0.001142094
      2        8           0.000432231    0.000000000   -0.000317167
      3        1          -0.003837447   -0.000000000    0.001459260
 -------------------------------------------------------------------
 Cartesian Forces:  Max     0.003837447 RMS     0.001827042
 Leave Link  716 at Mon Sep 16 17:14:23 2024, MaxMem=   13107200 cpu:       0.0
 (Enter /programs/64bit/g09/g09-gfortran/bin/l103.exe)

 GradGradGradGradGradGradGradGradGradGradGradGradGradGradGradGradGradGrad
 Berny optimization.
 Using GEDIIS/GDIIS optimizer.
 Internal  Forces:  Max     0.004047557 RMS     0.002456722
 Search for a local minimum.
 Step number   4 out of a maximum of   20
 All quantities printed in internal units (Hartrees-Bohrs-Radians)
 RMS Force = .24567D-02 SwitMx=.10000D-02 MixMth= 1
 Mixed Optimization -- RFO/linear search
 Update second derivatives using D2CorX and points    1    2    3    4
 DE= -3.65D-04 DEPred=-2.95D-04 R= 1.24D+00
 SS=  1.41D+00  RLast= 3.47D-02 DXNew= 1.4270D+00 1.0419D-01
 Trust test= 1.24D+00 RLast= 3.47D-02 DXMaxT set to 8.49D-01
 The second derivative matrix:
                          R1        R2        A1
           R1           0.28903
           R2          -0.01528   0.47782
           A1           0.06717  -0.00644   0.18427
 Use linear search instead of GDIIS.
     Eigenvalues ---    0.15147   0.32009   0.47956
 RFO step:  Lambda=-1.95649277D-05 EMin= 1.51466008D-01
 Quartic linear search produced a step of  0.21278.
 Iteration  1 RMS(Cart)=  0.00728500 RMS(Int)=  0.00002719
 Iteration  2 RMS(Cart)=  0.00002097 RMS(Int)=  0.00000000
 Iteration  3 RMS(Cart)=  0.00000000 RMS(Int)=  0.00000000
 ClnCor:  largest displacement from symmetrization is 1.33D-15 for atom     2.
 Variable       Old X    -DE/DX   Delta X   Delta X   Delta X     New X
                                 (Linear)    (Quad)   (Total)
    R1        2.87376  -0.00031  -0.00187   0.00237   0.00050   2.87425
    R2        1.83328  -0.00405  -0.00663  -0.00156  -0.00819   1.82509
    A1        1.73817  -0.00128   0.00268  -0.01047  -0.00779   1.73038
[...]
 Rotational constants (GHZ):    594.8649883     26.1032077     25.0059253
 Leave Link  202 at Mon Sep 16 17:14:30 2024, MaxMem=   13107200 cpu:       0.0
 (Enter /programs/64bit/g09/g09-gfortran/bin/l301.exe)
 Standard basis: 6-31+G(d,p) (6D, 7F)
 Ernie: Thresh=  0.10000D-02 Tol=  0.10000D-05 Strict=F.
 There are    32 symmetry adapted basis functions of A'  symmetry.
 There are    11 symmetry adapted basis functions of A"  symmetry.
 Integral buffers will be    131072 words long.
 Raffenetti 2 integral format.
 Two-electron integral symmetry is turned on.
    43 basis functions,    71 primitive gaussians,    43 cartesian basis functions
     9 alpha electrons        9 beta electrons
       nuclear repulsion energy        28.8446081807 Hartrees.
 IExCor=  402 DFT=T Ex+Corr=B3LYP ExCW=0 ScaHFX=  0.200000
 ScaDFX=  0.800000  0.720000  1.000000  0.810000 ScalE2=  1.000000  1.000000
 IRadAn=      0 IRanWt=     -1 IRanGd=            0 ICorTp=0
 NAtoms=    3 NActive=    3 NUniq=    3 SFac= 7.50D-01 NAtFMM=   80 NAOKFM=F Big=F
 Leave Link  301 at Mon Sep 16 17:14:30 2024, MaxMem=   13107200 cpu:       0.1
 (Enter /programs/64bit/g09/g09-gfortran/bin/l302.exe)
 NPDir=0 NMtPBC=     1 NCelOv=     1 NCel=       1 NClECP=     1 NCelD=      1
         NCelK=      1 NCelE2=     1 NClLst=     1 CellRange=     0.0.
 One-electron integrals computed using PRISM.
 NBasis=    43 RedAO= T  NBF=    32    11
 NBsUse=    43 1.00D-06 NBFU=    32    11
 Precomputing XC quadrature grid using
 IXCGrd= 2 IRadAn=           0 IRanWt=          -1 IRanGd=           0 AccXCQ= 1.00D-10.
 NRdTot=     189 NPtTot=       23968 NUsed=       25343 NTot=       25375
 NSgBfM=    43    43    43    43    43 NAtAll=     3     3.
 Leave Link  302 at Mon Sep 16 17:14:30 2024, MaxMem=   13107200 cpu:       0.3
 (Enter /programs/64bit/g09/g09-gfortran/bin/l303.exe)
 DipDrv:  MaxL=1.
 Leave Link  303 at Mon Sep 16 17:14:30 2024, MaxMem=   13107200 cpu:       0.1
 (Enter /programs/64bit/g09/g09-gfortran/bin/l401.exe)
 Initial guess read from the read-write file.
 B after Tr=     0.000000    0.000000    0.000000
         Rot=    1.000000    0.000000    0.000000    0.000000 Ang=   0.00 deg.
 Guess basis will be translated and rotated to current coordinates.
 Initial guess orbital symmetries:
       Occupied  (A') (A') (A') (A') (A') (A') (A") (A') (A")
       Virtual   (A') (A') (A') (A") (A') (A') (A') (A") (A') (A')
                 (A') (A') (A") (A') (A') (A") (A') (A') (A') (A")
                 (A') (A") (A') (A") (A') (A') (A") (A') (A") (A')
                 (A') (A') (A') (A')
 The electronic state of the initial guess is 1-A'.
 Leave Link  401 at Mon Sep 16 17:14:31 2024, MaxMem=   13107200 cpu:       0.2
 (Enter /programs/64bit/g09/g09-gfortran/bin/l502.exe)
 Closed shell SCF:
 Requested convergence on RMS density matrix=1.00D-08 within 128 cycles.
 Requested convergence on MAX density matrix=1.00D-06.
 Requested convergence on             energy=1.00D-06.
 No special actions if energy rises.
 Using DIIS extrapolation, IDIIS=  1040.
 Integral symmetry usage will be decided dynamically.
        25303 words used for storage of precomputed grid.
 Keep R1 ints in memory in canonical form, NReq=1356912.
 IEnd=       49587 IEndB=       49587 NGot=    13107200 MDV=    12628187
 LenX=    12628187 LenY=    12625897
 Symmetry not used in FoFDir.
 MinBra= 0 MaxBra= 2 Meth= 1.
 IRaf=       0 NMat=   1 IRICut=       1 DoRegI=T DoRafI=F ISym2E= 0 JSym2E=0.

 Cycle   1  Pass 1  IDiag  1:
 E= -150.952114943768    
 DIIS: error= 1.02D-04 at cycle   1 NSaved=   1.
 NSaved= 1 IEnMin= 1 EnMin= -150.952114943768     IErMin= 1 ErrMin= 1.02D-04
 ErrMax= 1.02D-04 EMaxC= 1.00D-01 BMatC= 3.05D-07 BMatP= 3.05D-07
 IDIUse=3 WtCom= 9.99D-01 WtEn= 1.02D-03
 Coeff-Com:  0.100D+01
 Coeff-En:   0.100D+01
 Coeff:      0.100D+01
 Gap=     0.177 Goal=   None    Shift=    0.000
 RMSDP=3.14D-05 MaxDP=3.41D-04              OVMax= 3.05D-04

 Cycle   2  Pass 1  IDiag  1:
 E= -150.952115374092     Delta-E=       -0.000000430324 Rises=F Damp=F
 DIIS: error= 2.07D-05 at cycle   2 NSaved=   2.
 NSaved= 2 IEnMin= 2 EnMin= -150.952115374092     IErMin= 2 ErrMin= 2.07D-05
 ErrMax= 2.07D-05 EMaxC= 1.00D-01 BMatC= 2.56D-08 BMatP= 3.05D-07
 IDIUse=1 WtCom= 1.00D+00 WtEn= 0.00D+00
 Coeff-Com:  0.503D-01 0.950D+00
 Coeff:      0.503D-01 0.950D+00
 Gap=     0.177 Goal=   None    Shift=    0.000
 RMSDP=7.67D-06 MaxDP=1.00D-04 DE=-4.30D-07 OVMax= 1.42D-04

 Cycle   3  Pass 1  IDiag  1:
 E= -150.952115321936     Delta-E=        0.000000052156 Rises=F Damp=F
 DIIS: error= 4.44D-05 at cycle   3 NSaved=   3.
 NSaved= 3 IEnMin= 2 EnMin= -150.952115374092     IErMin= 2 ErrMin= 2.07D-05
 ErrMax= 4.44D-05 EMaxC= 1.00D-01 BMatC= 1.00D-07 BMatP= 2.56D-08
 IDIUse=1 WtCom= 1.00D+00 WtEn= 0.00D+00
 Coeff-Com: -0.418D-01 0.695D+00 0.347D+00
 Coeff:     -0.418D-01 0.695D+00 0.347D+00
 Gap=     0.177 Goal=   None    Shift=    0.000
 RMSDP=4.69D-06 MaxDP=7.15D-05 DE= 5.22D-08 OVMax= 1.05D-04

 Cycle   4  Pass 1  IDiag  1:
 E= -150.952115395240     Delta-E=       -0.000000073304 Rises=F Damp=F
 DIIS: error= 4.50D-06 at cycle   4 NSaved=   4.
 NSaved= 4 IEnMin= 4 EnMin= -150.952115395240     IErMin= 4 ErrMin= 4.50D-06
 ErrMax= 4.50D-06 EMaxC= 1.00D-01 BMatC= 1.67D-09 BMatP= 2.56D-08
 IDIUse=1 WtCom= 1.00D+00 WtEn= 0.00D+00
 Coeff-Com: -0.253D-01 0.383D+00 0.214D+00 0.428D+00
 Coeff:     -0.253D-01 0.383D+00 0.214D+00 0.428D+00
 Gap=     0.177 Goal=   None    Shift=    0.000
 RMSDP=9.65D-07 MaxDP=1.03D-05 DE=-7.33D-08 OVMax= 1.40D-05

 Cycle   5  Pass 1  IDiag  1:
 E= -150.952115396572     Delta-E=       -0.000000001332 Rises=F Damp=F
 DIIS: error= 1.30D-06 at cycle   5 NSaved=   5.
 NSaved= 5 IEnMin= 5 EnMin= -150.952115396572     IErMin= 5 ErrMin= 1.30D-06
 ErrMax= 1.30D-06 EMaxC= 1.00D-01 BMatC= 7.56D-11 BMatP= 1.67D-09
 IDIUse=1 WtCom= 1.00D+00 WtEn= 0.00D+00
 Coeff-Com: -0.243D-03-0.201D-01 0.753D-02 0.165D+00 0.848D+00
 Coeff:     -0.243D-03-0.201D-01 0.753D-02 0.165D+00 0.848D+00
 Gap=     0.177 Goal=   None    Shift=    0.000
 RMSDP=4.44D-07 MaxDP=5.47D-06 DE=-1.33D-09 OVMax= 8.28D-06

 Cycle   6  Pass 1  IDiag  1:
 E= -150.952115396667     Delta-E=       -0.000000000094 Rises=F Damp=F
 DIIS: error= 1.97D-07 at cycle   6 NSaved=   6.
 NSaved= 6 IEnMin= 6 EnMin= -150.952115396667     IErMin= 6 ErrMin= 1.97D-07
 ErrMax= 1.97D-07 EMaxC= 1.00D-01 BMatC= 1.93D-12 BMatP= 7.56D-11
 IDIUse=1 WtCom= 1.00D+00 WtEn= 0.00D+00
 Coeff-Com:  0.159D-02-0.299D-01-0.124D-01 0.760D-02 0.154D+00 0.879D+00
 Coeff:      0.159D-02-0.299D-01-0.124D-01 0.760D-02 0.154D+00 0.879D+00
 Gap=     0.177 Goal=   None    Shift=    0.000
 RMSDP=9.97D-08 MaxDP=1.06D-06 DE=-9.44D-11 OVMax= 2.03D-06

 Cycle   7  Pass 1  IDiag  1:
 E= -150.952115396670     Delta-E=       -0.000000000003 Rises=F Damp=F
 DIIS: error= 3.66D-08 at cycle   7 NSaved=   7.
 NSaved= 7 IEnMin= 7 EnMin= -150.952115396670     IErMin= 7 ErrMin= 3.66D-08
 ErrMax= 3.66D-08 EMaxC= 1.00D-01 BMatC= 9.20D-14 BMatP= 1.93D-12
 IDIUse=1 WtCom= 1.00D+00 WtEn= 0.00D+00
 Coeff-Com:  0.343D-04 0.832D-03-0.744D-03-0.341D-02-0.429D-01 0.177D-01
 Coeff-Com:  0.103D+01
 Coeff:      0.343D-04 0.832D-03-0.744D-03-0.341D-02-0.429D-01 0.177D-01
 Coeff:      0.103D+01
 Gap=     0.177 Goal=   None    Shift=    0.000
 RMSDP=2.81D-08 MaxDP=3.58D-07 DE=-3.33D-12 OVMax= 5.01D-07

 Cycle   8  Pass 1  IDiag  1:
 E= -150.952115396670     Delta-E=       -0.000000000000 Rises=F Damp=F
 DIIS: error= 6.01D-09 at cycle   8 NSaved=   8.
 NSaved= 8 IEnMin= 8 EnMin= -150.952115396670     IErMin= 8 ErrMin= 6.01D-09
 ErrMax= 6.01D-09 EMaxC= 1.00D-01 BMatC= 1.66D-15 BMatP= 9.20D-14
 IDIUse=1 WtCom= 1.00D+00 WtEn= 0.00D+00
 Coeff-Com: -0.202D-04 0.502D-03 0.179D-03-0.672D-03-0.436D-02-0.192D-01
 Coeff-Com:  0.807D-01 0.943D+00
 Coeff:     -0.202D-04 0.502D-03 0.179D-03-0.672D-03-0.436D-02-0.192D-01
 Coeff:      0.807D-01 0.943D+00
 Gap=     0.177 Goal=   None    Shift=    0.000
 RMSDP=2.32D-09 MaxDP=2.23D-08 DE=-3.98D-13 OVMax= 3.82D-08

 SCF Done:  E(RB3LYP) =  -150.952115397     A.U. after    8 cycles
             Convg  =    0.2319D-08             -V/T =  2.0088
 KE= 1.496410686372D+02 PE=-4.200775217617D+02 EE= 9.063972954717D+01
 Leave Link  502 at Mon Sep 16 17:14:34 2024, MaxMem=   13107200 cpu:       3.3
 (Enter /programs/64bit/g09/g09-gfortran/bin/l701.exe)
 Compute integral first derivatives.
 ... and contract with generalized density number  0.
 Leave Link  701 at Mon Sep 16 17:14:35 2024, MaxMem=   13107200 cpu:       0.3
 (Enter /programs/64bit/g09/g09-gfortran/bin/l702.exe)
 L702 exits ... SP integral derivatives will be done elsewhere.
 Leave Link  702 at Mon Sep 16 17:14:35 2024, MaxMem=   13107200 cpu:       0.0
 (Enter /programs/64bit/g09/g09-gfortran/bin/l703.exe)
 Compute integral first derivatives, UseDBF=F ICtDFT=           0.
 Integral derivatives from FoFDir, PRISM(SPDF).
 Calling FoFJK, ICntrl=      2127 FMM=F ISym2X=1 I1Cent= 0 IOpClX= 0 NMat=1 NMatS=1 NMatT=0.
 FoFCou: FMM=F IPFlag=           0 FMFlag=      100000 FMFlg1=         800
         NFxFlg=           0 DoJE=F BraDBF=F KetDBF=F FulRan=T
         Omega=  0.000000  0.000000  1.000000  0.000000  0.000000 ICntrl=    2127 IOpCl=  0
         NMat0=    1 NMatS0=    1 NMatT0=    0 NMatD0=    1 NMtDS0=    0 NMtDT0=    0
         I1Cent=           0 NGrid=           0.
 Petite list used in FoFCou.
 Leave Link  703 at Mon Sep 16 17:14:36 2024, MaxMem=   13107200 cpu:       1.5
 (Enter /programs/64bit/g09/g09-gfortran/bin/l716.exe)
 Dipole        =-7.18338731D-01-9.53838197D-01-1.61706032D-30
 ***** Axes restored to original set *****
 -------------------------------------------------------------------
 Center     Atomic                   Forces (Hartrees/Bohr)
 Number     Number              X              Y              Z
 -------------------------------------------------------------------
      1        8          -0.000039124   -0.000000000   -0.000036175
      2        8           0.000006731    0.000000000    0.000021596
      3        1           0.000032393    0.000000000    0.000014580
 -------------------------------------------------------------------
 Cartesian Forces:  Max     0.000039124 RMS     0.000022639
 Leave Link  716 at Mon Sep 16 17:14:36 2024, MaxMem=   13107200 cpu:       0.0
 (Enter /programs/64bit/g09/g09-gfortran/bin/l103.exe)

 GradGradGradGradGradGradGradGradGradGradGradGradGradGradGradGradGradGrad
 Berny optimization.
 Using GEDIIS/GDIIS optimizer.
 Internal  Forces:  Max     0.000031173 RMS     0.000027299
 Search for a local minimum.
 Step number   6 out of a maximum of   20
 All quantities printed in internal units (Hartrees-Bohrs-Radians)
 RMS Force = .27299D-04 SwitMx=.10000D-02 MixMth= 2
 Mixed Optimization -- En-DIIS/RFO-DIIS
 Swaping is turned off.
 Update second derivatives using D2CorX and points    3    4    5    6
 DE= -3.40D-07 DEPred=-2.99D-07 R= 1.14D+00
 Trust test= 1.14D+00 RLast= 2.05D-03 DXMaxT set to 8.49D-01
 The second derivative matrix:
                          R1        R2        A1
           R1           0.29445
           R2          -0.00458   0.51880
           A1           0.07983  -0.01922   0.15577
     Eigenvalues ---    0.11876   0.33007   0.52018
 En-DIIS/RFO-DIIS IScMMF=        0 using points:     6    5
 RFO step:  Lambda= 0.00000000D+00.
 DIIS coeffs:      1.13045     -0.13045
 Iteration  1 RMS(Cart)=  0.00016849 RMS(Int)=  0.00000002
 Iteration  2 RMS(Cart)=  0.00000002 RMS(Int)=  0.00000000
 ClnCor:  largest displacement from symmetrization is 7.11D-16 for atom     3.
 Variable       Old X    -DE/DX   Delta X   Delta X   Delta X     New X
                                  (DIIS)     (GDIIS)  (Total)
    R1        2.87482   0.00002   0.00007   0.00008   0.00015   2.87497
    R2        1.82488   0.00003  -0.00003   0.00007   0.00004   1.82492
    A1        1.72842  -0.00003  -0.00026  -0.00002  -0.00027   1.72815
         Item               Value     Threshold  Converged?
 Maximum Force            0.000031     0.000450     YES
 RMS     Force            0.000027     0.000300     YES
 Maximum Displacement     0.000181     0.001800     YES
 RMS     Displacement     0.000168     0.001200     YES
 Predicted change in Energy=-6.622977D-09
 Optimization completed.
    -- Stationary point found.
                           ----------------------------
                           !   Optimized Parameters   !
                           ! (Angstroms and Degrees)  !
 --------------------------                            --------------------------
 ! Name  Definition              Value          Derivative Info.                !
 --------------------------------------------------------------------------------
 ! R1    R(1,2)                  1.5213         -DE/DX =    0.0                 !
 ! R2    R(1,3)                  0.9657         -DE/DX =    0.0                 !
 ! A1    A(2,1,3)               99.0313         -DE/DX =    0.0                 !
 --------------------------------------------------------------------------------
 GradGradGradGradGradGradGradGradGradGradGradGradGradGradGradGradGradGrad

 Largest change from initial coordinates is atom    1       0.064 Angstoms.
 Leave Link  103 at Mon Sep 16 17:14:36 2024, MaxMem=   13107200 cpu:       0.0
 (Enter /programs/64bit/g09/g09-gfortran/bin/l202.exe)
                          Input orientation:                          
 ---------------------------------------------------------------------
 Center     Atomic      Atomic             Coordinates (Angstroms)
 Number     Number       Type             X           Y           Z
 ---------------------------------------------------------------------
      1          8           0       -0.031420   -0.000000   -0.133474
      2          8           0        0.009183    0.000000    1.387270
      3          1           0        0.917905    0.000000   -0.310463
 ---------------------------------------------------------------------
                    Distance matrix (angstroms):
                    1          2          3
     1  O    0.000000
     2  O    1.521287   0.000000
     3  H    0.965683   1.925636   0.000000
 Stoichiometry    HO2(1-)
 Framework group  CS[SG(HO2)]
 Deg. of freedom     3
 Full point group                 CS      NOp   2
 Largest Abelian subgroup         CS      NOp   2
 Largest concise Abelian subgroup C1      NOp   1
                         Standard orientation:                         
 ---------------------------------------------------------------------
 Center     Atomic      Atomic             Coordinates (Angstroms)
 Number     Number       Type             X           Y           Z
 ---------------------------------------------------------------------
      1          8           0        0.056101   -0.706983    0.000000
      2          8           0        0.056101    0.814304    0.000000
      3          1           0       -0.897611   -0.858570   -0.000000
 ---------------------------------------------------------------------
 Rotational constants (GHZ):    594.8649883     26.1032077     25.0059253
 Leave Link  202 at Mon Sep 16 17:14:36 2024, MaxMem=   13107200 cpu:       0.0
 (Enter /programs/64bit/g09/g09-gfortran/bin/l601.exe)
 Copying SCF densities to generalized density rwf, IOpCl= 0 IROHF=0.

 **********************************************************************

            Population analysis using the SCF density.

 **********************************************************************

 Orbital symmetries:
       Occupied  (A') (A') (A') (A') (A') (A') (A") (A') (A")
       Virtual   (A') (A') (A') (A") (A') (A') (A') (A") (A') (A')
                 (A') (A') (A") (A') (A') (A") (A') (A') (A') (A")
                 (A') (A") (A') (A") (A') (A') (A") (A') (A") (A')
                 (A') (A') (A') (A')
 The electronic state is 1-A'.
 Alpha  occ. eigenvalues --  -18.93461 -18.85810  -0.77608  -0.53478  -0.21839
 Alpha  occ. eigenvalues --   -0.12567  -0.09589   0.03309   0.05614
 Alpha virt. eigenvalues --    0.23301   0.28058   0.34236   0.36041   0.37811
 Alpha virt. eigenvalues --    0.39970   0.40885   0.41495   0.47073   0.53467
 Alpha virt. eigenvalues --    1.17207   1.31923   1.34909   1.34975   1.43241
 Alpha virt. eigenvalues --    1.46441   1.47448   1.57954   1.75969   1.78828
 Alpha virt. eigenvalues --    1.85915   1.85919   2.12913   2.14613   2.17387
 Alpha virt. eigenvalues --    2.37513   2.59296   2.67175   2.89898   3.03783
 Alpha virt. eigenvalues --    3.37450   3.64602   4.02538   4.40864
          Condensed to atoms (all electrons):
              1          2          3
     1  O    8.388293  -0.110149   0.234777
     2  O   -0.110149   8.948462  -0.054234
     3  H    0.234777  -0.054234   0.522456
 Mulliken atomic charges:
              1
     1  O   -0.512922
     2  O   -0.784079
     3  H    0.297001
 Sum of Mulliken atomic charges =  -1.00000
 Mulliken charges with hydrogens summed into heavy atoms:
              1
     1  O   -0.215921
     2  O   -0.784079
 Sum of Mulliken charges with hydrogens summed into heavy atoms =  -1.00000
 Electronic spatial extent (au):  <R**2>=             74.1026
 Charge=             -1.0000 electrons
 Dipole moment (field-independent basis, Debye):
    X=             -1.8258    Y=             -2.4244    Z=             -0.0000  Tot=              3.0350
 Quadrupole moment (field-independent basis, Debye-Ang):
   XX=            -13.4629   YY=            -18.1746   ZZ=            -15.6947
   XY=              1.4849   XZ=             -0.0000   YZ=             -0.0000
 Traceless Quadrupole moment (field-independent basis, Debye-Ang):
   XX=              2.3145   YY=             -2.3972   ZZ=              0.0827
   XY=              1.4849   XZ=             -0.0000   YZ=             -0.0000
 Octapole moment (field-independent basis, Debye-Ang**2):
  XXX=             -2.3119  YYY=             -3.6405  ZZZ=             -0.0000  XYY=             -1.9701
  XXY=             -3.3373  XXZ=             -0.0000  XZZ=             -0.4422  YZZ=             -1.4561
  YYZ=             -0.0000  XYZ=             -0.0000
 Hexadecapole moment (field-independent basis, Debye-Ang**3):
 XXXX=            -18.2506 YYYY=            -67.8333 ZZZZ=            -19.1053 XXXY=             -0.1706
 XXXZ=             -0.0000 YYYX=              0.4060 YYYZ=             -0.0000 ZZZX=             -0.0000
 ZZZY=             -0.0000 XXYY=            -15.0550 XXZZ=             -6.4468 YYZZ=            -16.6136
 XXYZ=             -0.0000 YYXZ=             -0.0000 ZZXY=             -0.2980
 N-N= 2.884460818066D+01 E-N=-4.200775218985D+02  KE= 1.496410686372D+02
 Symmetry A'   KE= 1.406477944247D+02
 Symmetry A"   KE= 8.993274212467D+00
 No NMR shielding tensors so no spin-rotation constants.
 Leave Link  601 at Mon Sep 16 17:14:37 2024, MaxMem=   13107200 cpu:       0.3
 (Enter /programs/64bit/g09/g09-gfortran/bin/l9999.exe)
 B after Tr=     0.099563    0.000000    1.085296
         Rot=    0.003075    0.003075    0.707100    0.707100 Ang= 179.65 deg.
 Final structure in terms of initial Z-matrix:
 O
 O,1,oo2
 H,1,ho3,2,hoo3
      Variables:
 oo2=1.5212868
 ho3=0.96568327
 hoo3=99.03129958
 1\1\GINC-MOLMOD\FOpt\RB3LYP\6-31+G(d,p)\H1O2(1-)\OSPITE\16-Sep-2024\0\
 \#p B3LYP/6-31+g(d,p) opt\\ho2- gas\\-1,1\O,-0.0314202772,0.,-0.133474
 4899\O,0.0091833769,0.,1.3872703503\H,0.9179054898,0.,-0.310462527\\Ve
 rsion=EM64L-G09RevA.02\State=1-A'\HF=-150.9521154\RMSD=2.319e-09\RMSF=
 2.264e-05\Dipole=0.6926246,0.,-0.9726711\Quadrupole=1.6593537,0.061467
 ,-1.7208207,0.,-1.1958447,0.\PG=CS [SG(H1O2)]\\@


 EVANS BOLDLY PUT 50 ATM. OF ETHYLENE IN A CELL WITH 25 ATM. OF OXYGEN.
 THE APPARATUS SUBSEQUENTLY BLEW UP, BUT LUCKILY NOT BEFORE HE
 OBTAINED THE SPECTRA SHOWN IN FIGURE 8.
 A.J.MERER AND R.S.MULLIKEN, CHEM.REV. 69, 645 (1969)
 Job cpu time:  0 days  0 hours  0 minutes 40.5 seconds.
 File lengths (MBytes):  RWF=      5 Int=      0 D2E=      0 Chk=      1 Scr=      1
 Normal termination of Gaussian 09 at Mon Sep 16 17:14:37 2024.
