 Entering Gaussian System, Link 0=/programs/64bit/g09/g09-gfortran/bin/g09
 Input=sol.com
 Output=sol.log
 Initial command:
 /programs/64bit/g09/g09-gfortran/bin/l1.exe /home/ospite/Desktop/MMfP/Project10/HO2-/Gau-23023.inp -scrdir=/home/ospite/Desktop/MMfP/Project10/HO2-/
 Entering Link 1 = /programs/64bit/g09/g09-gfortran/bin/l1.exe PID=     23024.
  
 Copyright (c) 1988,1990,1992,1993,1995,1998,2003,2009, Gaussian, Inc.
                  All Rights Reserved.
  
 This is part of the Gaussian(R) 09 program.  It is based on
 the Gaussian(R) 03 system (copyright 2003, Gaussian, Inc.),
 the Gaussian(R) 98 system (copyright 1998, Gaussian, Inc.),
 the Gaussian(R) 94 system (copyright 1995, Gaussian, Inc.),
 the Gaussian 92(TM) system (copyright 1992, Gaussian, Inc.),
 the Gaussian 90(TM) system (copyright 1990, Gaussian, Inc.),
 the Gaussian 88(TM) system (copyright 1988, Gaussian, Inc.),
 the Gaussian 86(TM) system (copyright 1986, Carnegie Mellon
 University), and the Gaussian 82(TM) system (copyright 1983,
 Carnegie Mellon University). Gaussian is a federally registered
 trademark of Gaussian, Inc.
  
 This software contains proprietary and confidential information,
 including trade secrets, belonging to Gaussian, Inc.
  
 This software is provided under written license and may be
 used, copied, transmitted, or stored only in accord with that
 written license.
  
 The following legend is applicable only to US Government
 contracts under FAR:
  
                    RESTRICTED RIGHTS LEGEND
  
 Use, reproduction and disclosure by the US Government is
 subject to restrictions as set forth in subparagraphs (a)
 and (c) of the Commercial Computer Software - Restricted
 Rights clause in FAR 52.227-19.
  
 Gaussian, Inc.
 340 Quinnipiac St., Bldg. 40, Wallingford CT 06492
  
  
 ---------------------------------------------------------------
 Warning -- This program may not be used in any manner that
 competes with the business of Gaussian, Inc. or will provide
 assistance to any competitor of Gaussian, Inc.  The licensee
 of this program is prohibited from giving any competitor of
 Gaussian, Inc. access to this program.  By using this program,
 the user acknowledges that Gaussian, Inc. is engaged in the
 business of creating and licensing software in the field of
 computational chemistry and represents and warrants to the
 licensee that it is not a competitor of Gaussian, Inc. and that
 it will not use this program in any manner prohibited above.
 ---------------------------------------------------------------
  

 Cite this work as:
 Gaussian 09, Revision A.02,
 M. J. Frisch, G. W. Trucks, H. B. Schlegel, G. E. Scuseria, 
 M. A. Robb, J. R. Cheeseman, G. Scalmani, V. Barone, B. Mennucci, 
 G. A. Petersson, H. Nakatsuji, M. Caricato, X. Li, H. P. Hratchian, 
 A. F. Izmaylov, J. Bloino, G. Zheng, J. L. Sonnenberg, M. Hada, 
 M. Ehara, K. Toyota, R. Fukuda, J. Hasegawa, M. Ishida, T. Nakajima, 
 Y. Honda, O. Kitao, H. Nakai, T. Vreven, J. A. Montgomery, Jr., 
 J. E. Peralta, F. Ogliaro, M. Bearpark, J. J. Heyd, E. Brothers, 
 K. N. Kudin, V. N. Staroverov, R. Kobayashi, J. Normand, 
 K. Raghavachari, A. Rendell, J. C. Burant, S. S. Iyengar, J. Tomasi, 
 M. Cossi, N. Rega, J. M. Millam, M. Klene, J. E. Knox, J. B. Cross, 
 V. Bakken, C. Adamo, J. Jaramillo, R. Gomperts, R. E. Stratmann, 
 O. Yazyev, A. J. Austin, R. Cammi, C. Pomelli, J. W. Ochterski, 
 R. L. Martin, K. Morokuma, V. G. Zakrzewski, G. A. Voth, 
 P. Salvador, J. J. Dannenberg, S. Dapprich, A. D. Daniels, 
 O. Farkas, J. B. Foresman, J. V. Ortiz, J. Cioslowski, 
 and D. J. Fox, Gaussian, Inc., Wallingford CT, 2009.
 
 ******************************************
 Gaussian 09:  EM64L-G09RevA.02 11-Jun-2009
                16-Sep-2024 
 ******************************************
 %mem=100Mb
 %nprocshared=2
 Will use up to    2 processors via shared memory.
 -------------------------------------------------
 #p B3LYP/6-31+g(d,p) opt scrf=(smd,solvent=water)
 -------------------------------------------------
 1/14=-1,18=20,19=15,26=3,38=1/1,3;
 2/9=110,12=2,17=6,18=5,40=1/2;
 3/5=1,6=6,7=111,11=2,16=1,25=1,30=1,70=32201,71=1,72=1,74=-5/1,2,3;
 4//1;
 5/5=2,38=5,53=1/2;
 6/7=2,8=2,9=2,10=2,28=1/1;
 7//1,2,3,16;
 1/14=-1,18=20,19=15/3(2);
 2/9=110/2;
 99//99;
 2/9=110/2;
 3/5=1,6=6,7=111,11=2,16=1,25=1,30=1,70=32205,71=1,72=1,74=-5/1,2,3;
 4/5=5,16=3/1;
 5/5=2,38=5,53=1/2;
 7//1,2,3,16;
 1/14=-1,18=20,19=15/3(-5);
 2/9=110/2;
 6/7=2,8=2,9=2,10=2,19=2,28=1/1;
 99/9=1/99;
 Leave Link    1 at Mon Sep 16 17:14:43 2024, MaxMem=   13107200 cpu:       0.1
 (Enter /programs/64bit/g09/g09-gfortran/bin/l101.exe)
 -------------
 ho2- solution
 -------------
 Symbolic Z-matrix:
 Charge = -1 Multiplicity = 1
 o
 o                    1    oo2
 h                    1    ho3      2    hoo3
       Variables:
  oo2                   1.26                     
  ho3                   0.95                     
  hoo3                109.471                    
 
     1 tetrahedral angles replaced.
 NAtoms=      3 NQM=      3 NQMF=      0 NMic=      0 NMicF=      0 NTot=      3.
                    Isotopes and Nuclear Properties:
 (Nuclear quadrupole moments (NQMom) in fm**2, nuclear magnetic moments (NMagM)
  in nuclear magnetons)

  Atom         1           2           3
 IAtWgt=          16          16           1
 AtmWgt=  15.9949146  15.9949146   1.0078250
 NucSpn=           0           0           1
 AtZEff=   0.0000000   0.0000000   0.0000000
 NQMom=    0.0000000   0.0000000   0.0000000
 NMagM=    0.0000000   0.0000000   2.7928460
 Leave Link  101 at Mon Sep 16 17:14:44 2024, MaxMem=   13107200 cpu:       0.2
 (Enter /programs/64bit/g09/g09-gfortran/bin/l103.exe)

 GradGradGradGradGradGradGradGradGradGradGradGradGradGradGradGradGradGrad
 Berny optimization.
 Initialization pass.
                           ----------------------------
                           !    Initial Parameters    !
                           ! (Angstroms and Degrees)  !
 --------------------------                            --------------------------
 ! Name  Definition              Value          Derivative Info.                !
 --------------------------------------------------------------------------------
 ! R1    R(1,2)                  1.26           estimate D2E/DX2                !
 ! R2    R(1,3)                  0.95           estimate D2E/DX2                !
 ! A1    A(2,1,3)              109.4712         estimate D2E/DX2                !
 --------------------------------------------------------------------------------
 Trust Radius=3.00D-01 FncErr=1.00D-07 GrdErr=1.00D-06
 Number of steps in this run=  20 maximum allowed number of steps= 100.
 GradGradGradGradGradGradGradGradGradGradGradGradGradGradGradGradGradGrad

 Leave Link  103 at Mon Sep 16 17:14:44 2024, MaxMem=   13107200 cpu:       0.0
 (Enter /programs/64bit/g09/g09-gfortran/bin/l202.exe)
                          Input orientation:                          
 ---------------------------------------------------------------------
 Center     Atomic      Atomic             Coordinates (Angstroms)
 Number     Number       Type             X           Y           Z
 ---------------------------------------------------------------------
      1          8           0        0.000000    0.000000    0.000000
      2          8           0        0.000000    0.000000    1.260000
      3          1           0        0.895669    0.000000   -0.316667
 ---------------------------------------------------------------------
                    Distance matrix (angstroms):
                    1          2          3
     1  O    0.000000
     2  O    1.260000   0.000000
     3  H    0.950000   1.813312   0.000000
 Stoichiometry    HO2(1-)
 Framework group  CS[SG(HO2)]
 Deg. of freedom     3
 Full point group                 CS      NOp   2
 Largest Abelian subgroup         CS      NOp   2
 Largest concise Abelian subgroup C1      NOp   1
                         Standard orientation:                         
 ---------------------------------------------------------------------
 Center     Atomic      Atomic             Coordinates (Angstroms)
 Number     Number       Type             X           Y           Z
 ---------------------------------------------------------------------
      1          8           0        0.052686   -0.574314    0.000000
      2          8           0        0.052686    0.685686    0.000000
      3          1           0       -0.842982   -0.890980   -0.000000
 ---------------------------------------------------------------------
 Rotational constants (GHZ):    691.9549607     37.0898313     35.2029026
 Leave Link  202 at Mon Sep 16 17:14:44 2024, MaxMem=   13107200 cpu:       0.0
 (Enter /programs/64bit/g09/g09-gfortran/bin/l301.exe)
 Standard basis: 6-31+G(d,p) (6D, 7F)
 Ernie: Thresh=  0.10000D-02 Tol=  0.10000D-05 Strict=F.
 There are    32 symmetry adapted basis functions of A'  symmetry.
 There are    11 symmetry adapted basis functions of A"  symmetry.
 Integral buffers will be    131072 words long.
 Raffenetti 2 integral format.
 Two-electron integral symmetry is turned on.
    43 basis functions,    71 primitive gaussians,    43 cartesian basis functions
     9 alpha electrons        9 beta electrons
       nuclear repulsion energy        33.6697044097 Hartrees.
 IExCor=  402 DFT=T Ex+Corr=B3LYP ExCW=0 ScaHFX=  0.200000
 ScaDFX=  0.800000  0.720000  1.000000  0.810000 ScalE2=  1.000000  1.000000
 IRadAn=      0 IRanWt=     -1 IRanGd=            0 ICorTp=0
 NAtoms=    3 NActive=    3 NUniq=    3 SFac= 7.50D-01 NAtFMM=   80 NAOKFM=F Big=F
 ------------------------------------------------------------------------------
 Polarizable Continuum Model (PCM)
 =================================
 Model                : PCM.
 Atomic radii         : SMD-Coulomb.
 Polarization charges : Total charges.
 Charge compensation  : None.
 Solution method      : Matrix inversion.
 Cavity type          : VdW (van der Waals Surface) (Alpha=1.000).
 Cavity algorithm     : GePol (No added spheres)
                        Default sphere list used, NSphG=    3.
                        Lebedev-Laikov grids with approx.  5.0 points / Ang**2.
                        Smoothing algorithm: Karplus/York (Gamma=1.0000).
                        Polarization charges: spherical gaussians, with
                                              point-specific exponents (IZeta= 3).
                        Self-potential: point-specific (ISelfS= 7).
                        Self-field    : sphere-specific E.n sum rule (ISelfD= 2).
 1st derivatives      : Analytical E(r).r(x)/FMM algorithm (CHGder, D1EAlg=3).
                        Cavity 1st derivative terms included.
 Solvent              : Water, Eps=  78.355300 Eps(inf)=   1.777849
 ------------------------------------------------------------------------------
 Spheres list:
 ISph  on   Nord    Re0     Alpha      Xe            Ye            Ze
    1   O      1    1.520   1.000      0.052686     -0.574314      0.000000
    2   O      2    1.520   1.000      0.052686      0.685686      0.000000
    3   H      3    1.200   1.000     -0.842982     -0.890980     -0.000000
 ------------------------------------------------------------------------------
 GePol: Number of generator spheres                  =       3
 GePol: Total number of spheres                      =       3
 GePol: Number of exposed spheres                    =       3 (100.00%)
 GePol: Number of points                             =     269
 GePol: Average weight of points                     =       0.16
 GePol: Minimum weight of points                     =   0.65D-04
 GePol: Maximum weight of points                     =    0.21991
 GePol: Number of points with low weight             =       2
 GePol: Fraction of low-weight points (<1% of avg)   =       0.74%
 GePol: Cavity surface area                          =     44.191 Ang**2
 GePol: Cavity volume                                =     25.394 Ang**3
 ------------------------------------------------------------------------------
 Atomic radii for non-electrostatic terms: SMD-CDS.
 ------------------------------------------------------------------------------
 PCM non-electrostatic energy =         0.0010870065 Hartrees.
 Nuclear repulsion after PCM non-electrostatic terms =       33.6707914161 Hartrees.
 Leave Link  301 at Mon Sep 16 17:14:44 2024, MaxMem=   13107200 cpu:       0.1
 (Enter /programs/64bit/g09/g09-gfortran/bin/l302.exe)
 NPDir=0 NMtPBC=     1 NCelOv=     1 NCel=       1 NClECP=     1 NCelD=      1
         NCelK=      1 NCelE2=     1 NClLst=     1 CellRange=     0.0.
 One-electron integrals computed using PRISM.
 NBasis=    43 RedAO= T  NBF=    32    11
 NBsUse=    43 1.00D-06 NBFU=    32    11
 Precomputing XC quadrature grid using
 IXCGrd= 2 IRadAn=           0 IRanWt=          -1 IRanGd=           0 AccXCQ= 1.00D-10.
 NRdTot=     189 NPtTot=       23968 NUsed=       25343 NTot=       25375
 NSgBfM=    43    43    43    43    43 NAtAll=     3     3.
 Leave Link  302 at Mon Sep 16 17:14:44 2024, MaxMem=   13107200 cpu:       0.3
 (Enter /programs/64bit/g09/g09-gfortran/bin/l303.exe)
 DipDrv:  MaxL=1.
 Leave Link  303 at Mon Sep 16 17:14:44 2024, MaxMem=   13107200 cpu:       0.0
 (Enter /programs/64bit/g09/g09-gfortran/bin/l401.exe)
 Harris functional with IExCor=  402 diagonalized for initial guess.
 ExpMin= 8.45D-02 ExpMax= 5.48D+03 ExpMxC= 8.25D+02 IAcc=2 IRadAn=         0 AccDes= 0.00D+00
 HarFok:  IExCor=  402 AccDes= 0.00D+00 IRadAn=         0 IDoV= 1
 ScaDFX=  1.000000  1.000000  1.000000  1.000000
 FoFCou: FMM=F IPFlag=           0 FMFlag=      100000 FMFlg1=           0
         NFxFlg=           0 DoJE=T BraDBF=F KetDBF=T FulRan=T
         Omega=  0.000000  0.000000  1.000000  0.000000  0.000000 ICntrl=     500 IOpCl=  0
         NMat0=    1 NMatS0=    1 NMatT0=    0 NMatD0=    1 NMtDS0=    0 NMtDT0=    0
         I1Cent=           4 NGrid=           0.
 Petite list used in FoFCou.
 Harris En= -151.136862577951    
 Initial guess orbital symmetries:
       Occupied  (A') (A') (A') (A') (A') (A') (A") (A') (A")
       Virtual   (A') (A') (A') (A") (A') (A') (A') (A") (A') (A')
                 (A') (A') (A") (A') (A') (A") (A') (A') (A") (A')
                 (A") (A') (A') (A") (A') (A') (A') (A") (A") (A')
                 (A') (A') (A') (A')
 The electronic state of the initial guess is 1-A'.
 Leave Link  401 at Mon Sep 16 17:14:45 2024, MaxMem=   13107200 cpu:       0.6
 (Enter /programs/64bit/g09/g09-gfortran/bin/l502.exe)
 Closed shell SCF:
 Requested convergence on RMS density matrix=1.00D-08 within 128 cycles.
 Requested convergence on MAX density matrix=1.00D-06.
 Requested convergence on             energy=1.00D-06.
 No special actions if energy rises.
 Using DIIS extrapolation, IDIIS=  1040.
 Integral symmetry usage will be decided dynamically.
        25303 words used for storage of precomputed grid.
 Keep R1 ints in memory in canonical form, NReq=3451071.
 IEnd=       49587 IEndB=       49587 NGot=    13107200 MDV=    12628187
 LenX=    12628187 LenY=    12625897
 Symmetry not used in FoFDir.
 MinBra= 0 MaxBra= 2 Meth= 1.
 IRaf=       0 NMat=   1 IRICut=       1 DoRegI=T DoRafI=F ISym2E= 0 JSym2E=0.

 Cycle   1  Pass 1  IDiag  1:
 E= -150.938002549815    
 DIIS: error= 4.71D-02 at cycle   1 NSaved=   1.
 NSaved= 1 IEnMin= 1 EnMin= -150.938002549815     IErMin= 1 ErrMin= 4.71D-02
 ErrMax= 4.71D-02 EMaxC= 1.00D-01 BMatC= 1.35D-01 BMatP= 1.35D-01
 IDIUse=3 WtCom= 5.29D-01 WtEn= 4.71D-01
 Coeff-Com:  0.100D+01
 Coeff-En:   0.100D+01
 Coeff:      0.100D+01
 Gap=     0.085 Goal=   None    Shift=    0.000
 GapD=    0.085 DampG=0.500 DampE=0.500 DampFc=0.2500 IDamp=-1.
 Damping current iteration by 2.50D-01
 RMSDP=3.23D-02 MaxDP=4.19D-01              OVMax= 3.46D-01

 Cycle   2  Pass 1  IDiag  1:
 E= -150.976785534961     Delta-E=       -0.038782985147 Rises=F Damp=T
 DIIS: error= 1.61D-02 at cycle   2 NSaved=   2.
 NSaved= 2 IEnMin= 2 EnMin= -150.976785534961     IErMin= 2 ErrMin= 1.61D-02
 ErrMax= 1.61D-02 EMaxC= 1.00D-01 BMatC= 1.52D-02 BMatP= 1.35D-01
 IDIUse=3 WtCom= 8.39D-01 WtEn= 1.61D-01
 Coeff-Com: -0.388D+00 0.139D+01
 Coeff-En:   0.000D+00 0.100D+01
 Coeff:     -0.326D+00 0.133D+01
 Gap=     0.208 Goal=   None    Shift=    0.000
 RMSDP=5.20D-03 MaxDP=4.22D-02 DE=-3.88D-02 OVMax= 2.30D-01

 Cycle   3  Pass 1  IDiag  1:
 E= -151.054876194748     Delta-E=       -0.078090659786 Rises=F Damp=F
 DIIS: error= 5.38D-03 at cycle   3 NSaved=   3.
 NSaved= 3 IEnMin= 3 EnMin= -151.054876194748     IErMin= 3 ErrMin= 5.38D-03
 ErrMax= 5.38D-03 EMaxC= 1.00D-01 BMatC= 2.59D-03 BMatP= 1.52D-02
 IDIUse=3 WtCom= 9.46D-01 WtEn= 5.38D-02
 Coeff-Com: -0.182D+00 0.569D+00 0.613D+00
 Coeff-En:   0.000D+00 0.000D+00 0.100D+01
 Coeff:     -0.173D+00 0.539D+00 0.634D+00
 Gap=     0.225 Goal=   None    Shift=    0.000
 RMSDP=1.01D-03 MaxDP=1.41D-02 DE=-7.81D-02 OVMax= 1.41D-02

 Cycle   4  Pass 1  IDiag  1:
 E= -151.056018573843     Delta-E=       -0.001142379096 Rises=F Damp=F
 DIIS: error= 3.67D-03 at cycle   4 NSaved=   4.
 NSaved= 4 IEnMin= 4 EnMin= -151.056018573843     IErMin= 4 ErrMin= 3.67D-03
 ErrMax= 3.67D-03 EMaxC= 1.00D-01 BMatC= 8.81D-04 BMatP= 2.59D-03
 IDIUse=3 WtCom= 9.63D-01 WtEn= 3.67D-02
 Coeff-Com: -0.814D-01 0.200D+00 0.370D+00 0.511D+00
 Coeff-En:   0.000D+00 0.000D+00 0.240D+00 0.760D+00
 Coeff:     -0.784D-01 0.193D+00 0.366D+00 0.520D+00
 Gap=     0.223 Goal=   None    Shift=    0.000
 RMSDP=5.67D-04 MaxDP=7.04D-03 DE=-1.14D-03 OVMax= 6.51D-03

 Cycle   5  Pass 1  IDiag  1:
 E= -151.056620356222     Delta-E=       -0.000601782379 Rises=F Damp=F
 DIIS: error= 5.84D-04 at cycle   5 NSaved=   5.
 NSaved= 5 IEnMin= 5 EnMin= -151.056620356222     IErMin= 5 ErrMin= 5.84D-04
 ErrMax= 5.84D-04 EMaxC= 1.00D-01 BMatC= 2.56D-05 BMatP= 8.81D-04
 IDIUse=3 WtCom= 9.94D-01 WtEn= 5.84D-03
 Coeff-Com: -0.111D-01 0.582D-02 0.131D-01 0.148D+00 0.844D+00
 Coeff-En:   0.000D+00 0.000D+00 0.000D+00 0.000D+00 0.100D+01
 Coeff:     -0.111D-01 0.579D-02 0.131D-01 0.147D+00 0.845D+00
 Gap=     0.223 Goal=   None    Shift=    0.000
 RMSDP=9.69D-05 MaxDP=9.80D-04 DE=-6.02D-04 OVMax= 1.19D-03

 Cycle   6  Pass 1  IDiag  1:
 E= -151.056638633761     Delta-E=       -0.000018277539 Rises=F Damp=F
 DIIS: error= 1.25D-05 at cycle   6 NSaved=   6.
 NSaved= 6 IEnMin= 6 EnMin= -151.056638633761     IErMin= 6 ErrMin= 1.25D-05
 ErrMax= 1.25D-05 EMaxC= 1.00D-01 BMatC= 1.36D-08 BMatP= 2.56D-05
 IDIUse=1 WtCom= 1.00D+00 WtEn= 0.00D+00
 Coeff-Com: -0.294D-03 0.422D-03-0.163D-02 0.289D-02 0.262D-01 0.972D+00
 Coeff:     -0.294D-03 0.422D-03-0.163D-02 0.289D-02 0.262D-01 0.972D+00
 Gap=     0.223 Goal=   None    Shift=    0.000
 RMSDP=7.85D-06 MaxDP=8.02D-05 DE=-1.83D-05 OVMax= 1.01D-04

 Cycle   7  Pass 1  IDiag  1:
 E= -151.056638652959     Delta-E=       -0.000000019198 Rises=F Damp=F
 DIIS: error= 6.85D-06 at cycle   7 NSaved=   7.
 NSaved= 7 IEnMin= 7 EnMin= -151.056638652959     IErMin= 7 ErrMin= 6.85D-06
 ErrMax= 6.85D-06 EMaxC= 1.00D-01 BMatC= 3.84D-09 BMatP= 1.36D-08
 IDIUse=1 WtCom= 1.00D+00 WtEn= 0.00D+00
 Coeff-Com: -0.509D-04 0.167D-03-0.680D-03-0.139D-02-0.970D-02 0.597D-01
 Coeff-Com:  0.952D+00
 Coeff:     -0.509D-04 0.167D-03-0.680D-03-0.139D-02-0.970D-02 0.597D-01
 Coeff:      0.952D+00
 Gap=     0.223 Goal=   None    Shift=    0.000
 RMSDP=1.34D-06 MaxDP=1.15D-05 DE=-1.92D-08 OVMax= 1.47D-05

 Cycle   8  Pass 1  IDiag  1:
 E= -151.056638655955     Delta-E=       -0.000000002996 Rises=F Damp=F
 DIIS: error= 1.75D-06 at cycle   8 NSaved=   8.
 NSaved= 8 IEnMin= 8 EnMin= -151.056638655955     IErMin= 8 ErrMin= 1.75D-06
 ErrMax= 1.75D-06 EMaxC= 1.00D-01 BMatC= 2.45D-10 BMatP= 3.84D-09
 IDIUse=1 WtCom= 1.00D+00 WtEn= 0.00D+00
 Coeff-Com: -0.367D-04 0.486D-04-0.964D-04-0.241D-03-0.238D-02-0.347D-01
 Coeff-Com:  0.963D-01 0.941D+00
 Coeff:     -0.367D-04 0.486D-04-0.964D-04-0.241D-03-0.238D-02-0.347D-01
 Coeff:      0.963D-01 0.941D+00
 Gap=     0.223 Goal=   None    Shift=    0.000
 RMSDP=3.99D-07 MaxDP=3.18D-06 DE=-3.00D-09 OVMax= 4.70D-06

 Cycle   9  Pass 1  IDiag  1:
 E= -151.056638656158     Delta-E=       -0.000000000203 Rises=F Damp=F
 DIIS: error= 2.04D-07 at cycle   9 NSaved=   9.
 NSaved= 9 IEnMin= 9 EnMin= -151.056638656158     IErMin= 9 ErrMin= 2.04D-07
 ErrMax= 2.04D-07 EMaxC= 1.00D-01 BMatC= 2.96D-12 BMatP= 2.45D-10
 IDIUse=1 WtCom= 1.00D+00 WtEn= 0.00D+00
 Coeff-Com: -0.611D-05 0.738D-05-0.278D-05-0.103D-04-0.127D-03-0.253D-02
 Coeff-Com: -0.940D-02 0.610D-01 0.951D+00
 Coeff:     -0.611D-05 0.738D-05-0.278D-05-0.103D-04-0.127D-03-0.253D-02
 Coeff:     -0.940D-02 0.610D-01 0.951D+00
 Gap=     0.223 Goal=   None    Shift=    0.000
 RMSDP=4.49D-08 MaxDP=3.83D-07 DE=-2.03D-10 OVMax= 4.90D-07

 Cycle  10  Pass 1  IDiag  1:
 E= -151.056638656161     Delta-E=       -0.000000000003 Rises=F Damp=F
 DIIS: error= 2.61D-08 at cycle  10 NSaved=  10.
 NSaved=10 IEnMin=10 EnMin= -151.056638656161     IErMin=10 ErrMin= 2.61D-08
 ErrMax= 2.61D-08 EMaxC= 1.00D-01 BMatC= 4.81D-14 BMatP= 2.96D-12
 IDIUse=1 WtCom= 1.00D+00 WtEn= 0.00D+00
 Coeff-Com: -0.126D-06 0.225D-06 0.142D-05 0.385D-05 0.340D-04 0.802D-03
 Coeff-Com: -0.325D-02-0.195D-01 0.783D-01 0.944D+00
 Coeff:     -0.126D-06 0.225D-06 0.142D-05 0.385D-05 0.340D-04 0.802D-03
 Coeff:     -0.325D-02-0.195D-01 0.783D-01 0.944D+00
 Gap=     0.223 Goal=   None    Shift=    0.000
 RMSDP=6.72D-09 MaxDP=5.37D-08 DE=-2.59D-12 OVMax= 8.09D-08

 Error on total polarization charges =  0.07107
 SCF Done:  E(RB3LYP) =  -151.056638656     A.U. after   10 cycles
             Convg  =    0.6722D-08             -V/T =  2.0058
 KE= 1.501894677102D+02 PE=-4.304138049209D+02 EE= 9.549690713839D+01
 SMD-CDS (non-electrostatic) energy             (kcal/mol) =       0.68
 (included in total energy above)
 Leave Link  502 at Mon Sep 16 17:14:51 2024, MaxMem=   13107200 cpu:       5.3
 (Enter /programs/64bit/g09/g09-gfortran/bin/l601.exe)
 Copying SCF densities to generalized density rwf, IOpCl= 0 IROHF=0.

 **********************************************************************

            Population analysis using the SCF density.

 **********************************************************************

 Orbital symmetries:
       Occupied  (A') (A') (A') (A') (A') (A') (A") (A') (A")
       Virtual   (A') (A') (A') (A") (A') (A') (A") (A') (A') (A')
                 (A') (A') (A") (A') (A') (A") (A') (A') (A") (A')
                 (A") (A') (A') (A") (A') (A') (A') (A") (A") (A')
                 (A') (A') (A') (A')
 The electronic state is 1-A'.
 Alpha  occ. eigenvalues --  -19.16086 -19.08067  -1.12996  -0.75804  -0.48375
 Alpha  occ. eigenvalues --   -0.40123  -0.39035  -0.19162  -0.14970
 Alpha virt. eigenvalues --    0.07300   0.09312   0.13826   0.14842   0.19633
 Alpha virt. eigenvalues --    0.20741   0.21542   0.28309   0.32203   0.33740
 Alpha virt. eigenvalues --    0.99046   1.04240   1.13709   1.14606   1.16065
 Alpha virt. eigenvalues --    1.21273   1.22082   1.26604   1.52466   1.54219
 Alpha virt. eigenvalues --    1.61356   1.65486   1.87239   1.91806   2.26193
 Alpha virt. eigenvalues --    2.38348   2.58900   2.62547   2.71304   3.01276
 Alpha virt. eigenvalues --    3.04341   3.47213   3.82158   4.22838
          Condensed to atoms (all electrons):
              1          2          3
     1  O    8.620527  -0.428147   0.238868
     2  O   -0.428147   9.420629  -0.054417
     3  H    0.238868  -0.054417   0.446237
 Mulliken atomic charges:
              1
     1  O   -0.431247
     2  O   -0.938064
     3  H    0.369312
 Sum of Mulliken atomic charges =  -1.00000
 Mulliken charges with hydrogens summed into heavy atoms:
              1
     1  O   -0.061936
     2  O   -0.938064
 Sum of Mulliken charges with hydrogens summed into heavy atoms =  -1.00000
 Electronic spatial extent (au):  <R**2>=             61.9072
 Charge=             -1.0000 electrons
 Dipole moment (field-independent basis, Debye):
    X=             -2.2701    Y=             -3.4757    Z=             -0.0000  Tot=              4.1513
 Quadrupole moment (field-independent basis, Debye-Ang):
   XX=            -12.8526   YY=            -17.2270   ZZ=            -15.0076
   XY=              1.7884   XZ=             -0.0000   YZ=              0.0000
 Traceless Quadrupole moment (field-independent basis, Debye-Ang):
   XX=              2.1765   YY=             -2.1979   ZZ=              0.0215
   XY=              1.7884   XZ=             -0.0000   YZ=              0.0000
 Octapole moment (field-independent basis, Debye-Ang**2):
  XXX=             -2.8597  YYY=             -6.1353  ZZZ=             -0.0000  XYY=             -2.3887
  XXY=             -3.3627  XXZ=             -0.0000  XZZ=             -0.5918  YZZ=             -1.7993
  YYZ=             -0.0000  XYZ=             -0.0000
 Hexadecapole moment (field-independent basis, Debye-Ang**3):
 XXXX=            -15.8984 YYYY=            -51.7925 ZZZZ=            -17.0773 XXXY=              0.3100
 XXXZ=             -0.0000 YYYX=              1.0884 YYYZ=              0.0000 ZZZX=             -0.0000
 ZZZY=             -0.0000 XXYY=            -11.8294 XXZZ=             -5.7004 YYZZ=            -13.5950
 XXYZ=              0.0000 YYXZ=             -0.0000 ZZXY=             -0.1931
 N-N= 3.367079141614D+01 E-N=-4.304138032085D+02  KE= 1.501894677102D+02
 Symmetry A'   KE= 1.410518422937D+02
 Symmetry A"   KE= 9.137625416516D+00
 No NMR shielding tensors so no spin-rotation constants.
 Leave Link  601 at Mon Sep 16 17:14:51 2024, MaxMem=   13107200 cpu:       0.3
 (Enter /programs/64bit/g09/g09-gfortran/bin/l701.exe)
 Compute integral first derivatives.
 ... and contract with generalized density number  0.
 D1PCM: PCM CHGder 1st derivatives, ID1Alg=3 FixD1E=F DoIter=F DoCFld=F I1PDM=0.
 GePol: Maximum number of non-zero 1st derivatives   =     136
 Leave Link  701 at Mon Sep 16 17:14:52 2024, MaxMem=   13107200 cpu:       0.8
 (Enter /programs/64bit/g09/g09-gfortran/bin/l702.exe)
 L702 exits ... SP integral derivatives will be done elsewhere.
 Leave Link  702 at Mon Sep 16 17:14:52 2024, MaxMem=   13107200 cpu:       0.0
 (Enter /programs/64bit/g09/g09-gfortran/bin/l703.exe)
 Compute integral first derivatives, UseDBF=F ICtDFT=           0.
 Integral derivatives from FoFDir, PRISM(SPDF).
 Calling FoFJK, ICntrl=      2127 FMM=F ISym2X=1 I1Cent= 0 IOpClX= 0 NMat=1 NMatS=1 NMatT=0.
 FoFCou: FMM=F IPFlag=           0 FMFlag=      100000 FMFlg1=         800
         NFxFlg=           0 DoJE=F BraDBF=F KetDBF=F FulRan=T
         Omega=  0.000000  0.000000  1.000000  0.000000  0.000000 ICntrl=    2127 IOpCl=  0
         NMat0=    1 NMatS0=    1 NMatT0=    0 NMatD0=    1 NMtDS0=    0 NMtDT0=    0
         I1Cent=           0 NGrid=           0.
 Petite list used in FoFCou.
 Leave Link  703 at Mon Sep 16 17:14:54 2024, MaxMem=   13107200 cpu:       1.5
 (Enter /programs/64bit/g09/g09-gfortran/bin/l716.exe)
 Dipole        =-8.93121378D-01-1.36743358D+00-2.02225666D-30
 ***** Axes restored to original set *****
 -------------------------------------------------------------------
 Center     Atomic                   Forces (Hartrees/Bohr)
 Number     Number              X              Y              Z
 -------------------------------------------------------------------
      1        8          -0.021500646   -0.000000000   -0.198589989
      2        8          -0.001031267    0.000000000    0.207799578
      3        1           0.022531913    0.000000000   -0.009209589
 -------------------------------------------------------------------
 Cartesian Forces:  Max     0.207799578 RMS     0.096421813
 Leave Link  716 at Mon Sep 16 17:14:54 2024, MaxMem=   13107200 cpu:       0.1
 (Enter /programs/64bit/g09/g09-gfortran/bin/l103.exe)

 GradGradGradGradGradGradGradGradGradGradGradGradGradGradGradGradGradGrad
 Berny optimization.
 Internal  Forces:  Max     0.207828373 RMS     0.120812412
 Search for a local minimum.
 Step number   1 out of a maximum of   20
 All quantities printed in internal units (Hartrees-Bohrs-Radians)
 RMS Force = .12081D+00 SwitMx=.10000D-02 MixMth= 1
 Mixed Optimization -- RFO/linear search
 Second derivative matrix not updated -- first step.
 The second derivative matrix:
                          R1        R2        A1
           R1           0.79649
           R2           0.00000   0.57681
           A1           0.00000   0.00000   0.16000
     Eigenvalues ---    0.16000   0.57681   0.79649
 RFO step:  Lambda=-5.18739722D-02 EMin= 1.60000000D-01
 Linear search not attempted -- first point.
 Iteration  1 RMS(Cart)=  0.10019650 RMS(Int)=  0.02594262
 Iteration  2 RMS(Cart)=  0.02080424 RMS(Int)=  0.00003725
 Iteration  3 RMS(Cart)=  0.00004050 RMS(Int)=  0.00000000
 Iteration  4 RMS(Cart)=  0.00000000 RMS(Int)=  0.00000000
 ClnCor:  largest displacement from symmetrization is 3.45D-15 for atom     3.
 Variable       Old X    -DE/DX   Delta X   Delta X   Delta X     New X
                                 (Linear)    (Quad)   (Total)
    R1        2.38105   0.20783   0.00000   0.24498   0.24498   2.62603
    R2        1.79524   0.02427   0.00000   0.03861   0.03861   1.83385
    A1        1.91063   0.00224   0.00000   0.01056   0.01056   1.92120
         Item               Value     Threshold  Converged?
 Maximum Force            0.207828     0.000450     NO 
 RMS     Force            0.120812     0.000300     NO 
 Maximum Displacement     0.162636     0.001800     NO 
 RMS     Displacement     0.120776     0.001200     NO 
 Predicted change in Energy=-2.753512D-02
 GradGradGradGradGradGradGradGradGradGradGradGradGradGradGradGradGradGrad

 Leave Link  103 at Mon Sep 16 17:14:54 2024, MaxMem=   13107200 cpu:       0.0
 (Enter /programs/64bit/g09/g09-gfortran/bin/l202.exe)
                          Input orientation:                          
 ---------------------------------------------------------------------
 Center     Atomic      Atomic             Coordinates (Angstroms)
 Number     Number       Type             X           Y           Z
 ---------------------------------------------------------------------
      1          8           0        0.001355   -0.000000   -0.043331
      2          8           0       -0.024561    0.000000    1.346064
      3          1           0        0.918874    0.000000   -0.359400
 ---------------------------------------------------------------------
                    Distance matrix (angstroms):
                    1          2          3
     1  O    0.000000
     2  O    1.389636   0.000000
     3  H    0.970433   1.949018   0.000000
 Stoichiometry    HO2(1-)
 Framework group  CS[SG(HO2)]
 Deg. of freedom     3
 Full point group                 CS      NOp   2
 Largest Abelian subgroup         CS      NOp   2
 Largest concise Abelian subgroup C1      NOp   1
                         Standard orientation:                         
 ---------------------------------------------------------------------
 Center     Atomic      Atomic             Coordinates (Angstroms)
 Number     Number       Type             X           Y           Z
 ---------------------------------------------------------------------
      1          8           0        0.053616   -0.634351    0.000000
      2          8           0        0.053616    0.755285    0.000000
      3          1           0       -0.857849   -0.967476   -0.000000
 ---------------------------------------------------------------------
 Rotational constants (GHZ):    666.3924193     30.5743346     29.2331086
 Leave Link  202 at Mon Sep 16 17:14:54 2024, MaxMem=   13107200 cpu:       0.0
 (Enter /programs/64bit/g09/g09-gfortran/bin/l301.exe)
 Standard basis: 6-31+G(d,p) (6D, 7F)
 Ernie: Thresh=  0.10000D-02 Tol=  0.10000D-05 Strict=F.
 There are    32 symmetry adapted basis functions of A'  symmetry.
 There are    11 symmetry adapted basis functions of A"  symmetry.
 Integral buffers will be    131072 words long.
 Raffenetti 2 integral format.
 Two-electron integral symmetry is turned on.
    43 basis functions,    71 primitive gaussians,    43 cartesian basis functions
     9 alpha electrons        9 beta electrons
       nuclear repulsion energy        30.9058572114 Hartrees.
 IExCor=  402 DFT=T Ex+Corr=B3LYP ExCW=0 ScaHFX=  0.200000
 ScaDFX=  0.800000  0.720000  1.000000  0.810000 ScalE2=  1.000000  1.000000
 IRadAn=      0 IRanWt=     -1 IRanGd=            0 ICorTp=0
 NAtoms=    3 NActive=    3 NUniq=    3 SFac= 7.50D-01 NAtFMM=   80 NAOKFM=F Big=F
 ------------------------------------------------------------------------------
 Polarizable Continuum Model (PCM)
 =================================
 Model                : PCM.
 Atomic radii         : SMD-Coulomb.
 Polarization charges : Total charges.
 Charge compensation  : None.
 Solution method      : Matrix inversion.
 Cavity type          : VdW (van der Waals Surface) (Alpha=1.000).
 Cavity algorithm     : GePol (No added spheres)
                        Default sphere list used, NSphG=    3.
                        Lebedev-Laikov grids with approx.  5.0 points / Ang**2.
                        Smoothing algorithm: Karplus/York (Gamma=1.0000).
                        Polarization charges: spherical gaussians, with
                                              point-specific exponents (IZeta= 3).
                        Self-potential: point-specific (ISelfS= 7).
                        Self-field    : sphere-specific E.n sum rule (ISelfD= 2).
 1st derivatives      : Analytical E(r).r(x)/FMM algorithm (CHGder, D1EAlg=3).
                        Cavity 1st derivative terms included.
 Solvent              : Water, Eps=  78.355300 Eps(inf)=   1.777849
 ------------------------------------------------------------------------------
 Spheres list:
 ISph  on   Nord    Re0     Alpha      Xe            Ye            Ze
    1   O      1    1.520   1.000      0.053616     -0.634351      0.000000
    2   O      2    1.520   1.000      0.053616      0.755285      0.000000
    3   H      3    1.200   1.000     -0.857849     -0.967476     -0.000000
 ------------------------------------------------------------------------------
 GePol: Number of generator spheres                  =       3
 GePol: Total number of spheres                      =       3
 GePol: Number of exposed spheres                    =       3 (100.00%)
 GePol: Number of points                             =     269
 GePol: Average weight of points                     =       0.17
 GePol: Minimum weight of points                     =   0.55D-02
 GePol: Maximum weight of points                     =    0.21991
 GePol: Number of points with low weight             =       0
 GePol: Fraction of low-weight points (<1% of avg)   =       0.00%
 GePol: Cavity surface area                          =     46.368 Ang**2
 GePol: Cavity volume                                =     26.557 Ang**3
 ------------------------------------------------------------------------------
 Atomic radii for non-electrostatic terms: SMD-CDS.
 ------------------------------------------------------------------------------
 PCM non-electrostatic energy =         0.0011071656 Hartrees.
 Nuclear repulsion after PCM non-electrostatic terms =       30.9069643769 Hartrees.
 Leave Link  301 at Mon Sep 16 17:14:54 2024, MaxMem=   13107200 cpu:       0.1
 (Enter /programs/64bit/g09/g09-gfortran/bin/l302.exe)
 NPDir=0 NMtPBC=     1 NCelOv=     1 NCel=       1 NClECP=     1 NCelD=      1
         NCelK=      1 NCelE2=     1 NClLst=     1 CellRange=     0.0.
 One-electron integrals computed using PRISM.
 NBasis=    43 RedAO= T  NBF=    32    11
 NBsUse=    43 1.00D-06 NBFU=    32    11
 Precomputing XC quadrature grid using
 IXCGrd= 2 IRadAn=           0 IRanWt=          -1 IRanGd=           0 AccXCQ= 1.00D-10.
 NRdTot=     189 NPtTot=       23968 NUsed=       25343 NTot=       25375
 NSgBfM=    43    43    43    43    43 NAtAll=     3     3.
 Leave Link  302 at Mon Sep 16 17:14:54 2024, MaxMem=   13107200 cpu:       0.3
 (Enter /programs/64bit/g09/g09-gfortran/bin/l303.exe)
 DipDrv:  MaxL=1.
 Leave Link  303 at Mon Sep 16 17:14:54 2024, MaxMem=   13107200 cpu:       0.0
 (Enter /programs/64bit/g09/g09-gfortran/bin/l401.exe)
 Initial guess read from the read-write file.
 B after Tr=     0.000000    0.000000    0.000000
         Rot=    1.000000    0.000000    0.000000    0.000000 Ang=   0.00 deg.
 Guess basis will be translated and rotated to current coordinates.
 Initial guess orbital symmetries:
       Occupied  (A') (A') (A') (A') (A') (A') (A") (A') (A")
       Virtual   (A') (A') (A') (A") (A') (A') (A") (A') (A') (A')
                 (A') (A') (A") (A') (A') (A") (A') (A') (A") (A')
                 (A") (A') (A') (A") (A') (A') (A') (A") (A") (A')
                 (A') (A') (A') (A')
 The electronic state of the initial guess is 1-A'.
 Generating alternative initial guess.
 Harris functional with IExCor=  402 diagonalized for initial guess.
 ExpMin= 8.45D-02 ExpMax= 5.48D+03 ExpMxC= 8.25D+02 IAcc=2 IRadAn=         0 AccDes= 0.00D+00
 HarFok:  IExCor=  402 AccDes= 0.00D+00 IRadAn=         0 IDoV= 1
 ScaDFX=  1.000000  1.000000  1.000000  1.000000
 FoFCou: FMM=F IPFlag=           0 FMFlag=      100000 FMFlg1=           0
         NFxFlg=           0 DoJE=T BraDBF=F KetDBF=T FulRan=T
         Omega=  0.000000  0.000000  1.000000  0.000000  0.000000 ICntrl=     500 IOpCl=  0
         NMat0=    1 NMatS0=    1 NMatT0=    0 NMatD0=    1 NMtDS0=    0 NMtDT0=    0
         I1Cent=           4 NGrid=           0.
 Petite list used in FoFCou.
 Harris En= -151.160564235239    
 Leave Link  401 at Mon Sep 16 17:14:55 2024, MaxMem=   13107200 cpu:       0.7
 (Enter /programs/64bit/g09/g09-gfortran/bin/l502.exe)
 Closed shell SCF:
 Requested convergence on RMS density matrix=1.00D-08 within 128 cycles.
 Requested convergence on MAX density matrix=1.00D-06.
 Requested convergence on             energy=1.00D-06.
 No special actions if energy rises.
 Using DIIS extrapolation, IDIIS=  1040.
 Integral symmetry usage will be decided dynamically.
        25303 words used for storage of precomputed grid.
 Keep R1 ints in memory in canonical form, NReq=3450951.
 IEnd=       49587 IEndB=       49587 NGot=    13107200 MDV=    12628187
 LenX=    12628187 LenY=    12625897
 Symmetry not used in FoFDir.
 MinBra= 0 MaxBra= 2 Meth= 1.
 IRaf=       0 NMat=   1 IRICut=       1 DoRegI=T DoRafI=F ISym2E= 0 JSym2E=0.

 Cycle   1  Pass 1  IDiag  1:
 E= -151.076050908705    
 DIIS: error= 1.14D-02 at cycle   1 NSaved=   1.
 NSaved= 1 IEnMin= 1 EnMin= -151.076050908705     IErMin= 1 ErrMin= 1.14D-02
 ErrMax= 1.14D-02 EMaxC= 1.00D-01 BMatC= 7.58D-03 BMatP= 7.58D-03
 IDIUse=3 WtCom= 8.86D-01 WtEn= 1.14D-01
 Coeff-Com:  0.100D+01
 Coeff-En:   0.100D+01
 Coeff:      0.100D+01
 Recover alternate guess density for next cycle.
 RMSDP=1.09D-02 MaxDP=9.14D-02              OVMax= 0.00D+00

 Cycle   2  Pass 1  IDiag  1:
 E= -150.989978889191     Delta-E=        0.086072019515 Rises=F Damp=F
 Switch densities from cycles 1 and 2 for lowest energy.
 DIIS: error= 4.93D-02 at cycle   2 NSaved=   2.
 NSaved= 2 IEnMin= 1 EnMin= -151.076050908705     IErMin= 1 ErrMin= 1.14D-02
 ErrMax= 4.93D-02 EMaxC= 1.00D+00 BMatC= 1.10D-01 BMatP= 7.58D-03
 IDIUse=1 WtCom= 1.00D+00 WtEn= 0.00D+00
 Coeff-Com:  0.946D+00 0.545D-01
 Coeff:      0.946D+00 0.545D-01
 Gap=     0.324 Goal=   None    Shift=    0.000
 RMSDP=2.87D-03 MaxDP=2.37D-02 DE= 8.61D-02 OVMax= 3.36D-02

 Cycle   3  Pass 1  IDiag  1:
 E= -151.087131918537     Delta-E=       -0.097153029347 Rises=F Damp=F
 DIIS: error= 2.72D-03 at cycle   3 NSaved=   3.
 NSaved= 3 IEnMin= 3 EnMin= -151.087131918537     IErMin= 3 ErrMin= 2.72D-03
 ErrMax= 2.72D-03 EMaxC= 1.00D+00 BMatC= 4.86D-04 BMatP= 7.58D-03
 IDIUse=1 WtCom= 1.00D+00 WtEn= 0.00D+00
 Coeff-Com: -0.514D-01 0.606D-01 0.991D+00
 Coeff:     -0.514D-01 0.606D-01 0.991D+00
 Gap=     0.236 Goal=   None    Shift=    0.000
 RMSDP=7.09D-04 MaxDP=6.49D-03 DE=-9.72D-02 OVMax= 9.00D-03

 Cycle   4  Pass 1  IDiag  1:
 E= -151.087517379040     Delta-E=       -0.000385460503 Rises=F Damp=F
 DIIS: error= 9.64D-04 at cycle   4 NSaved=   4.
 NSaved= 4 IEnMin= 4 EnMin= -151.087517379040     IErMin= 4 ErrMin= 9.64D-04
 ErrMax= 9.64D-04 EMaxC= 1.00D+00 BMatC= 7.38D-05 BMatP= 4.86D-04
 IDIUse=1 WtCom= 1.00D+00 WtEn= 0.00D+00
 Coeff-Com: -0.278D-01 0.312D-01 0.518D+00 0.479D+00
 Coeff:     -0.278D-01 0.312D-01 0.518D+00 0.479D+00
 Gap=     0.236 Goal=   None    Shift=    0.000
 RMSDP=1.63D-04 MaxDP=2.32D-03 DE=-3.85D-04 OVMax= 2.85D-03

 Cycle   5  Pass 1  IDiag  1:
 E= -151.087560243921     Delta-E=       -0.000042864881 Rises=F Damp=F
 DIIS: error= 4.08D-04 at cycle   5 NSaved=   5.
 NSaved= 5 IEnMin= 5 EnMin= -151.087560243921     IErMin= 5 ErrMin= 4.08D-04
 ErrMax= 4.08D-04 EMaxC= 1.00D+00 BMatC= 1.31D-05 BMatP= 7.38D-05
 IDIUse=1 WtCom= 1.00D+00 WtEn= 0.00D+00
 Coeff-Com: -0.260D-02 0.229D-02 0.167D-01 0.291D+00 0.693D+00
 Coeff:     -0.260D-02 0.229D-02 0.167D-01 0.291D+00 0.693D+00
 Gap=     0.236 Goal=   None    Shift=    0.000
 RMSDP=5.00D-05 MaxDP=6.22D-04 DE=-4.29D-05 OVMax= 8.43D-04

 Cycle   6  Pass 1  IDiag  1:
 E= -151.087569427888     Delta-E=       -0.000009183967 Rises=F Damp=F
 DIIS: error= 2.84D-05 at cycle   6 NSaved=   6.
 NSaved= 6 IEnMin= 6 EnMin= -151.087569427888     IErMin= 6 ErrMin= 2.84D-05
 ErrMax= 2.84D-05 EMaxC= 1.00D+00 BMatC= 6.95D-08 BMatP= 1.31D-05
 IDIUse=1 WtCom= 1.00D+00 WtEn= 0.00D+00
 Coeff-Com:  0.349D-03-0.159D-04-0.116D-01 0.579D-01 0.163D+00 0.790D+00
 Coeff:      0.349D-03-0.159D-04-0.116D-01 0.579D-01 0.163D+00 0.790D+00
 Gap=     0.236 Goal=   None    Shift=    0.000
 RMSDP=6.08D-06 MaxDP=5.59D-05 DE=-9.18D-06 OVMax= 7.92D-05

 Cycle   7  Pass 1  IDiag  1:
 E= -151.087569486499     Delta-E=       -0.000000058611 Rises=F Damp=F
 DIIS: error= 4.45D-06 at cycle   7 NSaved=   7.
 NSaved= 7 IEnMin= 7 EnMin= -151.087569486499     IErMin= 7 ErrMin= 4.45D-06
 ErrMax= 4.45D-06 EMaxC= 1.00D+00 BMatC= 7.91D-10 BMatP= 6.95D-08
 IDIUse=1 WtCom= 1.00D+00 WtEn= 0.00D+00
 Coeff-Com:  0.673D-04-0.598D-04-0.163D-02 0.194D-02 0.486D-02 0.974D-01
 Coeff-Com:  0.897D+00
 Coeff:      0.673D-04-0.598D-04-0.163D-02 0.194D-02 0.486D-02 0.974D-01
 Coeff:      0.897D+00
 Gap=     0.236 Goal=   None    Shift=    0.000
 RMSDP=9.38D-07 MaxDP=7.36D-06 DE=-5.86D-08 OVMax= 1.20D-05

 Cycle   8  Pass 1  IDiag  1:
 E= -151.087569487329     Delta-E=       -0.000000000830 Rises=F Damp=F
 DIIS: error= 7.00D-07 at cycle   8 NSaved=   8.
 NSaved= 8 IEnMin= 8 EnMin= -151.087569487329     IErMin= 8 ErrMin= 7.00D-07
 ErrMax= 7.00D-07 EMaxC= 1.00D+00 BMatC= 3.91D-11 BMatP= 7.91D-10
 IDIUse=1 WtCom= 1.00D+00 WtEn= 0.00D+00
 Coeff-Com: -0.143D-05-0.877D-05 0.218D-03-0.249D-02-0.717D-02-0.200D-01
 Coeff-Com:  0.178D+00 0.852D+00
 Coeff:     -0.143D-05-0.877D-05 0.218D-03-0.249D-02-0.717D-02-0.200D-01
 Coeff:      0.178D+00 0.852D+00
 Gap=     0.236 Goal=   None    Shift=    0.000
 RMSDP=2.39D-07 MaxDP=1.80D-06 DE=-8.30D-10 OVMax= 3.99D-06

 Cycle   9  Pass 1  IDiag  1:
 E= -151.087569487377     Delta-E=       -0.000000000048 Rises=F Damp=F
 DIIS: error= 1.22D-07 at cycle   9 NSaved=   9.
 NSaved= 9 IEnMin= 9 EnMin= -151.087569487377     IErMin= 9 ErrMin= 1.22D-07
 ErrMax= 1.22D-07 EMaxC= 1.00D+00 BMatC= 1.09D-12 BMatP= 3.91D-11
 IDIUse=1 WtCom= 1.00D+00 WtEn= 0.00D+00
 Coeff-Com: -0.187D-05 0.743D-07 0.434D-04-0.583D-04 0.355D-04-0.229D-02
 Coeff-Com: -0.218D-01-0.108D-01 0.103D+01
 Coeff:     -0.187D-05 0.743D-07 0.434D-04-0.583D-04 0.355D-04-0.229D-02
 Coeff:     -0.218D-01-0.108D-01 0.103D+01
 Gap=     0.236 Goal=   None    Shift=    0.000
 RMSDP=4.16D-08 MaxDP=2.93D-07 DE=-4.83D-11 OVMax= 5.46D-07

 Cycle  10  Pass 1  IDiag  1:
 E= -151.087569487378     Delta-E=       -0.000000000001 Rises=F Damp=F
 DIIS: error= 7.74D-09 at cycle  10 NSaved=  10.
 NSaved=10 IEnMin=10 EnMin= -151.087569487378     IErMin=10 ErrMin= 7.74D-09
 ErrMax= 7.74D-09 EMaxC= 1.00D+00 BMatC= 6.86D-15 BMatP= 1.09D-12
 IDIUse=1 WtCom= 1.00D+00 WtEn= 0.00D+00
 Coeff-Com: -0.161D-06 0.121D-06 0.455D-06 0.343D-04 0.135D-03 0.889D-04
 Coeff-Com: -0.485D-02-0.127D-01 0.126D+00 0.892D+00
 Coeff:     -0.161D-06 0.121D-06 0.455D-06 0.343D-04 0.135D-03 0.889D-04
 Coeff:     -0.485D-02-0.127D-01 0.126D+00 0.892D+00
 Gap=     0.236 Goal=   None    Shift=    0.000
 RMSDP=3.30D-09 MaxDP=2.94D-08 DE=-1.08D-12 OVMax= 6.08D-08

 Error on total polarization charges =  0.06820
 SCF Done:  E(RB3LYP) =  -151.087569487     A.U. after   10 cycles
             Convg  =    0.3298D-08             -V/T =  2.0083
 KE= 1.498395000129D+02 PE=-4.247481506738D+02 EE= 9.291411679658D+01
 SMD-CDS (non-electrostatic) energy             (kcal/mol) =       0.69
 (included in total energy above)
 Leave Link  502 at Mon Sep 16 17:15:00 2024, MaxMem=   13107200 cpu:       5.3
 (Enter /programs/64bit/g09/g09-gfortran/bin/l701.exe)
 Compute integral first derivatives.
 ... and contract with generalized density number  0.
 D1PCM: PCM CHGder 1st derivatives, ID1Alg=3 FixD1E=F DoIter=F DoCFld=F I1PDM=0.
 GePol: Maximum number of non-zero 1st derivatives   =     132
 Leave Link  701 at Mon Sep 16 17:15:01 2024, MaxMem=   13107200 cpu:       0.7
 (Enter /programs/64bit/g09/g09-gfortran/bin/l702.exe)
 L702 exits ... SP integral derivatives will be done elsewhere.
 Leave Link  702 at Mon Sep 16 17:15:01 2024, MaxMem=   13107200 cpu:       0.0
 (Enter /programs/64bit/g09/g09-gfortran/bin/l703.exe)
 Compute integral first derivatives, UseDBF=F ICtDFT=           0.
 Integral derivatives from FoFDir, PRISM(SPDF).
 Calling FoFJK, ICntrl=      2127 FMM=F ISym2X=1 I1Cent= 0 IOpClX= 0 NMat=1 NMatS=1 NMatT=0.
 FoFCou: FMM=F IPFlag=           0 FMFlag=      100000 FMFlg1=         800
         NFxFlg=           0 DoJE=F BraDBF=F KetDBF=F FulRan=T
         Omega=  0.000000  0.000000  1.000000  0.000000  0.000000 ICntrl=    2127 IOpCl=  0
         NMat0=    1 NMatS0=    1 NMatT0=    0 NMatD0=    1 NMtDS0=    0 NMtDT0=    0
         I1Cent=           0 NGrid=           0.
 Petite list used in FoFCou.
 Leave Link  703 at Mon Sep 16 17:15:03 2024, MaxMem=   13107200 cpu:       1.5
 (Enter /programs/64bit/g09/g09-gfortran/bin/l716.exe)
 Dipole        =-9.09959489D-01-1.36981043D+00-1.30475580D-31
 ***** Axes restored to original set *****
 -------------------------------------------------------------------
 Center     Atomic                   Forces (Hartrees/Bohr)
 Number     Number              X              Y              Z
 -------------------------------------------------------------------
      1        8          -0.008117838   -0.000000000   -0.067359918
      2        8           0.004621630    0.000000000    0.059607198
      3        1           0.003496208    0.000000000    0.007752720
 -------------------------------------------------------------------
 Cartesian Forces:  Max     0.067359918 RMS     0.030276437
 Leave Link  716 at Mon Sep 16 17:15:03 2024, MaxMem=   13107200 cpu:       0.0
 (Enter /programs/64bit/g09/g09-gfortran/bin/l103.exe)

 GradGradGradGradGradGradGradGradGradGradGradGradGradGradGradGradGradGrad
 Berny optimization.
 Using GEDIIS/GDIIS optimizer.
 Internal  Forces:  Max     0.059545102 RMS     0.035506648
 Search for a local minimum.
 Step number   2 out of a maximum of   20
 All quantities printed in internal units (Hartrees-Bohrs-Radians)
 RMS Force = .35507D-01 SwitMx=.10000D-02 MixMth= 1
 Mixed Optimization -- RFO/linear search
 Update second derivatives using D2CorX and points    1    2
 DE= -3.09D-02 DEPred=-2.75D-02 R= 1.12D+00
 SS=  1.41D+00  RLast= 2.48D-01 DXNew= 5.0454D-01 7.4468D-01
 Trust test= 1.12D+00 RLast= 2.48D-01 DXMaxT set to 5.05D-01
 The second derivative matrix:
                          R1        R2        A1
           R1           0.60195
           R2           0.00402   0.58143
           A1           0.06297   0.01030   0.16822
 Use linear search instead of GDIIS.
     Eigenvalues ---    0.15904   0.58068   0.61188
 RFO step:  Lambda=-4.77820522D-03 EMin= 1.59043136D-01
 Quartic linear search produced a step of  0.87955.
 Iteration  1 RMS(Cart)=  0.10422503 RMS(Int)=  0.02158244
 Iteration  2 RMS(Cart)=  0.01482004 RMS(Int)=  0.00005212
 Iteration  3 RMS(Cart)=  0.00004833 RMS(Int)=  0.00000000
 Iteration  4 RMS(Cart)=  0.00000000 RMS(Int)=  0.00000000
 ClnCor:  largest displacement from symmetrization is 2.22D-16 for atom     3.
 Variable       Old X    -DE/DX   Delta X   Delta X   Delta X     New X
                                 (Linear)    (Quad)   (Total)
    R1        2.62603   0.05955   0.21547   0.02158   0.23705   2.86308
    R2        1.83385   0.00073   0.03396  -0.01155   0.02241   1.85626
    A1        1.92120  -0.01536   0.00929  -0.16716  -0.15787   1.76333
         Item               Value     Threshold  Converged?
 Maximum Force            0.059545     0.000450     NO 
 RMS     Force            0.035507     0.000300     NO 
 Maximum Displacement     0.147944     0.001800     NO 
 RMS     Displacement     0.114434     0.001200     NO 
 Predicted change in Energy=-2.260031D-04
 GradGradGradGradGradGradGradGradGradGradGradGradGradGradGradGradGradGrad

 Leave Link  103 at Mon Sep 16 17:15:03 2024, MaxMem=   13107200 cpu:       0.0
 (Enter /programs/64bit/g09/g09-gfortran/bin/l202.exe)
                          Input orientation:                          
 ---------------------------------------------------------------------
 Center     Atomic      Atomic             Coordinates (Angstroms)
 Number     Number       Type             X           Y           Z
 ---------------------------------------------------------------------
      1          8           0       -0.031333   -0.000000   -0.121619
      2          8           0       -0.001983   -0.000000    1.393172
      3          1           0        0.928985    0.000000   -0.328220
 ---------------------------------------------------------------------
                    Distance matrix (angstroms):
                    1          2          3
     1  O    0.000000
     2  O    1.515075   0.000000
     3  H    0.982290   1.957010   0.000000
 Stoichiometry    HO2(1-)
 Framework group  CS[SG(HO2)]
 Deg. of freedom     3
 Full point group                 CS      NOp   2
 Largest Abelian subgroup         CS      NOp   2
 Largest concise Abelian subgroup C1      NOp   1
                         Standard orientation:                         
 ---------------------------------------------------------------------
 Center     Atomic      Atomic             Coordinates (Angstroms)
 Number     Number       Type             X           Y           Z
 ---------------------------------------------------------------------
      1          8           0        0.056714   -0.701920   -0.000000
      2          8           0        0.056714    0.813155   -0.000000
      3          1           0       -0.907426   -0.889879    0.000000
 ---------------------------------------------------------------------
 Rotational constants (GHZ):    584.2304664     26.2201922     25.0939776
 Leave Link  202 at Mon Sep 16 17:15:03 2024, MaxMem=   13107200 cpu:       0.0
 (Enter /programs/64bit/g09/g09-gfortran/bin/l301.exe)
 Standard basis: 6-31+G(d,p) (6D, 7F)
 Ernie: Thresh=  0.10000D-02 Tol=  0.10000D-05 Strict=F.
 There are    32 symmetry adapted basis functions of A'  symmetry.
 There are    11 symmetry adapted basis functions of A"  symmetry.
 Integral buffers will be    131072 words long.
 Raffenetti 2 integral format.
 Two-electron integral symmetry is turned on.
    43 basis functions,    71 primitive gaussians,    43 cartesian basis functions
     9 alpha electrons        9 beta electrons
       nuclear repulsion energy        28.8265199513 Hartrees.
 IExCor=  402 DFT=T Ex+Corr=B3LYP ExCW=0 ScaHFX=  0.200000
 ScaDFX=  0.800000  0.720000  1.000000  0.810000 ScalE2=  1.000000  1.000000
 IRadAn=      0 IRanWt=     -1 IRanGd=            0 ICorTp=0
 NAtoms=    3 NActive=    3 NUniq=    3 SFac= 7.50D-01 NAtFMM=   80 NAOKFM=F Big=F
 ------------------------------------------------------------------------------
 Polarizable Continuum Model (PCM)
 =================================
 Model                : PCM.
 Atomic radii         : SMD-Coulomb.
 Polarization charges : Total charges.
 Charge compensation  : None.
 Solution method      : Matrix inversion.
 Cavity type          : VdW (van der Waals Surface) (Alpha=1.000).
 Cavity algorithm     : GePol (No added spheres)
                        Default sphere list used, NSphG=    3.
                        Lebedev-Laikov grids with approx.  5.0 points / Ang**2.
                        Smoothing algorithm: Karplus/York (Gamma=1.0000).
                        Polarization charges: spherical gaussians, with
                                              point-specific exponents (IZeta= 3).
                        Self-potential: point-specific (ISelfS= 7).
                        Self-field    : sphere-specific E.n sum rule (ISelfD= 2).
 1st derivatives      : Analytical E(r).r(x)/FMM algorithm (CHGder, D1EAlg=3).
                        Cavity 1st derivative terms included.
 Solvent              : Water, Eps=  78.355300 Eps(inf)=   1.777849
 ------------------------------------------------------------------------------
 Spheres list:
 ISph  on   Nord    Re0     Alpha      Xe            Ye            Ze
    1   O      1    1.520   1.000      0.056714     -0.701920     -0.000000
    2   O      2    1.520   1.000      0.056714      0.813155      0.000000
    3   H      3    1.200   1.000     -0.907426     -0.889879      0.000000
 ------------------------------------------------------------------------------
 GePol: Number of generator spheres                  =       3
 GePol: Total number of spheres                      =       3
 GePol: Number of exposed spheres                    =       3 (100.00%)
 GePol: Number of points                             =     282
 GePol: Average weight of points                     =       0.17
 GePol: Minimum weight of points                     =   0.23D-09
 GePol: Maximum weight of points                     =    0.21991
 GePol: Number of points with low weight             =      10
 GePol: Fraction of low-weight points (<1% of avg)   =       3.55%
 GePol: Cavity surface area                          =     47.644 Ang**2
 GePol: Cavity volume                                =     27.359 Ang**3
 ------------------------------------------------------------------------------
 Atomic radii for non-electrostatic terms: SMD-CDS.
 ------------------------------------------------------------------------------
 PCM non-electrostatic energy =         0.0010754799 Hartrees.
 Nuclear repulsion after PCM non-electrostatic terms =       28.8275954312 Hartrees.
 Leave Link  301 at Mon Sep 16 17:15:03 2024, MaxMem=   13107200 cpu:       0.1
 (Enter /programs/64bit/g09/g09-gfortran/bin/l302.exe)
 NPDir=0 NMtPBC=     1 NCelOv=     1 NCel=       1 NClECP=     1 NCelD=      1
         NCelK=      1 NCelE2=     1 NClLst=     1 CellRange=     0.0.
 One-electron integrals computed using PRISM.
 NBasis=    43 RedAO= T  NBF=    32    11
 NBsUse=    43 1.00D-06 NBFU=    32    11
 Precomputing XC quadrature grid using
 IXCGrd= 2 IRadAn=           0 IRanWt=          -1 IRanGd=           0 AccXCQ= 1.00D-10.
 NRdTot=     189 NPtTot=       23968 NUsed=       25343 NTot=       25375
 NSgBfM=    43    43    43    43    43 NAtAll=     3     3.
 Leave Link  302 at Mon Sep 16 17:15:03 2024, MaxMem=   13107200 cpu:       0.3
 (Enter /programs/64bit/g09/g09-gfortran/bin/l303.exe)
 DipDrv:  MaxL=1.
 Leave Link  303 at Mon Sep 16 17:15:04 2024, MaxMem=   13107200 cpu:       0.0
 (Enter /programs/64bit/g09/g09-gfortran/bin/l401.exe)
 Initial guess read from the read-write file.
 B after Tr=     0.000000    0.000000    0.000000
         Rot=    1.000000    0.000000    0.000000    0.000000 Ang=   0.00 deg.
 Guess basis will be translated and rotated to current coordinates.
 Initial guess orbital symmetries:
       Occupied  (A') (A') (A') (A') (A') (A') (A") (A') (A")
       Virtual   (A') (A') (A') (A") (A') (A') (A") (A') (A') (A')
                 (A') (A') (A') (A") (A') (A") (A') (A') (A") (A')
                 (A") (A') (A') (A") (A') (A') (A') (A") (A") (A')
                 (A') (A') (A') (A')
 The electronic state of the initial guess is 1-A'.
 Generating alternative initial guess.
 Harris functional with IExCor=  402 diagonalized for initial guess.
 ExpMin= 8.45D-02 ExpMax= 5.48D+03 ExpMxC= 8.25D+02 IAcc=2 IRadAn=         0 AccDes= 0.00D+00
 HarFok:  IExCor=  402 AccDes= 0.00D+00 IRadAn=         0 IDoV= 1
 ScaDFX=  1.000000  1.000000  1.000000  1.000000
 FoFCou: FMM=F IPFlag=           0 FMFlag=      100000 FMFlg1=           0
         NFxFlg=           0 DoJE=T BraDBF=F KetDBF=T FulRan=T
         Omega=  0.000000  0.000000  1.000000  0.000000  0.000000 ICntrl=     500 IOpCl=  0
         NMat0=    1 NMatS0=    1 NMatT0=    0 NMatD0=    1 NMtDS0=    0 NMtDT0=    0
         I1Cent=           4 NGrid=           0.
 Petite list used in FoFCou.
 Harris En= -151.162408675998    
 Leave Link  401 at Mon Sep 16 17:15:04 2024, MaxMem=   13107200 cpu:       0.7
 (Enter /programs/64bit/g09/g09-gfortran/bin/l502.exe)
 Closed shell SCF:
 Requested convergence on RMS density matrix=1.00D-08 within 128 cycles.
 Requested convergence on MAX density matrix=1.00D-06.
 Requested convergence on             energy=1.00D-06.
 No special actions if energy rises.
 Using DIIS extrapolation, IDIIS=  1040.
 Integral symmetry usage will be decided dynamically.
        25303 words used for storage of precomputed grid.
 Keep R1 ints in memory in canonical form, NReq=3459995.
 IEnd=       49587 IEndB=       49587 NGot=    13107200 MDV=    12628187
 LenX=    12628187 LenY=    12625897
 Symmetry not used in FoFDir.
 MinBra= 0 MaxBra= 2 Meth= 1.
 IRaf=       0 NMat=   1 IRICut=       1 DoRegI=T DoRafI=F ISym2E= 0 JSym2E=0.

 Cycle   1  Pass 1  IDiag  1:
 E= -151.084724885993    
 DIIS: error= 1.08D-02 at cycle   1 NSaved=   1.
 NSaved= 1 IEnMin= 1 EnMin= -151.084724885993     IErMin= 1 ErrMin= 1.08D-02
 ErrMax= 1.08D-02 EMaxC= 1.00D-01 BMatC= 5.96D-03 BMatP= 5.96D-03
 IDIUse=3 WtCom= 8.92D-01 WtEn= 1.08D-01
 Coeff-Com:  0.100D+01
 Coeff-En:   0.100D+01
 Coeff:      0.100D+01
 Recover alternate guess density for next cycle.
 RMSDP=8.65D-03 MaxDP=7.61D-02              OVMax= 0.00D+00

 Cycle   2  Pass 1  IDiag  1:
 E= -151.009301142378     Delta-E=        0.075423743615 Rises=F Damp=F
 Switch densities from cycles 1 and 2 for lowest energy.
 DIIS: error= 4.93D-02 at cycle   2 NSaved=   2.
 NSaved= 2 IEnMin= 1 EnMin= -151.084724885993     IErMin= 1 ErrMin= 1.08D-02
 ErrMax= 4.93D-02 EMaxC= 1.00D+00 BMatC= 9.42D-02 BMatP= 5.96D-03
 IDIUse=1 WtCom= 1.00D+00 WtEn= 0.00D+00
 Coeff-Com:  0.952D+00 0.477D-01
 Coeff:      0.952D+00 0.477D-01
 Gap=     0.350 Goal=   None    Shift=    0.000
 RMSDP=2.60D-03 MaxDP=2.06D-02 DE= 7.54D-02 OVMax= 3.85D-02

 Cycle   3  Pass 1  IDiag  1:
 E= -151.093434373232     Delta-E=       -0.084133230854 Rises=F Damp=F
 DIIS: error= 3.02D-03 at cycle   3 NSaved=   3.
 NSaved= 3 IEnMin= 3 EnMin= -151.093434373232     IErMin= 3 ErrMin= 3.02D-03
 ErrMax= 3.02D-03 EMaxC= 1.00D+00 BMatC= 7.10D-04 BMatP= 5.96D-03
 IDIUse=1 WtCom= 1.00D+00 WtEn= 0.00D+00
 Coeff-Com: -0.118D-01 0.643D-01 0.947D+00
 Coeff:     -0.118D-01 0.643D-01 0.947D+00
 Gap=     0.224 Goal=   None    Shift=    0.000
 RMSDP=8.51D-04 MaxDP=9.89D-03 DE=-8.41D-02 OVMax= 1.54D-02

 Cycle   4  Pass 1  IDiag  1:
 E= -151.093204945996     Delta-E=        0.000229427236 Rises=F Damp=F
 DIIS: error= 4.34D-03 at cycle   4 NSaved=   4.
 NSaved= 4 IEnMin= 3 EnMin= -151.093434373232     IErMin= 3 ErrMin= 3.02D-03
 ErrMax= 4.34D-03 EMaxC= 1.00D+00 BMatC= 1.12D-03 BMatP= 7.10D-04
 IDIUse=1 WtCom= 1.00D+00 WtEn= 0.00D+00
 Coeff-Com: -0.412D-01 0.411D-01 0.665D+00 0.335D+00
 Coeff:     -0.412D-01 0.411D-01 0.665D+00 0.335D+00
 Gap=     0.222 Goal=   None    Shift=    0.000
 RMSDP=4.54D-04 MaxDP=7.27D-03 DE= 2.29D-04 OVMax= 1.03D-02

 Cycle   5  Pass 1  IDiag  1:
 E= -151.094022121556     Delta-E=       -0.000817175560 Rises=F Damp=F
 DIIS: error= 1.64D-04 at cycle   5 NSaved=   5.
 NSaved= 5 IEnMin= 5 EnMin= -151.094022121556     IErMin= 5 ErrMin= 1.64D-04
 ErrMax= 1.64D-04 EMaxC= 1.00D+00 BMatC= 1.77D-06 BMatP= 7.10D-04
 IDIUse=1 WtCom= 1.00D+00 WtEn= 0.00D+00
 Coeff-Com:  0.277D-03 0.388D-03-0.207D-01 0.243D-01 0.996D+00
 Coeff:      0.277D-03 0.388D-03-0.207D-01 0.243D-01 0.996D+00
 Gap=     0.222 Goal=   None    Shift=    0.000
 RMSDP=2.76D-05 MaxDP=2.29D-04 DE=-8.17D-04 OVMax= 3.93D-04

 Cycle   6  Pass 1  IDiag  1:
 E= -151.094023524395     Delta-E=       -0.000001402839 Rises=F Damp=F
 DIIS: error= 1.86D-05 at cycle   6 NSaved=   6.
 NSaved= 6 IEnMin= 6 EnMin= -151.094023524395     IErMin= 6 ErrMin= 1.86D-05
 ErrMax= 1.86D-05 EMaxC= 1.00D+00 BMatC= 2.79D-08 BMatP= 1.77D-06
 IDIUse=1 WtCom= 1.00D+00 WtEn= 0.00D+00
 Coeff-Com:  0.457D-03-0.110D-03-0.116D-01 0.369D-02 0.221D+00 0.786D+00
 Coeff:      0.457D-03-0.110D-03-0.116D-01 0.369D-02 0.221D+00 0.786D+00
 Gap=     0.222 Goal=   None    Shift=    0.000
 RMSDP=4.52D-06 MaxDP=3.53D-05 DE=-1.40D-06 OVMax= 7.49D-05

 Cycle   7  Pass 1  IDiag  1:
 E= -151.094023551037     Delta-E=       -0.000000026642 Rises=F Damp=F
 DIIS: error= 3.90D-06 at cycle   7 NSaved=   7.
 NSaved= 7 IEnMin= 7 EnMin= -151.094023551037     IErMin= 7 ErrMin= 3.90D-06
 ErrMax= 3.90D-06 EMaxC= 1.00D+00 BMatC= 9.37D-10 BMatP= 2.79D-08
 IDIUse=1 WtCom= 1.00D+00 WtEn= 0.00D+00
 Coeff-Com: -0.160D-04-0.375D-04 0.904D-03-0.881D-03-0.592D-01 0.573D-01
 Coeff-Com:  0.100D+01
 Coeff:     -0.160D-04-0.375D-04 0.904D-03-0.881D-03-0.592D-01 0.573D-01
 Coeff:      0.100D+01
 Gap=     0.222 Goal=   None    Shift=    0.000
 RMSDP=1.85D-06 MaxDP=1.88D-05 DE=-2.66D-08 OVMax= 3.96D-05

 Cycle   8  Pass 1  IDiag  1:
 E= -151.094023552685     Delta-E=       -0.000000001648 Rises=F Damp=F
 DIIS: error= 5.63D-07 at cycle   8 NSaved=   8.
 NSaved= 8 IEnMin= 8 EnMin= -151.094023552685     IErMin= 8 ErrMin= 5.63D-07
 ErrMax= 5.63D-07 EMaxC= 1.00D+00 BMatC= 1.66D-11 BMatP= 9.37D-10
 IDIUse=1 WtCom= 1.00D+00 WtEn= 0.00D+00
 Coeff-Com: -0.107D-04-0.217D-05 0.318D-03-0.130D-03-0.620D-02-0.163D-01
 Coeff-Com:  0.375D-01 0.985D+00
 Coeff:     -0.107D-04-0.217D-05 0.318D-03-0.130D-03-0.620D-02-0.163D-01
 Coeff:      0.375D-01 0.985D+00
 Gap=     0.222 Goal=   None    Shift=    0.000
 RMSDP=2.63D-07 MaxDP=2.47D-06 DE=-1.65D-09 OVMax= 6.30D-06

 Cycle   9  Pass 1  IDiag  1:
 E= -151.094023552719     Delta-E=       -0.000000000034 Rises=F Damp=F
 DIIS: error= 1.03D-07 at cycle   9 NSaved=   9.
 NSaved= 9 IEnMin= 9 EnMin= -151.094023552719     IErMin= 9 ErrMin= 1.03D-07
 ErrMax= 1.03D-07 EMaxC= 1.00D+00 BMatC= 6.59D-13 BMatP= 1.66D-11
 IDIUse=1 WtCom= 1.00D+00 WtEn= 0.00D+00
 Coeff-Com: -0.192D-05 0.878D-06 0.251D-04 0.187D-04 0.143D-02-0.591D-02
 Coeff-Com: -0.410D-01 0.118D+00 0.927D+00
 Coeff:     -0.192D-05 0.878D-06 0.251D-04 0.187D-04 0.143D-02-0.591D-02
 Coeff:     -0.410D-01 0.118D+00 0.927D+00
 Gap=     0.222 Goal=   None    Shift=    0.000
 RMSDP=5.01D-08 MaxDP=4.59D-07 DE=-3.44D-11 OVMax= 1.16D-06

 Cycle  10  Pass 1  IDiag  1:
 E= -151.094023552721     Delta-E=       -0.000000000001 Rises=F Damp=F
 DIIS: error= 1.02D-08 at cycle  10 NSaved=  10.
 NSaved=10 IEnMin=10 EnMin= -151.094023552721     IErMin=10 ErrMin= 1.02D-08
 ErrMax= 1.02D-08 EMaxC= 1.00D+00 BMatC= 5.80D-15 BMatP= 6.59D-13
 IDIUse=1 WtCom= 1.00D+00 WtEn= 0.00D+00
 Coeff-Com:  0.228D-06 0.639D-07-0.609D-05 0.430D-06 0.352D-04 0.429D-03
 Coeff-Com:  0.135D-02-0.128D-01-0.120D-01 0.102D+01
 Coeff:      0.228D-06 0.639D-07-0.609D-05 0.430D-06 0.352D-04 0.429D-03
 Coeff:      0.135D-02-0.128D-01-0.120D-01 0.102D+01
 Gap=     0.222 Goal=   None    Shift=    0.000
 RMSDP=3.61D-09 MaxDP=3.60D-08 DE=-1.19D-12 OVMax= 6.52D-08

 Error on total polarization charges =  0.06627
 SCF Done:  E(RB3LYP) =  -151.094023553     A.U. after   10 cycles
             Convg  =    0.3611D-08             -V/T =  2.0097
 KE= 1.496450556539D+02 PE=-4.204413481599D+02 EE= 9.087467352205D+01
 SMD-CDS (non-electrostatic) energy             (kcal/mol) =       0.67
 (included in total energy above)
 Leave Link  502 at Mon Sep 16 17:15:10 2024, MaxMem=   13107200 cpu:       5.3
 (Enter /programs/64bit/g09/g09-gfortran/bin/l701.exe)
 Compute integral first derivatives.
 ... and contract with generalized density number  0.
 D1PCM: PCM CHGder 1st derivatives, ID1Alg=3 FixD1E=F DoIter=F DoCFld=F I1PDM=0.
 GePol: Maximum number of non-zero 1st derivatives   =     139
 Leave Link  701 at Mon Sep 16 17:15:11 2024, MaxMem=   13107200 cpu:       0.8
 (Enter /programs/64bit/g09/g09-gfortran/bin/l702.exe)
 L702 exits ... SP integral derivatives will be done elsewhere.
 Leave Link  702 at Mon Sep 16 17:15:11 2024, MaxMem=   13107200 cpu:       0.0
 (Enter /programs/64bit/g09/g09-gfortran/bin/l703.exe)
 Compute integral first derivatives, UseDBF=F ICtDFT=           0.
 Integral derivatives from FoFDir, PRISM(SPDF).
 Calling FoFJK, ICntrl=      2127 FMM=F ISym2X=1 I1Cent= 0 IOpClX= 0 NMat=1 NMatS=1 NMatT=0.
 FoFCou: FMM=F IPFlag=           0 FMFlag=      100000 FMFlg1=         800
         NFxFlg=           0 DoJE=F BraDBF=F KetDBF=F FulRan=T
         Omega=  0.000000  0.000000  1.000000  0.000000  0.000000 ICntrl=    2127 IOpCl=  0
         NMat0=    1 NMatS0=    1 NMatT0=    0 NMatD0=    1 NMtDS0=    0 NMtDT0=    0
         I1Cent=           0 NGrid=           0.
 Petite list used in FoFCou.
 Leave Link  703 at Mon Sep 16 17:15:12 2024, MaxMem=   13107200 cpu:       1.5
 (Enter /programs/64bit/g09/g09-gfortran/bin/l716.exe)
 Dipole        =-9.43889616D-01-1.26162054D+00 1.34142269D-31
 ***** Axes restored to original set *****
 -------------------------------------------------------------------
 Center     Atomic                   Forces (Hartrees/Bohr)
 Number     Number              X              Y              Z
 -------------------------------------------------------------------
      1        8           0.013348264    0.000000000    0.003348777
      2        8          -0.001059707    0.000000000   -0.004577166
      3        1          -0.012288557   -0.000000000    0.001228390
 -------------------------------------------------------------------
 Cartesian Forces:  Max     0.013348264 RMS     0.006359433
 Leave Link  716 at Mon Sep 16 17:15:12 2024, MaxMem=   13107200 cpu:       0.0
 (Enter /programs/64bit/g09/g09-gfortran/bin/l103.exe)

 GradGradGradGradGradGradGradGradGradGradGradGradGradGradGradGradGradGrad
 Berny optimization.
 Using GEDIIS/GDIIS optimizer.
 Internal  Forces:  Max     0.012295473 RMS     0.007726799
 Search for a local minimum.
 Step number   3 out of a maximum of   20
 All quantities printed in internal units (Hartrees-Bohrs-Radians)
 RMS Force = .77268D-02 SwitMx=.10000D-02 MixMth= 1
 Mixed Optimization -- RFO/linear search
 Update second derivatives using D2CorX and points    1    2    3
 DE= -6.45D-03 DEPred=-2.26D-04 R= 2.86D+01
 SS=  1.41D+00  RLast= 2.86D-01 DXNew= 8.4853D-01 8.5705D-01
 Trust test= 2.86D+01 RLast= 2.86D-01 DXMaxT set to 8.49D-01
 The second derivative matrix:
                          R1        R2        A1
           R1           0.29839
           R2           0.00129   0.58781
           A1           0.04202   0.00285   0.17751
 Use linear search instead of GDIIS.
     Eigenvalues ---    0.16432   0.31155   0.58784
 RFO step:  Lambda=-2.19745133D-04 EMin= 1.64321670D-01
 Quartic linear search produced a step of -0.13033.
 Iteration  1 RMS(Cart)=  0.01823551 RMS(Int)=  0.00026236
 Iteration  2 RMS(Cart)=  0.00030975 RMS(Int)=  0.00000004
 Iteration  3 RMS(Cart)=  0.00000003 RMS(Int)=  0.00000000
 ClnCor:  largest displacement from symmetrization is 1.11D-15 for atom     3.
 Variable       Old X    -DE/DX   Delta X   Delta X   Delta X     New X
                                 (Linear)    (Quad)   (Total)
    R1        2.86308  -0.00458  -0.03089   0.00576  -0.02514   2.83794
    R2        1.85626  -0.01230  -0.00292  -0.01836  -0.02128   1.83498
    A1        1.76333   0.00263   0.02057   0.00722   0.02779   1.79113
         Item               Value     Threshold  Converged?
 Maximum Force            0.012295     0.000450     NO 
 RMS     Force            0.007727     0.000300     NO 
 Maximum Displacement     0.018333     0.001800     NO 
 RMS     Displacement     0.018164     0.001200     NO 
 Predicted change in Energy=-1.844653D-04
 GradGradGradGradGradGradGradGradGradGradGradGradGradGradGradGradGradGrad

 Leave Link  103 at Mon Sep 16 17:15:12 2024, MaxMem=   13107200 cpu:       0.0
 (Enter /programs/64bit/g09/g09-gfortran/bin/l202.exe)
                          Input orientation:                          
 ---------------------------------------------------------------------
 Center     Atomic      Atomic             Coordinates (Angstroms)
 Number     Number       Type             X           Y           Z
 ---------------------------------------------------------------------
      1          8           0       -0.021632   -0.000000   -0.112187
      2          8           0       -0.006429   -0.000000    1.389508
      3          1           0        0.923729    0.000000   -0.333988
 ---------------------------------------------------------------------
                    Distance matrix (angstroms):
                    1          2          3
     1  O    0.000000
     2  O    1.501772   0.000000
     3  H    0.971031   1.958477   0.000000
 Stoichiometry    HO2(1-)
 Framework group  CS[SG(HO2)]
 Deg. of freedom     3
 Full point group                 CS      NOp   2
 Largest Abelian subgroup         CS      NOp   2
 Largest concise Abelian subgroup C1      NOp   1
                         Standard orientation:                         
 ---------------------------------------------------------------------
 Center     Atomic      Atomic             Coordinates (Angstroms)
 Number     Number       Type             X           Y           Z
 ---------------------------------------------------------------------
      1          8           0        0.055739   -0.694233   -0.000000
      2          8           0        0.055739    0.807540    0.000000
      3          1           0       -0.891819   -0.906452    0.000000
 ---------------------------------------------------------------------
 Rotational constants (GHZ):    606.4409375     26.6170926     25.4979699
 Leave Link  202 at Mon Sep 16 17:15:12 2024, MaxMem=   13107200 cpu:       0.0
 (Enter /programs/64bit/g09/g09-gfortran/bin/l301.exe)
 Standard basis: 6-31+G(d,p) (6D, 7F)
 Ernie: Thresh=  0.10000D-02 Tol=  0.10000D-05 Strict=F.
 There are    32 symmetry adapted basis functions of A'  symmetry.
 There are    11 symmetry adapted basis functions of A"  symmetry.
 Integral buffers will be    131072 words long.
 Raffenetti 2 integral format.
 Two-electron integral symmetry is turned on.
    43 basis functions,    71 primitive gaussians,    43 cartesian basis functions
     9 alpha electrons        9 beta electrons
       nuclear repulsion energy        29.0728779056 Hartrees.
 IExCor=  402 DFT=T Ex+Corr=B3LYP ExCW=0 ScaHFX=  0.200000
 ScaDFX=  0.800000  0.720000  1.000000  0.810000 ScalE2=  1.000000  1.000000
 IRadAn=      0 IRanWt=     -1 IRanGd=            0 ICorTp=0
 NAtoms=    3 NActive=    3 NUniq=    3 SFac= 7.50D-01 NAtFMM=   80 NAOKFM=F Big=F
 ------------------------------------------------------------------------------
 Polarizable Continuum Model (PCM)
 =================================
 Model                : PCM.
 Atomic radii         : SMD-Coulomb.
 Polarization charges : Total charges.
 Charge compensation  : None.
 Solution method      : Matrix inversion.
 Cavity type          : VdW (van der Waals Surface) (Alpha=1.000).
 Cavity algorithm     : GePol (No added spheres)
                        Default sphere list used, NSphG=    3.
                        Lebedev-Laikov grids with approx.  5.0 points / Ang**2.
                        Smoothing algorithm: Karplus/York (Gamma=1.0000).
                        Polarization charges: spherical gaussians, with
                                              point-specific exponents (IZeta= 3).
                        Self-potential: point-specific (ISelfS= 7).
                        Self-field    : sphere-specific E.n sum rule (ISelfD= 2).
 1st derivatives      : Analytical E(r).r(x)/FMM algorithm (CHGder, D1EAlg=3).
                        Cavity 1st derivative terms included.
 Solvent              : Water, Eps=  78.355300 Eps(inf)=   1.777849
 ------------------------------------------------------------------------------
 Spheres list:
 ISph  on   Nord    Re0     Alpha      Xe            Ye            Ze
    1   O      1    1.520   1.000      0.055739     -0.694233      0.000000
    2   O      2    1.520   1.000      0.055739      0.807540      0.000000
    3   H      3    1.200   1.000     -0.891819     -0.906452     -0.000000
 ------------------------------------------------------------------------------
 GePol: Number of generator spheres                  =       3
 GePol: Total number of spheres                      =       3
 GePol: Number of exposed spheres                    =       3 (100.00%)
 GePol: Number of points                             =     280
 GePol: Average weight of points                     =       0.17
 GePol: Minimum weight of points                     =   0.29D-06
 GePol: Maximum weight of points                     =    0.21991
 GePol: Number of points with low weight             =      12
 GePol: Fraction of low-weight points (<1% of avg)   =       4.29%
 GePol: Cavity surface area                          =     47.470 Ang**2
 GePol: Cavity volume                                =     27.228 Ang**3
 ------------------------------------------------------------------------------
 Atomic radii for non-electrostatic terms: SMD-CDS.
 ------------------------------------------------------------------------------
 PCM non-electrostatic energy =         0.0010718799 Hartrees.
 Nuclear repulsion after PCM non-electrostatic terms =       29.0739497855 Hartrees.
 Leave Link  301 at Mon Sep 16 17:15:12 2024, MaxMem=   13107200 cpu:       0.1
 (Enter /programs/64bit/g09/g09-gfortran/bin/l302.exe)
 NPDir=0 NMtPBC=     1 NCelOv=     1 NCel=       1 NClECP=     1 NCelD=      1
         NCelK=      1 NCelE2=     1 NClLst=     1 CellRange=     0.0.
 One-electron integrals computed using PRISM.
 NBasis=    43 RedAO= T  NBF=    32    11
 NBsUse=    43 1.00D-06 NBFU=    32    11
 Precomputing XC quadrature grid using
 IXCGrd= 2 IRadAn=           0 IRanWt=          -1 IRanGd=           0 AccXCQ= 1.00D-10.
 NRdTot=     189 NPtTot=       23968 NUsed=       25343 NTot=       25375
 NSgBfM=    43    43    43    43    43 NAtAll=     3     3.
 Leave Link  302 at Mon Sep 16 17:15:13 2024, MaxMem=   13107200 cpu:       0.3
 (Enter /programs/64bit/g09/g09-gfortran/bin/l303.exe)
 DipDrv:  MaxL=1.
 Leave Link  303 at Mon Sep 16 17:15:13 2024, MaxMem=   13107200 cpu:       0.0
 (Enter /programs/64bit/g09/g09-gfortran/bin/l401.exe)
 Initial guess read from the read-write file.
 B after Tr=     0.000000    0.000000    0.000000
         Rot=    1.000000    0.000000    0.000000    0.000000 Ang=   0.00 deg.
 Guess basis will be translated and rotated to current coordinates.
 Initial guess orbital symmetries:
       Occupied  (A') (A') (A') (A') (A') (A') (A") (A') (A")
       Virtual   (A') (A') (A') (A") (A') (A') (A') (A") (A') (A')
                 (A') (A') (A') (A") (A') (A") (A') (A') (A') (A")
                 (A") (A') (A') (A") (A') (A') (A") (A') (A") (A')
                 (A') (A') (A') (A')
 The electronic state of the initial guess is 1-A'.
 Leave Link  401 at Mon Sep 16 17:15:13 2024, MaxMem=   13107200 cpu:       0.2
 (Enter /programs/64bit/g09/g09-gfortran/bin/l502.exe)
 Closed shell SCF:
 Requested convergence on RMS density matrix=1.00D-08 within 128 cycles.
 Requested convergence on MAX density matrix=1.00D-06.
 Requested convergence on             energy=1.00D-06.
 No special actions if energy rises.
 Using DIIS extrapolation, IDIIS=  1040.
 Integral symmetry usage will be decided dynamically.
        25303 words used for storage of precomputed grid.
 Keep R1 ints in memory in canonical form, NReq=3458549.
 IEnd=       49587 IEndB=       49587 NGot=    13107200 MDV=    12628187
 LenX=    12628187 LenY=    12625897
 Symmetry not used in FoFDir.
 MinBra= 0 MaxBra= 2 Meth= 1.
 IRaf=       0 NMat=   1 IRICut=       1 DoRegI=T DoRafI=F ISym2E= 0 JSym2E=0.

 Cycle   1  Pass 1  IDiag  1:
 E= -151.094090589251    
 DIIS: error= 1.19D-03 at cycle   1 NSaved=   1.
 NSaved= 1 IEnMin= 1 EnMin= -151.094090589251     IErMin= 1 ErrMin= 1.19D-03
 ErrMax= 1.19D-03 EMaxC= 1.00D-01 BMatC= 1.21D-04 BMatP= 1.21D-04
 IDIUse=3 WtCom= 9.88D-01 WtEn= 1.19D-02
 Coeff-Com:  0.100D+01
 Coeff-En:   0.100D+01
 Coeff:      0.100D+01
 Gap=     0.228 Goal=   None    Shift=    0.000
 GapD=    0.228 DampG=1.000 DampE=1.000 DampFc=1.0000 IDamp=-1.
 RMSDP=3.52D-04 MaxDP=3.67D-03              OVMax= 5.06D-03

 Cycle   2  Pass 1  IDiag  1:
 E= -151.094250536751     Delta-E=       -0.000159947500 Rises=F Damp=F
 DIIS: error= 2.41D-04 at cycle   2 NSaved=   2.
 NSaved= 2 IEnMin= 2 EnMin= -151.094250536751     IErMin= 2 ErrMin= 2.41D-04
 ErrMax= 2.41D-04 EMaxC= 1.00D-01 BMatC= 3.07D-06 BMatP= 1.21D-04
 IDIUse=3 WtCom= 9.98D-01 WtEn= 2.41D-03
 Coeff-Com: -0.486D-02 0.100D+01
 Coeff-En:   0.000D+00 0.100D+01
 Coeff:     -0.485D-02 0.100D+01
 Gap=     0.225 Goal=   None    Shift=    0.000
 RMSDP=8.22D-05 MaxDP=1.10D-03 DE=-1.60D-04 OVMax= 1.72D-03

 Cycle   3  Pass 1  IDiag  1:
 E= -151.094246391606     Delta-E=        0.000004145145 Rises=F Damp=F
 DIIS: error= 3.75D-04 at cycle   3 NSaved=   3.
 NSaved= 3 IEnMin= 2 EnMin= -151.094250536751     IErMin= 2 ErrMin= 2.41D-04
 ErrMax= 3.75D-04 EMaxC= 1.00D-01 BMatC= 1.05D-05 BMatP= 3.07D-06
 IDIUse=3 WtCom= 3.41D-01 WtEn= 6.59D-01
 Coeff-Com: -0.294D-01 0.681D+00 0.348D+00
 Coeff-En:   0.000D+00 0.688D+00 0.312D+00
 Coeff:     -0.100D-01 0.686D+00 0.324D+00
 Gap=     0.225 Goal=   None    Shift=    0.000
 RMSDP=4.34D-05 MaxDP=6.93D-04 DE= 4.15D-06 OVMax= 9.61D-04

 Cycle   4  Pass 1  IDiag  1:
 E= -151.094253940945     Delta-E=       -0.000007549339 Rises=F Damp=F
 DIIS: error= 3.90D-05 at cycle   4 NSaved=   4.
 NSaved= 4 IEnMin= 4 EnMin= -151.094253940945     IErMin= 4 ErrMin= 3.90D-05
 ErrMax= 3.90D-05 EMaxC= 1.00D-01 BMatC= 9.90D-08 BMatP= 3.07D-06
 IDIUse=1 WtCom= 1.00D+00 WtEn= 0.00D+00
 Coeff-Com: -0.138D-01 0.193D+00 0.113D+00 0.708D+00
 Coeff:     -0.138D-01 0.193D+00 0.113D+00 0.708D+00
 Gap=     0.225 Goal=   None    Shift=    0.000
 RMSDP=8.55D-06 MaxDP=1.08D-04 DE=-7.55D-06 OVMax= 1.40D-04

 Cycle   5  Pass 1  IDiag  1:
 E= -151.094253992130     Delta-E=       -0.000000051185 Rises=F Damp=F
 DIIS: error= 2.85D-05 at cycle   5 NSaved=   5.
 NSaved= 5 IEnMin= 5 EnMin= -151.094253992130     IErMin= 5 ErrMin= 2.85D-05
 ErrMax= 2.85D-05 EMaxC= 1.00D-01 BMatC= 4.28D-08 BMatP= 9.90D-08
 IDIUse=1 WtCom= 1.00D+00 WtEn= 0.00D+00
 Coeff-Com: -0.473D-02 0.416D-01 0.260D-01 0.410D+00 0.527D+00
 Coeff:     -0.473D-02 0.416D-01 0.260D-01 0.410D+00 0.527D+00
 Gap=     0.225 Goal=   None    Shift=    0.000
 RMSDP=4.72D-06 MaxDP=5.08D-05 DE=-5.12D-08 OVMax= 6.39D-05

 Cycle   6  Pass 1  IDiag  1:
 E= -151.094254026488     Delta-E=       -0.000000034358 Rises=F Damp=F
 DIIS: error= 3.34D-06 at cycle   6 NSaved=   6.
 NSaved= 6 IEnMin= 6 EnMin= -151.094254026488     IErMin= 6 ErrMin= 3.34D-06
 ErrMax= 3.34D-06 EMaxC= 1.00D-01 BMatC= 6.63D-10 BMatP= 4.28D-08
 IDIUse=1 WtCom= 1.00D+00 WtEn= 0.00D+00
 Coeff-Com:  0.341D-03-0.102D-01-0.656D-02 0.108D-01 0.119D+00 0.886D+00
 Coeff:      0.341D-03-0.102D-01-0.656D-02 0.108D-01 0.119D+00 0.886D+00
 Gap=     0.225 Goal=   None    Shift=    0.000
 RMSDP=8.70D-07 MaxDP=6.13D-06 DE=-3.44D-08 OVMax= 1.91D-05

 Cycle   7  Pass 1  IDiag  1:
 E= -151.094254027275     Delta-E=       -0.000000000787 Rises=F Damp=F
[...]
 GePol: Maximum weight of points                     =    0.21991
 GePol: Number of points with low weight             =      12
 GePol: Fraction of low-weight points (<1% of avg)   =       4.29%
 GePol: Cavity surface area                          =     47.458 Ang**2
 GePol: Cavity volume                                =     27.224 Ang**3
 ------------------------------------------------------------------------------
 Atomic radii for non-electrostatic terms: SMD-CDS.
 ------------------------------------------------------------------------------
 PCM non-electrostatic energy =         0.0010688474 Hartrees.
 Nuclear repulsion after PCM non-electrostatic terms =       29.0884121460 Hartrees.
 Leave Link  301 at Mon Sep 16 17:15:21 2024, MaxMem=   13107200 cpu:       0.1
 (Enter /programs/64bit/g09/g09-gfortran/bin/l302.exe)
 NPDir=0 NMtPBC=     1 NCelOv=     1 NCel=       1 NClECP=     1 NCelD=      1
         NCelK=      1 NCelE2=     1 NClLst=     1 CellRange=     0.0.
 One-electron integrals computed using PRISM.
 NBasis=    43 RedAO= T  NBF=    32    11
 NBsUse=    43 1.00D-06 NBFU=    32    11
 Precomputing XC quadrature grid using
 IXCGrd= 2 IRadAn=           0 IRanWt=          -1 IRanGd=           0 AccXCQ= 1.00D-10.
 NRdTot=     189 NPtTot=       23968 NUsed=       25343 NTot=       25375
 NSgBfM=    43    43    43    43    43 NAtAll=     3     3.
 Leave Link  302 at Mon Sep 16 17:15:21 2024, MaxMem=   13107200 cpu:       0.3
 (Enter /programs/64bit/g09/g09-gfortran/bin/l303.exe)
 DipDrv:  MaxL=1.
 Leave Link  303 at Mon Sep 16 17:15:22 2024, MaxMem=   13107200 cpu:       0.0
 (Enter /programs/64bit/g09/g09-gfortran/bin/l401.exe)
 Initial guess read from the read-write file.
 B after Tr=     0.000000    0.000000    0.000000
         Rot=    1.000000    0.000000    0.000000    0.000000 Ang=   0.00 deg.
 Guess basis will be translated and rotated to current coordinates.
 Initial guess orbital symmetries:
       Occupied  (A') (A') (A') (A') (A') (A') (A") (A') (A")
       Virtual   (A') (A') (A') (A") (A') (A') (A') (A") (A') (A')
                 (A') (A') (A') (A") (A') (A") (A') (A') (A') (A")
                 (A") (A') (A') (A") (A') (A') (A") (A') (A") (A')
                 (A') (A') (A') (A')
 The electronic state of the initial guess is 1-A'.
 Leave Link  401 at Mon Sep 16 17:15:22 2024, MaxMem=   13107200 cpu:       0.2
 (Enter /programs/64bit/g09/g09-gfortran/bin/l502.exe)
 Closed shell SCF:
 Requested convergence on RMS density matrix=1.00D-08 within 128 cycles.
 Requested convergence on MAX density matrix=1.00D-06.
 Requested convergence on             energy=1.00D-06.
 No special actions if energy rises.
 Using DIIS extrapolation, IDIIS=  1040.
 Integral symmetry usage will be decided dynamically.
        25303 words used for storage of precomputed grid.
 Keep R1 ints in memory in canonical form, NReq=3458549.
 IEnd=       49587 IEndB=       49587 NGot=    13107200 MDV=    12628187
 LenX=    12628187 LenY=    12625897
 Symmetry not used in FoFDir.
 MinBra= 0 MaxBra= 2 Meth= 1.
 IRaf=       0 NMat=   1 IRICut=       1 DoRegI=T DoRafI=F ISym2E= 0 JSym2E=0.

 Cycle   1  Pass 1  IDiag  1:
 E= -151.094257346221    
 DIIS: error= 2.18D-04 at cycle   1 NSaved=   1.
 NSaved= 1 IEnMin= 1 EnMin= -151.094257346221     IErMin= 1 ErrMin= 2.18D-04
 ErrMax= 2.18D-04 EMaxC= 1.00D-01 BMatC= 2.81D-06 BMatP= 2.81D-06
 IDIUse=3 WtCom= 9.98D-01 WtEn= 2.18D-03
 Coeff-Com:  0.100D+01
 Coeff-En:   0.100D+01
 Coeff:      0.100D+01
 Gap=     0.225 Goal=   None    Shift=    0.000
 RMSDP=5.91D-05 MaxDP=6.52D-04              OVMax= 8.42D-04

 Cycle   2  Pass 1  IDiag  1:
 E= -151.094260692848     Delta-E=       -0.000003346627 Rises=F Damp=F
 DIIS: error= 8.71D-05 at cycle   2 NSaved=   2.
 NSaved= 2 IEnMin= 2 EnMin= -151.094260692848     IErMin= 2 ErrMin= 8.71D-05
 ErrMax= 8.71D-05 EMaxC= 1.00D-01 BMatC= 5.22D-07 BMatP= 2.81D-06
 IDIUse=1 WtCom= 1.00D+00 WtEn= 0.00D+00
 Coeff-Com:  0.180D+00 0.820D+00
 Coeff:      0.180D+00 0.820D+00
 Gap=     0.225 Goal=   None    Shift=    0.000
 RMSDP=2.48D-05 MaxDP=3.93D-04 DE=-3.35D-06 OVMax= 5.34D-04

 Cycle   3  Pass 1  IDiag  1:
 E= -151.094260239871     Delta-E=        0.000000452977 Rises=F Damp=F
 DIIS: error= 1.33D-04 at cycle   3 NSaved=   3.
 NSaved= 3 IEnMin= 2 EnMin= -151.094260692848     IErMin= 2 ErrMin= 8.71D-05
 ErrMax= 1.33D-04 EMaxC= 1.00D-01 BMatC= 1.19D-06 BMatP= 5.22D-07
 IDIUse=3 WtCom= 4.64D-01 WtEn= 5.36D-01
 Coeff-Com: -0.233D-01 0.615D+00 0.409D+00
 Coeff-En:   0.000D+00 0.645D+00 0.355D+00
 Coeff:     -0.108D-01 0.631D+00 0.380D+00
 Gap=     0.225 Goal=   None    Shift=    0.000
 RMSDP=1.42D-05 MaxDP=2.17D-04 DE= 4.53D-07 OVMax= 3.04D-04

 Cycle   4  Pass 1  IDiag  1:
 E= -151.094261094770     Delta-E=       -0.000000854899 Rises=F Damp=F
 DIIS: error= 1.77D-05 at cycle   4 NSaved=   4.
 NSaved= 4 IEnMin= 4 EnMin= -151.094261094770     IErMin= 4 ErrMin= 1.77D-05
 ErrMax= 1.77D-05 EMaxC= 1.00D-01 BMatC= 1.48D-08 BMatP= 5.22D-07
 IDIUse=1 WtCom= 1.00D+00 WtEn= 0.00D+00
 Coeff-Com: -0.183D-01 0.283D+00 0.172D+00 0.564D+00
 Coeff:     -0.183D-01 0.283D+00 0.172D+00 0.564D+00
 Gap=     0.225 Goal=   None    Shift=    0.000
 RMSDP=3.29D-06 MaxDP=3.17D-05 DE=-8.55D-07 OVMax= 4.45D-05

 Cycle   5  Pass 1  IDiag  1:
 E= -151.094261105599     Delta-E=       -0.000000010829 Rises=F Damp=F
 DIIS: error= 6.56D-06 at cycle   5 NSaved=   5.
 NSaved= 5 IEnMin= 5 EnMin= -151.094261105599     IErMin= 5 ErrMin= 6.56D-06
 ErrMax= 6.56D-06 EMaxC= 1.00D-01 BMatC= 1.99D-09 BMatP= 1.48D-08
 IDIUse=1 WtCom= 1.00D+00 WtEn= 0.00D+00
 Coeff-Com: -0.535D-02 0.403D-01 0.202D-01 0.285D+00 0.660D+00
 Coeff:     -0.535D-02 0.403D-01 0.202D-01 0.285D+00 0.660D+00
 Gap=     0.225 Goal=   None    Shift=    0.000
 RMSDP=1.08D-06 MaxDP=1.01D-05 DE=-1.08D-08 OVMax= 2.07D-05

 Cycle   6  Pass 1  IDiag  1:
 E= -151.094261107385     Delta-E=       -0.000000001786 Rises=F Damp=F
 DIIS: error= 7.41D-07 at cycle   6 NSaved=   6.
 NSaved= 6 IEnMin= 6 EnMin= -151.094261107385     IErMin= 6 ErrMin= 7.41D-07
 ErrMax= 7.41D-07 EMaxC= 1.00D-01 BMatC= 2.70D-11 BMatP= 1.99D-09
 IDIUse=1 WtCom= 1.00D+00 WtEn= 0.00D+00
 Coeff-Com:  0.128D-02-0.230D-01-0.121D-01-0.397D-01 0.184D-01 0.106D+01
 Coeff:      0.128D-02-0.230D-01-0.121D-01-0.397D-01 0.184D-01 0.106D+01
 Gap=     0.225 Goal=   None    Shift=    0.000
 RMSDP=3.72D-07 MaxDP=3.77D-06 DE=-1.79D-09 OVMax= 7.44D-06

 Cycle   7  Pass 1  IDiag  1:
 E= -151.094261107434     Delta-E=       -0.000000000049 Rises=F Damp=F
 DIIS: error= 4.57D-08 at cycle   7 NSaved=   7.
 NSaved= 7 IEnMin= 7 EnMin= -151.094261107434     IErMin= 7 ErrMin= 4.57D-08
 ErrMax= 4.57D-08 EMaxC= 1.00D-01 BMatC= 1.52D-13 BMatP= 2.70D-11
 IDIUse=1 WtCom= 1.00D+00 WtEn= 0.00D+00
 Coeff-Com:  0.713D-04-0.149D-03-0.154D-03-0.104D-02-0.677D-02 0.460D-02
 Coeff-Com:  0.100D+01
 Coeff:      0.713D-04-0.149D-03-0.154D-03-0.104D-02-0.677D-02 0.460D-02
 Coeff:      0.100D+01
 Gap=     0.225 Goal=   None    Shift=    0.000
 RMSDP=3.04D-08 MaxDP=2.63D-07 DE=-4.89D-11 OVMax= 6.93D-07

 Cycle   8  Pass 1  IDiag  1:
 E= -151.094261107435     Delta-E=       -0.000000000001 Rises=F Damp=F
 DIIS: error= 1.22D-08 at cycle   8 NSaved=   8.
 NSaved= 8 IEnMin= 8 EnMin= -151.094261107435     IErMin= 8 ErrMin= 1.22D-08
 ErrMax= 1.22D-08 EMaxC= 1.00D-01 BMatC= 1.26D-14 BMatP= 1.52D-13
 IDIUse=1 WtCom= 1.00D+00 WtEn= 0.00D+00
 Coeff-Com: -0.210D-04 0.547D-03 0.261D-03 0.621D-03-0.256D-02-0.344D-01
 Coeff-Com:  0.168D+00 0.868D+00
 Coeff:     -0.210D-04 0.547D-03 0.261D-03 0.621D-03-0.256D-02-0.344D-01
 Coeff:      0.168D+00 0.868D+00
 Gap=     0.225 Goal=   None    Shift=    0.000
 RMSDP=6.22D-09 MaxDP=5.93D-08 DE=-8.53D-13 OVMax= 1.39D-07

 Error on total polarization charges =  0.06639
 SCF Done:  E(RB3LYP) =  -151.094261107     A.U. after    8 cycles
             Convg  =    0.6220D-08             -V/T =  2.0094
 KE= 1.496812014629D+02 PE=-4.209851594267D+02 EE= 9.112128471031D+01
 SMD-CDS (non-electrostatic) energy             (kcal/mol) =       0.67
 (included in total energy above)
 Leave Link  502 at Mon Sep 16 17:15:26 2024, MaxMem=   13107200 cpu:       4.4
 (Enter /programs/64bit/g09/g09-gfortran/bin/l701.exe)
 Compute integral first derivatives.
 ... and contract with generalized density number  0.
 D1PCM: PCM CHGder 1st derivatives, ID1Alg=3 FixD1E=F DoIter=F DoCFld=F I1PDM=0.
 GePol: Maximum number of non-zero 1st derivatives   =     138
 Leave Link  701 at Mon Sep 16 17:15:27 2024, MaxMem=   13107200 cpu:       0.8
 (Enter /programs/64bit/g09/g09-gfortran/bin/l702.exe)
 L702 exits ... SP integral derivatives will be done elsewhere.
 Leave Link  702 at Mon Sep 16 17:15:27 2024, MaxMem=   13107200 cpu:       0.0
 (Enter /programs/64bit/g09/g09-gfortran/bin/l703.exe)
 Compute integral first derivatives, UseDBF=F ICtDFT=           0.
 Integral derivatives from FoFDir, PRISM(SPDF).
 Calling FoFJK, ICntrl=      2127 FMM=F ISym2X=1 I1Cent= 0 IOpClX= 0 NMat=1 NMatS=1 NMatT=0.
 FoFCou: FMM=F IPFlag=           0 FMFlag=      100000 FMFlg1=         800
         NFxFlg=           0 DoJE=F BraDBF=F KetDBF=F FulRan=T
         Omega=  0.000000  0.000000  1.000000  0.000000  0.000000 ICntrl=    2127 IOpCl=  0
         NMat0=    1 NMatS0=    1 NMatT0=    0 NMatD0=    1 NMtDS0=    0 NMtDT0=    0
         I1Cent=           0 NGrid=           0.
 Petite list used in FoFCou.
 Leave Link  703 at Mon Sep 16 17:15:29 2024, MaxMem=   13107200 cpu:       1.6
 (Enter /programs/64bit/g09/g09-gfortran/bin/l716.exe)
 Dipole        =-9.35006944D-01-1.27519266D+00-3.56968737D-31
 ***** Axes restored to original set *****
 -------------------------------------------------------------------
 Center     Atomic                   Forces (Hartrees/Bohr)
 Number     Number              X              Y              Z
 -------------------------------------------------------------------
      1        8           0.000162673   -0.000000000   -0.000194657
      2        8          -0.000030394   -0.000000000    0.000031170
      3        1          -0.000132279    0.000000000    0.000163486
 -------------------------------------------------------------------
 Cartesian Forces:  Max     0.000194657 RMS     0.000110793
 Leave Link  716 at Mon Sep 16 17:15:29 2024, MaxMem=   13107200 cpu:       0.1
 (Enter /programs/64bit/g09/g09-gfortran/bin/l103.exe)

 GradGradGradGradGradGradGradGradGradGradGradGradGradGradGradGradGradGrad
 Berny optimization.
 Using GEDIIS/GDIIS optimizer.
 Internal  Forces:  Max     0.000201544 RMS     0.000143831
 Search for a local minimum.
 Step number   5 out of a maximum of   20
 All quantities printed in internal units (Hartrees-Bohrs-Radians)
 RMS Force = .14383D-03 SwitMx=.10000D-02 MixMth= 2
 Mixed Optimization -- En-DIIS/RFO-DIIS
 Update second derivatives using D2CorX and points    2    3    4    5
 DE= -7.08D-06 DEPred=-5.88D-06 R= 1.20D+00
 SS=  1.41D+00  RLast= 6.62D-03 DXNew= 1.4270D+00 1.9865D-02
 Trust test= 1.20D+00 RLast= 6.62D-03 DXMaxT set to 8.49D-01
 The second derivative matrix:
                          R1        R2        A1
           R1           0.27783
           R2          -0.03532   0.52519
           A1           0.06355  -0.01882   0.17682
 Use linear search instead of GDIIS.
     Eigenvalues ---    0.14614   0.30136   0.53234
 RFO step:  Lambda=-2.81515189D-08 EMin= 1.46144561D-01
 Quartic linear search produced a step of  0.10140.
 Iteration  1 RMS(Cart)=  0.00046826 RMS(Int)=  0.00000014
 Iteration  2 RMS(Cart)=  0.00000010 RMS(Int)=  0.00000000
 ClnCor:  largest displacement from symmetrization is 4.44D-16 for atom     2.
 Variable       Old X    -DE/DX   Delta X   Delta X   Delta X     New X
                                 (Linear)    (Quad)   (Total)
    R1        2.83778   0.00005  -0.00002   0.00032   0.00030   2.83808
    R2        1.83196  -0.00020  -0.00031  -0.00003  -0.00034   1.83162
    A1        1.78524  -0.00014  -0.00060  -0.00005  -0.00065   1.78459
         Item               Value     Threshold  Converged?
 Maximum Force            0.000202     0.000450     YES
 RMS     Force            0.000144     0.000300     YES
 Maximum Displacement     0.000552     0.001800     YES
 RMS     Displacement     0.000468     0.001200     YES
 Predicted change in Energy=-1.058431D-07
 Optimization completed.
    -- Stationary point found.
                           ----------------------------
                           !   Optimized Parameters   !
                           ! (Angstroms and Degrees)  !
 --------------------------                            --------------------------
 ! Name  Definition              Value          Derivative Info.                !
 --------------------------------------------------------------------------------
 ! R1    R(1,2)                  1.5017         -DE/DX =    0.0001              !
 ! R2    R(1,3)                  0.9694         -DE/DX =   -0.0002              !
 ! A1    A(2,1,3)              102.2866         -DE/DX =   -0.0001              !
 --------------------------------------------------------------------------------
 GradGradGradGradGradGradGradGradGradGradGradGradGradGradGradGradGradGrad

 Largest change from initial coordinates is atom    2       0.050 Angstoms.
 Leave Link  103 at Mon Sep 16 17:15:29 2024, MaxMem=   13107200 cpu:       0.0
 (Enter /programs/64bit/g09/g09-gfortran/bin/l202.exe)
                          Input orientation:                          
 ---------------------------------------------------------------------
 Center     Atomic      Atomic             Coordinates (Angstroms)
 Number     Number       Type             X           Y           Z
 ---------------------------------------------------------------------
      1          8           0       -0.022191   -0.000000   -0.113648
      2          8           0       -0.004709    0.000000    1.387939
      3          1           0        0.922568    0.000000   -0.330958
 ---------------------------------------------------------------------
                    Distance matrix (angstroms):
                    1          2          3
     1  O    0.000000
     2  O    1.501688   0.000000
     3  H    0.969430   1.953061   0.000000
 Stoichiometry    HO2(1-)
 Framework group  CS[SG(HO2)]
 Deg. of freedom     3
 Full point group                 CS      NOp   2
 Largest Abelian subgroup         CS      NOp   2
 Largest concise Abelian subgroup C1      NOp   1
                         Standard orientation:                         
 ---------------------------------------------------------------------
 Center     Atomic      Atomic             Coordinates (Angstroms)
 Number     Number       Type             X           Y           Z
 ---------------------------------------------------------------------
      1          8           0        0.055719   -0.694542    0.000000
      2          8           0        0.055719    0.807146   -0.000000
      3          1           0       -0.891506   -0.900838    0.000000
 ---------------------------------------------------------------------
 Rotational constants (GHZ):    606.4946993     26.6363952     25.5157781
 Leave Link  202 at Mon Sep 16 17:15:29 2024, MaxMem=   13107200 cpu:       0.0
 (Enter /programs/64bit/g09/g09-gfortran/bin/l601.exe)
 Copying SCF densities to generalized density rwf, IOpCl= 0 IROHF=0.

 **********************************************************************

            Population analysis using the SCF density.

 **********************************************************************

 Orbital symmetries:
       Occupied  (A') (A') (A') (A') (A') (A') (A") (A') (A")
       Virtual   (A') (A') (A') (A") (A') (A') (A') (A") (A') (A')
                 (A') (A') (A') (A") (A') (A") (A') (A') (A') (A")
                 (A") (A') (A') (A") (A') (A') (A") (A') (A") (A')
                 (A') (A') (A') (A')
 The electronic state is 1-A'.
 Alpha  occ. eigenvalues --  -19.16907 -19.10967  -1.02029  -0.78460  -0.45716
 Alpha  occ. eigenvalues --   -0.37197  -0.34473  -0.22506  -0.19814
 Alpha virt. eigenvalues --    0.02723   0.07424   0.14169   0.15364   0.16816
 Alpha virt. eigenvalues --    0.19666   0.20245   0.21038   0.27102   0.32667
 Alpha virt. eigenvalues --    0.97560   1.08989   1.10622   1.11129   1.18315
 Alpha virt. eigenvalues --    1.21232   1.23726   1.32438   1.51943   1.54273
 Alpha virt. eigenvalues --    1.61628   1.61911   1.86474   1.88113   1.95272
 Alpha virt. eigenvalues --    2.13210   2.36107   2.43562   2.67505   2.83324
 Alpha virt. eigenvalues --    3.13257   3.41695   3.77922   4.16632
          Condensed to atoms (all electrons):
              1          2          3
     1  O    8.382556  -0.102220   0.255027
     2  O   -0.102220   8.985472  -0.030983
     3  H    0.255027  -0.030983   0.388325
 Mulliken atomic charges:
              1
     1  O   -0.535362
     2  O   -0.852269
     3  H    0.387631
 Sum of Mulliken atomic charges =  -1.00000
 Mulliken charges with hydrogens summed into heavy atoms:
              1
     1  O   -0.147731
     2  O   -0.852269
 Sum of Mulliken charges with hydrogens summed into heavy atoms =  -1.00000
 Electronic spatial extent (au):  <R**2>=             72.0524
 Charge=             -1.0000 electrons
 Dipole moment (field-independent basis, Debye):
    X=             -2.3766    Y=             -3.2412    Z=             -0.0000  Tot=              4.0191
 Quadrupole moment (field-independent basis, Debye-Ang):
   XX=            -12.8385   YY=            -17.2988   ZZ=            -15.2519
   XY=              1.8728   XZ=              0.0000   YZ=             -0.0000
 Traceless Quadrupole moment (field-independent basis, Debye-Ang):
   XX=              2.2912   YY=             -2.1690   ZZ=             -0.1222
   XY=              1.8728   XZ=              0.0000   YZ=             -0.0000
 Octapole moment (field-independent basis, Debye-Ang**2):
  XXX=             -3.2141  YYY=             -5.5944  ZZZ=             -0.0000  XYY=             -2.6098
  XXY=             -3.7057  XXZ=             -0.0000  XZZ=             -0.6107  YZZ=             -1.6225
  YYZ=             -0.0000  XYZ=             -0.0000
 Hexadecapole moment (field-independent basis, Debye-Ang**3):
 XXXX=            -15.9539 YYYY=            -62.6005 ZZZZ=            -17.1996 XXXY=              0.4349
 XXXZ=              0.0000 YYYX=              1.0490 YYYZ=             -0.0000 ZZZX=              0.0000
 ZZZY=             -0.0000 XXYY=            -13.4123 XXZZ=             -5.7985 YYZZ=            -15.2666
 XXYZ=              0.0000 YYXZ=              0.0000 ZZXY=             -0.2563
 N-N= 2.908841214604D+01 E-N=-4.209851595120D+02  KE= 1.496812014629D+02
 Symmetry A'   KE= 1.406940694713D+02
 Symmetry A"   KE= 8.987131991541D+00
 No NMR shielding tensors so no spin-rotation constants.
 Leave Link  601 at Mon Sep 16 17:15:29 2024, MaxMem=   13107200 cpu:       0.3
 (Enter /programs/64bit/g09/g09-gfortran/bin/l9999.exe)
 B after Tr=     0.099563    0.000000    1.085296
         Rot=    0.001423    0.001423    0.707105    0.707105 Ang= 179.84 deg.
 Final structure in terms of initial Z-matrix:
 O
 O,1,oo2
 H,1,ho3,2,hoo3
      Variables:
 oo2=1.50168812
 ho3=0.96942963
 hoo3=102.28659295
 1\1\GINC-MOLMOD\FOpt\RB3LYP\6-31+G(d,p)\H1O2(1-)\OSPITE\16-Sep-2024\0\
 \#p B3LYP/6-31+g(d,p) opt scrf=(smd,solvent=water)\\ho2- solution\\-1,
 1\O,-0.0221911032,0.,-0.1136477133\O,-0.0047085537,0.,1.3879386367\H,0
 .9225682464,0.,-0.3309575901\\Version=EM64L-G09RevA.02\State=1-A'\HF=-
 151.0942611\RMSD=6.220e-09\RMSF=1.108e-04\Dipole=0.9200979,0.,-1.28599
 15\Quadrupole=1.6705989,-0.0908384,-1.5797605,0.,-1.4306035,0.\PG=CS [
 SG(H1O2)]\\@


 THE BEST WAY TO CONVINCE A FOOL THAT HE IS WRONG 
 IS TO LET HIM HAVE HIS OWN WAY.

                                         JOSH BILLINGS
 Job cpu time:  0 days  0 hours  0 minutes 43.7 seconds.
 File lengths (MBytes):  RWF=     10 Int=      0 D2E=      0 Chk=      2 Scr=      1
 Normal termination of Gaussian 09 at Mon Sep 16 17:15:29 2024.
