 Entering Gaussian System, Link 0=/programs/64bit/g09/g09-gfortran/bin/g09
 Input=h2_+.com
 Output=h2_+.log
 Initial command:
 /programs/64bit/g09/g09-gfortran/bin/l1.exe /home/ospite/Desktop/MMfP/Project9/CH4/reactants/H2/Gau-2033.inp -scrdir=/home/ospite/Desktop/MMfP/Project9/CH4/reactants/H2/
 Entering Link 1 = /programs/64bit/g09/g09-gfortran/bin/l1.exe PID=      2034.
  
 Copyright (c) 1988,1990,1992,1993,1995,1998,2003,2009, Gaussian, Inc.
                  All Rights Reserved.
  
 This is part of the Gaussian(R) 09 program.  It is based on
 the Gaussian(R) 03 system (copyright 2003, Gaussian, Inc.),
 the Gaussian(R) 98 system (copyright 1998, Gaussian, Inc.),
 the Gaussian(R) 94 system (copyright 1995, Gaussian, Inc.),
 the Gaussian 92(TM) system (copyright 1992, Gaussian, Inc.),
 the Gaussian 90(TM) system (copyright 1990, Gaussian, Inc.),
 the Gaussian 88(TM) system (copyright 1988, Gaussian, Inc.),
 the Gaussian 86(TM) system (copyright 1986, Carnegie Mellon
 University), and the Gaussian 82(TM) system (copyright 1983,
 Carnegie Mellon University). Gaussian is a federally registered
 trademark of Gaussian, Inc.
  
 This software contains proprietary and confidential information,
 including trade secrets, belonging to Gaussian, Inc.
  
 This software is provided under written license and may be
 used, copied, transmitted, or stored only in accord with that
 written license.
  
 The following legend is applicable only to US Government
 contracts under FAR:
  
                    RESTRICTED RIGHTS LEGEND
  
 Use, reproduction and disclosure by the US Government is
 subject to restrictions as set forth in subparagraphs (a)
 and (c) of the Commercial Computer Software - Restricted
 Rights clause in FAR 52.227-19.
  
 Gaussian, Inc.
 340 Quinnipiac St., Bldg. 40, Wallingford CT 06492
  
  
 ---------------------------------------------------------------
 Warning -- This program may not be used in any manner that
 competes with the business of Gaussian, Inc. or will provide
 assistance to any competitor of Gaussian, Inc.  The licensee
 of this program is prohibited from giving any competitor of
 Gaussian, Inc. access to this program.  By using this program,
 the user acknowledges that Gaussian, Inc. is engaged in the
 business of creating and licensing software in the field of
 computational chemistry and represents and warrants to the
 licensee that it is not a competitor of Gaussian, Inc. and that
 it will not use this program in any manner prohibited above.
 ---------------------------------------------------------------
  

 Cite this work as:
 Gaussian 09, Revision A.02,
 M. J. Frisch, G. W. Trucks, H. B. Schlegel, G. E. Scuseria, 
 M. A. Robb, J. R. Cheeseman, G. Scalmani, V. Barone, B. Mennucci, 
 G. A. Petersson, H. Nakatsuji, M. Caricato, X. Li, H. P. Hratchian, 
 A. F. Izmaylov, J. Bloino, G. Zheng, J. L. Sonnenberg, M. Hada, 
 M. Ehara, K. Toyota, R. Fukuda, J. Hasegawa, M. Ishida, T. Nakajima, 
 Y. Honda, O. Kitao, H. Nakai, T. Vreven, J. A. Montgomery, Jr., 
 J. E. Peralta, F. Ogliaro, M. Bearpark, J. J. Heyd, E. Brothers, 
 K. N. Kudin, V. N. Staroverov, R. Kobayashi, J. Normand, 
 K. Raghavachari, A. Rendell, J. C. Burant, S. S. Iyengar, J. Tomasi, 
 M. Cossi, N. Rega, J. M. Millam, M. Klene, J. E. Knox, J. B. Cross, 
 V. Bakken, C. Adamo, J. Jaramillo, R. Gomperts, R. E. Stratmann, 
 O. Yazyev, A. J. Austin, R. Cammi, C. Pomelli, J. W. Ochterski, 
 R. L. Martin, K. Morokuma, V. G. Zakrzewski, G. A. Voth, 
 P. Salvador, J. J. Dannenberg, S. Dapprich, A. D. Daniels, 
 O. Farkas, J. B. Foresman, J. V. Ortiz, J. Cioslowski, 
 and D. J. Fox, Gaussian, Inc., Wallingford CT, 2009.
 
 ******************************************
 Gaussian 09:  EM64L-G09RevA.02 11-Jun-2009
                15-Sep-2024 
 ******************************************
 %mem=100MB
 ----------------------------------------------
 #p b3lyp/6-31+g(d,p) opt freq pop=full gfinput
 ----------------------------------------------
 1/14=-1,18=20,19=15,26=3,38=1/1,3;
 2/9=110,12=2,17=6,18=5,40=1/2;
 3/5=1,6=6,7=111,11=2,16=1,24=10,25=1,30=1,71=1,74=-5/1,2,3;
 4//1;
 5/5=2,38=5/2;
 6/7=3,28=1/1;
 7//1,2,3,16;
 1/14=-1,18=20,19=15/3(2);
 2/9=110/2;
 99//99;
 2/9=110/2;
 3/5=1,6=6,7=111,11=2,16=1,25=1,30=1,71=1,74=-5/1,2,3;
 4/5=5,16=3/1;
 5/5=2,38=5/2;
 7//1,2,3,16;
 1/14=-1,18=20,19=15/3(-5);
 2/9=110/2;
 6/7=3,19=2,28=1/1;
 99/9=1/99;
 Leave Link    1 at Sun Sep 15 20:41:00 2024, MaxMem=   13107200 cpu:       0.1
 (Enter /programs/64bit/g09/g09-gfortran/bin/l101.exe)
 ----------------------------------------
 hydrogen(molecule) with 6-31+G basis set
 ----------------------------------------
 Symbolic Z-matrix:
 Charge =  0 Multiplicity = 1
 H1
 H2                   1    d
       Variables:
  d                     0.74                     
 
 NAtoms=      2 NQM=      2 NQMF=      0 NMic=      0 NMicF=      0 NTot=      2.
                    Isotopes and Nuclear Properties:
 (Nuclear quadrupole moments (NQMom) in fm**2, nuclear magnetic moments (NMagM)
  in nuclear magnetons)

  Atom         1           2
 IAtWgt=           1           1
 AtmWgt=   1.0078250   1.0078250
 NucSpn=           1           1
 AtZEff=   0.0000000   0.0000000
 NQMom=    0.0000000   0.0000000
 NMagM=    2.7928460   2.7928460
 Leave Link  101 at Sun Sep 15 20:41:00 2024, MaxMem=   13107200 cpu:       0.2
 (Enter /programs/64bit/g09/g09-gfortran/bin/l103.exe)

 GradGradGradGradGradGradGradGradGradGradGradGradGradGradGradGradGradGrad
 Berny optimization.
 Initialization pass.
                           ----------------------------
                           !    Initial Parameters    !
                           ! (Angstroms and Degrees)  !
 --------------------------                            --------------------------
 ! Name  Definition              Value          Derivative Info.                !
 --------------------------------------------------------------------------------
 ! R1    R(1,2)                  0.74           estimate D2E/DX2                !
 --------------------------------------------------------------------------------
 Trust Radius=3.00D-01 FncErr=1.00D-07 GrdErr=1.00D-06
 Number of steps in this run=  20 maximum allowed number of steps= 100.
 GradGradGradGradGradGradGradGradGradGradGradGradGradGradGradGradGradGrad

 Leave Link  103 at Sun Sep 15 20:41:00 2024, MaxMem=   13107200 cpu:       0.0
 (Enter /programs/64bit/g09/g09-gfortran/bin/l202.exe)
                          Input orientation:                          
 ---------------------------------------------------------------------
 Center     Atomic      Atomic             Coordinates (Angstroms)
 Number     Number       Type             X           Y           Z
 ---------------------------------------------------------------------
      1          1           0        0.000000    0.000000    0.000000
      2          1           0        0.000000    0.000000    0.740000
 ---------------------------------------------------------------------
 Stoichiometry    H2
 Framework group  D*H[C*(H.H)]
 Deg. of freedom     1
 Full point group                 D*H     NOp   8
 Largest Abelian subgroup         D2H     NOp   8
 Largest concise Abelian subgroup C2      NOp   2
                         Standard orientation:                         
 ---------------------------------------------------------------------
 Center     Atomic      Atomic             Coordinates (Angstroms)
 Number     Number       Type             X           Y           Z
 ---------------------------------------------------------------------
      1          1           0        0.000000    0.000000    0.370000
      2          1           0        0.000000    0.000000   -0.370000
 ---------------------------------------------------------------------
 Rotational constants (GHZ):      0.0000000   1831.4649389   1831.4649389
 Leave Link  202 at Sun Sep 15 20:41:00 2024, MaxMem=   13107200 cpu:       0.0
 (Enter /programs/64bit/g09/g09-gfortran/bin/l301.exe)
 Standard basis: 6-31+G(d,p) (6D, 7F)
 Ernie: Thresh=  0.10000D-02 Tol=  0.10000D-05 Strict=F.
 AO basis set in the form of general basis input (Overlap normalization):
      1 0
 S   3 1.00       0.000000000000
      0.1873113696D+02  0.3349460434D-01
      0.2825394365D+01  0.2347269535D+00
      0.6401216923D+00  0.8137573261D+00
 S   1 1.00       0.000000000000
      0.1612777588D+00  0.1000000000D+01
 P   1 1.00       0.000000000000
      0.1100000000D+01  0.1000000000D+01
 ****
      2 0
 S   3 1.00       0.000000000000
      0.1873113696D+02  0.3349460434D-01
      0.2825394365D+01  0.2347269535D+00
      0.6401216923D+00  0.8137573261D+00
 S   1 1.00       0.000000000000
      0.1612777588D+00  0.1000000000D+01
 P   1 1.00       0.000000000000
      0.1100000000D+01  0.1000000000D+01
 ****

 There are     3 symmetry adapted basis functions of AG  symmetry.
 There are     0 symmetry adapted basis functions of B1G symmetry.
 There are     1 symmetry adapted basis functions of B2G symmetry.
 There are     1 symmetry adapted basis functions of B3G symmetry.
 There are     0 symmetry adapted basis functions of AU  symmetry.
 There are     3 symmetry adapted basis functions of B1U symmetry.
 There are     1 symmetry adapted basis functions of B2U symmetry.
 There are     1 symmetry adapted basis functions of B3U symmetry.
 Integral buffers will be    131072 words long.
 Raffenetti 2 integral format.
 Two-electron integral symmetry is turned on.
    10 basis functions,    14 primitive gaussians,    10 cartesian basis functions
     1 alpha electrons        1 beta electrons
       nuclear repulsion energy         0.7151043359 Hartrees.
 IExCor=  402 DFT=T Ex+Corr=B3LYP ExCW=0 ScaHFX=  0.200000
 ScaDFX=  0.800000  0.720000  1.000000  0.810000 ScalE2=  1.000000  1.000000
 IRadAn=      0 IRanWt=     -1 IRanGd=            0 ICorTp=0
 NAtoms=    2 NActive=    2 NUniq=    1 SFac= 3.00D+00 NAtFMM=   80 NAOKFM=F Big=F
 Leave Link  301 at Sun Sep 15 20:41:00 2024, MaxMem=   13107200 cpu:       0.1
 (Enter /programs/64bit/g09/g09-gfortran/bin/l302.exe)
 NPDir=0 NMtPBC=     1 NCelOv=     1 NCel=       1 NClECP=     1 NCelD=      1
         NCelK=      1 NCelE2=     1 NClLst=     1 CellRange=     0.0.
 One-electron integrals computed using PRISM.
 One-electron integral symmetry used in STVInt
 NBasis=    10 RedAO= T  NBF=     3     0     1     1     0     3     1     1
 NBsUse=    10 1.00D-06 NBFU=     3     0     1     1     0     3     1     1
 Precomputing XC quadrature grid using
 IXCGrd= 2 IRadAn=           0 IRanWt=          -1 IRanGd=           0 AccXCQ= 1.00D-10.
 NRdTot=     122 NPtTot=       15168 NUsed=       16061 NTot=       16093
 NSgBfM=    10    10    10    10    10 NAtAll=     2     2.
 Leave Link  302 at Sun Sep 15 20:41:00 2024, MaxMem=   13107200 cpu:       0.2
 (Enter /programs/64bit/g09/g09-gfortran/bin/l303.exe)
 DipDrv:  MaxL=1.
 Leave Link  303 at Sun Sep 15 20:41:00 2024, MaxMem=   13107200 cpu:       0.0
 (Enter /programs/64bit/g09/g09-gfortran/bin/l401.exe)
 Harris functional with IExCor=  402 diagonalized for initial guess.
 ExpMin= 1.61D-01 ExpMax= 1.87D+01 ExpMxC= 1.87D+01 IAcc=1 IRadAn=         1 AccDes= 0.00D+00
 HarFok:  IExCor=  402 AccDes= 0.00D+00 IRadAn=         1 IDoV= 1
 ScaDFX=  1.000000  1.000000  1.000000  1.000000
 FoFCou: FMM=F IPFlag=           0 FMFlag=      100000 FMFlg1=           0
         NFxFlg=           0 DoJE=T BraDBF=F KetDBF=T FulRan=T
         Omega=  0.000000  0.000000  1.000000  0.000000  0.000000 ICntrl=     500 IOpCl=  0
         NMat0=    1 NMatS0=    1 NMatT0=    0 NMatD0=    1 NMtDS0=    0 NMtDT0=    0
         I1Cent=           4 NGrid=           0.
 Petite list used in FoFCou.
 Harris En= -1.18519829367918    
 Initial guess orbital symmetries:
       Occupied  (SGG)
       Virtual   (SGU) (SGG) (SGU) (PIU) (PIU) (SGG) (PIG) (PIG)
                 (SGU)
 The electronic state of the initial guess is 1-SGG.
 Leave Link  401 at Sun Sep 15 20:41:01 2024, MaxMem=   13107200 cpu:       0.2
 (Enter /programs/64bit/g09/g09-gfortran/bin/l502.exe)
 Closed shell SCF:
 Requested convergence on RMS density matrix=1.00D-08 within 128 cycles.
 Requested convergence on MAX density matrix=1.00D-06.
 Requested convergence on             energy=1.00D-06.
 No special actions if energy rises.
 Using DIIS extrapolation, IDIIS=  1040.
 Integral symmetry usage will be decided dynamically.
        16030 words used for storage of precomputed grid.
 Keep R1 ints in memory in canonical form, NReq=894727.
 IEnd=       35823 IEndB=       35823 NGot=    13107200 MDV=    13086912
 LenX=    13086912 LenY=    13086030
 Symmetry not used in FoFDir.
 MinBra= 0 MaxBra= 1 Meth= 1.
 IRaf=       0 NMat=   1 IRICut=       1 DoRegI=T DoRafI=F ISym2E= 0 JSym2E=0.
 Integral accuracy reduced to 1.0D-05 until final iterations.

 Cycle   1  Pass 0  IDiag  1:
 E= -1.17319692531207    
 DIIS: error= 2.03D-02 at cycle   1 NSaved=   1.
 NSaved= 1 IEnMin= 1 EnMin= -1.17319692531207     IErMin= 1 ErrMin= 2.03D-02
 ErrMax= 2.03D-02 EMaxC= 1.00D-01 BMatC= 3.26D-03 BMatP= 3.26D-03
 IDIUse=3 WtCom= 7.97D-01 WtEn= 2.03D-01
 Coeff-Com:  0.100D+01
 Coeff-En:   0.100D+01
 Coeff:      0.100D+01
 Gap=     0.522 Goal=   None    Shift=    0.000
 GapD=    0.522 DampG=2.000 DampE=0.500 DampFc=1.0000 IDamp=-1.
 RMSDP=6.65D-03 MaxDP=2.67D-02              OVMax= 5.59D-02

 Cycle   2  Pass 0  IDiag  1:
 E= -1.17833774329260     Delta-E=       -0.005140817981 Rises=F Damp=F
 DIIS: error= 4.78D-03 at cycle   2 NSaved=   2.
 NSaved= 2 IEnMin= 2 EnMin= -1.17833774329260     IErMin= 2 ErrMin= 4.78D-03
 ErrMax= 4.78D-03 EMaxC= 1.00D-01 BMatC= 1.34D-04 BMatP= 3.26D-03
 IDIUse=3 WtCom= 9.52D-01 WtEn= 4.78D-02
 Coeff-Com:  0.166D+00 0.834D+00
 Coeff-En:   0.000D+00 0.100D+01
 Coeff:      0.158D+00 0.842D+00
 Gap=     0.534 Goal=   None    Shift=    0.000
 RMSDP=1.00D-03 MaxDP=3.86D-03 DE=-5.14D-03 OVMax= 8.81D-03

 Cycle   3  Pass 0  IDiag  1:
 E= -1.17853639055283     Delta-E=       -0.000198647260 Rises=F Damp=F
 DIIS: error= 4.73D-05 at cycle   3 NSaved=   3.
 NSaved= 3 IEnMin= 3 EnMin= -1.17853639055283     IErMin= 3 ErrMin= 4.73D-05
 ErrMax= 4.73D-05 EMaxC= 1.00D-01 BMatC= 1.06D-08 BMatP= 1.34D-04
 IDIUse=1 WtCom= 1.00D+00 WtEn= 0.00D+00
 Coeff-Com: -0.876D-02-0.404D-01 0.105D+01
 Coeff:     -0.876D-02-0.404D-01 0.105D+01
 Gap=     0.534 Goal=   None    Shift=    0.000
 RMSDP=8.40D-06 MaxDP=3.36D-05 DE=-1.99D-04 OVMax= 5.24D-05

 Initial convergence to 1.0D-05 achieved.  Increase integral accuracy.
 Cycle   4  Pass 1  IDiag  1:
 E= -1.17853400661385     Delta-E=        0.000002383939 Rises=F Damp=F
 DIIS: error= 1.60D-06 at cycle   1 NSaved=   1.
 NSaved= 1 IEnMin= 1 EnMin= -1.17853400661385     IErMin= 1 ErrMin= 1.60D-06
 ErrMax= 1.60D-06 EMaxC= 1.00D-01 BMatC= 1.47D-11 BMatP= 1.47D-11
 IDIUse=1 WtCom= 1.00D+00 WtEn= 0.00D+00
 Coeff-Com:  0.100D+01
 Coeff:      0.100D+01
 Gap=     0.534 Goal=   None    Shift=    0.000
 RMSDP=8.40D-06 MaxDP=3.36D-05 DE= 2.38D-06 OVMax= 3.45D-06

 Cycle   5  Pass 1  IDiag  1:
 E= -1.17853400663474     Delta-E=       -0.000000000021 Rises=F Damp=F
 DIIS: error= 2.90D-07 at cycle   2 NSaved=   2.
 NSaved= 2 IEnMin= 2 EnMin= -1.17853400663474     IErMin= 2 ErrMin= 2.90D-07
 ErrMax= 2.90D-07 EMaxC= 1.00D-01 BMatC= 5.30D-13 BMatP= 1.47D-11
 IDIUse=1 WtCom= 1.00D+00 WtEn= 0.00D+00
 Coeff-Com:  0.159D+00 0.841D+00
 Coeff:      0.159D+00 0.841D+00
 Gap=     0.534 Goal=   None    Shift=    0.000
 RMSDP=6.50D-08 MaxDP=2.52D-07 DE=-2.09D-11 OVMax= 5.65D-07

 Cycle   6  Pass 1  IDiag  1:
 E= -1.17853400663554     Delta-E=       -0.000000000001 Rises=F Damp=F
 DIIS: error= 1.52D-09 at cycle   3 NSaved=   3.
 NSaved= 3 IEnMin= 3 EnMin= -1.17853400663554     IErMin= 3 ErrMin= 1.52D-09
 ErrMax= 1.52D-09 EMaxC= 1.00D-01 BMatC= 9.29D-18 BMatP= 5.30D-13
 IDIUse=1 WtCom= 1.00D+00 WtEn= 0.00D+00
 Coeff-Com: -0.809D-02-0.390D-01 0.105D+01
 Coeff:     -0.809D-02-0.390D-01 0.105D+01
 Gap=     0.534 Goal=   None    Shift=    0.000
 RMSDP=1.35D-10 MaxDP=3.98D-10 DE=-8.07D-13 OVMax= 1.30D-09

 SCF Done:  E(RB3LYP) =  -1.17853400664     A.U. after    6 cycles
             Convg  =    0.1354D-09             -V/T =  2.0290
 KE= 1.145276225112D+00 PE=-3.651704757843D+00 EE= 6.127901901624D-01
 Leave Link  502 at Sun Sep 15 20:41:01 2024, MaxMem=   13107200 cpu:       0.2
 (Enter /programs/64bit/g09/g09-gfortran/bin/l601.exe)
 Copying SCF densities to generalized density rwf, IOpCl= 0 IROHF=0.

 **********************************************************************

            Population analysis using the SCF density.

 **********************************************************************

 Orbital symmetries:
       Occupied  (SGG)
       Virtual   (SGU) (SGG) (SGU) (PIU) (PIU) (SGG) (PIG) (PIG)
                 (SGU)
 The electronic state is 1-SGG.
 Alpha  occ. eigenvalues --   -0.43216
 Alpha virt. eigenvalues --    0.10176   0.57599   1.03840   1.67444   1.67444
 Alpha virt. eigenvalues --    2.38417   2.61878   2.61878   4.16664
     Molecular Orbital Coefficients:
                           1         2         3         4         5
                       (SGG)--O  (SGU)--V  (SGG)--V  (SGU)--V  (PIU)--V
     Eigenvalues --    -0.43216   0.10176   0.57599   1.03840   1.67444
   1 1   H  1S          0.32507   0.17164   0.74093  -0.90042   0.00000
   2        2S          0.26989   1.64077  -0.67779   1.48333   0.00000
   3        3PX         0.00000   0.00000   0.00000   0.00000   0.00000
   4        3PY         0.00000   0.00000   0.00000   0.00000   0.61059
   5        3PZ        -0.01537   0.01055  -0.04015  -0.25232   0.00000
   6 2   H  1S          0.32507  -0.17164   0.74093   0.90042   0.00000
   7        2S          0.26989  -1.64077  -0.67779  -1.48333   0.00000
   8        3PX         0.00000   0.00000   0.00000   0.00000   0.00000
   9        3PY         0.00000   0.00000   0.00000   0.00000   0.61059
  10        3PZ         0.01537   0.01055   0.04015  -0.25232   0.00000
                           6         7         8         9        10
                       (PIU)--V  (SGG)--V  (PIG)--V  (PIG)--V  (SGU)--V
     Eigenvalues --     1.67444   2.38417   2.61878   2.61878   4.16664
   1 1   H  1S          0.00000   0.39005   0.00000   0.00000  -1.43461
   2        2S          0.00000  -0.19286   0.00000   0.00000  -0.18637
   3        3PX         0.61059   0.00000   0.87112   0.00000   0.00000
   4        3PY         0.00000   0.00000   0.00000   0.87112   0.00000
   5        3PZ         0.00000   0.64761   0.00000   0.00000   1.58406
   6 2   H  1S          0.00000   0.39005   0.00000   0.00000   1.43461
   7        2S          0.00000  -0.19286   0.00000   0.00000   0.18637
   8        3PX         0.61059   0.00000  -0.87112   0.00000   0.00000
   9        3PY         0.00000   0.00000   0.00000  -0.87112   0.00000
  10        3PZ         0.00000  -0.64761   0.00000   0.00000   1.58406
     Density Matrix:
                           1         2         3         4         5
   1 1   H  1S          0.21135
   2        2S          0.17547   0.14569
   3        3PX        -0.00000  -0.00000   0.00000
   4        3PY        -0.00000  -0.00000   0.00000   0.00000
   5        3PZ        -0.00999  -0.00830   0.00000   0.00000   0.00047
   6 2   H  1S          0.21135   0.17547  -0.00000  -0.00000  -0.00999
   7        2S          0.17547   0.14569  -0.00000  -0.00000  -0.00830
   8        3PX         0.00000   0.00000  -0.00000  -0.00000  -0.00000
   9        3PY         0.00000   0.00000  -0.00000  -0.00000  -0.00000
  10        3PZ         0.00999   0.00830  -0.00000  -0.00000  -0.00047
                           6         7         8         9        10
   6 2   H  1S          0.21135
   7        2S          0.17547   0.14569
   8        3PX         0.00000   0.00000   0.00000
   9        3PY         0.00000   0.00000   0.00000   0.00000
  10        3PZ         0.00999   0.00830   0.00000   0.00000   0.00047
    Full Mulliken population analysis:
                           1         2         3         4         5
   1 1   H  1S          0.21135
   2        2S          0.11551   0.14569
   3        3PX         0.00000   0.00000   0.00000
   4        3PY         0.00000   0.00000   0.00000   0.00000
   5        3PZ         0.00000   0.00000   0.00000   0.00000   0.00047
   6 2   H  1S          0.09623   0.08933   0.00000   0.00000   0.00470
   7        2S          0.08933   0.12443   0.00000   0.00000   0.00129
   8        3PX         0.00000   0.00000  -0.00000   0.00000   0.00000
   9        3PY         0.00000   0.00000   0.00000  -0.00000   0.00000
  10        3PZ         0.00470   0.00129   0.00000   0.00000   0.00019
                           6         7         8         9        10
   6 2   H  1S          0.21135
   7        2S          0.11551   0.14569
   8        3PX         0.00000   0.00000   0.00000
   9        3PY         0.00000   0.00000   0.00000   0.00000
  10        3PZ         0.00000   0.00000   0.00000   0.00000   0.00047
     Gross orbital populations:
                           1
   1 1   H  1S          0.51711
   2        2S          0.47624
   3        3PX         0.00000
   4        3PY         0.00000
   5        3PZ         0.00665
   6 2   H  1S          0.51711
   7        2S          0.47624
   8        3PX         0.00000
   9        3PY         0.00000
  10        3PZ         0.00665
          Condensed to atoms (all electrons):
              1          2
     1  H    0.588525   0.411475
     2  H    0.411475   0.588525
 Mulliken atomic charges:
              1
     1  H    0.000000
     2  H    0.000000
 Sum of Mulliken atomic charges =   0.00000
 Mulliken charges with hydrogens summed into heavy atoms:
              1
 Sum of Mulliken charges with hydrogens summed into heavy atoms =   0.00000
 Electronic spatial extent (au):  <R**2>=              5.1101
 Charge=              0.0000 electrons
 Dipole moment (field-independent basis, Debye):
    X=              0.0000    Y=             -0.0000    Z=             -0.0000  Tot=              0.0000
 Quadrupole moment (field-independent basis, Debye-Ang):
   XX=             -2.0255   YY=             -2.0255   ZZ=             -1.5071
   XY=             -0.0000   XZ=             -0.0000   YZ=              0.0000
 Traceless Quadrupole moment (field-independent basis, Debye-Ang):
   XX=             -0.1728   YY=             -0.1728   ZZ=              0.3456
   XY=             -0.0000   XZ=             -0.0000   YZ=              0.0000
 Octapole moment (field-independent basis, Debye-Ang**2):
  XXX=             -0.0000  YYY=              0.0000  ZZZ=             -0.0000  XYY=             -0.0000
  XXY=             -0.0000  XXZ=             -0.0000  XZZ=             -0.0000  YZZ=              0.0000
  YYZ=             -0.0000  XYZ=              0.0000
 Hexadecapole moment (field-independent basis, Debye-Ang**3):
 XXXX=             -1.8704 YYYY=             -1.8704 ZZZZ=             -2.7539 XXXY=             -0.0000
 XXXZ=              0.0000 YYYX=             -0.0000 YYYZ=              0.0000 ZZZX=              0.0000
 ZZZY=              0.0000 XXYY=             -0.6235 XXZZ=             -0.7854 YYZZ=             -0.7854
 XXYZ=              0.0000 YYXZ=              0.0000 ZZXY=             -0.0000
 N-N= 7.151043359324D-01 E-N=-3.651704756779D+00  KE= 1.145276225112D+00
 Symmetry AG   KE= 1.145276225112D+00
 Symmetry B1G  KE= 0.000000000000D+00
 Symmetry B2G  KE= 2.272325412331D-34
 Symmetry B3G  KE= 2.272325412331D-34
 Symmetry AU   KE= 0.000000000000D+00
 Symmetry B1U  KE= 4.572944684323D-32
 Symmetry B2U  KE= 6.501636024680D-35
 Symmetry B3U  KE= 6.501636024680D-35
 Orbital energies and kinetic energies (alpha):
                                 1                 2
   1         (SGG)--O         -0.432158          0.572638
   2         (SGU)--V          0.101759          0.492676
   3         (SGG)--V          0.575986          1.406130
   4         (SGU)--V          1.038396          2.259771
   5         (PIU)--V          1.674442          2.449079
   6         (PIU)--V          1.674442          2.449079
   7         (SGG)--V          2.384170          3.280561
   8         (PIG)--V          2.618778          3.362504
   9         (PIG)--V          2.618778          3.362504
  10         (SGU)--V          4.166643          5.437219
 Total kinetic energy from orbitals= 1.145276225112D+00
 No NMR shielding tensors so no spin-rotation constants.
 Leave Link  601 at Sun Sep 15 20:41:01 2024, MaxMem=   13107200 cpu:       0.1
 (Enter /programs/64bit/g09/g09-gfortran/bin/l701.exe)
 Compute integral first derivatives.
 ... and contract with generalized density number  0.
 Leave Link  701 at Sun Sep 15 20:41:01 2024, MaxMem=   13107200 cpu:       0.1
 (Enter /programs/64bit/g09/g09-gfortran/bin/l702.exe)
 L702 exits ... SP integral derivatives will be done elsewhere.
 Leave Link  702 at Sun Sep 15 20:41:01 2024, MaxMem=   13107200 cpu:       0.0
 (Enter /programs/64bit/g09/g09-gfortran/bin/l703.exe)
 Compute integral first derivatives, UseDBF=F ICtDFT=           0.
 Integral derivatives from FoFDir, PRISM(SPDF).
 Calling FoFJK, ICntrl=      2127 FMM=F ISym2X=1 I1Cent= 0 IOpClX= 0 NMat=1 NMatS=1 NMatT=0.
 FoFCou: FMM=F IPFlag=           0 FMFlag=      100000 FMFlg1=         800
         NFxFlg=           0 DoJE=F BraDBF=F KetDBF=F FulRan=T
         Omega=  0.000000  0.000000  1.000000  0.000000  0.000000 ICntrl=    2127 IOpCl=  0
         NMat0=    1 NMatS0=    1 NMatT0=    0 NMatD0=    1 NMtDS0=    0 NMtDT0=    0
         I1Cent=           0 NGrid=           0.
 Petite list used in FoFCou.
 Leave Link  703 at Sun Sep 15 20:41:01 2024, MaxMem=   13107200 cpu:       0.1
 (Enter /programs/64bit/g09/g09-gfortran/bin/l716.exe)
 Dipole        = 1.23259516D-32-2.40741243D-35-1.11022302D-16
 ***** Axes restored to original set *****
 -------------------------------------------------------------------
 Center     Atomic                   Forces (Hartrees/Bohr)
 Number     Number              X              Y              Z
 -------------------------------------------------------------------
      1        1           0.000000000    0.000000000   -0.002025405
      2        1          -0.000000000   -0.000000000    0.002025405
 -------------------------------------------------------------------
 Cartesian Forces:  Max     0.002025405 RMS     0.001169368
 Leave Link  716 at Sun Sep 15 20:41:01 2024, MaxMem=   13107200 cpu:       0.0
 (Enter /programs/64bit/g09/g09-gfortran/bin/l103.exe)

 GradGradGradGradGradGradGradGradGradGradGradGradGradGradGradGradGradGrad
 Berny optimization.
 Internal  Forces:  Max     0.002025405 RMS     0.002025405
 Search for a local minimum.
 Step number   1 out of a maximum of   20
 All quantities printed in internal units (Hartrees-Bohrs-Radians)
 RMS Force = .20254D-02 SwitMx=.10000D-02 MixMth= 1
 Mixed Optimization -- RFO/linear search
 Second derivative matrix not updated -- first step.
 The second derivative matrix:
                          R1
           R1           0.39139
     Eigenvalues ---    0.39139
 RFO step:  Lambda=-1.04808775D-05 EMin= 3.91394209D-01
 Linear search not attempted -- first point.
 Iteration  1 RMS(Cart)=  0.00365907 RMS(Int)=  0.00000000
 Iteration  2 RMS(Cart)=  0.00000000 RMS(Int)=  0.00000000
 ClnCor:  largest displacement from symmetrization is 1.58D-19 for atom     1.
 Variable       Old X    -DE/DX   Delta X   Delta X   Delta X     New X
                                 (Linear)    (Quad)   (Total)
    R1        1.39840   0.00203   0.00000   0.00517   0.00517   1.40357
         Item               Value     Threshold  Converged?
 Maximum Force            0.002025     0.000450     NO 
 RMS     Force            0.002025     0.000300     NO 
 Maximum Displacement     0.002587     0.001800     NO 
 RMS     Displacement     0.003659     0.001200     NO 
 Predicted change in Energy=-5.240579D-06
 GradGradGradGradGradGradGradGradGradGradGradGradGradGradGradGradGradGrad

 Leave Link  103 at Sun Sep 15 20:41:01 2024, MaxMem=   13107200 cpu:       0.0
 (Enter /programs/64bit/g09/g09-gfortran/bin/l202.exe)
                          Input orientation:                          
 ---------------------------------------------------------------------
 Center     Atomic      Atomic             Coordinates (Angstroms)
 Number     Number       Type             X           Y           Z
 ---------------------------------------------------------------------
      1          1           0        0.000000    0.000000   -0.001369
      2          1           0        0.000000    0.000000    0.741369
 ---------------------------------------------------------------------
 Stoichiometry    H2
 Framework group  D*H[C*(H.H)]
 Deg. of freedom     1
 Full point group                 D*H     NOp   8
 Largest Abelian subgroup         D2H     NOp   8
 Largest concise Abelian subgroup C2      NOp   2
                         Standard orientation:                         
 ---------------------------------------------------------------------
 Center     Atomic      Atomic             Coordinates (Angstroms)
 Number     Number       Type             X           Y           Z
 ---------------------------------------------------------------------
      1          1           0        0.000000    0.000000    0.371369
      2          1           0        0.000000    0.000000   -0.371369
 ---------------------------------------------------------------------
 Rotational constants (GHZ):      0.0000000   1817.9852961   1817.9852961
 Leave Link  202 at Sun Sep 15 20:41:01 2024, MaxMem=   13107200 cpu:       0.0
 (Enter /programs/64bit/g09/g09-gfortran/bin/l301.exe)
 Standard basis: 6-31+G(d,p) (6D, 7F)
 Ernie: Thresh=  0.10000D-02 Tol=  0.10000D-05 Strict=F.
 There are     3 symmetry adapted basis functions of AG  symmetry.
 There are     0 symmetry adapted basis functions of B1G symmetry.
 There are     1 symmetry adapted basis functions of B2G symmetry.
 There are     1 symmetry adapted basis functions of B3G symmetry.
 There are     0 symmetry adapted basis functions of AU  symmetry.
 There are     3 symmetry adapted basis functions of B1U symmetry.
 There are     1 symmetry adapted basis functions of B2U symmetry.
 There are     1 symmetry adapted basis functions of B3U symmetry.
 Integral buffers will be    131072 words long.
 Raffenetti 2 integral format.
 Two-electron integral symmetry is turned on.
    10 basis functions,    14 primitive gaussians,    10 cartesian basis functions
     1 alpha electrons        1 beta electrons
       nuclear repulsion energy         0.7124678800 Hartrees.
 IExCor=  402 DFT=T Ex+Corr=B3LYP ExCW=0 ScaHFX=  0.200000
 ScaDFX=  0.800000  0.720000  1.000000  0.810000 ScalE2=  1.000000  1.000000
 IRadAn=      0 IRanWt=     -1 IRanGd=            0 ICorTp=0
 NAtoms=    2 NActive=    2 NUniq=    1 SFac= 3.00D+00 NAtFMM=   80 NAOKFM=F Big=F
 Leave Link  301 at Sun Sep 15 20:41:01 2024, MaxMem=   13107200 cpu:       0.1
 (Enter /programs/64bit/g09/g09-gfortran/bin/l302.exe)
 NPDir=0 NMtPBC=     1 NCelOv=     1 NCel=       1 NClECP=     1 NCelD=      1
         NCelK=      1 NCelE2=     1 NClLst=     1 CellRange=     0.0.
 One-electron integrals computed using PRISM.
 One-electron integral symmetry used in STVInt
 NBasis=    10 RedAO= T  NBF=     3     0     1     1     0     3     1     1
 NBsUse=    10 1.00D-06 NBFU=     3     0     1     1     0     3     1     1
 Precomputing XC quadrature grid using
 IXCGrd= 2 IRadAn=           0 IRanWt=          -1 IRanGd=           0 AccXCQ= 1.00D-10.
 NRdTot=     122 NPtTot=       15168 NUsed=       16061 NTot=       16093
 NSgBfM=    10    10    10    10    10 NAtAll=     2     2.
 Leave Link  302 at Sun Sep 15 20:41:02 2024, MaxMem=   13107200 cpu:       0.2
 (Enter /programs/64bit/g09/g09-gfortran/bin/l303.exe)
 DipDrv:  MaxL=1.
 Leave Link  303 at Sun Sep 15 20:41:02 2024, MaxMem=   13107200 cpu:       0.1
 (Enter /programs/64bit/g09/g09-gfortran/bin/l401.exe)
 Initial guess read from the read-write file.
 B after Tr=     0.000000    0.000000    0.000000
         Rot=    1.000000    0.000000    0.000000    0.000000 Ang=   0.00 deg.
 Guess basis will be translated and rotated to current coordinates.
 Initial guess orbital symmetries:
       Occupied  (SGG)
       Virtual   (SGU) (SGG) (SGU) (PIU) (PIU) (SGG) (PIG) (PIG)
                 (SGU)
 The electronic state of the initial guess is 1-SGG.
 Leave Link  401 at Sun Sep 15 20:41:02 2024, MaxMem=   13107200 cpu:       0.2
 (Enter /programs/64bit/g09/g09-gfortran/bin/l502.exe)
 Closed shell SCF:
 Requested convergence on RMS density matrix=1.00D-08 within 128 cycles.
 Requested convergence on MAX density matrix=1.00D-06.
 Requested convergence on             energy=1.00D-06.
 No special actions if energy rises.
 Using DIIS extrapolation, IDIIS=  1040.
 Integral symmetry usage will be decided dynamically.
        16030 words used for storage of precomputed grid.
 Keep R1 ints in memory in canonical form, NReq=894727.
 IEnd=       35823 IEndB=       35823 NGot=    13107200 MDV=    13086912
 LenX=    13086912 LenY=    13086030
 Symmetry not used in FoFDir.
 MinBra= 0 MaxBra= 1 Meth= 1.
 IRaf=       0 NMat=   1 IRICut=       1 DoRegI=T DoRafI=F ISym2E= 0 JSym2E=0.

 Cycle   1  Pass 1  IDiag  1:
 E= -1.17853834630530    
 DIIS: error= 3.19D-04 at cycle   1 NSaved=   1.
 NSaved= 1 IEnMin= 1 EnMin= -1.17853834630530     IErMin= 1 ErrMin= 3.19D-04
 ErrMax= 3.19D-04 EMaxC= 1.00D-01 BMatC= 5.86D-07 BMatP= 5.86D-07
 IDIUse=3 WtCom= 9.97D-01 WtEn= 3.19D-03
 Coeff-Com:  0.100D+01
 Coeff-En:   0.100D+01
 Coeff:      0.100D+01
 Gap=     0.532 Goal=   None    Shift=    0.000
 RMSDP=9.20D-05 MaxDP=3.65D-04              OVMax= 7.59D-04

 Cycle   2  Pass 1  IDiag  1:
 E= -1.17853929970887     Delta-E=       -0.000000953404 Rises=F Damp=F
 DIIS: error= 6.56D-05 at cycle   2 NSaved=   2.
 NSaved= 2 IEnMin= 2 EnMin= -1.17853929970887     IErMin= 2 ErrMin= 6.56D-05
 ErrMax= 6.56D-05 EMaxC= 1.00D-01 BMatC= 2.38D-08 BMatP= 5.86D-07
 IDIUse=1 WtCom= 1.00D+00 WtEn= 0.00D+00
 Coeff-Com:  0.158D+00 0.842D+00
 Coeff:      0.158D+00 0.842D+00
 Gap=     0.533 Goal=   None    Shift=    0.000
 RMSDP=1.30D-05 MaxDP=5.00D-05 DE=-9.53D-07 OVMax= 1.15D-04

 Cycle   3  Pass 1  IDiag  1:
 E= -1.17853933407768     Delta-E=       -0.000000034369 Rises=F Damp=F
 DIIS: error= 1.04D-06 at cycle   3 NSaved=   3.
 NSaved= 3 IEnMin= 3 EnMin= -1.17853933407768     IErMin= 3 ErrMin= 1.04D-06
 ErrMax= 1.04D-06 EMaxC= 1.00D-01 BMatC= 6.82D-12 BMatP= 2.38D-08
 IDIUse=1 WtCom= 1.00D+00 WtEn= 0.00D+00
 Coeff-Com: -0.807D-02-0.377D-01 0.105D+01
 Coeff:     -0.807D-02-0.377D-01 0.105D+01
 Gap=     0.533 Goal=   None    Shift=    0.000
 RMSDP=1.69D-07 MaxDP=6.54D-07 DE=-3.44D-08 OVMax= 8.70D-07

 Cycle   4  Pass 1  IDiag  1:
 E= -1.17853933408384     Delta-E=       -0.000000000006 Rises=F Damp=F
 DIIS: error= 4.60D-11 at cycle   4 NSaved=   4.
 NSaved= 4 IEnMin= 4 EnMin= -1.17853933408384     IErMin= 4 ErrMin= 4.60D-11
 ErrMax= 4.60D-11 EMaxC= 1.00D-01 BMatC= 1.29D-20 BMatP= 6.82D-12
 IDIUse=1 WtCom= 1.00D+00 WtEn= 0.00D+00
 Coeff-Com: -0.823D-07 0.354D-06 0.758D-05 0.100D+01
 Coeff:     -0.823D-07 0.354D-06 0.758D-05 0.100D+01
 Gap=     0.533 Goal=   None    Shift=    0.000
 RMSDP=9.95D-12 MaxDP=3.85D-11 DE=-6.16D-12 OVMax= 8.68D-11

 SCF Done:  E(RB3LYP) =  -1.17853933408     A.U. after    4 cycles
             Convg  =    0.9950D-11             -V/T =  2.0313
 KE= 1.142763111822D+00 PE=-3.645572980654D+00 EE= 6.118026547122D-01
 Leave Link  502 at Sun Sep 15 20:41:02 2024, MaxMem=   13107200 cpu:       0.1
 (Enter /programs/64bit/g09/g09-gfortran/bin/l701.exe)
 Compute integral first derivatives.
 ... and contract with generalized density number  0.
 Leave Link  701 at Sun Sep 15 20:41:02 2024, MaxMem=   13107200 cpu:       0.1
 (Enter /programs/64bit/g09/g09-gfortran/bin/l702.exe)
 L702 exits ... SP integral derivatives will be done elsewhere.
 Leave Link  702 at Sun Sep 15 20:41:02 2024, MaxMem=   13107200 cpu:       0.1
 (Enter /programs/64bit/g09/g09-gfortran/bin/l703.exe)
 Compute integral first derivatives, UseDBF=F ICtDFT=           0.
 Integral derivatives from FoFDir, PRISM(SPDF).
 Calling FoFJK, ICntrl=      2127 FMM=F ISym2X=1 I1Cent= 0 IOpClX= 0 NMat=1 NMatS=1 NMatT=0.
 FoFCou: FMM=F IPFlag=           0 FMFlag=      100000 FMFlg1=         800
         NFxFlg=           0 DoJE=F BraDBF=F KetDBF=F FulRan=T
         Omega=  0.000000  0.000000  1.000000  0.000000  0.000000 ICntrl=    2127 IOpCl=  0
         NMat0=    1 NMatS0=    1 NMatT0=    0 NMatD0=    1 NMtDS0=    0 NMtDT0=    0
         I1Cent=           0 NGrid=           0.
 Petite list used in FoFCou.
 Leave Link  703 at Sun Sep 15 20:41:02 2024, MaxMem=   13107200 cpu:       0.1
 (Enter /programs/64bit/g09/g09-gfortran/bin/l716.exe)
 Dipole        =-2.46519033D-32-2.40741243D-35 0.00000000D+00
 ***** Axes restored to original set *****
 -------------------------------------------------------------------
 Center     Atomic                   Forces (Hartrees/Bohr)
 Number     Number              X              Y              Z
 -------------------------------------------------------------------
      1        1           0.000000000    0.000000000   -0.000039435
      2        1          -0.000000000   -0.000000000    0.000039435
 -------------------------------------------------------------------
 Cartesian Forces:  Max     0.000039435 RMS     0.000022768
 Leave Link  716 at Sun Sep 15 20:41:03 2024, MaxMem=   13107200 cpu:       0.1
 (Enter /programs/64bit/g09/g09-gfortran/bin/l103.exe)

 GradGradGradGradGradGradGradGradGradGradGradGradGradGradGradGradGradGrad
 Berny optimization.
 Using GEDIIS/GDIIS optimizer.
 Internal  Forces:  Max     0.000039435 RMS     0.000039435
 Search for a local minimum.
 Step number   2 out of a maximum of   20
 All quantities printed in internal units (Hartrees-Bohrs-Radians)
 RMS Force = .39435D-04 SwitMx=.10000D-02 MixMth= 2
 Mixed Optimization -- En-DIIS/RFO-DIIS
 Update second derivatives using D2CorX and points    1    2
 DE= -5.33D-06 DEPred=-5.24D-06 R= 1.02D+00
 SS=  1.41D+00  RLast= 5.17D-03 DXNew= 5.0454D-01 1.5524D-02
 Trust test= 1.02D+00 RLast= 5.17D-03 DXMaxT set to 3.00D-01
 The second derivative matrix:
                          R1
           R1           0.38378
 Use linear search instead of GDIIS.
     Eigenvalues ---    0.38378
 RFO step:  Lambda= 0.00000000D+00 EMin= 3.83783923D-01
 Quartic linear search produced a step of  0.02004.
 Iteration  1 RMS(Cart)=  0.00007331 RMS(Int)=  0.00000000
 Iteration  2 RMS(Cart)=  0.00000000 RMS(Int)=  0.00000000
 ClnCor:  largest displacement from symmetrization is 2.22D-16 for atom     2.
 Variable       Old X    -DE/DX   Delta X   Delta X   Delta X     New X
                                 (Linear)    (Quad)   (Total)
    R1        1.40357   0.00004   0.00010   0.00000   0.00010   1.40368
         Item               Value     Threshold  Converged?
 Maximum Force            0.000039     0.000450     YES
 RMS     Force            0.000039     0.000300     YES
 Maximum Displacement     0.000052     0.001800     YES
 RMS     Displacement     0.000073     0.001200     YES
 Predicted change in Energy=-2.025895D-09
 Optimization completed.
    -- Stationary point found.
                           ----------------------------
                           !   Optimized Parameters   !
                           ! (Angstroms and Degrees)  !
 --------------------------                            --------------------------
 ! Name  Definition              Value          Derivative Info.                !
 --------------------------------------------------------------------------------
 ! R1    R(1,2)                  0.7427         -DE/DX =    0.0                 !
 --------------------------------------------------------------------------------
 GradGradGradGradGradGradGradGradGradGradGradGradGradGradGradGradGradGrad

 Largest change from initial coordinates is atom    1       0.001 Angstoms.
 Leave Link  103 at Sun Sep 15 20:41:03 2024, MaxMem=   13107200 cpu:       0.0
 (Enter /programs/64bit/g09/g09-gfortran/bin/l202.exe)
                          Input orientation:                          
 ---------------------------------------------------------------------
 Center     Atomic      Atomic             Coordinates (Angstroms)
 Number     Number       Type             X           Y           Z
 ---------------------------------------------------------------------
      1          1           0        0.000000    0.000000   -0.001369
      2          1           0        0.000000    0.000000    0.741369
 ---------------------------------------------------------------------
 Stoichiometry    H2
 Framework group  D*H[C*(H.H)]
 Deg. of freedom     1
 Full point group                 D*H     NOp   8
 Largest Abelian subgroup         D2H     NOp   8
 Largest concise Abelian subgroup C2      NOp   2
                         Standard orientation:                         
 ---------------------------------------------------------------------
 Center     Atomic      Atomic             Coordinates (Angstroms)
 Number     Number       Type             X           Y           Z
 ---------------------------------------------------------------------
      1          1           0        0.000000    0.000000    0.371369
      2          1           0        0.000000    0.000000   -0.371369
 ---------------------------------------------------------------------
 Rotational constants (GHZ):      0.0000000   1817.9852961   1817.9852961
 Leave Link  202 at Sun Sep 15 20:41:03 2024, MaxMem=   13107200 cpu:       0.0
 (Enter /programs/64bit/g09/g09-gfortran/bin/l601.exe)
 Copying SCF densities to generalized density rwf, IOpCl= 0 IROHF=0.

 **********************************************************************

            Population analysis using the SCF density.

 **********************************************************************

 Orbital symmetries:
       Occupied  (SGG)
       Virtual   (SGU) (SGG) (SGU) (PIU) (PIU) (SGG) (PIG) (PIG)
                 (SGU)
 The electronic state is 1-SGG.
 Alpha  occ. eigenvalues --   -0.43159
 Alpha virt. eigenvalues --    0.10098   0.57698   1.03614   1.67470   1.67470
 Alpha virt. eigenvalues --    2.37898   2.61573   2.61573   4.15313
     Molecular Orbital Coefficients:
                           1         2         3         4         5
                       (SGG)--O  (SGU)--V  (SGG)--V  (SGU)--V  (PIU)--V
     Eigenvalues --    -0.43159   0.10098   0.57698   1.03614   1.67470
   1 1   H  1S          0.32476   0.17232   0.74181  -0.90214   0.00000
   2        2S          0.27047   1.63371  -0.67787   1.48132   0.00000
   3        3PX         0.00000   0.00000   0.00000   0.00000   0.00000
   4        3PY         0.00000   0.00000   0.00000   0.00000   0.61121
   5        3PZ        -0.01536   0.01056  -0.04072  -0.24982   0.00000
   6 2   H  1S          0.32476  -0.17232   0.74181   0.90214   0.00000
   7        2S          0.27047  -1.63371  -0.67787  -1.48132   0.00000
   8        3PX         0.00000   0.00000   0.00000   0.00000   0.00000
   9        3PY         0.00000   0.00000   0.00000   0.00000   0.61121
  10        3PZ         0.01536   0.01056   0.04072  -0.24982   0.00000
                           6         7         8         9        10
                       (PIU)--V  (SGG)--V  (PIG)--V  (PIG)--V  (SGU)--V
     Eigenvalues --     1.67470   2.37898   2.61573   2.61573   4.15313
   1 1   H  1S          0.00000   0.38958   0.00000   0.00000  -1.41514
   2        2S          0.00000  -0.19262   0.00000   0.00000  -0.18970
   3        3PX         0.61121   0.00000   0.86934   0.00000   0.00000
   4        3PY         0.00000   0.00000   0.00000   0.86934   0.00000
   5        3PZ         0.00000   0.64661   0.00000   0.00000   1.57600
   6 2   H  1S          0.00000   0.38958   0.00000   0.00000   1.41514
   7        2S          0.00000  -0.19262   0.00000   0.00000   0.18970
   8        3PX         0.61121   0.00000  -0.86934   0.00000   0.00000
   9        3PY         0.00000   0.00000   0.00000  -0.86934   0.00000
  10        3PZ         0.00000  -0.64661   0.00000   0.00000   1.57600
     Density Matrix:
                           1         2         3         4         5
   1 1   H  1S          0.21093
   2        2S          0.17568   0.14631
   3        3PX        -0.00000  -0.00000   0.00000
   4        3PY        -0.00000  -0.00000   0.00000   0.00000
   5        3PZ        -0.00998  -0.00831   0.00000   0.00000   0.00047
   6 2   H  1S          0.21093   0.17568  -0.00000  -0.00000  -0.00998
   7        2S          0.17568   0.14631  -0.00000  -0.00000  -0.00831
   8        3PX         0.00000   0.00000  -0.00000  -0.00000  -0.00000
   9        3PY         0.00000   0.00000  -0.00000  -0.00000  -0.00000
  10        3PZ         0.00998   0.00831  -0.00000  -0.00000  -0.00047
                           6         7         8         9        10
   6 2   H  1S          0.21093
   7        2S          0.17568   0.14631
   8        3PX         0.00000   0.00000   0.00000
   9        3PY         0.00000   0.00000   0.00000   0.00000
  10        3PZ         0.00998   0.00831   0.00000   0.00000   0.00047
    Full Mulliken population analysis:
                           1         2         3         4         5
   1 1   H  1S          0.21093
   2        2S          0.11565   0.14631
   3        3PX         0.00000   0.00000   0.00000
   4        3PY         0.00000   0.00000   0.00000   0.00000
   5        3PZ         0.00000   0.00000   0.00000   0.00000   0.00047
   6 2   H  1S          0.09552   0.08926   0.00000   0.00000   0.00468
   7        2S          0.08926   0.12482   0.00000   0.00000   0.00129
   8        3PX         0.00000   0.00000  -0.00000   0.00000   0.00000
   9        3PY         0.00000   0.00000   0.00000  -0.00000   0.00000
  10        3PZ         0.00468   0.00129   0.00000   0.00000   0.00019
                           6         7         8         9        10
   6 2   H  1S          0.21093
   7        2S          0.11565   0.14631
   8        3PX         0.00000   0.00000   0.00000
   9        3PY         0.00000   0.00000   0.00000   0.00000
  10        3PZ         0.00000   0.00000   0.00000   0.00000   0.00047
     Gross orbital populations:
                           1
   1 1   H  1S          0.51604
   2        2S          0.47733
   3        3PX         0.00000
   4        3PY         0.00000
   5        3PZ         0.00663
   6 2   H  1S          0.51604
   7        2S          0.47733
   8        3PX         0.00000
   9        3PY         0.00000
  10        3PZ         0.00663
          Condensed to atoms (all electrons):
              1          2
     1  H    0.589008   0.410992
     2  H    0.410992   0.589008
 Mulliken atomic charges:
              1
     1  H   -0.000000
     2  H   -0.000000
 Sum of Mulliken atomic charges =  -0.00000
 Mulliken charges with hydrogens summed into heavy atoms:
              1
 Sum of Mulliken charges with hydrogens summed into heavy atoms =  -0.00000
 Electronic spatial extent (au):  <R**2>=              5.1229
 Charge=             -0.0000 electrons
 Dipole moment (field-independent basis, Debye):
    X=             -0.0000    Y=             -0.0000    Z=              0.0000  Tot=              0.0000
 Quadrupole moment (field-independent basis, Debye-Ang):
   XX=             -2.0290   YY=             -2.0290   ZZ=             -1.5076
   XY=             -0.0000   XZ=             -0.0000   YZ=              0.0000
 Traceless Quadrupole moment (field-independent basis, Debye-Ang):
   XX=             -0.1738   YY=             -0.1738   ZZ=              0.3476
   XY=             -0.0000   XZ=             -0.0000   YZ=              0.0000
 Octapole moment (field-independent basis, Debye-Ang**2):
  XXX=             -0.0000  YYY=              0.0000  ZZZ=             -0.0000  XYY=             -0.0000
  XXY=              0.0000  XXZ=             -0.0000  XZZ=             -0.0000  YZZ=              0.0000
  YYZ=             -0.0000  XYZ=              0.0000
 Hexadecapole moment (field-independent basis, Debye-Ang**3):
 XXXX=             -1.8758 YYYY=             -1.8758 ZZZZ=             -2.7677 XXXY=             -0.0000
 XXXZ=              0.0000 YYYX=             -0.0000 YYYZ=              0.0000 ZZZX=              0.0000
 ZZZY=              0.0000 XXYY=             -0.6253 XXZZ=             -0.7887 YYZZ=             -0.7887
 XXYZ=              0.0000 YYXZ=              0.0000 ZZXY=             -0.0000
 N-N= 7.124678800359D-01 E-N=-3.645572980593D+00  KE= 1.142763111822D+00
 Symmetry AG   KE= 1.142763111822D+00
 Symmetry B1G  KE= 0.000000000000D+00
 Symmetry B2G  KE= 2.251670018767D-34
 Symmetry B3G  KE= 2.251670018767D-34
 Symmetry AU   KE= 0.000000000000D+00
 Symmetry B1U  KE= 3.128114827987D-32
 Symmetry B2U  KE= 6.480581009336D-35
 Symmetry B3U  KE= 6.480581009336D-35
 Orbital energies and kinetic energies (alpha):
                                 1                 2
   1         (SGG)--O         -0.431589          0.571382
   2         (SGU)--V          0.100982          0.493348
   3         (SGG)--V          0.576985          1.407549
   4         (SGU)--V          1.036138          2.257827
   5         (PIU)--V          1.674704          2.448647
   6         (PIU)--V          1.674704          2.448647
   7         (SGG)--V          2.378980          3.275210
   8         (PIG)--V          2.615726          3.359638
   9         (PIG)--V          2.615726          3.359638
  10         (SGU)--V          4.153131          5.416953
 Total kinetic energy from orbitals= 1.142763111822D+00
 No NMR shielding tensors so no spin-rotation constants.
 Leave Link  601 at Sun Sep 15 20:41:03 2024, MaxMem=   13107200 cpu:       0.1
 (Enter /programs/64bit/g09/g09-gfortran/bin/l9999.exe)
 B after Tr=     0.000000    0.000000    0.699199
         Rot=    0.000000   -0.000000    1.000000   -0.000000 Ang= 180.00 deg.
 Final structure in terms of initial Z-matrix:
 H
 H,1,d
      Variables:
 d=0.74273834
 1\1\GINC-MOLMOD\FOpt\RB3LYP\6-31+G(d,p)\H2\OSPITE\15-Sep-2024\0\\#p b3
 lyp/6-31+g(d,p) opt freq pop=full gfinput\\hydrogen(molecule) with 6-3
 1+G basis set\\0,1\H,0.,0.,-0.0013691686\H,0.,0.,0.7413691686\\Version
 =EM64L-G09RevA.02\State=1-SGG\HF=-1.1785393\RMSD=9.950e-12\RMSF=2.277e
 -05\Dipole=0.,0.,0.\Quadrupole=-0.1292198,-0.1292198,0.2584396,0.,0.,0
 .\PG=D*H [C*(H1.H1)]\\@


 WE THE UNWILLING
 LED BY THE UNQUALIFIED
 HAVE BEEN DOING THE UNBELIEVABLE SO LONG WITH SO LITTLE
 THAT WE NOW ATTEMPT THE IMPOSSIBLE WITH NOTHING.

                                    -- ANONYMOUS
 Leave Link 9999 at Sun Sep 15 20:41:03 2024, MaxMem=   13107200 cpu:       0.1
 Job cpu time:  0 days  0 hours  0 minutes  3.2 seconds.
 File lengths (MBytes):  RWF=      5 Int=      0 D2E=      0 Chk=      1 Scr=      1
 Normal termination of Gaussian 09 at Sun Sep 15 20:41:03 2024.
 (Enter /programs/64bit/g09/g09-gfortran/bin/l1.exe)
 Link1:  Proceeding to internal job step number  2.
 ----------------------------------------------------------------------
 #P Geom=AllCheck Guess=TCheck SCRF=Check GenChk RB3LYP/6-31+G(d,p) Fre
 q
 ----------------------------------------------------------------------
 1/10=4,29=7,30=1,38=1,40=1/1,3;
 2/12=2,40=1/2;
 3/5=1,6=6,7=111,11=2,14=-4,16=1,24=10,25=1,30=1,70=2,71=2,74=-5,116=1/1,2,3;
 4/5=101/1;
 5/5=2,98=1/2;
 8/6=4,10=90,11=11/1;
 11/6=1,8=1,9=11,15=111,16=1/1,2,10;
 10/6=1/2;
 6/7=3,18=1,28=1/1;
 7/8=1,10=1,25=1/1,2,3,16;
 1/10=4,30=1/3;
 99//99;
 Leave Link    1 at Sun Sep 15 20:41:03 2024, MaxMem=   13107200 cpu:       0.1
 (Enter /programs/64bit/g09/g09-gfortran/bin/l101.exe)
 ----------------------------------------
 hydrogen(molecule) with 6-31+G basis set
 ----------------------------------------
 Redundant internal coordinates taken from checkpoint file:
 /home/ospite/Desktop/MMfP/Project9/CH4/reactants/H2/Gau-2034.chk
 Charge =  0 Multiplicity = 1
 H,0,0.,0.,-0.0013691686
 H,0,0.,0.,0.7413691686
 Recover connectivity data from disk.
                    Isotopes and Nuclear Properties:
 (Nuclear quadrupole moments (NQMom) in fm**2, nuclear magnetic moments (NMagM)
  in nuclear magnetons)

  Atom         1           2
 IAtWgt=           1           1
 AtmWgt=   1.0078250   1.0078250
 NucSpn=           1           1
 AtZEff=  -1.0000000  -1.0000000
 NQMom=    0.0000000   0.0000000
 NMagM=    2.7928460   2.7928460
 Leave Link  101 at Sun Sep 15 20:41:03 2024, MaxMem=   13107200 cpu:       0.1
 (Enter /programs/64bit/g09/g09-gfortran/bin/l103.exe)

 GradGradGradGradGradGradGradGradGradGradGradGradGradGradGradGradGradGrad
 Berny optimization.
 Initialization pass.
                           ----------------------------
                           !    Initial Parameters    !
                           ! (Angstroms and Degrees)  !
 --------------------------                            --------------------------
 ! Name  Definition              Value          Derivative Info.                !
 --------------------------------------------------------------------------------
 ! R1    R(1,2)                  0.7427         calculate D2E/DX2 analytically  !
 --------------------------------------------------------------------------------
 Trust Radius=3.00D-01 FncErr=1.00D-07 GrdErr=1.00D-07
 Number of steps in this run=   2 maximum allowed number of steps=   2.
 GradGradGradGradGradGradGradGradGradGradGradGradGradGradGradGradGradGrad

 Leave Link  103 at Sun Sep 15 20:41:03 2024, MaxMem=   13107200 cpu:       0.0
 (Enter /programs/64bit/g09/g09-gfortran/bin/l202.exe)
                          Input orientation:                          
 ---------------------------------------------------------------------
 Center     Atomic      Atomic             Coordinates (Angstroms)
 Number     Number       Type             X           Y           Z
 ---------------------------------------------------------------------
      1          1           0        0.000000    0.000000   -0.001369
      2          1           0        0.000000    0.000000    0.741369
 ---------------------------------------------------------------------
 Stoichiometry    H2
 Framework group  D*H[C*(H.H)]
 Deg. of freedom     1
 Full point group                 D*H     NOp   8
 Largest Abelian subgroup         D2H     NOp   8
 Largest concise Abelian subgroup C2      NOp   2
                         Standard orientation:                         
 ---------------------------------------------------------------------
 Center     Atomic      Atomic             Coordinates (Angstroms)
 Number     Number       Type             X           Y           Z
 ---------------------------------------------------------------------
      1          1           0        0.000000    0.000000    0.371369
      2          1           0        0.000000    0.000000   -0.371369
 ---------------------------------------------------------------------
 Rotational constants (GHZ):      0.0000000   1817.9852961   1817.9852961
 Leave Link  202 at Sun Sep 15 20:41:03 2024, MaxMem=   13107200 cpu:       0.0
 (Enter /programs/64bit/g09/g09-gfortran/bin/l301.exe)
 Standard basis: 6-31+G(d,p) (6D, 7F)
 Ernie: Thresh=  0.10000D-02 Tol=  0.10000D-05 Strict=F.
 AO basis set in the form of general basis input (Overlap normalization):
      1 0
 S   3 1.00       0.000000000000
      0.1873113696D+02  0.3349460434D-01
      0.2825394365D+01  0.2347269535D+00
      0.6401216923D+00  0.8137573261D+00
 S   1 1.00       0.000000000000
      0.1612777588D+00  0.1000000000D+01
 P   1 1.00       0.000000000000
      0.1100000000D+01  0.1000000000D+01
 ****
      2 0
 S   3 1.00       0.000000000000
      0.1873113696D+02  0.3349460434D-01
      0.2825394365D+01  0.2347269535D+00
      0.6401216923D+00  0.8137573261D+00
 S   1 1.00       0.000000000000
      0.1612777588D+00  0.1000000000D+01
 P   1 1.00       0.000000000000
      0.1100000000D+01  0.1000000000D+01
 ****

 There are     3 symmetry adapted basis functions of AG  symmetry.
 There are     0 symmetry adapted basis functions of B1G symmetry.
 There are     1 symmetry adapted basis functions of B2G symmetry.
 There are     1 symmetry adapted basis functions of B3G symmetry.
 There are     0 symmetry adapted basis functions of AU  symmetry.
 There are     3 symmetry adapted basis functions of B1U symmetry.
 There are     1 symmetry adapted basis functions of B2U symmetry.
 There are     1 symmetry adapted basis functions of B3U symmetry.
 Integral buffers will be    131072 words long.
 Raffenetti 2 integral format.
 Two-electron integral symmetry is turned on.
    10 basis functions,    14 primitive gaussians,    10 cartesian basis functions
     1 alpha electrons        1 beta electrons
       nuclear repulsion energy         0.7124678800 Hartrees.
 IExCor=  402 DFT=T Ex+Corr=B3LYP ExCW=0 ScaHFX=  0.200000
 ScaDFX=  0.800000  0.720000  1.000000  0.810000 ScalE2=  1.000000  1.000000
 IRadAn=      0 IRanWt=     -1 IRanGd=            0 ICorTp=0
 NAtoms=    2 NActive=    2 NUniq=    1 SFac= 3.00D+00 NAtFMM=   80 NAOKFM=F Big=F
 Leave Link  301 at Sun Sep 15 20:41:03 2024, MaxMem=   13107200 cpu:       0.1
 (Enter /programs/64bit/g09/g09-gfortran/bin/l302.exe)
 NPDir=0 NMtPBC=     1 NCelOv=     1 NCel=       1 NClECP=     1 NCelD=      1
         NCelK=      1 NCelE2=     1 NClLst=     1 CellRange=     0.0.
 One-electron integrals computed using PRISM.
 One-electron integral symmetry used in STVInt
 NBasis=    10 RedAO= T  NBF=     3     0     1     1     0     3     1     1
 NBsUse=    10 1.00D-06 NBFU=     3     0     1     1     0     3     1     1
 Precomputing XC quadrature grid using
 IXCGrd= 2 IRadAn=           0 IRanWt=          -1 IRanGd=           0 AccXCQ= 1.00D-10.
 NRdTot=     122 NPtTot=       15168 NUsed=       16061 NTot=       16093
 NSgBfM=    10    10    10    10    10 NAtAll=     2     2.
 Leave Link  302 at Sun Sep 15 20:41:03 2024, MaxMem=   13107200 cpu:       0.2
 (Enter /programs/64bit/g09/g09-gfortran/bin/l303.exe)
 DipDrv:  MaxL=1.
 Leave Link  303 at Sun Sep 15 20:41:04 2024, MaxMem=   13107200 cpu:       0.1
 (Enter /programs/64bit/g09/g09-gfortran/bin/l401.exe)
 Initial guess read from the checkpoint file:  /home/ospite/Desktop/MMfP/Project9
 /CH4/reactants/H2/Gau-2034.chk
 B after Tr=     0.000000    0.000000    0.000000
         Rot=    1.000000    0.000000    0.000000    0.000000 Ang=   0.00 deg.
 Guess basis will be translated and rotated to current coordinates.
 Initial guess orbital symmetries:
       Occupied  (SGG)
       Virtual   (SGU) (SGG) (SGU) (PIU) (PIU) (SGG) (PIG) (PIG)
                 (SGU)
 The electronic state of the initial guess is 1-SGG.
 Leave Link  401 at Sun Sep 15 20:41:04 2024, MaxMem=   13107200 cpu:       0.2
 (Enter /programs/64bit/g09/g09-gfortran/bin/l502.exe)
 Closed shell SCF:
 Requested convergence on RMS density matrix=1.00D-08 within 128 cycles.
 Requested convergence on MAX density matrix=1.00D-06.
 Requested convergence on             energy=1.00D-06.
 No special actions if energy rises.
 Using DIIS extrapolation, IDIIS=  1040.
 Integral symmetry usage will be decided dynamically.
        16030 words used for storage of precomputed grid.
 Keep R1 ints in memory in canonical form, NReq=894727.
 IEnd=       35823 IEndB=       35823 NGot=    13107200 MDV=    13086912
 LenX=    13086912 LenY=    13086030
 Symmetry not used in FoFDir.
 MinBra= 0 MaxBra= 1 Meth= 1.
 IRaf=       0 NMat=   1 IRICut=       1 DoRegI=T DoRafI=F ISym2E= 0 JSym2E=0.

 Cycle   1  Pass 1  IDiag  1:
 E= -1.17853933408384    
 DIIS: error= 1.57D-15 at cycle   1 NSaved=   1.
 NSaved= 1 IEnMin= 1 EnMin= -1.17853933408384     IErMin= 1 ErrMin= 1.57D-15
 ErrMax= 1.57D-15 EMaxC= 1.00D-01 BMatC= 1.93D-29 BMatP= 1.93D-29
 IDIUse=1 WtCom= 1.00D+00 WtEn= 0.00D+00
 Coeff-Com:  0.100D+01
 Coeff:      0.100D+01
 Gap=     0.533 Goal=   None    Shift=    0.000
 RMSDP=2.13D-16 MaxDP=7.91D-16              OVMax= 8.88D-16

 SCF Done:  E(RB3LYP) =  -1.17853933408     A.U. after    1 cycles
             Convg  =    0.2127D-15             -V/T =  2.0313
 KE= 1.142763111822D+00 PE=-3.645572980593D+00 EE= 6.118026546516D-01
 Leave Link  502 at Sun Sep 15 20:41:04 2024, MaxMem=   13107200 cpu:       0.1
 (Enter /programs/64bit/g09/g09-gfortran/bin/l801.exe)
 Range of M.O.s used for correlation:     1    10
 NBasis=    10 NAE=     1 NBE=     1 NFC=     0 NFV=     0
 NROrb=     10 NOA=     1 NOB=     1 NVA=     9 NVB=     9
 Leave Link  801 at Sun Sep 15 20:41:04 2024, MaxMem=   13107200 cpu:       0.0
 (Enter /programs/64bit/g09/g09-gfortran/bin/l1101.exe)
 Using compressed storage, NAtomX=     2.
 Will process   3 centers per pass.
 Leave Link 1101 at Sun Sep 15 20:41:04 2024, MaxMem=   13107200 cpu:       0.1
 (Enter /programs/64bit/g09/g09-gfortran/bin/l1102.exe)
 Symmetrizing basis deriv contribution to polar:
 IMax=3 JMax=2 DiffMx= 0.00D+00
 Leave Link 1102 at Sun Sep 15 20:41:04 2024, MaxMem=   13107200 cpu:       0.0
 (Enter /programs/64bit/g09/g09-gfortran/bin/l1110.exe)
 Forming Gx(P) for the SCF density, NAtomX=     2.
 Integral derivatives from FoFDir/FoFCou, PRISM(SPDF).
 Do as many integral derivatives as possible in FoFDir.
 G2DrvN: MDV=      13107080.
 G2DrvN: will do     3 centers at a time, making    1 passes doing MaxLOS=1.
 Calling FoFCou, ICntrl=  3107 FMM=F I1Cent=   0 AccDes= 0.00D+00.
 FoFCou: FMM=F IPFlag=           0 FMFlag=      100000 FMFlg1=           0
         NFxFlg=           0 DoJE=F BraDBF=F KetDBF=F FulRan=T
         Omega=  0.000000  0.000000  1.000000  0.000000  0.000000 ICntrl=    3107 IOpCl=  0
         NMat0=    1 NMatS0=    1 NMatT0=    0 NMatD0=    1 NMtDS0=    0 NMtDT0=    0
         I1Cent=           0 NGrid=           0.
 Petite list used in FoFCou.
 FoFDir/FoFCou used for L=0 through L=1.
 End of G2Drv Frequency-dependent properties file   721 does not exist.
 End of G2Drv Frequency-dependent properties file   722 does not exist.
 Leave Link 1110 at Sun Sep 15 20:41:04 2024, MaxMem=   13107200 cpu:       0.2
 (Enter /programs/64bit/g09/g09-gfortran/bin/l1002.exe)
 Minotr:  Closed shell wavefunction.
          IDoAtm=11
          Direct CPHF calculation.
          Differentiating once with respect to electric field.
                with respect to dipole field.
          Differentiating once with respect to nuclear coordinates.
          Using symmetry in CPHF.
          Requested convergence is 1.0D-08 RMS, and 1.0D-07 maximum.
          Secondary convergence is 1.0D-12 RMS, and 1.0D-12 maximum.
          NewPWx=T KeepS1=F KeepF1=F KeepIn=T MapXYZ=F SortEE=F KeepMc=T.
          MDV=      13107176 using IRadAn=       2.
 Generate precomputed XC quadrature information.
          Keep R1 ints in memory in canonical form, NReq=802444.
 Symmetry not used in FoFDir.
 MinBra= 0 MaxBra= 1 Meth= 1.
 IRaf=       0 NMat=   1 IRICut=       1 DoRegI=T DoRafI=F ISym2E= 0 JSym2E=0.
          Solving linear equations simultaneously, MaxMat=       0.
          There are     6 degrees of freedom in the 1st order CPHF.  IDoFFX=4.
      6 vectors produced by pass  0 Test12= 1.50D-16 1.67D-08 XBig12= 3.62D+00 1.90D+00.
 AX will form     6 AO Fock derivatives at one time.
      2 vectors produced by pass  1 Test12= 1.50D-16 1.67D-08 XBig12= 4.65D-02 2.14D-01.
      1 vectors produced by pass  2 Test12= 1.50D-16 1.67D-08 XBig12= 1.15D-06 1.07D-03.
 Inverted reduced A of dimension     9 with in-core refinement.
 FullF1:  Do perturbations    1 to     6.
 Isotropic polarizability for W=    0.000000        2.51 Bohr**3.
 End of Minotr Frequency-dependent properties file   721 does not exist.
 End of Minotr Frequency-dependent properties file   722 does not exist.
 Leave Link 1002 at Sun Sep 15 20:41:05 2024, MaxMem=   13107200 cpu:       0.2
 (Enter /programs/64bit/g09/g09-gfortran/bin/l601.exe)
 Copying SCF densities to generalized density rwf, IOpCl= 0 IROHF=0.

 **********************************************************************

            Population analysis using the SCF density.

 **********************************************************************

 Orbital symmetries:
       Occupied  (SGG)
       Virtual   (SGU) (SGG) (SGU) (PIU) (PIU) (SGG) (PIG) (PIG)
                 (SGU)
 The electronic state is 1-SGG.
 Alpha  occ. eigenvalues --   -0.43159
 Alpha virt. eigenvalues --    0.10098   0.57698   1.03614   1.67470   1.67470
 Alpha virt. eigenvalues --    2.37898   2.61573   2.61573   4.15313
     Molecular Orbital Coefficients:
                           1         2         3         4         5
                       (SGG)--O  (SGU)--V  (SGG)--V  (SGU)--V  (PIU)--V
     Eigenvalues --    -0.43159   0.10098   0.57698   1.03614   1.67470
   1 1   H  1S          0.32476   0.17232   0.74181  -0.90214   0.00000
   2        2S          0.27047   1.63371  -0.67787   1.48132   0.00000
   3        3PX         0.00000   0.00000   0.00000   0.00000   0.00000
   4        3PY         0.00000   0.00000   0.00000   0.00000   0.61121
   5        3PZ        -0.01536   0.01056  -0.04072  -0.24982   0.00000
   6 2   H  1S          0.32476  -0.17232   0.74181   0.90214   0.00000
   7        2S          0.27047  -1.63371  -0.67787  -1.48132   0.00000
   8        3PX         0.00000   0.00000   0.00000   0.00000   0.00000
   9        3PY         0.00000   0.00000   0.00000   0.00000   0.61121
  10        3PZ         0.01536   0.01056   0.04072  -0.24982   0.00000
                           6         7         8         9        10
                       (PIU)--V  (SGG)--V  (PIG)--V  (PIG)--V  (SGU)--V
     Eigenvalues --     1.67470   2.37898   2.61573   2.61573   4.15313
   1 1   H  1S          0.00000   0.38958   0.00000   0.00000  -1.41514
   2        2S          0.00000  -0.19262   0.00000   0.00000  -0.18970
   3        3PX         0.61121   0.00000   0.86934   0.00000   0.00000
   4        3PY         0.00000   0.00000   0.00000   0.86934   0.00000
   5        3PZ         0.00000   0.64661   0.00000   0.00000   1.57600
   6 2   H  1S          0.00000   0.38958   0.00000   0.00000   1.41514
   7        2S          0.00000  -0.19262   0.00000   0.00000   0.18970
   8        3PX         0.61121   0.00000  -0.86934   0.00000   0.00000
   9        3PY         0.00000   0.00000   0.00000  -0.86934   0.00000
  10        3PZ         0.00000  -0.64661   0.00000   0.00000   1.57600
     Density Matrix:
                           1         2         3         4         5
   1 1   H  1S          0.21093
   2        2S          0.17568   0.14631
   3        3PX        -0.00000  -0.00000   0.00000
   4        3PY        -0.00000  -0.00000   0.00000   0.00000
   5        3PZ        -0.00998  -0.00831   0.00000   0.00000   0.00047
   6 2   H  1S          0.21093   0.17568  -0.00000  -0.00000  -0.00998
   7        2S          0.17568   0.14631  -0.00000  -0.00000  -0.00831
   8        3PX         0.00000   0.00000  -0.00000  -0.00000  -0.00000
   9        3PY         0.00000   0.00000  -0.00000  -0.00000  -0.00000
  10        3PZ         0.00998   0.00831  -0.00000  -0.00000  -0.00047
                           6         7         8         9        10
   6 2   H  1S          0.21093
   7        2S          0.17568   0.14631
   8        3PX         0.00000   0.00000   0.00000
   9        3PY         0.00000   0.00000   0.00000   0.00000
  10        3PZ         0.00998   0.00831   0.00000   0.00000   0.00047
    Full Mulliken population analysis:
                           1         2         3         4         5
   1 1   H  1S          0.21093
   2        2S          0.11565   0.14631
   3        3PX         0.00000   0.00000   0.00000
   4        3PY         0.00000   0.00000   0.00000   0.00000
   5        3PZ         0.00000   0.00000   0.00000   0.00000   0.00047
   6 2   H  1S          0.09552   0.08926   0.00000   0.00000   0.00468
   7        2S          0.08926   0.12482   0.00000   0.00000   0.00129
   8        3PX         0.00000   0.00000  -0.00000   0.00000   0.00000
   9        3PY         0.00000   0.00000   0.00000  -0.00000   0.00000
  10        3PZ         0.00468   0.00129   0.00000   0.00000   0.00019
                           6         7         8         9        10
   6 2   H  1S          0.21093
   7        2S          0.11565   0.14631
   8        3PX         0.00000   0.00000   0.00000
   9        3PY         0.00000   0.00000   0.00000   0.00000
  10        3PZ         0.00000   0.00000   0.00000   0.00000   0.00047
     Gross orbital populations:
                           1
   1 1   H  1S          0.51604
   2        2S          0.47733
   3        3PX         0.00000
   4        3PY         0.00000
   5        3PZ         0.00663
   6 2   H  1S          0.51604
   7        2S          0.47733
   8        3PX         0.00000
   9        3PY         0.00000
  10        3PZ         0.00663
          Condensed to atoms (all electrons):
              1          2
     1  H    0.589008   0.410992
     2  H    0.410992   0.589008
 Mulliken atomic charges:
              1
     1  H   -0.000000
     2  H   -0.000000
 Sum of Mulliken atomic charges =  -0.00000
 Mulliken charges with hydrogens summed into heavy atoms:
              1
 Sum of Mulliken charges with hydrogens summed into heavy atoms =  -0.00000
 APT atomic charges:
              1
     1  H    0.000000
     2  H    0.000000
 Sum of APT charges=   0.00000
 APT Atomic charges with hydrogens summed into heavy atoms:
              1
     1  H    0.000000
     2  H    0.000000
 Sum of APT charges=   0.00000
 Electronic spatial extent (au):  <R**2>=              5.1229
 Charge=             -0.0000 electrons
 Dipole moment (field-independent basis, Debye):
    X=             -0.0000    Y=             -0.0000    Z=              0.0000  Tot=              0.0000
 Quadrupole moment (field-independent basis, Debye-Ang):
   XX=             -2.0290   YY=             -2.0290   ZZ=             -1.5076
   XY=             -0.0000   XZ=             -0.0000   YZ=              0.0000
 Traceless Quadrupole moment (field-independent basis, Debye-Ang):
   XX=             -0.1738   YY=             -0.1738   ZZ=              0.3476
   XY=             -0.0000   XZ=             -0.0000   YZ=              0.0000
 Octapole moment (field-independent basis, Debye-Ang**2):
  XXX=             -0.0000  YYY=              0.0000  ZZZ=             -0.0000  XYY=             -0.0000
  XXY=              0.0000  XXZ=             -0.0000  XZZ=             -0.0000  YZZ=              0.0000
  YYZ=              0.0000  XYZ=              0.0000
 Hexadecapole moment (field-independent basis, Debye-Ang**3):
 XXXX=             -1.8758 YYYY=             -1.8758 ZZZZ=             -2.7677 XXXY=             -0.0000
 XXXZ=              0.0000 YYYX=             -0.0000 YYYZ=              0.0000 ZZZX=              0.0000
 ZZZY=              0.0000 XXYY=             -0.6253 XXZZ=             -0.7887 YYZZ=             -0.7887
 XXYZ=              0.0000 YYXZ=              0.0000 ZZXY=             -0.0000
 N-N= 7.124678800359D-01 E-N=-3.645572980593D+00  KE= 1.142763111822D+00
 Symmetry AG   KE= 1.142763111822D+00
 Symmetry B1G  KE= 0.000000000000D+00
 Symmetry B2G  KE= 2.251670018767D-34
 Symmetry B3G  KE= 2.251670018767D-34
 Symmetry AU   KE= 0.000000000000D+00
 Symmetry B1U  KE= 4.283324859739D-32
 Symmetry B2U  KE= 6.480581009336D-35
 Symmetry B3U  KE= 6.480581009336D-35
 Orbital energies and kinetic energies (alpha):
                                 1                 2
   1         (SGG)--O         -0.431589          0.571382
   2         (SGU)--V          0.100982          0.493348
   3         (SGG)--V          0.576985          1.407549
   4         (SGU)--V          1.036138          2.257827
   5         (PIU)--V          1.674704          2.448647
   6         (PIU)--V          1.674704          2.448647
   7         (SGG)--V          2.378980          3.275210
   8         (PIG)--V          2.615726          3.359638
   9         (PIG)--V          2.615726          3.359638
  10         (SGU)--V          4.153131          5.416953
 Total kinetic energy from orbitals= 1.142763111822D+00
  Exact polarizability:   0.582   0.000   0.582  -0.000  -0.000   6.365
 Approx polarizability:   0.599  -0.000   0.599  -0.000  -0.000   7.763
 No NMR shielding tensors so no spin-rotation constants.
 Leave Link  601 at Sun Sep 15 20:41:05 2024, MaxMem=   13107200 cpu:       0.1
 (Enter /programs/64bit/g09/g09-gfortran/bin/l701.exe)
 Compute integral second derivatives.
 ... and contract with generalized density number  0.
 Leave Link  701 at Sun Sep 15 20:41:05 2024, MaxMem=   13107200 cpu:       0.1
 (Enter /programs/64bit/g09/g09-gfortran/bin/l702.exe)
 L702 exits ... SP integral derivatives will be done elsewhere.
 Leave Link  702 at Sun Sep 15 20:41:05 2024, MaxMem=   13107200 cpu:       0.0
 (Enter /programs/64bit/g09/g09-gfortran/bin/l703.exe)
 Compute integral second derivatives, UseDBF=F ICtDFT=           0.
 Integral derivatives from FoFDir, PRISM(SPDF).
 Calling FoFJK, ICntrl=    100127 FMM=F ISym2X=1 I1Cent= 0 IOpClX= 0 NMat=1 NMatS=1 NMatT=0.
 FoFCou: FMM=F IPFlag=           0 FMFlag=      100000 FMFlg1=         800
         NFxFlg=           0 DoJE=F BraDBF=F KetDBF=F FulRan=T
         Omega=  0.000000  0.000000  1.000000  0.000000  0.000000 ICntrl=  100127 IOpCl=  0
         NMat0=    1 NMatS0=    1 NMatT0=    0 NMatD0=    1 NMtDS0=    0 NMtDT0=    0
         I1Cent=           0 NGrid=           0.
 Petite list used in FoFCou.
 Leave Link  703 at Sun Sep 15 20:41:05 2024, MaxMem=   13107200 cpu:       0.2
 (Enter /programs/64bit/g09/g09-gfortran/bin/l716.exe)
 Dipole        =-4.93038066D-32 0.00000000D+00-3.93023288D-17
 Polarizability= 5.81919954D-01 1.38522213D-30 5.81919954D-01
                -2.65055195D-13-4.46927860D-13 6.36492334D+00
 Full mass-weighted force constant matrix:
 Low frequencies ---  -39.9932  -39.9932   -0.0002   -0.0002   -0.0002 4466.4384
 Diagonal vibrational polarizability:
        0.0000000       0.0000000       0.0000000
 Harmonic frequencies (cm**-1), IR intensities (KM/Mole), Raman scattering
 activities (A**4/AMU), depolarization ratios for plane and unpolarized
 incident light, reduced masses (AMU), force constants (mDyne/A),
 and normal coordinates:
                     1
                    SGG
 Frequencies --  4466.4384
 Red. masses --     1.0078
 Frc consts  --    11.8456
 IR Inten    --     0.0000
  Atom  AN      X      Y      Z
     1   1    -0.00   0.00   0.71
     2   1     0.00   0.00  -0.71

 -------------------
 - Thermochemistry -
 -------------------
 Temperature   298.150 Kelvin.  Pressure   1.00000 Atm.
 Atom     1 has atomic number  1 and mass   1.00783
 Atom     2 has atomic number  1 and mass   1.00783
 Molecular mass:     2.01565 amu.
 Principal axes and moments of inertia in atomic units:
                           1         2         3
     Eigenvalues --     0.00000   0.99271   0.99271
           X           -0.00000   1.00000  -0.00000
           Y            0.00000   0.00000   1.00000
           Z            1.00000   0.00000  -0.00000
 This molecule is a prolate symmetric top.
 Rotational symmetry number  2.
 Rotational temperature (Kelvin)     87.24943
 Rotational constant (GHZ):        1817.985296
 Zero-point vibrational energy      26715.2 (Joules/Mol)
                                    6.38509 (Kcal/Mol)
 Vibrational temperatures:   6426.20
          (Kelvin)
 
 Zero-point correction=                           0.010175 (Hartree/Particle)
 Thermal correction to Energy=                    0.012536
 Thermal correction to Enthalpy=                  0.013480
 Thermal correction to Gibbs Free Energy=        -0.001312
 Sum of electronic and zero-point Energies=             -1.168364
 Sum of electronic and thermal Energies=                -1.166004
 Sum of electronic and thermal Enthalpies=              -1.165059
 Sum of electronic and thermal Free Energies=           -1.179851
 
                     E (Thermal)             CV                S
                      KCal/Mol        Cal/Mol-Kelvin    Cal/Mol-Kelvin
 Total                    7.866              4.968             31.132
 Electronic               0.000              0.000              0.000
 Translational            0.889              2.981             28.080
 Rotational               0.592              1.987              3.052
 Vibrational              6.385              0.000              0.000
                       Q            Log10(Q)             Ln(Q)
 Total Bot       0.401254D+01          0.603419          1.389424
 Total V=0       0.192185D+06          5.283720         12.166215
 Vib (Bot)       0.208785D-04         -4.680301        -10.776791
 Vib (V=0)       0.100000D+01          0.000000          0.000000
 Electronic      0.100000D+01          0.000000          0.000000
 Translational   0.112481D+06          5.051078         11.630537
 Rotational      0.170861D+01          0.232642          0.535679
 ***** Axes restored to original set *****
 -------------------------------------------------------------------
 Center     Atomic                   Forces (Hartrees/Bohr)
 Number     Number              X              Y              Z
 -------------------------------------------------------------------
      1        1           0.000000000   -0.000000000   -0.000039435
      2        1          -0.000000000    0.000000000    0.000039435
 -------------------------------------------------------------------
 Cartesian Forces:  Max     0.000039435 RMS     0.000022768
 Force constants in Cartesian coordinates: 
                1             2             3             4             5 
      1 -0.305013D-04
      2  0.000000D+00 -0.305013D-04
      3  0.000000D+00  0.000000D+00  0.380425D+00
      4  0.305013D-04  0.000000D+00  0.000000D+00 -0.305013D-04
      5  0.000000D+00  0.305013D-04  0.000000D+00  0.000000D+00 -0.305013D-04
      6  0.000000D+00  0.000000D+00 -0.380425D+00  0.000000D+00  0.000000D+00
                6 
      6  0.380425D+00
 Force constants in internal coordinates: 
                1 
      1  0.380425D+00
 Leave Link  716 at Sun Sep 15 20:41:05 2024, MaxMem=   13107200 cpu:       0.0
 (Enter /programs/64bit/g09/g09-gfortran/bin/l103.exe)

 GradGradGradGradGradGradGradGradGradGradGradGradGradGradGradGradGradGrad
 Berny optimization.
 Internal  Forces:  Max     0.000039435 RMS     0.000039435
 Search for a local minimum.
 Step number   1 out of a maximum of    2
 All quantities printed in internal units (Hartrees-Bohrs-Radians)
 Second derivative matrix not updated -- analytic derivatives used.
 The second derivative matrix:
                          R1
           R1           0.38043
     Eigenvalues ---    0.38043
 Angle between quadratic step and forces=   0.00 degrees.
 Linear search not attempted -- first point.
 Iteration  1 RMS(Cart)=  0.00007330 RMS(Int)=  0.00000000
 Iteration  2 RMS(Cart)=  0.00000000 RMS(Int)=  0.00000000
 ClnCor:  largest displacement from symmetrization is 3.17D-21 for atom     1.
 Variable       Old X    -DE/DX   Delta X   Delta X   Delta X     New X
                                 (Linear)    (Quad)   (Total)
    R1        1.40357   0.00004   0.00000   0.00010   0.00010   1.40368
         Item               Value     Threshold  Converged?
 Maximum Force            0.000039     0.000450     YES
 RMS     Force            0.000039     0.000300     YES
 Maximum Displacement     0.000052     0.001800     YES
 RMS     Displacement     0.000073     0.001200     YES
 Predicted change in Energy=-2.043947D-09
 Optimization completed.
    -- Stationary point found.
                           ----------------------------
                           !   Optimized Parameters   !
                           ! (Angstroms and Degrees)  !
 --------------------------                            --------------------------
 ! Name  Definition              Value          Derivative Info.                !
 --------------------------------------------------------------------------------
 ! R1    R(1,2)                  0.7427         -DE/DX =    0.0                 !
 --------------------------------------------------------------------------------
 GradGradGradGradGradGradGradGradGradGradGradGradGradGradGradGradGradGrad

 Leave Link  103 at Sun Sep 15 20:41:05 2024, MaxMem=   13107200 cpu:       0.0
 (Enter /programs/64bit/g09/g09-gfortran/bin/l9999.exe)
 1\1\GINC-MOLMOD\Freq\RB3LYP\6-31+G(d,p)\H2\OSPITE\15-Sep-2024\0\\#P Ge
 om=AllCheck Guess=TCheck SCRF=Check GenChk RB3LYP/6-31+G(d,p) Freq\\hy
 drogen(molecule) with 6-31+G basis set\\0,1\H,0.,0.,-0.0013691686\H,0.
 ,0.,0.7413691686\\Version=EM64L-G09RevA.02\State=1-SGG\HF=-1.1785393\R
 MSD=2.127e-16\RMSF=2.277e-05\ZeroPoint=0.0101753\Thermal=0.0125358\Dip
 ole=0.,0.,0.\DipoleDeriv=0.,0.,0.,0.,0.,0.,0.,0.,0.,0.,0.,0.,0.,0.,0.,
 0.,0.,0.\Polar=0.58192,0.,0.58192,0.,0.,6.3649233\PG=D*H [C*(H1.H1)]\N
 Imag=0\\-0.00003050,0.,-0.00003050,0.,0.,0.38042521,0.00003050,0.,0.,-
 0.00003050,0.,0.00003050,0.,0.,-0.00003050,0.,0.,-0.38042521,0.,0.,0.3
 8042521\\0.,0.,0.00003944,0.,0.,-0.00003944\\\@


 The theorems and results in mathematical physics are
 not theorems and results about Nature, but about our
 description of it.
                   --Gerard 't Hooft
 Job cpu time:  0 days  0 hours  0 minutes  2.4 seconds.
 File lengths (MBytes):  RWF=      5 Int=      0 D2E=      0 Chk=      1 Scr=      1
 Normal termination of Gaussian 09 at Sun Sep 15 20:41:05 2024.
