 Entering Gaussian System, Link 0=/programs/64bit/g09/g09-gfortran/bin/g09
 Input=gas.com
 Output=gas.log
 Initial command:
 /programs/64bit/g09/g09-gfortran/bin/l1.exe /home/ospite/Desktop/MMfP/Project10/CH3O-/Gau-23762.inp -scrdir=/home/ospite/Desktop/MMfP/Project10/CH3O-/
 Entering Link 1 = /programs/64bit/g09/g09-gfortran/bin/l1.exe PID=     23763.
  
 Copyright (c) 1988,1990,1992,1993,1995,1998,2003,2009, Gaussian, Inc.
                  All Rights Reserved.
  
 This is part of the Gaussian(R) 09 program.  It is based on
 the Gaussian(R) 03 system (copyright 2003, Gaussian, Inc.),
 the Gaussian(R) 98 system (copyright 1998, Gaussian, Inc.),
 the Gaussian(R) 94 system (copyright 1995, Gaussian, Inc.),
 the Gaussian 92(TM) system (copyright 1992, Gaussian, Inc.),
 the Gaussian 90(TM) system (copyright 1990, Gaussian, Inc.),
 the Gaussian 88(TM) system (copyright 1988, Gaussian, Inc.),
 the Gaussian 86(TM) system (copyright 1986, Carnegie Mellon
 University), and the Gaussian 82(TM) system (copyright 1983,
 Carnegie Mellon University). Gaussian is a federally registered
 trademark of Gaussian, Inc.
  
 This software contains proprietary and confidential information,
 including trade secrets, belonging to Gaussian, Inc.
  
 This software is provided under written license and may be
 used, copied, transmitted, or stored only in accord with that
 written license.
  
 The following legend is applicable only to US Government
 contracts under FAR:
  
                    RESTRICTED RIGHTS LEGEND
  
 Use, reproduction and disclosure by the US Government is
 subject to restrictions as set forth in subparagraphs (a)
 and (c) of the Commercial Computer Software - Restricted
 Rights clause in FAR 52.227-19.
  
 Gaussian, Inc.
 340 Quinnipiac St., Bldg. 40, Wallingford CT 06492
  
  
 ---------------------------------------------------------------
 Warning -- This program may not be used in any manner that
 competes with the business of Gaussian, Inc. or will provide
 assistance to any competitor of Gaussian, Inc.  The licensee
 of this program is prohibited from giving any competitor of
 Gaussian, Inc. access to this program.  By using this program,
 the user acknowledges that Gaussian, Inc. is engaged in the
 business of creating and licensing software in the field of
 computational chemistry and represents and warrants to the
 licensee that it is not a competitor of Gaussian, Inc. and that
 it will not use this program in any manner prohibited above.
 ---------------------------------------------------------------
  

 Cite this work as:
 Gaussian 09, Revision A.02,
 M. J. Frisch, G. W. Trucks, H. B. Schlegel, G. E. Scuseria, 
 M. A. Robb, J. R. Cheeseman, G. Scalmani, V. Barone, B. Mennucci, 
 G. A. Petersson, H. Nakatsuji, M. Caricato, X. Li, H. P. Hratchian, 
 A. F. Izmaylov, J. Bloino, G. Zheng, J. L. Sonnenberg, M. Hada, 
 M. Ehara, K. Toyota, R. Fukuda, J. Hasegawa, M. Ishida, T. Nakajima, 
 Y. Honda, O. Kitao, H. Nakai, T. Vreven, J. A. Montgomery, Jr., 
 J. E. Peralta, F. Ogliaro, M. Bearpark, J. J. Heyd, E. Brothers, 
 K. N. Kudin, V. N. Staroverov, R. Kobayashi, J. Normand, 
 K. Raghavachari, A. Rendell, J. C. Burant, S. S. Iyengar, J. Tomasi, 
 M. Cossi, N. Rega, J. M. Millam, M. Klene, J. E. Knox, J. B. Cross, 
 V. Bakken, C. Adamo, J. Jaramillo, R. Gomperts, R. E. Stratmann, 
 O. Yazyev, A. J. Austin, R. Cammi, C. Pomelli, J. W. Ochterski, 
 R. L. Martin, K. Morokuma, V. G. Zakrzewski, G. A. Voth, 
 P. Salvador, J. J. Dannenberg, S. Dapprich, A. D. Daniels, 
 O. Farkas, J. B. Foresman, J. V. Ortiz, J. Cioslowski, 
 and D. J. Fox, Gaussian, Inc., Wallingford CT, 2009.
 
 ******************************************
 Gaussian 09:  EM64L-G09RevA.02 11-Jun-2009
                16-Sep-2024 
 ******************************************
 %mem=100Mb
 %nprocshared=2
 Will use up to    2 processors via shared memory.
 ------------------------
 #p B3LYP/6-31+g(d,p) opt
 ------------------------
 1/14=-1,18=20,19=15,26=3,38=1/1,3;
 2/9=110,12=2,17=6,18=5,40=1/2;
 3/5=1,6=6,7=111,11=2,16=1,25=1,30=1,71=1,74=-5/1,2,3;
 4//1;
 5/5=2,38=5/2;
 6/7=2,8=2,9=2,10=2,28=1/1;
 7//1,2,3,16;
 1/14=-1,18=20,19=15/3(2);
 2/9=110/2;
 99//99;
 2/9=110/2;
 3/5=1,6=6,7=111,11=2,16=1,25=1,30=1,71=1,74=-5/1,2,3;
 4/5=5,16=3/1;
 5/5=2,38=5/2;
 7//1,2,3,16;
 1/14=-1,18=20,19=15/3(-5);
 2/9=110/2;
 6/7=2,8=2,9=2,10=2,19=2,28=1/1;
 99/9=1/99;
 Leave Link    1 at Mon Sep 16 17:42:14 2024, MaxMem=   13107200 cpu:       0.1
 (Enter /programs/64bit/g09/g09-gfortran/bin/l101.exe)
 ---------
 ch3o- gas
 ---------
 Symbolic Z-matrix:
 Charge = -1 Multiplicity = 1
 c
 o                    1    oc2
 h                    1    hc3      2    hco3
 h                    1    hc4      2    hco4     3    dih4     0
 h                    1    hc5      2    hco5     3    dih5     0
       Variables:
  oc2                   1.38                     
  hc3                   1.07                     
  hco3                109.471                    
  hc4                   1.07                     
  hco4                109.471                    
  dih4                120.                       
  hc5                   1.07                     
  hco5                109.471                    
  dih5                240.                       
 
     3 tetrahedral angles replaced.
 NAtoms=      5 NQM=      5 NQMF=      0 NMic=      0 NMicF=      0 NTot=      5.
                    Isotopes and Nuclear Properties:
 (Nuclear quadrupole moments (NQMom) in fm**2, nuclear magnetic moments (NMagM)
  in nuclear magnetons)

  Atom         1           2           3           4           5
 IAtWgt=          12          16           1           1           1
 AtmWgt=  12.0000000  15.9949146   1.0078250   1.0078250   1.0078250
 NucSpn=           0           0           1           1           1
 AtZEff=   0.0000000   0.0000000   0.0000000   0.0000000   0.0000000
 NQMom=    0.0000000   0.0000000   0.0000000   0.0000000   0.0000000
 NMagM=    0.0000000   0.0000000   2.7928460   2.7928460   2.7928460
 Leave Link  101 at Mon Sep 16 17:42:14 2024, MaxMem=   13107200 cpu:       0.2
 (Enter /programs/64bit/g09/g09-gfortran/bin/l103.exe)

 GradGradGradGradGradGradGradGradGradGradGradGradGradGradGradGradGradGrad
 Berny optimization.
 Initialization pass.
                           ----------------------------
                           !    Initial Parameters    !
                           ! (Angstroms and Degrees)  !
 --------------------------                            --------------------------
 ! Name  Definition              Value          Derivative Info.                !
 --------------------------------------------------------------------------------
 ! R1    R(1,2)                  1.38           estimate D2E/DX2                !
 ! R2    R(1,3)                  1.07           estimate D2E/DX2                !
 ! R3    R(1,4)                  1.07           estimate D2E/DX2                !
 ! R4    R(1,5)                  1.07           estimate D2E/DX2                !
 ! A1    A(2,1,3)              109.4712         estimate D2E/DX2                !
 ! A2    A(2,1,4)              109.4712         estimate D2E/DX2                !
 ! A3    A(2,1,5)              109.4712         estimate D2E/DX2                !
 ! A4    A(3,1,4)              109.4712         estimate D2E/DX2                !
 ! A5    A(3,1,5)              109.4712         estimate D2E/DX2                !
 ! A6    A(4,1,5)              109.4712         estimate D2E/DX2                !
 ! D1    D(2,1,4,3)           -120.0            estimate D2E/DX2                !
 ! D2    D(2,1,5,3)            120.0            estimate D2E/DX2                !
 ! D3    D(2,1,5,4)           -120.0            estimate D2E/DX2                !
 ! D4    D(3,1,5,4)            120.0            estimate D2E/DX2                !
 --------------------------------------------------------------------------------
 Trust Radius=3.00D-01 FncErr=1.00D-07 GrdErr=1.00D-06
 Number of steps in this run=  24 maximum allowed number of steps= 100.
 GradGradGradGradGradGradGradGradGradGradGradGradGradGradGradGradGradGrad

 Leave Link  103 at Mon Sep 16 17:42:14 2024, MaxMem=   13107200 cpu:       0.0
 (Enter /programs/64bit/g09/g09-gfortran/bin/l202.exe)
                          Input orientation:                          
 ---------------------------------------------------------------------
 Center     Atomic      Atomic             Coordinates (Angstroms)
 Number     Number       Type             X           Y           Z
 ---------------------------------------------------------------------
      1          6           0        0.000000    0.000000    0.000000
      2          8           0        0.000000    0.000000    1.380000
      3          1           0        1.008806    0.000000   -0.356667
      4          1           0       -0.504403   -0.873651   -0.356667
      5          1           0       -0.504403    0.873651   -0.356667
 ---------------------------------------------------------------------
                    Distance matrix (angstroms):
                    1          2          3          4          5
     1  C    0.000000
     2  O    1.380000   0.000000
     3  H    1.070000   2.008407   0.000000
     4  H    1.070000   2.008407   1.747303   0.000000
     5  H    1.070000   2.008407   1.747303   1.747303   0.000000
 Stoichiometry    CH3O(1-)
 Framework group  C3V[C3(CO),3SGV(H)]
 Deg. of freedom     3
 Full point group                 C3V     NOp   6
 Largest Abelian subgroup         CS      NOp   2
 Largest concise Abelian subgroup CS      NOp   2
                         Standard orientation:                         
 ---------------------------------------------------------------------
 Center     Atomic      Atomic             Coordinates (Angstroms)
 Number     Number       Type             X           Y           Z
 ---------------------------------------------------------------------
      1          6           0        0.000000    0.000000   -0.586471
      2          8           0        0.000000    0.000000    0.793529
      3          1           0        0.000000    1.008806   -0.943137
      4          1           0        0.873651   -0.504403   -0.943137
      5          1           0       -0.873651   -0.504403   -0.943137
 ---------------------------------------------------------------------
 Rotational constants (GHZ):    164.2463644     27.8082016     27.8082016
 Leave Link  202 at Mon Sep 16 17:42:14 2024, MaxMem=   13107200 cpu:       0.0
 (Enter /programs/64bit/g09/g09-gfortran/bin/l301.exe)
 Standard basis: 6-31+G(d,p) (6D, 7F)
 Ernie: Thresh=  0.10000D-02 Tol=  0.10000D-05 Strict=F.
 There are    37 symmetry adapted basis functions of A'  symmetry.
 There are    16 symmetry adapted basis functions of A"  symmetry.
 Integral buffers will be    131072 words long.
 Raffenetti 2 integral format.
 Two-electron integral symmetry is turned on.
    53 basis functions,    85 primitive gaussians,    53 cartesian basis functions
     9 alpha electrons        9 beta electrons
       nuclear repulsion energy        34.5403160361 Hartrees.
 IExCor=  402 DFT=T Ex+Corr=B3LYP ExCW=0 ScaHFX=  0.200000
 ScaDFX=  0.800000  0.720000  1.000000  0.810000 ScalE2=  1.000000  1.000000
 IRadAn=      0 IRanWt=     -1 IRanGd=            0 ICorTp=0
 NAtoms=    5 NActive=    5 NUniq=    3 SFac= 2.08D+00 NAtFMM=   80 NAOKFM=F Big=F
 Leave Link  301 at Mon Sep 16 17:42:14 2024, MaxMem=   13107200 cpu:       0.1
 (Enter /programs/64bit/g09/g09-gfortran/bin/l302.exe)
 NPDir=0 NMtPBC=     1 NCelOv=     1 NCel=       1 NClECP=     1 NCelD=      1
         NCelK=      1 NCelE2=     1 NClLst=     1 CellRange=     0.0.
 One-electron integrals computed using PRISM.
 One-electron integral symmetry used in STVInt
 NBasis=    53 RedAO= T  NBF=    37    16
 NBsUse=    53 1.00D-06 NBFU=    37    16
 Precomputing XC quadrature grid using
 IXCGrd= 2 IRadAn=           0 IRanWt=          -1 IRanGd=           0 AccXCQ= 1.00D-10.
 NRdTot=     320 NPtTot=       40158 NUsed=       42476 NTot=       42508
 NSgBfM=    53    53    53    53    53 NAtAll=     5     5.
 Leave Link  302 at Mon Sep 16 17:42:15 2024, MaxMem=   13107200 cpu:       0.3
 (Enter /programs/64bit/g09/g09-gfortran/bin/l303.exe)
 DipDrv:  MaxL=1.
 Leave Link  303 at Mon Sep 16 17:42:15 2024, MaxMem=   13107200 cpu:       0.0
 (Enter /programs/64bit/g09/g09-gfortran/bin/l401.exe)
 Harris functional with IExCor=  402 diagonalized for initial guess.
 ExpMin= 4.38D-02 ExpMax= 5.48D+03 ExpMxC= 8.25D+02 IAcc=2 IRadAn=         0 AccDes= 0.00D+00
 HarFok:  IExCor=  402 AccDes= 0.00D+00 IRadAn=         0 IDoV= 1
 ScaDFX=  1.000000  1.000000  1.000000  1.000000
 FoFCou: FMM=F IPFlag=           0 FMFlag=      100000 FMFlg1=           0
         NFxFlg=           0 DoJE=T BraDBF=F KetDBF=T FulRan=T
         Omega=  0.000000  0.000000  1.000000  0.000000  0.000000 ICntrl=     500 IOpCl=  0
         NMat0=    1 NMatS0=    1 NMatT0=    0 NMatD0=    1 NMtDS0=    0 NMtDT0=    0
         I1Cent=           4 NGrid=           0.
 Petite list used in FoFCou.
 Harris En= -115.368886330368    
 Initial guess orbital symmetries:
       Occupied  (A1) (A1) (A1) (A1) (E) (E) (A1) (E) (E)
       Virtual   (A1) (A1) (E) (E) (A1) (E) (E) (A1) (E) (E) (A1)
                 (A1) (E) (E) (A1) (E) (E) (A1) (E) (E) (A1) (A1)
                 (E) (E) (A1) (E) (E) (E) (E) (A2) (A1) (E) (E)
                 (E) (E) (A1) (A1) (E) (E) (A1) (E) (E) (A1) (A1)
 The electronic state of the initial guess is 1-A1.
 Leave Link  401 at Mon Sep 16 17:42:16 2024, MaxMem=   13107200 cpu:       0.9
 (Enter /programs/64bit/g09/g09-gfortran/bin/l502.exe)
 Closed shell SCF:
 Requested convergence on RMS density matrix=1.00D-08 within 128 cycles.
 Requested convergence on MAX density matrix=1.00D-06.
 Requested convergence on             energy=1.00D-06.
 No special actions if energy rises.
 Using DIIS extrapolation, IDIIS=  1040.
 Integral symmetry usage will be decided dynamically.
        42418 words used for storage of precomputed grid.
 Keep R1 ints in memory in canonical form, NReq=1966259.
 IEnd=       69857 IEndB=       69857 NGot=    13107200 MDV=    12032222
 LenX=    12032222 LenY=    12028972
 Symmetry not used in FoFDir.
 MinBra= 0 MaxBra= 2 Meth= 1.
 IRaf=       0 NMat=   1 IRICut=       1 DoRegI=T DoRafI=F ISym2E= 0 JSym2E=0.

 Cycle   1  Pass 1  IDiag  1:
 E= -114.879444943760    
 DIIS: error= 5.58D-02 at cycle   1 NSaved=   1.
 NSaved= 1 IEnMin= 1 EnMin= -114.879444943760     IErMin= 1 ErrMin= 5.58D-02
 ErrMax= 5.58D-02 EMaxC= 1.00D-01 BMatC= 2.15D-01 BMatP= 2.15D-01
 IDIUse=3 WtCom= 4.42D-01 WtEn= 5.58D-01
 Coeff-Com:  0.100D+01
 Coeff-En:   0.100D+01
 Coeff:      0.100D+01
 Gap=     0.055 Goal=   None    Shift=    0.000
 GapD=    0.055 DampG=0.500 DampE=0.500 DampFc=0.2500 IDamp=-1.
 Damping current iteration by 2.50D-01
 RMSDP=7.80D-02 MaxDP=2.26D+00              OVMax= 9.91D-01

 Cycle   2  Pass 1  IDiag  1:
 Density matrix breaks symmetry, PCut= 1.00D-04
 Density has only Abelian symmetry.
 E= -114.777499489084     Delta-E=        0.101945454675 Rises=F Damp=T
 DIIS: error= 2.56D-02 at cycle   2 NSaved=   2.
 NSaved= 2 IEnMin= 1 EnMin= -114.879444943760     IErMin= 2 ErrMin= 2.56D-02
 ErrMax= 2.56D-02 EMaxC= 1.00D-01 BMatC= 2.87D-02 BMatP= 2.15D-01
 IDIUse=3 WtCom= 7.44D-01 WtEn= 2.56D-01
 Coeff-Com:  0.166D+00 0.834D+00
 Coeff-En:   0.640D+00 0.360D+00
 Coeff:      0.287D+00 0.713D+00
 Gap=    -0.148 Goal=   None    Shift=    0.000
 RMSDP=2.00D-02 MaxDP=5.56D-01 DE= 1.02D-01 OVMax= 9.40D-01

 Cycle   3  Pass 1  IDiag  1:
 Density matrix breaks symmetry, PCut= 1.00D-04
 Density has only Abelian symmetry.
 E= -115.044656034762     Delta-E=       -0.267156545678 Rises=F Damp=F
 DIIS: error= 3.19D-02 at cycle   3 NSaved=   3.
 NSaved= 3 IEnMin= 3 EnMin= -115.044656034762     IErMin= 2 ErrMin= 2.56D-02
 ErrMax= 3.19D-02 EMaxC= 1.00D-01 BMatC= 6.29D-02 BMatP= 2.87D-02
 IDIUse=2 WtCom= 0.00D+00 WtEn= 1.00D+00
 Coeff-En:   0.000D+00 0.000D+00 0.100D+01
 Coeff:      0.000D+00 0.000D+00 0.100D+01
 Gap=     0.032 Goal=   None    Shift=    0.000
 RMSDP=5.87D-02 MaxDP=2.00D+00 DE=-2.67D-01 OVMax= 9.95D-01

 Cycle   4  Pass 1  IDiag  1:
 Density matrix breaks symmetry, PCut= 1.00D-04
 Density has only Abelian symmetry.
 E= -113.480764411367     Delta-E=        1.563891623395 Rises=F Damp=F
 DIIS: error= 1.41D-01 at cycle   4 NSaved=   4.
 NSaved= 4 IEnMin= 3 EnMin= -115.044656034762     IErMin= 2 ErrMin= 2.56D-02
 ErrMax= 1.41D-01 EMaxC= 1.00D-01 BMatC= 1.07D+00 BMatP= 2.87D-02
 IDIUse=2 WtCom= 0.00D+00 WtEn= 1.00D+00
 Coeff-En:   0.000D+00 0.000D+00 0.943D+00 0.567D-01
 Coeff:      0.000D+00 0.000D+00 0.943D+00 0.567D-01
 Gap=    -0.042 Goal=   None    Shift=    0.000
 RMSDP=5.75D-02 MaxDP=1.99D+00 DE= 1.56D+00 OVMax= 9.99D-01

 Cycle   5  Pass 1  IDiag  1:
 Density matrix breaks symmetry, PCut= 1.00D-04
 Density has only Abelian symmetry.
 E= -115.012160481173     Delta-E=       -1.531396069806 Rises=F Damp=F
 DIIS: error= 3.95D-02 at cycle   5 NSaved=   5.
 NSaved= 5 IEnMin= 3 EnMin= -115.044656034762     IErMin= 2 ErrMin= 2.56D-02
 ErrMax= 3.95D-02 EMaxC= 1.00D-01 BMatC= 1.20D-01 BMatP= 2.87D-02
 IDIUse=2 WtCom= 0.00D+00 WtEn= 1.00D+00
 Coeff-En:   0.000D+00 0.000D+00 0.585D+00 0.000D+00 0.415D+00
 Coeff:      0.000D+00 0.000D+00 0.585D+00 0.000D+00 0.415D+00
 Gap=     0.108 Goal=   None    Shift=    0.000
 RMSDP=5.44D-03 MaxDP=6.04D-02 DE=-1.53D+00 OVMax= 8.12D-02

 Cycle   6  Pass 1  IDiag  1:
 Density matrix breaks symmetry, PCut= 1.00D-04
 Density has only Abelian symmetry.
 E= -115.104488230201     Delta-E=       -0.092327749028 Rises=F Damp=F
 DIIS: error= 1.81D-03 at cycle   6 NSaved=   6.
 NSaved= 6 IEnMin= 6 EnMin= -115.104488230201     IErMin= 6 ErrMin= 1.81D-03
 ErrMax= 1.81D-03 EMaxC= 1.00D-01 BMatC= 2.66D-04 BMatP= 2.87D-02
 IDIUse=3 WtCom= 9.82D-01 WtEn= 1.81D-02
 Coeff-Com: -0.725D-02-0.285D-02 0.909D-01-0.749D-03 0.262D-01 0.894D+00
 Coeff-En:   0.000D+00 0.000D+00 0.000D+00 0.000D+00 0.000D+00 0.100D+01
 Coeff:     -0.712D-02-0.280D-02 0.892D-01-0.736D-03 0.257D-01 0.896D+00
 Gap=     0.118 Goal=   None    Shift=    0.000
 RMSDP=3.76D-04 MaxDP=3.44D-03 DE=-9.23D-02 OVMax= 5.06D-03

 Cycle   7  Pass 1  IDiag  1:
 E= -115.104717606500     Delta-E=       -0.000229376299 Rises=F Damp=F
 DIIS: error= 3.70D-04 at cycle   7 NSaved=   7.
 NSaved= 7 IEnMin= 7 EnMin= -115.104717606500     IErMin= 7 ErrMin= 3.70D-04
 ErrMax= 3.70D-04 EMaxC= 1.00D-01 BMatC= 8.85D-06 BMatP= 2.66D-04
 IDIUse=3 WtCom= 9.96D-01 WtEn= 3.70D-03
 Coeff-Com:  0.300D-02 0.960D-03 0.148D-02-0.164D-03-0.565D-02 0.774D-01
 Coeff-Com:  0.923D+00
 Coeff-En:   0.000D+00 0.000D+00 0.000D+00 0.000D+00 0.000D+00 0.000D+00
 Coeff-En:   0.100D+01
 Coeff:      0.298D-02 0.956D-03 0.148D-02-0.164D-03-0.563D-02 0.771D-01
 Coeff:      0.923D+00
 Gap=     0.120 Goal=   None    Shift=    0.000
 RMSDP=8.86D-05 MaxDP=9.08D-04 DE=-2.29D-04 OVMax= 1.22D-03

 Cycle   8  Pass 1  IDiag  1:
 E= -115.104746599100     Delta-E=       -0.000028992599 Rises=F Damp=F
 DIIS: error= 5.84D-05 at cycle   8 NSaved=   8.
 NSaved= 8 IEnMin= 8 EnMin= -115.104746599100     IErMin= 8 ErrMin= 5.84D-05
 ErrMax= 5.84D-05 EMaxC= 1.00D-01 BMatC= 2.51D-07 BMatP= 8.85D-06
 IDIUse=1 WtCom= 1.00D+00 WtEn= 0.00D+00
 Coeff-Com: -0.391D-03 0.200D-03-0.260D-03 0.703D-05-0.555D-03 0.825D-02
 Coeff-Com:  0.100D+00 0.893D+00
 Coeff:     -0.391D-03 0.200D-03-0.260D-03 0.703D-05-0.555D-03 0.825D-02
 Coeff:      0.100D+00 0.893D+00
 Gap=     0.119 Goal=   None    Shift=    0.000
 RMSDP=1.24D-05 MaxDP=1.16D-04 DE=-2.90D-05 OVMax= 1.59D-04

 Cycle   9  Pass 1  IDiag  1:
 E= -115.104751700866     Delta-E=       -0.000005101767 Rises=F Damp=F
 DIIS: error= 1.16D-05 at cycle   9 NSaved=   9.
 NSaved= 9 IEnMin= 9 EnMin= -115.104751700866     IErMin= 9 ErrMin= 1.16D-05
 ErrMax= 1.16D-05 EMaxC= 1.00D-01 BMatC= 9.60D-09 BMatP= 2.51D-07
 IDIUse=1 WtCom= 1.00D+00 WtEn= 0.00D+00
 Coeff-Com: -0.163D-04-0.547D-05-0.120D-03 0.117D-05 0.131D-03-0.909D-03
 Coeff-Com: -0.222D-02-0.101D+00 0.110D+01
 Coeff:     -0.163D-04-0.547D-05-0.120D-03 0.117D-05 0.131D-03-0.909D-03
 Coeff:     -0.222D-02-0.101D+00 0.110D+01
 Gap=     0.119 Goal=   None    Shift=    0.000
 RMSDP=2.56D-06 MaxDP=2.29D-05 DE=-5.10D-06 OVMax= 3.35D-05

 Cycle  10  Pass 1  IDiag  1:
 E= -115.104753029983     Delta-E=       -0.000001329117 Rises=F Damp=F
 DIIS: error= 2.10D-07 at cycle  10 NSaved=  10.
 NSaved=10 IEnMin=10 EnMin= -115.104753029983     IErMin=10 ErrMin= 2.10D-07
 ErrMax= 2.10D-07 EMaxC= 1.00D-01 BMatC= 2.57D-12 BMatP= 9.60D-09
 IDIUse=1 WtCom= 1.00D+00 WtEn= 0.00D+00
 Coeff-Com: -0.363D-05 0.298D-05-0.129D-04 0.230D-07 0.256D-04-0.204D-03
 Coeff-Com: -0.778D-03-0.147D-01 0.159D+00 0.857D+00
 Coeff:     -0.363D-05 0.298D-05-0.129D-04 0.230D-07 0.256D-04-0.204D-03
 Coeff:     -0.778D-03-0.147D-01 0.159D+00 0.857D+00
 Gap=     0.119 Goal=   None    Shift=    0.000
 RMSDP=1.08D-07 MaxDP=1.25D-06 DE=-1.33D-06 OVMax= 1.16D-06

 Cycle  11  Pass 1  IDiag  1:
 E= -115.104752977860     Delta-E=        0.000000052124 Rises=F Damp=F
 DIIS: error= 2.16D-07 at cycle  11 NSaved=  11.
 NSaved=11 IEnMin=10 EnMin= -115.104753029983     IErMin=10 ErrMin= 2.10D-07
 ErrMax= 2.16D-07 EMaxC= 1.00D-01 BMatC= 3.33D-12 BMatP= 2.57D-12
 IDIUse=1 WtCom= 1.00D+00 WtEn= 0.00D+00
 Coeff-Com: -0.364D-06 0.333D-06 0.226D-05-0.111D-07 0.166D-05-0.630D-05
 Coeff-Com: -0.118D-03-0.111D-02-0.140D-01 0.692D-01 0.946D+00
 Coeff:     -0.364D-06 0.333D-06 0.226D-05-0.111D-07 0.166D-05-0.630D-05
 Coeff:     -0.118D-03-0.111D-02-0.140D-01 0.692D-01 0.946D+00
 Gap=     0.119 Goal=   None    Shift=    0.000
 RMSDP=4.89D-08 MaxDP=4.24D-07 DE= 5.21D-08 OVMax= 6.73D-07

 Cycle  12  Pass 1  IDiag  1:
 E= -115.104752965284     Delta-E=        0.000000012576 Rises=F Damp=F
 DIIS: error= 1.42D-08 at cycle  12 NSaved=  12.
 NSaved=12 IEnMin=10 EnMin= -115.104753029983     IErMin=12 ErrMin= 1.42D-08
 ErrMax= 1.42D-08 EMaxC= 1.00D-01 BMatC= 1.55D-14 BMatP= 2.57D-12
 IDIUse=1 WtCom= 1.00D+00 WtEn= 0.00D+00
 Coeff-Com:  0.108D-07-0.187D-07 0.270D-06 0.236D-08-0.257D-06 0.471D-05
 Coeff-Com:  0.171D-04-0.640D-04-0.130D-02-0.180D-01-0.461D-02 0.102D+01
 Coeff:      0.108D-07-0.187D-07 0.270D-06 0.236D-08-0.257D-06 0.471D-05
 Coeff:      0.171D-04-0.640D-04-0.130D-02-0.180D-01-0.461D-02 0.102D+01
 Gap=     0.119 Goal=   None    Shift=    0.000
 RMSDP=5.80D-09 MaxDP=7.34D-08 DE= 1.26D-08 OVMax= 9.51D-08

 Cycle  13  Pass 1  IDiag  1:
 E= -115.104752963921     Delta-E=        0.000000001363 Rises=F Damp=F
 DIIS: error= 2.18D-09 at cycle  13 NSaved=  13.
 NSaved=13 IEnMin=10 EnMin= -115.104753029983     IErMin=13 ErrMin= 2.18D-09
 ErrMax= 2.18D-09 EMaxC= 1.00D-01 BMatC= 2.22D-16 BMatP= 1.55D-14
 IDIUse=1 WtCom= 1.00D+00 WtEn= 0.00D+00
 Large coefficients: NSaved= 13 BigCof=    0.00 CofMax=   10.00 Det=-5.26D-16
 Inversion failed.  Reducing to 12 matrices.
 Coeff-Com:  0.125D-07-0.695D-08-0.587D-07-0.852D-08-0.282D-07 0.162D-05
 Coeff-Com:  0.356D-04 0.340D-03-0.121D-02-0.192D-01 0.420D-01 0.978D+00
 Coeff:      0.125D-07-0.695D-08-0.587D-07-0.852D-08-0.282D-07 0.162D-05
 Coeff:      0.356D-04 0.340D-03-0.121D-02-0.192D-01 0.420D-01 0.978D+00
 Gap=     0.119 Goal=   None    Shift=    0.000
 RMSDP=5.45D-10 MaxDP=8.44D-09 DE= 1.36D-09 OVMax= 1.24D-08

 Cycle  14  Pass 1  IDiag  1:
 E= -115.104752964285     Delta-E=       -0.000000000364 Rises=F Damp=F
 DIIS: error= 4.24D-10 at cycle  14 NSaved=  13.
 NSaved=13 IEnMin= 9 EnMin= -115.104753029983     IErMin=13 ErrMin= 4.24D-10
 ErrMax= 4.24D-10 EMaxC= 1.00D-01 BMatC= 1.06D-17 BMatP= 2.22D-16
 IDIUse=1 WtCom= 1.00D+00 WtEn= 0.00D+00
 Coeff-Com: -0.201D-08-0.137D-09-0.166D-08 0.451D-08-0.673D-07-0.550D-06
 Coeff-Com:  0.291D-05-0.135D-05-0.768D-04 0.104D-02-0.944D-02-0.137D+00
 Coeff-Com:  0.115D+01
 Coeff:     -0.201D-08-0.137D-09-0.166D-08 0.451D-08-0.673D-07-0.550D-06
 Coeff:      0.291D-05-0.135D-05-0.768D-04 0.104D-02-0.944D-02-0.137D+00
 Coeff:      0.115D+01
 Gap=     0.119 Goal=   None    Shift=    0.000
 RMSDP=1.49D-10 MaxDP=1.71D-09 DE=-3.64D-10 OVMax= 2.71D-09

 SCF Done:  E(RB3LYP) =  -115.104752964     A.U. after   14 cycles
             Convg  =    0.1489D-09             -V/T =  2.0072
 KE= 1.142775090366D+02 PE=-3.442292815869D+02 EE= 8.030670354985D+01
 Leave Link  502 at Mon Sep 16 17:42:25 2024, MaxMem=   13107200 cpu:       9.6
 (Enter /programs/64bit/g09/g09-gfortran/bin/l601.exe)
 Copying SCF densities to generalized density rwf, IOpCl= 0 IROHF=0.

 **********************************************************************

            Population analysis using the SCF density.

 **********************************************************************

 Orbital symmetries:
       Occupied  (A1) (A1) (A1) (A1) (E) (E) (A1) (E) (E)
       Virtual   (A1) (A1) (E) (E) (A1) (E) (E) (E) (E) (A1) (A1)
                 (A1) (E) (E) (A1) (E) (E) (A1) (A1) (E) (E) (A1)
                 (E) (E) (A1) (E) (E) (A2) (E) (E) (A1) (E) (E)
                 (E) (E) (A1) (A1) (E) (E) (A1) (E) (E) (A1) (A1)
 The electronic state is 1-A1.
 Alpha  occ. eigenvalues --  -18.79662  -9.97245  -0.65467  -0.40253  -0.19722
 Alpha  occ. eigenvalues --   -0.19722  -0.09455   0.05570   0.05570
 Alpha virt. eigenvalues --    0.17515   0.20798   0.20905   0.20905   0.38318
 Alpha virt. eigenvalues --    0.42001   0.42001   0.43319   0.43319   0.44792
 Alpha virt. eigenvalues --    0.51044   0.55925   0.87469   0.87469   0.89864
 Alpha virt. eigenvalues --    1.12216   1.12216   1.26467   1.44397   1.46978
 Alpha virt. eigenvalues --    1.46978   1.54969   1.65926   1.65926   1.84719
 Alpha virt. eigenvalues --    2.11130   2.11130   2.26881   2.28141   2.28141
 Alpha virt. eigenvalues --    2.35350   2.36663   2.36663   2.86230   2.86230
 Alpha virt. eigenvalues --    2.87877   3.15764   3.16866   3.16866   3.52054
 Alpha virt. eigenvalues --    3.69898   3.69898   4.36450   4.71911
          Condensed to atoms (all electrons):
              1          2          3          4          5
     1  C    4.855425   0.083561   0.413348   0.413348   0.413348
     2  O    0.083561   9.206365  -0.123111  -0.123111  -0.123111
     3  H    0.413348  -0.123111   0.824782  -0.074113  -0.074113
     4  H    0.413348  -0.123111  -0.074113   0.824782  -0.074113
     5  H    0.413348  -0.123111  -0.074113  -0.074113   0.824782
 Mulliken atomic charges:
              1
     1  C   -0.179030
     2  O   -0.920592
     3  H    0.033207
     4  H    0.033207
     5  H    0.033207
 Sum of Mulliken atomic charges =  -1.00000
 Mulliken charges with hydrogens summed into heavy atoms:
              1
     1  C   -0.079408
     2  O   -0.920592
 Sum of Mulliken charges with hydrogens summed into heavy atoms =  -1.00000
 Electronic spatial extent (au):  <R**2>=             87.5289
 Charge=             -1.0000 electrons
 Dipole moment (field-independent basis, Debye):
    X=             -0.0000    Y=             -0.0000    Z=             -3.3016  Tot=              3.3016
 Quadrupole moment (field-independent basis, Debye-Ang):
   XX=            -17.0640   YY=            -17.0640   ZZ=            -22.0110
   XY=              0.0000   XZ=             -0.0000   YZ=             -0.0000
 Traceless Quadrupole moment (field-independent basis, Debye-Ang):
   XX=              1.6490   YY=              1.6490   ZZ=             -3.2980
   XY=              0.0000   XZ=             -0.0000   YZ=             -0.0000
 Octapole moment (field-independent basis, Debye-Ang**2):
  XXX=              0.0000  YYY=             -0.1661  ZZZ=             -0.0121  XYY=              0.0000
  XXY=              0.1661  XXZ=              0.3983  XZZ=             -0.0000  YZZ=             -0.0000
  YYZ=              0.3983  XYZ=             -0.0000
 Hexadecapole moment (field-independent basis, Debye-Ang**3):
 XXXX=            -32.3705 YYYY=            -32.3705 ZZZZ=            -86.6699 XXXY=              0.0000
 XXXZ=             -0.0000 YYYX=              0.0000 YYYZ=              0.4732 ZZZX=             -0.0000
 ZZZY=             -0.0000 XXYY=            -10.7902 XXZZ=            -21.5120 YYZZ=            -21.5120
 XXYZ=             -0.4732 YYXZ=             -0.0000 ZZXY=              0.0000
 N-N= 3.454031603611D+01 E-N=-3.442292816208D+02  KE= 1.142775090366D+02
 Symmetry A'   KE= 1.081830762356D+02
 Symmetry A"   KE= 6.094432801021D+00
 No NMR shielding tensors so no spin-rotation constants.
 Leave Link  601 at Mon Sep 16 17:42:26 2024, MaxMem=   13107200 cpu:       0.2
 (Enter /programs/64bit/g09/g09-gfortran/bin/l701.exe)
 Compute integral first derivatives.
 ... and contract with generalized density number  0.
 Leave Link  701 at Mon Sep 16 17:42:26 2024, MaxMem=   13107200 cpu:       0.3
 (Enter /programs/64bit/g09/g09-gfortran/bin/l702.exe)
 L702 exits ... SP integral derivatives will be done elsewhere.
 Leave Link  702 at Mon Sep 16 17:42:26 2024, MaxMem=   13107200 cpu:       0.0
 (Enter /programs/64bit/g09/g09-gfortran/bin/l703.exe)
 Compute integral first derivatives, UseDBF=F ICtDFT=           0.
 Integral derivatives from FoFDir, PRISM(SPDF).
 Calling FoFJK, ICntrl=      2127 FMM=F ISym2X=1 I1Cent= 0 IOpClX= 0 NMat=1 NMatS=1 NMatT=0.
 FoFCou: FMM=F IPFlag=           0 FMFlag=      100000 FMFlg1=         800
         NFxFlg=           0 DoJE=F BraDBF=F KetDBF=F FulRan=T
         Omega=  0.000000  0.000000  1.000000  0.000000  0.000000 ICntrl=    2127 IOpCl=  0
         NMat0=    1 NMatS0=    1 NMatT0=    0 NMatD0=    1 NMtDS0=    0 NMtDT0=    0
         I1Cent=           0 NGrid=           0.
 Petite list used in FoFCou.
 Leave Link  703 at Mon Sep 16 17:42:28 2024, MaxMem=   13107200 cpu:       2.1
 (Enter /programs/64bit/g09/g09-gfortran/bin/l716.exe)
 Dipole        =-2.22044605D-16 0.00000000D+00-1.29894061D+00
 ***** Axes restored to original set *****
 -------------------------------------------------------------------
 Center     Atomic                   Forces (Hartrees/Bohr)
 Number     Number              X              Y              Z
 -------------------------------------------------------------------
      1        6           0.000000000    0.000000000    0.063819778
      2        8          -0.000000000   -0.000000000    0.009235288
      3        1           0.028429597   -0.000000000   -0.024351688
      4        1          -0.014214798   -0.024620753   -0.024351688
      5        1          -0.014214798    0.024620753   -0.024351688
 -------------------------------------------------------------------
 Cartesian Forces:  Max     0.063819778 RMS     0.023610725
 Leave Link  716 at Mon Sep 16 17:42:28 2024, MaxMem=   13107200 cpu:       0.0
 (Enter /programs/64bit/g09/g09-gfortran/bin/l103.exe)

 GradGradGradGradGradGradGradGradGradGradGradGradGradGradGradGradGradGrad
 Berny optimization.
 Internal  Forces:  Max     0.034920910 RMS     0.017330875
 Search for a local minimum.
 Step number   1 out of a maximum of   24
 All quantities printed in internal units (Hartrees-Bohrs-Radians)
 RMS Force = .17331D-01 SwitMx=.10000D-02 MixMth= 1
 Mixed Optimization -- RFO/linear search
 Second derivative matrix not updated -- first step.
 The second derivative matrix:
                          R1        R2        R3        R4        A1
           R1           0.49102
           R2           0.00000   0.37230
           R3           0.00000   0.00000   0.37230
           R4           0.00000   0.00000   0.00000   0.37230
           A1           0.00000   0.00000   0.00000   0.00000   0.16000
           A2           0.00000   0.00000   0.00000   0.00000   0.00000
           A3           0.00000   0.00000   0.00000   0.00000   0.00000
           A4           0.00000   0.00000   0.00000   0.00000   0.00000
           A5           0.00000   0.00000   0.00000   0.00000   0.00000
           A6           0.00000   0.00000   0.00000   0.00000   0.00000
           D1           0.00000   0.00000   0.00000   0.00000   0.00000
           D2           0.00000   0.00000   0.00000   0.00000   0.00000
           D3           0.00000   0.00000   0.00000   0.00000   0.00000
           D4           0.00000   0.00000   0.00000   0.00000   0.00000
                          A2        A3        A4        A5        A6
           A2           0.16000
           A3           0.00000   0.16000
           A4           0.00000   0.00000   0.16000
           A5           0.00000   0.00000   0.00000   0.16000
           A6           0.00000   0.00000   0.00000   0.00000   0.16000
           D1           0.00000   0.00000   0.00000   0.00000   0.00000
           D2           0.00000   0.00000   0.00000   0.00000   0.00000
           D3           0.00000   0.00000   0.00000   0.00000   0.00000
           D4           0.00000   0.00000   0.00000   0.00000   0.00000
                          D1        D2        D3        D4
           D1           0.00499
           D2           0.00000   0.00499
           D3           0.00000   0.00000   0.00499
           D4           0.00000   0.00000   0.00000   0.00499
     Eigenvalues ---    0.05269   0.05891   0.08766   0.16000   0.16000
     Eigenvalues ---    0.37230   0.37230   0.37230   0.491021000.00000
     Eigenvalues --- 1000.000001000.000001000.000001000.00000
 RFO step:  Lambda=-1.49520324D-02 EMin= 5.26880965D-02
 Linear search not attempted -- first point.
 Maximum step size (   0.300) exceeded in Quadratic search.
    -- Step size scaled by   0.985
 Iteration  1 RMS(Cart)=  0.05100840 RMS(Int)=  0.00583998
 Iteration  2 RMS(Cart)=  0.00377421 RMS(Int)=  0.00333249
 Iteration  3 RMS(Cart)=  0.00002226 RMS(Int)=  0.00333239
 Iteration  4 RMS(Cart)=  0.00000015 RMS(Int)=  0.00333239
 ClnCor:  largest displacement from symmetrization is 8.59D-03 for atom     5.
 Variable       Old X    -DE/DX   Delta X   Delta X   Delta X     New X
                                 (Linear)    (Quad)   (Total)
    R1        2.60782   0.00924   0.00000   0.01798   0.01798   2.62580
    R2        2.02201   0.03492   0.00000   0.08884   0.08801   2.11002
    R3        2.02201   0.03492   0.00000   0.08884   0.08801   2.11002
    R4        2.02201   0.03492   0.00000   0.08884   0.08801   2.11002
    A1        1.91063   0.00301   0.00000   0.05930   0.06349   1.97413
    A2        1.91063   0.00471   0.00000   0.06391   0.06349   1.97413
    A3        1.91063   0.00921   0.00000   0.06964   0.06349   1.97413
    A4        1.91063  -0.00122   0.00000  -0.05717  -0.06755   1.84308
    A5        1.91063  -0.00739   0.00000  -0.06766  -0.06755   1.84308
    A6        1.91063  -0.00832   0.00000  -0.06803  -0.06755   1.84308
    D1       -2.09440  -0.00582   0.00000  -0.07676  -0.07344  -2.16784
    D2        2.09440   0.00479   0.00000   0.07385   0.07344   2.16784
    D3       -2.09440  -0.00631   0.00000  -0.07926  -0.07344  -2.16784
    D4        2.09440  -0.01111   0.00000  -0.15311  -0.14688   1.94751
         Item               Value     Threshold  Converged?
 Maximum Force            0.034921     0.000450     NO 
 RMS     Force            0.017331     0.000300     NO 
 Maximum Displacement     0.109159     0.001800     NO 
 RMS     Displacement     0.050470     0.001200     NO 
 Predicted change in Energy=-7.916596D-03
 GradGradGradGradGradGradGradGradGradGradGradGradGradGradGradGradGradGrad

 Leave Link  103 at Mon Sep 16 17:42:28 2024, MaxMem=   13107200 cpu:       0.0
 (Enter /programs/64bit/g09/g09-gfortran/bin/l202.exe)
                          Input orientation:                          
 ---------------------------------------------------------------------
 Center     Atomic      Atomic             Coordinates (Angstroms)
 Number     Number       Type             X           Y           Z
 ---------------------------------------------------------------------
      1          6           0       -0.000000   -0.000000    0.048251
      2          8           0        0.000000   -0.000000    1.437764
      3          1           0        1.026980   -0.000000   -0.389985
      4          1           0       -0.513490   -0.889391   -0.389985
      5          1           0       -0.513490    0.889391   -0.389985
 ---------------------------------------------------------------------
                    Distance matrix (angstroms):
                    1          2          3          4          5
     1  C    0.000000
     2  O    1.389514   0.000000
     3  H    1.116574   2.096510   0.000000
     4  H    1.116574   2.096510   1.778781   0.000000
     5  H    1.116574   2.096510   1.778781   1.778781   0.000000
 Stoichiometry    CH3O(1-)
 Framework group  C3V[C3(CO),3SGV(H)]
 Deg. of freedom     3
 Full point group                 C3V     NOp   6
 Largest Abelian subgroup         CS      NOp   2
 Largest concise Abelian subgroup CS      NOp   2
                         Standard orientation:                         
 ---------------------------------------------------------------------
 Center     Atomic      Atomic             Coordinates (Angstroms)
 Number     Number       Type             X           Y           Z
 ---------------------------------------------------------------------
      1          6           0        0.000000    0.000000   -0.576553
      2          8           0        0.000000    0.000000    0.812961
      3          1           0        0.000000    1.026980   -1.014789
      4          1           0        0.889391   -0.513490   -1.014789
      5          1           0       -0.889391   -0.513490   -1.014789
 ---------------------------------------------------------------------
 Rotational constants (GHZ):    158.4845542     26.6343252     26.6343252
 Leave Link  202 at Mon Sep 16 17:42:28 2024, MaxMem=   13107200 cpu:       0.0
 (Enter /programs/64bit/g09/g09-gfortran/bin/l301.exe)
 Standard basis: 6-31+G(d,p) (6D, 7F)
 Ernie: Thresh=  0.10000D-02 Tol=  0.10000D-05 Strict=F.
 There are    37 symmetry adapted basis functions of A'  symmetry.
 There are    16 symmetry adapted basis functions of A"  symmetry.
 Integral buffers will be    131072 words long.
 Raffenetti 2 integral format.
 Two-electron integral symmetry is turned on.
    53 basis functions,    85 primitive gaussians,    53 cartesian basis functions
     9 alpha electrons        9 beta electrons
       nuclear repulsion energy        33.7611529556 Hartrees.
 IExCor=  402 DFT=T Ex+Corr=B3LYP ExCW=0 ScaHFX=  0.200000
 ScaDFX=  0.800000  0.720000  1.000000  0.810000 ScalE2=  1.000000  1.000000
 IRadAn=      0 IRanWt=     -1 IRanGd=            0 ICorTp=0
 NAtoms=    5 NActive=    5 NUniq=    3 SFac= 2.08D+00 NAtFMM=   80 NAOKFM=F Big=F
 Leave Link  301 at Mon Sep 16 17:42:28 2024, MaxMem=   13107200 cpu:       0.1
 (Enter /programs/64bit/g09/g09-gfortran/bin/l302.exe)
 NPDir=0 NMtPBC=     1 NCelOv=     1 NCel=       1 NClECP=     1 NCelD=      1
         NCelK=      1 NCelE2=     1 NClLst=     1 CellRange=     0.0.
 One-electron integrals computed using PRISM.
 One-electron integral symmetry used in STVInt
 NBasis=    53 RedAO= T  NBF=    37    16
 NBsUse=    53 1.00D-06 NBFU=    37    16
 Precomputing XC quadrature grid using
 IXCGrd= 2 IRadAn=           0 IRanWt=          -1 IRanGd=           0 AccXCQ= 1.00D-10.
 NRdTot=     320 NPtTot=       40596 NUsed=       42914 NTot=       42946
 NSgBfM=    53    53    53    53    53 NAtAll=     5     5.
 Leave Link  302 at Mon Sep 16 17:42:29 2024, MaxMem=   13107200 cpu:       0.3
 (Enter /programs/64bit/g09/g09-gfortran/bin/l303.exe)
 DipDrv:  MaxL=1.
 Leave Link  303 at Mon Sep 16 17:42:29 2024, MaxMem=   13107200 cpu:       0.1
 (Enter /programs/64bit/g09/g09-gfortran/bin/l401.exe)
 Initial guess read from the read-write file.
 B after Tr=     0.000000    0.000000    0.000000
         Rot=    1.000000    0.000000    0.000000    0.000000 Ang=   0.00 deg.
 Guess basis will be translated and rotated to current coordinates.
 Initial guess orbital symmetries:
       Occupied  (A1) (A1) (A1) (A1) (E) (E) (A1) (E) (E)
       Virtual   (A1) (A1) (E) (E) (A1) (E) (E) (E) (E) (A1) (A1)
                 (A1) (E) (E) (A1) (E) (E) (A1) (A1) (E) (E) (A1)
                 (E) (E) (A1) (E) (E) (A2) (E) (E) (A1) (E) (E)
                 (E) (E) (A1) (A1) (E) (E) (A1) (E) (E) (A1) (A1)
 The electronic state of the initial guess is 1-A1.
 Generating alternative initial guess.
 Harris functional with IExCor=  402 diagonalized for initial guess.
 ExpMin= 4.38D-02 ExpMax= 5.48D+03 ExpMxC= 8.25D+02 IAcc=2 IRadAn=         0 AccDes= 0.00D+00
 HarFok:  IExCor=  402 AccDes= 0.00D+00 IRadAn=         0 IDoV= 1
 ScaDFX=  1.000000  1.000000  1.000000  1.000000
 FoFCou: FMM=F IPFlag=           0 FMFlag=      100000 FMFlg1=           0
         NFxFlg=           0 DoJE=T BraDBF=F KetDBF=T FulRan=T
         Omega=  0.000000  0.000000  1.000000  0.000000  0.000000 ICntrl=     500 IOpCl=  0
         NMat0=    1 NMatS0=    1 NMatT0=    0 NMatD0=    1 NMtDS0=    0 NMtDT0=    0
         I1Cent=           4 NGrid=           0.
 Petite list used in FoFCou.
 Harris En= -115.360620314582    
 Leave Link  401 at Mon Sep 16 17:42:30 2024, MaxMem=   13107200 cpu:       0.9
 (Enter /programs/64bit/g09/g09-gfortran/bin/l502.exe)
 Closed shell SCF:
 Requested convergence on RMS density matrix=1.00D-08 within 128 cycles.
 Requested convergence on MAX density matrix=1.00D-06.
 Requested convergence on             energy=1.00D-06.
 No special actions if energy rises.
 Using DIIS extrapolation, IDIIS=  1040.
 Integral symmetry usage will be decided dynamically.
        42856 words used for storage of precomputed grid.
 Keep R1 ints in memory in canonical form, NReq=1966697.
 IEnd=       70295 IEndB=       70295 NGot=    13107200 MDV=    12031784
 LenX=    12031784 LenY=    12028534
 Symmetry not used in FoFDir.
 MinBra= 0 MaxBra= 2 Meth= 1.
 IRaf=       0 NMat=   1 IRICut=       1 DoRegI=T DoRafI=F ISym2E= 0 JSym2E=0.

 Cycle   1  Pass 1  IDiag  1:
 E= -115.111758278178    
 DIIS: error= 3.50D-03 at cycle   1 NSaved=   1.
 NSaved= 1 IEnMin= 1 EnMin= -115.111758278178     IErMin= 1 ErrMin= 3.50D-03
 ErrMax= 3.50D-03 EMaxC= 1.00D-01 BMatC= 1.26D-03 BMatP= 1.26D-03
 IDIUse=3 WtCom= 9.65D-01 WtEn= 3.50D-02
 Coeff-Com:  0.100D+01
 Coeff-En:   0.100D+01
 Coeff:      0.100D+01
 Gap=     0.136 Goal=   None    Shift=    0.000
 GapD=    0.136 DampG=1.000 DampE=1.000 DampFc=1.0000 IDamp=-1.
 RMSDP=1.06D-03 MaxDP=1.45D-02              OVMax= 1.97D-02

 Cycle   2  Pass 1  IDiag  1:
 E= -115.112369853716     Delta-E=       -0.000611575538 Rises=F Damp=F
 DIIS: error= 4.83D-03 at cycle   2 NSaved=   2.
 NSaved= 2 IEnMin= 2 EnMin= -115.112369853716     IErMin= 1 ErrMin= 3.50D-03
 ErrMax= 4.83D-03 EMaxC= 1.00D-01 BMatC= 1.41D-03 BMatP= 1.26D-03
 IDIUse=3 WtCom= 1.26D-01 WtEn= 8.74D-01
 Coeff-Com:  0.517D+00 0.483D+00
 Coeff-En:   0.322D+00 0.678D+00
 Coeff:      0.346D+00 0.654D+00
 Gap=     0.120 Goal=   None    Shift=    0.000
 RMSDP=9.52D-04 MaxDP=1.20D-02 DE=-6.12D-04 OVMax= 1.61D-02

 Cycle   3  Pass 1  IDiag  1:
 E= -115.112658910088     Delta-E=       -0.000289056371 Rises=F Damp=F
 DIIS: error= 3.77D-03 at cycle   3 NSaved=   3.
 NSaved= 3 IEnMin= 3 EnMin= -115.112658910088     IErMin= 1 ErrMin= 3.50D-03
 ErrMax= 3.77D-03 EMaxC= 1.00D-01 BMatC= 1.06D-03 BMatP= 1.26D-03
 IDIUse=3 WtCom= 9.62D-01 WtEn= 3.77D-02
 Coeff-Com:  0.344D-01 0.458D+00 0.507D+00
 Coeff-En:   0.000D+00 0.440D+00 0.560D+00
 Coeff:      0.331D-01 0.458D+00 0.509D+00
 Gap=     0.129 Goal=   None    Shift=    0.000
 RMSDP=6.20D-04 MaxDP=7.17D-03 DE=-2.89D-04 OVMax= 9.80D-03

 Cycle   4  Pass 1  IDiag  1:
 E= -115.113430123688     Delta-E=       -0.000771213600 Rises=F Damp=F
 DIIS: error= 9.66D-04 at cycle   4 NSaved=   4.
 NSaved= 4 IEnMin= 4 EnMin= -115.113430123688     IErMin= 4 ErrMin= 9.66D-04
 ErrMax= 9.66D-04 EMaxC= 1.00D-01 BMatC= 5.91D-05 BMatP= 1.06D-03
 IDIUse=3 WtCom= 9.90D-01 WtEn= 9.66D-03
 Coeff-Com: -0.170D-01 0.254D+00 0.340D+00 0.423D+00
 Coeff-En:   0.000D+00 0.000D+00 0.000D+00 0.100D+01
 Coeff:     -0.168D-01 0.252D+00 0.337D+00 0.428D+00
 Gap=     0.127 Goal=   None    Shift=    0.000
 RMSDP=1.49D-04 MaxDP=1.50D-03 DE=-7.71D-04 OVMax= 2.21D-03

 Cycle   5  Pass 1  IDiag  1:
 E= -115.113485822976     Delta-E=       -0.000055699288 Rises=F Damp=F
 DIIS: error= 7.98D-05 at cycle   5 NSaved=   5.
 NSaved= 5 IEnMin= 5 EnMin= -115.113485822976     IErMin= 5 ErrMin= 7.98D-05
 ErrMax= 7.98D-05 EMaxC= 1.00D-01 BMatC= 1.66D-07 BMatP= 5.91D-05
 IDIUse=1 WtCom= 1.00D+00 WtEn= 0.00D+00
 Coeff-Com: -0.354D-02 0.368D-01 0.590D-01 0.671D-01 0.841D+00
 Coeff:     -0.354D-02 0.368D-01 0.590D-01 0.671D-01 0.841D+00
 Gap=     0.127 Goal=   None    Shift=    0.000
 RMSDP=1.20D-05 MaxDP=1.12D-04 DE=-5.57D-05 OVMax= 1.58D-04

 Cycle   6  Pass 1  IDiag  1:
 E= -115.113485985711     Delta-E=       -0.000000162735 Rises=F Damp=F
 DIIS: error= 5.89D-06 at cycle   6 NSaved=   6.
 NSaved= 6 IEnMin= 6 EnMin= -115.113485985711     IErMin= 6 ErrMin= 5.89D-06
 ErrMax= 5.89D-06 EMaxC= 1.00D-01 BMatC= 3.09D-09 BMatP= 1.66D-07
 IDIUse=1 WtCom= 1.00D+00 WtEn= 0.00D+00
 Coeff-Com: -0.721D-04-0.423D-02-0.325D-02-0.548D-02 0.123D+00 0.890D+00
 Coeff:     -0.721D-04-0.423D-02-0.325D-02-0.548D-02 0.123D+00 0.890D+00
 Gap=     0.127 Goal=   None    Shift=    0.000
 RMSDP=1.68D-06 MaxDP=2.05D-05 DE=-1.63D-07 OVMax= 2.91D-05

 Cycle   7  Pass 1  IDiag  1:
 E= -115.113485988911     Delta-E=       -0.000000003200 Rises=F Damp=F
 DIIS: error= 9.30D-07 at cycle   7 NSaved=   7.
 NSaved= 7 IEnMin= 7 EnMin= -115.113485988911     IErMin= 7 ErrMin= 9.30D-07
 ErrMax= 9.30D-07 EMaxC= 1.00D-01 BMatC= 6.45D-11 BMatP= 3.09D-09
 IDIUse=1 WtCom= 1.00D+00 WtEn= 0.00D+00
 Coeff-Com:  0.743D-04-0.119D-02-0.152D-02-0.105D-02-0.165D-02 0.642D-01
 Coeff-Com:  0.941D+00
 Coeff:      0.743D-04-0.119D-02-0.152D-02-0.105D-02-0.165D-02 0.642D-01
 Coeff:      0.941D+00
 Gap=     0.127 Goal=   None    Shift=    0.000
 RMSDP=3.89D-07 MaxDP=4.64D-06 DE=-3.20D-09 OVMax= 7.84D-06

 Cycle   8  Pass 1  IDiag  1:
 E= -115.113485989034     Delta-E=       -0.000000000124 Rises=F Damp=F
 DIIS: error= 1.88D-07 at cycle   8 NSaved=   8.
 NSaved= 8 IEnMin= 8 EnMin= -115.113485989034     IErMin= 8 ErrMin= 1.88D-07
 ErrMax= 1.88D-07 EMaxC= 1.00D-01 BMatC= 2.03D-12 BMatP= 6.45D-11
 IDIUse=1 WtCom= 1.00D+00 WtEn= 0.00D+00
 Coeff-Com:  0.100D-04-0.553D-04-0.851D-04-0.727D-04-0.228D-02-0.150D-01
 Coeff-Com:  0.734D-01 0.944D+00
 Coeff:      0.100D-04-0.553D-04-0.851D-04-0.727D-04-0.228D-02-0.150D-01
 Coeff:      0.734D-01 0.944D+00
 Gap=     0.127 Goal=   None    Shift=    0.000
 RMSDP=8.38D-08 MaxDP=1.36D-06 DE=-1.24D-10 OVMax= 1.69D-06

 Cycle   9  Pass 1  IDiag  1:
 E= -115.113485989038     Delta-E=       -0.000000000004 Rises=F Damp=F
 DIIS: error= 2.40D-08 at cycle   9 NSaved=   9.
 NSaved= 9 IEnMin= 9 EnMin= -115.113485989038     IErMin= 9 ErrMin= 2.40D-08
 ErrMax= 2.40D-08 EMaxC= 1.00D-01 BMatC= 4.12D-14 BMatP= 2.03D-12
 IDIUse=1 WtCom= 1.00D+00 WtEn= 0.00D+00
 Coeff-Com: -0.144D-05 0.257D-04 0.341D-04-0.518D-05 0.119D-03-0.199D-02
 Coeff-Com: -0.278D-01 0.445D-01 0.985D+00
 Coeff:     -0.144D-05 0.257D-04 0.341D-04-0.518D-05 0.119D-03-0.199D-02
 Coeff:     -0.278D-01 0.445D-01 0.985D+00
 Gap=     0.127 Goal=   None    Shift=    0.000
 RMSDP=1.96D-08 MaxDP=3.08D-07 DE=-3.58D-12 OVMax= 3.70D-07

 Cycle  10  Pass 1  IDiag  1:
 E= -115.113485989038     Delta-E=       -0.000000000000 Rises=F Damp=F
 DIIS: error= 3.82D-09 at cycle  10 NSaved=  10.
 NSaved=10 IEnMin=10 EnMin= -115.113485989038     IErMin=10 ErrMin= 3.82D-09
 ErrMax= 3.82D-09 EMaxC= 1.00D-01 BMatC= 3.98D-16 BMatP= 4.12D-14
 IDIUse=1 WtCom= 1.00D+00 WtEn= 0.00D+00
 Coeff-Com: -0.553D-07-0.144D-06 0.300D-07 0.294D-05 0.218D-04 0.234D-03
 Coeff-Com: -0.486D-03-0.162D-01-0.215D-01 0.104D+01
 Coeff:     -0.553D-07-0.144D-06 0.300D-07 0.294D-05 0.218D-04 0.234D-03
 Coeff:     -0.486D-03-0.162D-01-0.215D-01 0.104D+01
 Gap=     0.127 Goal=   None    Shift=    0.000
 RMSDP=1.88D-09 MaxDP=3.11D-08 DE=-1.71D-13 OVMax= 3.75D-08

 SCF Done:  E(RB3LYP) =  -115.113485989     A.U. after   10 cycles
             Convg  =    0.1884D-08             -V/T =  2.0093
 KE= 1.140548708898D+02 PE=-3.424278777157D+02 EE= 7.949836788132D+01
 Leave Link  502 at Mon Sep 16 17:42:36 2024, MaxMem=   13107200 cpu:       6.3
 (Enter /programs/64bit/g09/g09-gfortran/bin/l701.exe)
 Compute integral first derivatives.
 ... and contract with generalized density number  0.
 Leave Link  701 at Mon Sep 16 17:42:36 2024, MaxMem=   13107200 cpu:       0.3
 (Enter /programs/64bit/g09/g09-gfortran/bin/l702.exe)
 L702 exits ... SP integral derivatives will be done elsewhere.
 Leave Link  702 at Mon Sep 16 17:42:37 2024, MaxMem=   13107200 cpu:       0.0
 (Enter /programs/64bit/g09/g09-gfortran/bin/l703.exe)
 Compute integral first derivatives, UseDBF=F ICtDFT=           0.
 Integral derivatives from FoFDir, PRISM(SPDF).
 Calling FoFJK, ICntrl=      2127 FMM=F ISym2X=1 I1Cent= 0 IOpClX= 0 NMat=1 NMatS=1 NMatT=0.
 FoFCou: FMM=F IPFlag=           0 FMFlag=      100000 FMFlg1=         800
         NFxFlg=           0 DoJE=F BraDBF=F KetDBF=F FulRan=T
         Omega=  0.000000  0.000000  1.000000  0.000000  0.000000 ICntrl=    2127 IOpCl=  0
         NMat0=    1 NMatS0=    1 NMatT0=    0 NMatD0=    1 NMtDS0=    0 NMtDT0=    0
         I1Cent=           0 NGrid=           0.
 Petite list used in FoFCou.
 Leave Link  703 at Mon Sep 16 17:42:39 2024, MaxMem=   13107200 cpu:       2.1
 (Enter /programs/64bit/g09/g09-gfortran/bin/l716.exe)
 Dipole        =-2.22044605D-16-1.11022302D-16-1.19828320D+00
 ***** Axes restored to original set *****
 -------------------------------------------------------------------
 Center     Atomic                   Forces (Hartrees/Bohr)
 Number     Number              X              Y              Z
 -------------------------------------------------------------------
      1        6           0.000000000   -0.000000000    0.039263039
      2        8           0.000000000   -0.000000000   -0.019367577
      3        1           0.004993210   -0.000000000   -0.006631821
      4        1          -0.002496605   -0.004324247   -0.006631821
      5        1          -0.002496605    0.004324247   -0.006631821
 -------------------------------------------------------------------
 Cartesian Forces:  Max     0.039263039 RMS     0.011897980
 Leave Link  716 at Mon Sep 16 17:42:39 2024, MaxMem=   13107200 cpu:       0.0
 (Enter /programs/64bit/g09/g09-gfortran/bin/l103.exe)

 GradGradGradGradGradGradGradGradGradGradGradGradGradGradGradGradGradGrad
 Berny optimization.
 Using GEDIIS/GDIIS optimizer.
 Internal  Forces:  Max     0.019367577 RMS     0.006448546
 Search for a local minimum.
 Step number   2 out of a maximum of   24
 All quantities printed in internal units (Hartrees-Bohrs-Radians)
 RMS Force = .64485D-02 SwitMx=.10000D-02 MixMth= 1
 Mixed Optimization -- RFO/linear search
 Update second derivatives using D2CorX and points    1    2
 DE= -8.73D-03 DEPred=-7.92D-03 R= 1.10D+00
 SS=  1.41D+00  RLast= 2.95D-01 DXNew= 5.0454D-01 8.8537D-01
 Trust test= 1.10D+00 RLast= 2.95D-01 DXMaxT set to 5.05D-01
 The second derivative matrix:
                          R1        R2        R3        R4        A1
           R1           0.55788
           R2           0.04852   0.35889
           R3           0.04852  -0.01341   0.35889
           R4           0.04852  -0.01341  -0.01341   0.35889
           A1          -0.00198  -0.02066  -0.02066  -0.02066   0.15246
           A2           0.00090  -0.01787  -0.01787  -0.01787  -0.00735
           A3           0.00857  -0.01043  -0.01043  -0.01043  -0.00684
           A4           0.00617   0.02592   0.02592   0.02592   0.00829
           A5          -0.00449   0.01559   0.01559   0.01559   0.00758
           A6          -0.00599   0.01413   0.01413   0.01413   0.00748
           D1          -0.00979  -0.00882  -0.00882  -0.00882  -0.00039
           D2           0.00838   0.00745   0.00745   0.00745   0.00029
           D3          -0.01102  -0.01001  -0.01001  -0.01001  -0.00047
           D4          -0.01941  -0.01746  -0.01746  -0.01746  -0.00076
                          A2        A3        A4        A5        A6
           A2           0.15296
           A3          -0.00623   0.15540
           A4           0.00825   0.00813   0.15112
           A5           0.00712   0.00588  -0.00872   0.15300
           A6           0.00696   0.00556  -0.00870  -0.00676   0.15351
           D1          -0.00078  -0.00184  -0.00015   0.00132   0.00153
           D2           0.00063   0.00154   0.00017  -0.00109  -0.00127
           D3          -0.00091  -0.00210  -0.00013   0.00152   0.00175
           D4          -0.00155  -0.00364  -0.00030   0.00261   0.00302
                          D1        D2        D3        D4
           D1           0.00637
           D2          -0.00118   0.00601
           D3           0.00154  -0.00133   0.00673
           D4           0.00272  -0.00234   0.00306   0.01039
 Use linear search instead of GDIIS.
     Eigenvalues ---    0.05066   0.05850   0.08116   0.15513   0.16000
     Eigenvalues ---    0.30796   0.37230   0.37230   0.586201000.00000
     Eigenvalues --- 1000.000001000.000001000.000001000.00000
 RFO step:  Lambda=-1.77940557D-03 EMin= 5.06632778D-02
 Quartic linear search produced a step of  0.31579.
 Iteration  1 RMS(Cart)=  0.02088774 RMS(Int)=  0.00244162
 Iteration  2 RMS(Cart)=  0.00116981 RMS(Int)=  0.00205034
 Iteration  3 RMS(Cart)=  0.00000254 RMS(Int)=  0.00205034
 Iteration  4 RMS(Cart)=  0.00000001 RMS(Int)=  0.00205034
 ClnCor:  largest displacement from symmetrization is 3.47D-03 for atom     5.
 Variable       Old X    -DE/DX   Delta X   Delta X   Delta X     New X
                                 (Linear)    (Quad)   (Total)
    R1        2.62580  -0.01937   0.00568  -0.05521  -0.04953   2.57627
    R2        2.11002   0.00720   0.02779   0.00674   0.03494   2.14496
    R3        2.11002   0.00720   0.02779   0.00674   0.03494   2.14496
    R4        2.11002   0.00720   0.02779   0.00674   0.03494   2.14496
    A1        1.97413   0.00110   0.02005   0.01876   0.03952   2.01364
    A2        1.97413   0.00167   0.02005   0.01826   0.03952   2.01364
    A3        1.97413   0.00315   0.02005   0.01783   0.03952   2.01364
    A4        1.84308  -0.00078  -0.02133  -0.02025  -0.04579   1.79729
    A5        1.84308  -0.00277  -0.02133  -0.02059  -0.04579   1.79729
    A6        1.84308  -0.00311  -0.02133  -0.02084  -0.04579   1.79729
    D1       -2.16784  -0.00188  -0.02319  -0.02072  -0.04146  -2.20929
    D2        2.16784   0.00140   0.02319   0.02021   0.04146   2.20929
    D3       -2.16784  -0.00188  -0.02319  -0.01941  -0.04146  -2.20929
    D4        1.94751  -0.00329  -0.04638  -0.03963  -0.08291   1.86460
         Item               Value     Threshold  Converged?
 Maximum Force            0.019368     0.000450     NO 
 RMS     Force            0.006449     0.000300     NO 
 Maximum Displacement     0.063621     0.001800     NO 
 RMS     Displacement     0.021574     0.001200     NO 
 Predicted change in Energy=-1.271310D-03
 GradGradGradGradGradGradGradGradGradGradGradGradGradGradGradGradGradGrad

 Leave Link  103 at Mon Sep 16 17:42:39 2024, MaxMem=   13107200 cpu:       0.0
 (Enter /programs/64bit/g09/g09-gfortran/bin/l202.exe)
                          Input orientation:                          
 ---------------------------------------------------------------------
 Center     Atomic      Atomic             Coordinates (Angstroms)
 Number     Number       Type             X           Y           Z
 ---------------------------------------------------------------------
      1          6           0       -0.000000    0.000000    0.081917
      2          8           0       -0.000000   -0.000000    1.445220
      3          1           0        1.025569   -0.000000   -0.404472
      4          1           0       -0.512784   -0.888169   -0.404472
      5          1           0       -0.512784    0.888169   -0.404472
 ---------------------------------------------------------------------
                    Distance matrix (angstroms):
                    1          2          3          4          5
     1  C    0.000000
     2  O    1.363303   0.000000
     3  H    1.135062   2.114983   0.000000
     4  H    1.135062   2.114983   1.776337   0.000000
     5  H    1.135062   2.114983   1.776337   1.776337   0.000000
 Stoichiometry    CH3O(1-)
 Framework group  C3V[C3(CO),3SGV(H)]
 Deg. of freedom     3
 Full point group                 C3V     NOp   6
 Largest Abelian subgroup         CS      NOp   2
 Largest concise Abelian subgroup CS      NOp   2
                         Standard orientation:                         
 ---------------------------------------------------------------------
 Center     Atomic      Atomic             Coordinates (Angstroms)
 Number     Number       Type             X           Y           Z
 ---------------------------------------------------------------------
      1          6           0        0.000000    0.000000   -0.555721
      2          8           0        0.000000    0.000000    0.807582
      3          1           0        0.000000    1.025569   -1.042110
      4          1           0        0.888169   -0.512784   -1.042110
      5          1           0       -0.888169   -0.512784   -1.042110
 ---------------------------------------------------------------------
 Rotational constants (GHZ):    158.9209734     27.0230871     27.0230871
 Leave Link  202 at Mon Sep 16 17:42:39 2024, MaxMem=   13107200 cpu:       0.0
 (Enter /programs/64bit/g09/g09-gfortran/bin/l301.exe)
 Standard basis: 6-31+G(d,p) (6D, 7F)
 Ernie: Thresh=  0.10000D-02 Tol=  0.10000D-05 Strict=F.
 There are    37 symmetry adapted basis functions of A'  symmetry.
 There are    16 symmetry adapted basis functions of A"  symmetry.
 Integral buffers will be    131072 words long.
 Raffenetti 2 integral format.
 Two-electron integral symmetry is turned on.
    53 basis functions,    85 primitive gaussians,    53 cartesian basis functions
     9 alpha electrons        9 beta electrons
       nuclear repulsion energy        33.9219798498 Hartrees.
 IExCor=  402 DFT=T Ex+Corr=B3LYP ExCW=0 ScaHFX=  0.200000
 ScaDFX=  0.800000  0.720000  1.000000  0.810000 ScalE2=  1.000000  1.000000
 IRadAn=      0 IRanWt=     -1 IRanGd=            0 ICorTp=0
 NAtoms=    5 NActive=    5 NUniq=    3 SFac= 2.08D+00 NAtFMM=   80 NAOKFM=F Big=F
 Leave Link  301 at Mon Sep 16 17:42:39 2024, MaxMem=   13107200 cpu:       0.1
 (Enter /programs/64bit/g09/g09-gfortran/bin/l302.exe)
 NPDir=0 NMtPBC=     1 NCelOv=     1 NCel=       1 NClECP=     1 NCelD=      1
         NCelK=      1 NCelE2=     1 NClLst=     1 CellRange=     0.0.
 One-electron integrals computed using PRISM.
 One-electron integral symmetry used in STVInt
 NBasis=    53 RedAO= T  NBF=    37    16
 NBsUse=    53 1.00D-06 NBFU=    37    16
 Precomputing XC quadrature grid using
 IXCGrd= 2 IRadAn=           0 IRanWt=          -1 IRanGd=           0 AccXCQ= 1.00D-10.
 NRdTot=     320 NPtTot=       40596 NUsed=       42914 NTot=       42946
 NSgBfM=    53    53    53    53    53 NAtAll=     5     5.
 Leave Link  302 at Mon Sep 16 17:42:39 2024, MaxMem=   13107200 cpu:       0.3
 (Enter /programs/64bit/g09/g09-gfortran/bin/l303.exe)
 DipDrv:  MaxL=1.
 Leave Link  303 at Mon Sep 16 17:42:39 2024, MaxMem=   13107200 cpu:       0.0
 (Enter /programs/64bit/g09/g09-gfortran/bin/l401.exe)
 Initial guess read from the read-write file.
 B after Tr=     0.000000    0.000000    0.000000
         Rot=    1.000000    0.000000    0.000000    0.000000 Ang=   0.00 deg.
 Guess basis will be translated and rotated to current coordinates.
 Initial guess orbital symmetries:
       Occupied  (A1) (A1) (A1) (A1) (E) (E) (A1) (E) (E)
       Virtual   (A1) (A1) (E) (E) (A1) (E) (E) (E) (E) (A1) (A1)
                 (A1) (E) (E) (A1) (E) (E) (A1) (A1) (E) (E) (A1)
                 (E) (E) (A1) (E) (E) (E) (E) (A2) (A1) (E) (E)
                 (E) (E) (A1) (E) (E) (A1) (A1) (E) (E) (A1) (A1)
 The electronic state of the initial guess is 1-A1.
 Generating alternative initial guess.
 Harris functional with IExCor=  402 diagonalized for initial guess.
 ExpMin= 4.38D-02 ExpMax= 5.48D+03 ExpMxC= 8.25D+02 IAcc=2 IRadAn=         0 AccDes= 0.00D+00
 HarFok:  IExCor=  402 AccDes= 0.00D+00 IRadAn=         0 IDoV= 1
 ScaDFX=  1.000000  1.000000  1.000000  1.000000
 FoFCou: FMM=F IPFlag=           0 FMFlag=      100000 FMFlg1=           0
         NFxFlg=           0 DoJE=T BraDBF=F KetDBF=T FulRan=T
         Omega=  0.000000  0.000000  1.000000  0.000000  0.000000 ICntrl=     500 IOpCl=  0
         NMat0=    1 NMatS0=    1 NMatT0=    0 NMatD0=    1 NMtDS0=    0 NMtDT0=    0
         I1Cent=           4 NGrid=           0.
 Petite list used in FoFCou.
 Harris En= -115.356764259263    
 Leave Link  401 at Mon Sep 16 17:42:40 2024, MaxMem=   13107200 cpu:       0.9
 (Enter /programs/64bit/g09/g09-gfortran/bin/l502.exe)
 Closed shell SCF:
 Requested convergence on RMS density matrix=1.00D-08 within 128 cycles.
 Requested convergence on MAX density matrix=1.00D-06.
 Requested convergence on             energy=1.00D-06.
 No special actions if energy rises.
 Using DIIS extrapolation, IDIIS=  1040.
 Integral symmetry usage will be decided dynamically.
        42856 words used for storage of precomputed grid.
 Keep R1 ints in memory in canonical form, NReq=1966697.
 IEnd=       70295 IEndB=       70295 NGot=    13107200 MDV=    12031784
 LenX=    12031784 LenY=    12028534
 Symmetry not used in FoFDir.
 MinBra= 0 MaxBra= 2 Meth= 1.
 IRaf=       0 NMat=   1 IRICut=       1 DoRegI=T DoRafI=F ISym2E= 0 JSym2E=0.

 Cycle   1  Pass 1  IDiag  1:
 E= -115.114204273074    
 DIIS: error= 2.34D-03 at cycle   1 NSaved=   1.
 NSaved= 1 IEnMin= 1 EnMin= -115.114204273074     IErMin= 1 ErrMin= 2.34D-03
 ErrMax= 2.34D-03 EMaxC= 1.00D-01 BMatC= 5.46D-04 BMatP= 5.46D-04
 IDIUse=3 WtCom= 9.77D-01 WtEn= 2.34D-02
 Coeff-Com:  0.100D+01
 Coeff-En:   0.100D+01
 Coeff:      0.100D+01
 Gap=     0.135 Goal=   None    Shift=    0.000
 GapD=    0.135 DampG=1.000 DampE=1.000 DampFc=1.0000 IDamp=-1.
 RMSDP=7.78D-04 MaxDP=7.58D-03              OVMax= 1.68D-02

 Cycle   2  Pass 1  IDiag  1:
 E= -115.114978293626     Delta-E=       -0.000774020552 Rises=F Damp=F
 DIIS: error= 2.04D-03 at cycle   2 NSaved=   2.
 NSaved= 2 IEnMin= 2 EnMin= -115.114978293626     IErMin= 2 ErrMin= 2.04D-03
 ErrMax= 2.04D-03 EMaxC= 1.00D-01 BMatC= 3.09D-04 BMatP= 5.46D-04
 IDIUse=3 WtCom= 9.80D-01 WtEn= 2.04D-02
 Coeff-Com:  0.394D+00 0.606D+00
 Coeff-En:   0.000D+00 0.100D+01
 Coeff:      0.386D+00 0.614D+00
 Gap=     0.129 Goal=   None    Shift=    0.000
 RMSDP=3.97D-04 MaxDP=5.24D-03 DE=-7.74D-04 OVMax= 6.06D-03

 Cycle   3  Pass 1  IDiag  1:
 E= -115.115079816215     Delta-E=       -0.000101522589 Rises=F Damp=F
 DIIS: error= 1.71D-03 at cycle   3 NSaved=   3.
 NSaved= 3 IEnMin= 3 EnMin= -115.115079816215     IErMin= 3 ErrMin= 1.71D-03
 ErrMax= 1.71D-03 EMaxC= 1.00D-01 BMatC= 1.70D-04 BMatP= 3.09D-04
 IDIUse=3 WtCom= 9.83D-01 WtEn= 1.71D-02
 Coeff-Com: -0.150D-01 0.426D+00 0.589D+00
 Coeff-En:   0.000D+00 0.385D+00 0.615D+00
 Coeff:     -0.148D-01 0.425D+00 0.590D+00
 Gap=     0.133 Goal=   None    Shift=    0.000
 RMSDP=2.86D-04 MaxDP=3.02D-03 DE=-1.02D-04 OVMax= 4.41D-03

 Cycle   4  Pass 1  IDiag  1:
 E= -115.115201236307     Delta-E=       -0.000121420093 Rises=F Damp=F
 DIIS: error= 4.57D-04 at cycle   4 NSaved=   4.
 NSaved= 4 IEnMin= 4 EnMin= -115.115201236307     IErMin= 4 ErrMin= 4.57D-04
 ErrMax= 4.57D-04 EMaxC= 1.00D-01 BMatC= 1.43D-05 BMatP= 1.70D-04
 IDIUse=3 WtCom= 9.95D-01 WtEn= 4.57D-03
 Coeff-Com: -0.167D-01 0.214D+00 0.363D+00 0.440D+00
 Coeff-En:   0.000D+00 0.000D+00 0.345D-01 0.966D+00
 Coeff:     -0.166D-01 0.213D+00 0.362D+00 0.442D+00
 Gap=     0.132 Goal=   None    Shift=    0.000
 RMSDP=8.49D-05 MaxDP=8.68D-04 DE=-1.21D-04 OVMax= 1.27D-03

 Cycle   5  Pass 1  IDiag  1:
 E= -115.115214826693     Delta-E=       -0.000013590386 Rises=F Damp=F
 DIIS: error= 1.02D-04 at cycle   5 NSaved=   5.
 NSaved= 5 IEnMin= 5 EnMin= -115.115214826693     IErMin= 5 ErrMin= 1.02D-04
 ErrMax= 1.02D-04 EMaxC= 1.00D-01 BMatC= 3.27D-07 BMatP= 1.43D-05
 IDIUse=3 WtCom= 9.99D-01 WtEn= 1.02D-03
 Coeff-Com: -0.603D-02 0.329D-01 0.887D-01 0.149D+00 0.736D+00
 Coeff-En:   0.000D+00 0.000D+00 0.000D+00 0.000D+00 0.100D+01
 Coeff:     -0.602D-02 0.329D-01 0.886D-01 0.148D+00 0.736D+00
 Gap=     0.132 Goal=   None    Shift=    0.000
 RMSDP=1.26D-05 MaxDP=1.06D-04 DE=-1.36D-05 OVMax= 1.92D-04

 Cycle   6  Pass 1  IDiag  1:
 E= -115.115215158811     Delta-E=       -0.000000332117 Rises=F Damp=F
 DIIS: error= 9.10D-06 at cycle   6 NSaved=   6.
 NSaved= 6 IEnMin= 6 EnMin= -115.115215158811     IErMin= 6 ErrMin= 9.10D-06
 ErrMax= 9.10D-06 EMaxC= 1.00D-01 BMatC= 3.92D-09 BMatP= 3.27D-07
 IDIUse=1 WtCom= 1.00D+00 WtEn= 0.00D+00
 Coeff-Com:  0.163D-03-0.666D-02-0.595D-02-0.679D-02 0.751D-01 0.944D+00
 Coeff:      0.163D-03-0.666D-02-0.595D-02-0.679D-02 0.751D-01 0.944D+00
 Gap=     0.132 Goal=   None    Shift=    0.000
 RMSDP=3.65D-06 MaxDP=5.27D-05 DE=-3.32D-07 OVMax= 7.15D-05

 Cycle   7  Pass 1  IDiag  1:
 E= -115.115215165569     Delta-E=       -0.000000006758 Rises=F Damp=F
 DIIS: error= 1.45D-06 at cycle   7 NSaved=   7.
 NSaved= 7 IEnMin= 7 EnMin= -115.115215165569     IErMin= 7 ErrMin= 1.45D-06
 ErrMax= 1.45D-06 EMaxC= 1.00D-01 BMatC= 1.36D-10 BMatP= 3.92D-09
 IDIUse=1 WtCom= 1.00D+00 WtEn= 0.00D+00
 Coeff-Com:  0.168D-03-0.133D-02-0.274D-02-0.143D-02-0.133D-01 0.426D-01
 Coeff-Com:  0.976D+00
 Coeff:      0.168D-03-0.133D-02-0.274D-02-0.143D-02-0.133D-01 0.426D-01
 Coeff:      0.976D+00
 Gap=     0.132 Goal=   None    Shift=    0.000
 RMSDP=6.59D-07 MaxDP=8.84D-06 DE=-6.76D-09 OVMax= 1.29D-05

 Cycle   8  Pass 1  IDiag  1:
 E= -115.115215165841     Delta-E=       -0.000000000273 Rises=F Damp=F
 DIIS: error= 1.44D-07 at cycle   8 NSaved=   8.
 NSaved= 8 IEnMin= 8 EnMin= -115.115215165841     IErMin= 8 ErrMin= 1.44D-07
 ErrMax= 1.44D-07 EMaxC= 1.00D-01 BMatC= 1.84D-12 BMatP= 1.36D-10
 IDIUse=1 WtCom= 1.00D+00 WtEn= 0.00D+00
 Coeff-Com:  0.261D-04-0.129D-03-0.317D-03-0.203D-03-0.339D-02-0.120D-01
 Coeff-Com:  0.123D+00 0.893D+00
 Coeff:      0.261D-04-0.129D-03-0.317D-03-0.203D-03-0.339D-02-0.120D-01
 Coeff:      0.123D+00 0.893D+00
 Gap=     0.132 Goal=   None    Shift=    0.000
 RMSDP=8.45D-08 MaxDP=1.36D-06 DE=-2.73D-10 OVMax= 1.65D-06

 Cycle   9  Pass 1  IDiag  1:
 E= -115.115215165845     Delta-E=       -0.000000000003 Rises=F Damp=F
 DIIS: error= 1.71D-08 at cycle   9 NSaved=   9.
 NSaved= 9 IEnMin= 9 EnMin= -115.115215165845     IErMin= 9 ErrMin= 1.71D-08
 ErrMax= 1.71D-08 EMaxC= 1.00D-01 BMatC= 2.45D-14 BMatP= 1.84D-12
 IDIUse=1 WtCom= 1.00D+00 WtEn= 0.00D+00
 Coeff-Com: -0.268D-05 0.236D-04 0.505D-04-0.914D-05 0.311D-03-0.115D-02
 Coeff-Com: -0.224D-01 0.361D-01 0.987D+00
 Coeff:     -0.268D-05 0.236D-04 0.505D-04-0.914D-05 0.311D-03-0.115D-02
 Coeff:     -0.224D-01 0.361D-01 0.987D+00
 Gap=     0.132 Goal=   None    Shift=    0.000
 RMSDP=1.59D-08 MaxDP=2.30D-07 DE=-3.47D-12 OVMax= 2.66D-07

 Cycle  10  Pass 1  IDiag  1:
 E= -115.115215165845     Delta-E=       -0.000000000000 Rises=F Damp=F
 DIIS: error= 1.33D-09 at cycle  10 NSaved=  10.
 NSaved=10 IEnMin=10 EnMin= -115.115215165845     IErMin=10 ErrMin= 1.33D-09
 ErrMax= 1.33D-09 EMaxC= 1.00D-01 BMatC= 8.43D-17 BMatP= 2.45D-14
 IDIUse=1 WtCom= 1.00D+00 WtEn= 0.00D+00
 Coeff-Com: -0.615D-07-0.145D-06 0.118D-06 0.260D-05 0.123D-04 0.149D-03
 Coeff-Com:  0.132D-03-0.112D-01-0.292D-01 0.104D+01
 Coeff:     -0.615D-07-0.145D-06 0.118D-06 0.260D-05 0.123D-04 0.149D-03
 Coeff:      0.132D-03-0.112D-01-0.292D-01 0.104D+01
 Gap=     0.132 Goal=   None    Shift=    0.000
 RMSDP=9.73D-10 MaxDP=1.15D-08 DE=-3.98D-13 OVMax= 1.26D-08

 SCF Done:  E(RB3LYP) =  -115.115215166     A.U. after   10 cycles
             Convg  =    0.9732D-09             -V/T =  2.0095
 KE= 1.140332881806D+02 PE=-3.426735861544D+02 EE= 7.960310295823D+01
 Leave Link  502 at Mon Sep 16 17:42:47 2024, MaxMem=   13107200 cpu:       6.3
 (Enter /programs/64bit/g09/g09-gfortran/bin/l701.exe)
 Compute integral first derivatives.
 ... and contract with generalized density number  0.
 Leave Link  701 at Mon Sep 16 17:42:47 2024, MaxMem=   13107200 cpu:       0.3
 (Enter /programs/64bit/g09/g09-gfortran/bin/l702.exe)
 L702 exits ... SP integral derivatives will be done elsewhere.
 Leave Link  702 at Mon Sep 16 17:42:47 2024, MaxMem=   13107200 cpu:       0.1
 (Enter /programs/64bit/g09/g09-gfortran/bin/l703.exe)
 Compute integral first derivatives, UseDBF=F ICtDFT=           0.
 Integral derivatives from FoFDir, PRISM(SPDF).
 Calling FoFJK, ICntrl=      2127 FMM=F ISym2X=1 I1Cent= 0 IOpClX= 0 NMat=1 NMatS=1 NMatT=0.
 FoFCou: FMM=F IPFlag=           0 FMFlag=      100000 FMFlg1=         800
         NFxFlg=           0 DoJE=F BraDBF=F KetDBF=F FulRan=T
         Omega=  0.000000  0.000000  1.000000  0.000000  0.000000 ICntrl=    2127 IOpCl=  0
         NMat0=    1 NMatS0=    1 NMatT0=    0 NMatD0=    1 NMtDS0=    0 NMtDT0=    0
         I1Cent=           0 NGrid=           0.
 Petite list used in FoFCou.
 Leave Link  703 at Mon Sep 16 17:42:49 2024, MaxMem=   13107200 cpu:       2.1
 (Enter /programs/64bit/g09/g09-gfortran/bin/l716.exe)
 Dipole        = 0.00000000D+00-1.11022302D-16-1.07137914D+00
 ***** Axes restored to original set *****
 -------------------------------------------------------------------
 Center     Atomic                   Forces (Hartrees/Bohr)
 Number     Number              X              Y              Z
 -------------------------------------------------------------------
      1        6           0.000000000    0.000000000    0.013965049
      2        8           0.000000000   -0.000000000   -0.013703622
      3        1           0.000984461   -0.000000000   -0.000087142
      4        1          -0.000492230   -0.000852568   -0.000087142
      5        1          -0.000492230    0.000852568   -0.000087142
 -------------------------------------------------------------------
 Cartesian Forces:  Max     0.013965049 RMS     0.005071108
 Leave Link  716 at Mon Sep 16 17:42:49 2024, MaxMem=   13107200 cpu:       0.0
 (Enter /programs/64bit/g09/g09-gfortran/bin/l103.exe)

 GradGradGradGradGradGradGradGradGradGradGradGradGradGradGradGradGradGrad
 Berny optimization.
 Using GEDIIS/GDIIS optimizer.
 Internal  Forces:  Max     0.013703622 RMS     0.003691209
 Search for a local minimum.
 Step number   3 out of a maximum of   24
 All quantities printed in internal units (Hartrees-Bohrs-Radians)
 RMS Force = .36912D-02 SwitMx=.10000D-02 MixMth= 1
 Mixed Optimization -- RFO/linear search
 Update second derivatives using D2CorX and points    1    2    3
 DE= -1.73D-03 DEPred=-1.27D-03 R= 1.36D+00
 SS=  1.41D+00  RLast= 1.71D-01 DXNew= 8.4853D-01 5.1195D-01
 Trust test= 1.36D+00 RLast= 1.71D-01 DXMaxT set to 5.12D-01
 The second derivative matrix:
                          R1        R2        R3        R4        A1
           R1           0.49654
           R2           0.09199   0.36331
           R3           0.09199  -0.00899   0.36331
           R4           0.09199  -0.00899  -0.00899   0.36331
           A1           0.00871  -0.02364  -0.02364  -0.02364   0.15120
           A2           0.01363  -0.01937  -0.01937  -0.01937  -0.00859
           A3           0.02675  -0.00821  -0.00821  -0.00821  -0.00804
           A4          -0.00472   0.03123   0.03123   0.03123   0.00987
           A5          -0.02293   0.01605   0.01605   0.01605   0.00915
           A6          -0.02550   0.01364   0.01364   0.01364   0.00902
           D1          -0.01709  -0.01326  -0.01326  -0.01326  -0.00037
           D2           0.01466   0.01030   0.01030   0.01030   0.00015
           D3          -0.01917  -0.01401  -0.01401  -0.01401  -0.00032
           D4          -0.03382  -0.02431  -0.02431  -0.02431  -0.00047
                          A2        A3        A4        A5        A6
           A2           0.15192
           A3          -0.00677   0.15650
           A4           0.01000   0.01034   0.14935
           A5           0.00825   0.00592  -0.01114   0.15197
           A6           0.00795   0.00518  -0.01119  -0.00749   0.15314
           D1          -0.00133  -0.00382  -0.00080   0.00258   0.00313
           D2           0.00089   0.00282   0.00079  -0.00182  -0.00225
           D3          -0.00131  -0.00389  -0.00092   0.00258   0.00315
           D4          -0.00220  -0.00672  -0.00171   0.00440   0.00540
                          D1        D2        D3        D4
           D1           0.00814
           D2          -0.00244   0.00688
           D3           0.00326  -0.00253   0.00837
           D4           0.00570  -0.00442   0.00591   0.01532
 Use linear search instead of GDIIS.
     Eigenvalues ---    0.04892   0.05595   0.07741   0.14941   0.16000
     Eigenvalues ---    0.26046   0.37230   0.37230   0.601271000.00000
     Eigenvalues --- 1000.000001000.000001000.000001000.00000
 RFO step:  Lambda=-3.25760287D-04 EMin= 4.89159931D-02
 Quartic linear search produced a step of  0.31626.
 Iteration  1 RMS(Cart)=  0.00764416 RMS(Int)=  0.00038764
 Iteration  2 RMS(Cart)=  0.00004844 RMS(Int)=  0.00038319
 Iteration  3 RMS(Cart)=  0.00000003 RMS(Int)=  0.00038319
 ClnCor:  largest displacement from symmetrization is 6.11D-04 for atom     5.
 Variable       Old X    -DE/DX   Delta X   Delta X   Delta X     New X
                                 (Linear)    (Quad)   (Total)
    R1        2.57627  -0.01370  -0.01566  -0.02232  -0.03799   2.53828
    R2        2.14496   0.00093   0.01105   0.00213   0.01310   2.15806
    R3        2.14496   0.00093   0.01105   0.00213   0.01310   2.15806
    R4        2.14496   0.00093   0.01105   0.00213   0.01310   2.15806
    A1        2.01364  -0.00010   0.01250  -0.00589   0.00691   2.02055
    A2        2.01364  -0.00015   0.01250  -0.00578   0.00691   2.02055
    A3        2.01364  -0.00027   0.01250  -0.00571   0.00691   2.02055
    A4        1.79729   0.00009  -0.01448   0.00675  -0.00827   1.78902
    A5        1.79729   0.00025  -0.01448   0.00695  -0.00827   1.78902
    A6        1.79729   0.00028  -0.01448   0.00702  -0.00827   1.78902
    D1       -2.20929   0.00016  -0.01311   0.00608  -0.00692  -2.21621
    D2        2.20929  -0.00011   0.01311  -0.00588   0.00692   2.21621
    D3       -2.20929   0.00015  -0.01311   0.00569  -0.00692  -2.21621
    D4        1.86460   0.00026  -0.02622   0.01157  -0.01385   1.85076
         Item               Value     Threshold  Converged?
 Maximum Force            0.013704     0.000450     NO 
 RMS     Force            0.003691     0.000300     NO 
 Maximum Displacement     0.019052     0.001800     NO 
 RMS     Displacement     0.007602     0.001200     NO 
 Predicted change in Energy=-2.766758D-04
 GradGradGradGradGradGradGradGradGradGradGradGradGradGradGradGradGradGrad

 Leave Link  103 at Mon Sep 16 17:42:49 2024, MaxMem=   13107200 cpu:       0.0
 (Enter /programs/64bit/g09/g09-gfortran/bin/l202.exe)
                          Input orientation:                          
 ---------------------------------------------------------------------
 Center     Atomic      Atomic             Coordinates (Angstroms)
 Number     Number       Type             X           Y           Z
 ---------------------------------------------------------------------
      1          6           0       -0.000000    0.000000    0.091937
      2          8           0       -0.000000    0.000000    1.435138
      3          1           0        1.028428   -0.000000   -0.404539
      4          1           0       -0.514214   -0.890645   -0.404539
      5          1           0       -0.514214    0.890645   -0.404539
 ---------------------------------------------------------------------
                    Distance matrix (angstroms):
                    1          2          3          4          5
     1  C    0.000000
     2  O    1.343202   0.000000
     3  H    1.141995   2.107623   0.000000
     4  H    1.141995   2.107623   1.781289   0.000000
     5  H    1.141995   2.107623   1.781289   1.781289   0.000000
 Stoichiometry    CH3O(1-)
 Framework group  C3V[C3(CO),3SGV(H)]
 Deg. of freedom     3
 Full point group                 C3V     NOp   6
 Largest Abelian subgroup         CS      NOp   2
 Largest concise Abelian subgroup CS      NOp   2
                         Standard orientation:                         
 ---------------------------------------------------------------------
 Center     Atomic      Atomic             Coordinates (Angstroms)
 Number     Number       Type             X           Y           Z
 ---------------------------------------------------------------------
      1          6           0        0.000000    0.000000   -0.544482
      2          8           0        0.000000    0.000000    0.798720
      3          1           0        0.000000    1.028428   -1.040957
      4          1           0        0.890645   -0.514214   -1.040957
      5          1           0       -0.890645   -0.514214   -1.040957
 ---------------------------------------------------------------------
 Rotational constants (GHZ):    158.0385566     27.5741959     27.5741959
 Leave Link  202 at Mon Sep 16 17:42:49 2024, MaxMem=   13107200 cpu:       0.0
 (Enter /programs/64bit/g09/g09-gfortran/bin/l301.exe)
 Standard basis: 6-31+G(d,p) (6D, 7F)
 Ernie: Thresh=  0.10000D-02 Tol=  0.10000D-05 Strict=F.
 There are    37 symmetry adapted basis functions of A'  symmetry.
 There are    16 symmetry adapted basis functions of A"  symmetry.
 Integral buffers will be    131072 words long.
 Raffenetti 2 integral format.
 Two-electron integral symmetry is turned on.
    53 basis functions,    85 primitive gaussians,    53 cartesian basis functions
     9 alpha electrons        9 beta electrons
       nuclear repulsion energy        34.1683444615 Hartrees.
 IExCor=  402 DFT=T Ex+Corr=B3LYP ExCW=0 ScaHFX=  0.200000
 ScaDFX=  0.800000  0.720000  1.000000  0.810000 ScalE2=  1.000000  1.000000
 IRadAn=      0 IRanWt=     -1 IRanGd=            0 ICorTp=0
 NAtoms=    5 NActive=    5 NUniq=    3 SFac= 2.08D+00 NAtFMM=   80 NAOKFM=F Big=F
 Leave Link  301 at Mon Sep 16 17:42:49 2024, MaxMem=   13107200 cpu:       0.1
 (Enter /programs/64bit/g09/g09-gfortran/bin/l302.exe)
 NPDir=0 NMtPBC=     1 NCelOv=     1 NCel=       1 NClECP=     1 NCelD=      1
         NCelK=      1 NCelE2=     1 NClLst=     1 CellRange=     0.0.
 One-electron integrals computed using PRISM.
 One-electron integral symmetry used in STVInt
 NBasis=    53 RedAO= T  NBF=    37    16
 NBsUse=    53 1.00D-06 NBFU=    37    16
 Precomputing XC quadrature grid using
 IXCGrd= 2 IRadAn=           0 IRanWt=          -1 IRanGd=           0 AccXCQ= 1.00D-10.
 NRdTot=     320 NPtTot=       40596 NUsed=       42914 NTot=       42946
 NSgBfM=    53    53    53    53    53 NAtAll=     5     5.
 Leave Link  302 at Mon Sep 16 17:42:50 2024, MaxMem=   13107200 cpu:       0.3
 (Enter /programs/64bit/g09/g09-gfortran/bin/l303.exe)
 DipDrv:  MaxL=1.
 Leave Link  303 at Mon Sep 16 17:42:50 2024, MaxMem=   13107200 cpu:       0.0
 (Enter /programs/64bit/g09/g09-gfortran/bin/l401.exe)
 Initial guess read from the read-write file.
 B after Tr=     0.000000    0.000000    0.000000
         Rot=    1.000000    0.000000    0.000000    0.000000 Ang=   0.00 deg.
 Guess basis will be translated and rotated to current coordinates.
 Initial guess orbital symmetries:
       Occupied  (A1) (A1) (A1) (A1) (E) (E) (A1) (E) (E)
       Virtual   (A1) (A1) (E) (E) (A1) (E) (E) (E) (E) (A1) (A1)
                 (A1) (E) (E) (A1) (E) (E) (A1) (A1) (E) (E) (A1)
                 (E) (E) (A1) (E) (E) (E) (E) (A2) (A1) (E) (E)
                 (E) (E) (A1) (E) (E) (A1) (A1) (E) (E) (A1) (A1)
 The electronic state of the initial guess is 1-A1.
 Leave Link  401 at Mon Sep 16 17:42:50 2024, MaxMem=   13107200 cpu:       0.2
 (Enter /programs/64bit/g09/g09-gfortran/bin/l502.exe)
[...]
 ErrMax= 9.49D-05 EMaxC= 1.00D-01 BMatC= 6.33D-07 BMatP= 6.81D-07
 IDIUse=1 WtCom= 1.00D+00 WtEn= 0.00D+00
 Coeff-Com:  0.139D-01 0.487D+00 0.499D+00
 Coeff:      0.139D-01 0.487D+00 0.499D+00
 Gap=     0.134 Goal=   None    Shift=    0.000
 RMSDP=1.42D-05 MaxDP=1.77D-04 DE=-7.96D-08 OVMax= 2.35D-04

 Cycle   4  Pass 1  IDiag  1:
 E= -115.115520528476     Delta-E=       -0.000000458844 Rises=F Damp=F
 DIIS: error= 1.77D-05 at cycle   4 NSaved=   4.
 NSaved= 4 IEnMin= 4 EnMin= -115.115520528476     IErMin= 4 ErrMin= 1.77D-05
 ErrMax= 1.77D-05 EMaxC= 1.00D-01 BMatC= 2.15D-08 BMatP= 6.33D-07
 IDIUse=1 WtCom= 1.00D+00 WtEn= 0.00D+00
 Coeff-Com: -0.139D-01 0.233D+00 0.272D+00 0.509D+00
 Coeff:     -0.139D-01 0.233D+00 0.272D+00 0.509D+00
 Gap=     0.134 Goal=   None    Shift=    0.000
 RMSDP=3.28D-06 MaxDP=3.43D-05 DE=-4.59D-07 OVMax= 4.56D-05

 Cycle   5  Pass 1  IDiag  1:
 E= -115.115520548138     Delta-E=       -0.000000019662 Rises=F Damp=F
 DIIS: error= 3.63D-06 at cycle   5 NSaved=   5.
 NSaved= 5 IEnMin= 5 EnMin= -115.115520548138     IErMin= 5 ErrMin= 3.63D-06
 ErrMax= 3.63D-06 EMaxC= 1.00D-01 BMatC= 9.88D-10 BMatP= 2.15D-08
 IDIUse=1 WtCom= 1.00D+00 WtEn= 0.00D+00
 Coeff-Com: -0.348D-02 0.234D-01 0.282D-01 0.200D+00 0.752D+00
 Coeff:     -0.348D-02 0.234D-01 0.282D-01 0.200D+00 0.752D+00
 Gap=     0.134 Goal=   None    Shift=    0.000
 RMSDP=9.51D-07 MaxDP=8.37D-06 DE=-1.97D-08 OVMax= 1.58D-05

 Cycle   6  Pass 1  IDiag  1:
 E= -115.115520549267     Delta-E=       -0.000000001130 Rises=F Damp=F
 DIIS: error= 4.19D-07 at cycle   6 NSaved=   6.
 NSaved= 6 IEnMin= 6 EnMin= -115.115520549267     IErMin= 6 ErrMin= 4.19D-07
 ErrMax= 4.19D-07 EMaxC= 1.00D-01 BMatC= 1.04D-11 BMatP= 9.88D-10
 IDIUse=1 WtCom= 1.00D+00 WtEn= 0.00D+00
 Coeff-Com:  0.768D-04-0.795D-02-0.835D-02 0.856D-02 0.141D+00 0.867D+00
 Coeff:      0.768D-04-0.795D-02-0.835D-02 0.856D-02 0.141D+00 0.867D+00
 Gap=     0.134 Goal=   None    Shift=    0.000
 RMSDP=1.38D-07 MaxDP=1.80D-06 DE=-1.13D-09 OVMax= 2.29D-06

 Cycle   7  Pass 1  IDiag  1:
 E= -115.115520549283     Delta-E=       -0.000000000016 Rises=F Damp=F
 DIIS: error= 4.94D-08 at cycle   7 NSaved=   7.
 NSaved= 7 IEnMin= 7 EnMin= -115.115520549283     IErMin= 7 ErrMin= 4.94D-08
 ErrMax= 4.94D-08 EMaxC= 1.00D-01 BMatC= 1.29D-13 BMatP= 1.04D-11
 IDIUse=1 WtCom= 1.00D+00 WtEn= 0.00D+00
 Coeff-Com:  0.666D-04-0.589D-03-0.637D-03-0.464D-02-0.858D-02-0.209D-01
 Coeff-Com:  0.104D+01
 Coeff:      0.666D-04-0.589D-03-0.637D-03-0.464D-02-0.858D-02-0.209D-01
 Coeff:      0.104D+01
 Gap=     0.134 Goal=   None    Shift=    0.000
 RMSDP=2.75D-08 MaxDP=3.90D-07 DE=-1.55D-11 OVMax= 5.48D-07

 Cycle   8  Pass 1  IDiag  1:
 E= -115.115520549283     Delta-E=       -0.000000000000 Rises=F Damp=F
 DIIS: error= 1.07D-08 at cycle   8 NSaved=   8.
 NSaved= 8 IEnMin= 8 EnMin= -115.115520549283     IErMin= 8 ErrMin= 1.07D-08
 ErrMax= 1.07D-08 EMaxC= 1.00D-01 BMatC= 7.65D-15 BMatP= 1.29D-13
 IDIUse=1 WtCom= 1.00D+00 WtEn= 0.00D+00
 Coeff-Com:  0.331D-05 0.552D-04-0.262D-04-0.489D-04-0.179D-02-0.862D-02
 Coeff-Com:  0.262D-01 0.984D+00
 Coeff:      0.331D-05 0.552D-04-0.262D-04-0.489D-04-0.179D-02-0.862D-02
 Coeff:      0.262D-01 0.984D+00
 Gap=     0.134 Goal=   None    Shift=    0.000
 RMSDP=3.78D-09 MaxDP=5.27D-08 DE=-8.53D-14 OVMax= 7.13D-08

 SCF Done:  E(RB3LYP) =  -115.115520549     A.U. after    8 cycles
             Convg  =    0.3783D-08             -V/T =  2.0093
 KE= 1.140603393182D+02 PE=-3.432495471883D+02 EE= 7.986067859346D+01
 Leave Link  502 at Mon Sep 16 17:43:04 2024, MaxMem=   13107200 cpu:       5.1
 (Enter /programs/64bit/g09/g09-gfortran/bin/l701.exe)
 Compute integral first derivatives.
 ... and contract with generalized density number  0.
 Leave Link  701 at Mon Sep 16 17:43:04 2024, MaxMem=   13107200 cpu:       0.3
 (Enter /programs/64bit/g09/g09-gfortran/bin/l702.exe)
 L702 exits ... SP integral derivatives will be done elsewhere.
 Leave Link  702 at Mon Sep 16 17:43:04 2024, MaxMem=   13107200 cpu:       0.0
 (Enter /programs/64bit/g09/g09-gfortran/bin/l703.exe)
 Compute integral first derivatives, UseDBF=F ICtDFT=           0.
 Integral derivatives from FoFDir, PRISM(SPDF).
 Calling FoFJK, ICntrl=      2127 FMM=F ISym2X=1 I1Cent= 0 IOpClX= 0 NMat=1 NMatS=1 NMatT=0.
 FoFCou: FMM=F IPFlag=           0 FMFlag=      100000 FMFlg1=         800
         NFxFlg=           0 DoJE=F BraDBF=F KetDBF=F FulRan=T
         Omega=  0.000000  0.000000  1.000000  0.000000  0.000000 ICntrl=    2127 IOpCl=  0
         NMat0=    1 NMatS0=    1 NMatT0=    0 NMatD0=    1 NMtDS0=    0 NMtDT0=    0
         I1Cent=           0 NGrid=           0.
 Petite list used in FoFCou.
 Leave Link  703 at Mon Sep 16 17:43:07 2024, MaxMem=   13107200 cpu:       2.1
 (Enter /programs/64bit/g09/g09-gfortran/bin/l716.exe)
 Dipole        =-2.22044605D-16-3.33066907D-16-9.92198522D-01
 ***** Axes restored to original set *****
 -------------------------------------------------------------------
 Center     Atomic                   Forces (Hartrees/Bohr)
 Number     Number              X              Y              Z
 -------------------------------------------------------------------
      1        6           0.000000000    0.000000000   -0.000056746
      2        8          -0.000000000   -0.000000000   -0.000103776
      3        1          -0.000144534   -0.000000000    0.000053507
      4        1           0.000072267    0.000125170    0.000053507
      5        1           0.000072267   -0.000125170    0.000053507
 -------------------------------------------------------------------
 Cartesian Forces:  Max     0.000144534 RMS     0.000075388
 Leave Link  716 at Mon Sep 16 17:43:07 2024, MaxMem=   13107200 cpu:       0.0
 (Enter /programs/64bit/g09/g09-gfortran/bin/l103.exe)

 GradGradGradGradGradGradGradGradGradGradGradGradGradGradGradGradGradGrad
 Berny optimization.
 Using GEDIIS/GDIIS optimizer.
 Internal  Forces:  Max     0.000153447 RMS     0.000076576
 Search for a local minimum.
 Step number   5 out of a maximum of   24
 All quantities printed in internal units (Hartrees-Bohrs-Radians)
 RMS Force = .76576D-04 SwitMx=.10000D-02 MixMth= 2
 Mixed Optimization -- En-DIIS/RFO-DIIS
 Swaping is turned off.
 Update second derivatives using D2CorX and points    1    2    3    4    5
 DE= -7.65D-06 DEPred=-7.19D-06 R= 1.06D+00
 SS=  1.41D+00  RLast= 7.72D-03 DXNew= 8.6099D-01 2.3165D-02
 Trust test= 1.06D+00 RLast= 7.72D-03 DXMaxT set to 5.12D-01
 The second derivative matrix:
                          R1        R2        R3        R4        A1
           R1           0.39867
           R2           0.04326   0.34967
           R3           0.04326  -0.02263   0.34967
           R4           0.04326  -0.02263  -0.02263   0.34967
           A1           0.00199  -0.02153  -0.02153  -0.02153   0.15049
           A2           0.00759  -0.01875  -0.01875  -0.01875  -0.00898
           A3           0.02172  -0.01147  -0.01147  -0.01147  -0.00766
           A4           0.00146   0.02732   0.02732   0.02732   0.01090
           A5          -0.01676   0.01744   0.01744   0.01744   0.00921
           A6          -0.02034   0.01588   0.01588   0.01588   0.00886
           D1          -0.01711  -0.00844  -0.00844  -0.00844  -0.00126
           D2           0.01138   0.00658   0.00658   0.00658   0.00064
           D3          -0.01575  -0.00901  -0.00901  -0.00901  -0.00104
           D4          -0.02713  -0.01559  -0.01559  -0.01559  -0.00169
                          A2        A3        A4        A5        A6
           A2           0.15179
           A3          -0.00627   0.15725
           A4           0.01057   0.00978   0.14776
           A5           0.00806   0.00518  -0.01129   0.15244
           A6           0.00756   0.00431  -0.01104  -0.00682   0.15401
           D1          -0.00203  -0.00403   0.00053   0.00317   0.00364
           D2           0.00121   0.00268  -0.00001  -0.00195  -0.00229
           D3          -0.00181  -0.00378   0.00023   0.00284   0.00330
           D4          -0.00302  -0.00645   0.00024   0.00479   0.00559
                          D1        D2        D3        D4
           D1           0.00751
           D2          -0.00184   0.00634
           D3           0.00248  -0.00182   0.00744
           D4           0.00431  -0.00317   0.00427   0.01243
     Eigenvalues ---    0.04877   0.05756   0.07720   0.14955   0.16000
     Eigenvalues ---    0.27999   0.37230   0.37230   0.442301000.00000
     Eigenvalues --- 1000.000001000.000001000.000001000.00000
 En-DIIS/RFO-DIIS IScMMF=        0 using points:     5    4
 RFO step:  Lambda=-1.38157140D-07.
 DIIS coeffs:      1.05996     -0.05996
 Iteration  1 RMS(Cart)=  0.00022023 RMS(Int)=  0.00000011
 Iteration  2 RMS(Cart)=  0.00000000 RMS(Int)=  0.00000011
 ClnCor:  largest displacement from symmetrization is 6.82D-06 for atom     5.
 Variable       Old X    -DE/DX   Delta X   Delta X   Delta X     New X
                                  (DIIS)     (GDIIS)  (Total)
    R1        2.53422  -0.00010  -0.00024   0.00014  -0.00011   2.53412
    R2        2.15686  -0.00015  -0.00007  -0.00042  -0.00049   2.15637
    R3        2.15686  -0.00015  -0.00007  -0.00042  -0.00049   2.15637
    R4        2.15686  -0.00015  -0.00007  -0.00042  -0.00049   2.15637
    A1        2.01890   0.00000  -0.00010   0.00010   0.00001   2.01891
    A2        2.01890   0.00001  -0.00010   0.00011   0.00001   2.01891
    A3        2.01890   0.00001  -0.00010   0.00011   0.00001   2.01891
    A4        1.79100  -0.00000   0.00012  -0.00013  -0.00001   1.79099
    A5        1.79100  -0.00001   0.00012  -0.00013  -0.00001   1.79099
    A6        1.79100  -0.00001   0.00012  -0.00013  -0.00001   1.79099
    D1       -2.21457  -0.00001   0.00010  -0.00010  -0.00001  -2.21458
    D2        2.21457   0.00000  -0.00010   0.00011   0.00001   2.21458
    D3       -2.21457  -0.00001   0.00010  -0.00011  -0.00001  -2.21458
    D4        1.85404  -0.00001   0.00020  -0.00022  -0.00002   1.85403
         Item               Value     Threshold  Converged?
 Maximum Force            0.000153     0.000450     YES
 RMS     Force            0.000077     0.000300     YES
 Maximum Displacement     0.000450     0.001800     YES
 RMS     Displacement     0.000221     0.001200     YES
 Predicted change in Energy=-1.179901D-07
 Optimization completed.
    -- Stationary point found.
                           ----------------------------
                           !   Optimized Parameters   !
                           ! (Angstroms and Degrees)  !
 --------------------------                            --------------------------
 ! Name  Definition              Value          Derivative Info.                !
 --------------------------------------------------------------------------------
 ! R1    R(1,2)                  1.3411         -DE/DX =   -0.0001              !
 ! R2    R(1,3)                  1.1414         -DE/DX =   -0.0002              !
 ! R3    R(1,4)                  1.1414         -DE/DX =   -0.0002              !
 ! R4    R(1,5)                  1.1414         -DE/DX =   -0.0002              !
 ! A1    A(2,1,3)              115.6746         -DE/DX =    0.0                 !
 ! A2    A(2,1,4)              115.6746         -DE/DX =    0.0                 !
 ! A3    A(2,1,5)              115.6746         -DE/DX =    0.0                 !
 ! A4    A(3,1,4)              102.6168         -DE/DX =    0.0                 !
 ! A5    A(3,1,5)              102.6168         -DE/DX =    0.0                 !
 ! A6    A(4,1,5)              102.6168         -DE/DX =    0.0                 !
 ! D1    D(2,1,4,3)           -126.8855         -DE/DX =    0.0                 !
 ! D2    D(2,1,5,3)            126.8855         -DE/DX =    0.0                 !
 ! D3    D(2,1,5,4)           -126.8855         -DE/DX =    0.0                 !
 ! D4    D(3,1,5,4)            106.2289         -DE/DX =    0.0                 !
 --------------------------------------------------------------------------------
 GradGradGradGradGradGradGradGradGradGradGradGradGradGradGradGradGradGrad

 Largest change from initial coordinates is atom    3       0.097 Angstoms.
 Leave Link  103 at Mon Sep 16 17:43:07 2024, MaxMem=   13107200 cpu:       0.0
 (Enter /programs/64bit/g09/g09-gfortran/bin/l202.exe)
                          Input orientation:                          
 ---------------------------------------------------------------------
 Center     Atomic      Atomic             Coordinates (Angstroms)
 Number     Number       Type             X           Y           Z
 ---------------------------------------------------------------------
      1          6           0       -0.000000    0.000000    0.091179
      2          8           0       -0.000000    0.000000    1.432231
      3          1           0        1.028674   -0.000000   -0.403327
      4          1           0       -0.514337   -0.890858   -0.403327
      5          1           0       -0.514337    0.890858   -0.403327
 ---------------------------------------------------------------------
                    Distance matrix (angstroms):
                    1          2          3          4          5
     1  C    0.000000
     2  O    1.341053   0.000000
     3  H    1.141362   2.104149   0.000000
     4  H    1.141362   2.104149   1.781716   0.000000
     5  H    1.141362   2.104149   1.781716   1.781716   0.000000
 Stoichiometry    CH3O(1-)
 Framework group  C3V[C3(CO),3SGV(H)]
 Deg. of freedom     3
 Full point group                 C3V     NOp   6
 Largest Abelian subgroup         CS      NOp   2
 Largest concise Abelian subgroup CS      NOp   2
                         Standard orientation:                         
 ---------------------------------------------------------------------
 Center     Atomic      Atomic             Coordinates (Angstroms)
 Number     Number       Type             X           Y           Z
 ---------------------------------------------------------------------
      1          6           0        0.000000    0.000000   -0.543818
      2          8           0        0.000000    0.000000    0.797235
      3          1           0        0.000000    1.028674   -1.038323
      4          1           0        0.890858   -0.514337   -1.038323
      5          1           0       -0.890858   -0.514337   -1.038323
 ---------------------------------------------------------------------
 Rotational constants (GHZ):    157.9628646     27.6659928     27.6659928
 Leave Link  202 at Mon Sep 16 17:43:07 2024, MaxMem=   13107200 cpu:       0.0
 (Enter /programs/64bit/g09/g09-gfortran/bin/l601.exe)
 Copying SCF densities to generalized density rwf, IOpCl= 0 IROHF=0.

 **********************************************************************

            Population analysis using the SCF density.

 **********************************************************************

 Orbital symmetries:
       Occupied  (A1) (A1) (A1) (A1) (E) (E) (A1) (E) (E)
       Virtual   (A1) (A1) (E) (E) (A1) (E) (E) (E) (E) (A1) (A1)
                 (A1) (E) (E) (A1) (E) (E) (A1) (A1) (E) (E) (A1)
                 (E) (E) (A1) (E) (E) (E) (E) (A2) (A1) (E) (E)
                 (E) (E) (A1) (E) (E) (A1) (A1) (E) (E) (A1) (A1)
 The electronic state is 1-A1.
 Alpha  occ. eigenvalues --  -18.81520  -9.99752  -0.67832  -0.39553  -0.17935
 Alpha  occ. eigenvalues --   -0.17935  -0.11935   0.03956   0.03956
 Alpha virt. eigenvalues --    0.17377   0.20711   0.21134   0.21134   0.37812
 Alpha virt. eigenvalues --    0.40801   0.40801   0.42768   0.42768   0.45482
 Alpha virt. eigenvalues --    0.48361   0.57110   0.89461   0.89461   0.92213
 Alpha virt. eigenvalues --    1.08543   1.08543   1.21994   1.42149   1.47606
 Alpha virt. eigenvalues --    1.47606   1.54842   1.64886   1.64886   1.81830
 Alpha virt. eigenvalues --    2.05594   2.05594   2.20937   2.20937   2.27756
 Alpha virt. eigenvalues --    2.33336   2.36133   2.36133   2.75784   2.75784
 Alpha virt. eigenvalues --    2.97538   3.03973   3.03973   3.16183   3.31116
 Alpha virt. eigenvalues --    3.62661   3.62661   4.35647   4.72566
          Condensed to atoms (all electrons):
              1          2          3          4          5
     1  C    4.884841   0.103528   0.396963   0.396963   0.396963
     2  O    0.103528   9.062097  -0.111994  -0.111994  -0.111994
     3  H    0.396963  -0.111994   0.871774  -0.079854  -0.079854
     4  H    0.396963  -0.111994  -0.079854   0.871774  -0.079854
     5  H    0.396963  -0.111994  -0.079854  -0.079854   0.871774
 Mulliken atomic charges:
              1
     1  C   -0.179257
     2  O   -0.829642
     3  H    0.002966
     4  H    0.002966
     5  H    0.002966
 Sum of Mulliken atomic charges =  -1.00000
 Mulliken charges with hydrogens summed into heavy atoms:
              1
     1  C   -0.170358
     2  O   -0.829642
 Sum of Mulliken charges with hydrogens summed into heavy atoms =  -1.00000
 Electronic spatial extent (au):  <R**2>=             90.0583
 Charge=             -1.0000 electrons
 Dipole moment (field-independent basis, Debye):
    X=             -0.0000    Y=             -0.0000    Z=             -2.5219  Tot=              2.5219
 Quadrupole moment (field-independent basis, Debye-Ang):
   XX=            -17.6547   YY=            -17.6547   ZZ=            -22.0935
   XY=              0.0000   XZ=              0.0000   YZ=              0.0000
 Traceless Quadrupole moment (field-independent basis, Debye-Ang):
   XX=              1.4796   YY=              1.4796   ZZ=             -2.9592
   XY=              0.0000   XZ=              0.0000   YZ=              0.0000
 Octapole moment (field-independent basis, Debye-Ang**2):
  XXX=             -0.0000  YYY=             -0.4867  ZZZ=              2.3880  XYY=             -0.0000
  XXY=              0.4867  XXZ=              1.8673  XZZ=              0.0000  YZZ=             -0.0000
  YYZ=              1.8673  XYZ=             -0.0000
 Hexadecapole moment (field-independent basis, Debye-Ang**3):
 XXXX=            -35.6172 YYYY=            -35.6172 ZZZZ=            -89.1154 XXXY=              0.0000
 XXXZ=             -0.0000 YYYX=              0.0000 YYYZ=              0.7389 ZZZX=              0.0000
 ZZZY=              0.0000 XXYY=            -11.8724 XXZZ=            -22.6987 YYZZ=            -22.6987
 XXYZ=             -0.7389 YYXZ=              0.0000 ZZXY=              0.0000
 N-N= 3.421300872741D+01 E-N=-3.432495464860D+02  KE= 1.140603393182D+02
 Symmetry A'   KE= 1.080847172507D+02
 Symmetry A"   KE= 5.975622067465D+00
 No NMR shielding tensors so no spin-rotation constants.
 Leave Link  601 at Mon Sep 16 17:43:07 2024, MaxMem=   13107200 cpu:       0.3
 (Enter /programs/64bit/g09/g09-gfortran/bin/l9999.exe)
 B after Tr=    -0.000000   -0.000000    1.108270
         Rot=    0.707107    0.000000   -0.000000    0.707107 Ang=  90.00 deg.
 Final structure in terms of initial Z-matrix:
 C
 O,1,oc2
 H,1,hc3,2,hco3
 H,1,hc4,2,hco4,3,dih4,0
 H,1,hc5,2,hco5,3,dih5,0
      Variables:
 oc2=1.34105279
 hc3=1.14136159
 hco3=115.67456598
 hc4=1.14136159
 hco4=115.67456598
 dih4=120.
 hc5=1.14136159
 hco5=115.67456598
 dih5=-120.
 1\1\GINC-MOLMOD\FOpt\RB3LYP\6-31+G(d,p)\C1H3O1(1-)\OSPITE\16-Sep-2024\
 0\\#p B3LYP/6-31+g(d,p) opt\\ch3o- gas\\-1,1\C,0.,0.,0.0911786011\O,0.
 ,0.,1.4322313931\H,1.028674321,0.,-0.4033266355\H,-0.5143371605,-0.890
 8580942,-0.4033266355\H,-0.5143371605,0.8908580942,-0.4033266355\\Vers
 ion=EM64L-G09RevA.02\State=1-A1\HF=-115.1155205\RMSD=3.783e-09\RMSF=7.
 539e-05\Dipole=0.,0.,-0.9921985\Quadrupole=1.1000482,1.1000482,-2.2000
 964,0.,0.,0.\PG=C03V [C3(C1O1),3SGV(H1)]\\@


 Sometimes the fool who rushes in gets the job done.
                                    -- Al Bernstein
 Job cpu time:  0 days  0 hours  0 minutes 52.8 seconds.
 File lengths (MBytes):  RWF=      5 Int=      0 D2E=      0 Chk=      1 Scr=      1
 Normal termination of Gaussian 09 at Mon Sep 16 17:43:07 2024.
