 Entering Gaussian System, Link 0=/programs/64bit/g09/g09-gfortran/bin/g09
 Input=sol.com
 Output=sol.log
 Initial command:
 /programs/64bit/g09/g09-gfortran/bin/l1.exe /home/ospite/Desktop/MMfP/Project10/CH3O-/Gau-24196.inp -scrdir=/home/ospite/Desktop/MMfP/Project10/CH3O-/
 Entering Link 1 = /programs/64bit/g09/g09-gfortran/bin/l1.exe PID=     24197.
  
 Copyright (c) 1988,1990,1992,1993,1995,1998,2003,2009, Gaussian, Inc.
                  All Rights Reserved.
  
 This is part of the Gaussian(R) 09 program.  It is based on
 the Gaussian(R) 03 system (copyright 2003, Gaussian, Inc.),
 the Gaussian(R) 98 system (copyright 1998, Gaussian, Inc.),
 the Gaussian(R) 94 system (copyright 1995, Gaussian, Inc.),
 the Gaussian 92(TM) system (copyright 1992, Gaussian, Inc.),
 the Gaussian 90(TM) system (copyright 1990, Gaussian, Inc.),
 the Gaussian 88(TM) system (copyright 1988, Gaussian, Inc.),
 the Gaussian 86(TM) system (copyright 1986, Carnegie Mellon
 University), and the Gaussian 82(TM) system (copyright 1983,
 Carnegie Mellon University). Gaussian is a federally registered
 trademark of Gaussian, Inc.
  
 This software contains proprietary and confidential information,
 including trade secrets, belonging to Gaussian, Inc.
  
 This software is provided under written license and may be
 used, copied, transmitted, or stored only in accord with that
 written license.
  
 The following legend is applicable only to US Government
 contracts under FAR:
  
                    RESTRICTED RIGHTS LEGEND
  
 Use, reproduction and disclosure by the US Government is
 subject to restrictions as set forth in subparagraphs (a)
 and (c) of the Commercial Computer Software - Restricted
 Rights clause in FAR 52.227-19.
  
 Gaussian, Inc.
 340 Quinnipiac St., Bldg. 40, Wallingford CT 06492
  
  
 ---------------------------------------------------------------
 Warning -- This program may not be used in any manner that
 competes with the business of Gaussian, Inc. or will provide
 assistance to any competitor of Gaussian, Inc.  The licensee
 of this program is prohibited from giving any competitor of
 Gaussian, Inc. access to this program.  By using this program,
 the user acknowledges that Gaussian, Inc. is engaged in the
 business of creating and licensing software in the field of
 computational chemistry and represents and warrants to the
 licensee that it is not a competitor of Gaussian, Inc. and that
 it will not use this program in any manner prohibited above.
 ---------------------------------------------------------------
  

 Cite this work as:
 Gaussian 09, Revision A.02,
 M. J. Frisch, G. W. Trucks, H. B. Schlegel, G. E. Scuseria, 
 M. A. Robb, J. R. Cheeseman, G. Scalmani, V. Barone, B. Mennucci, 
 G. A. Petersson, H. Nakatsuji, M. Caricato, X. Li, H. P. Hratchian, 
 A. F. Izmaylov, J. Bloino, G. Zheng, J. L. Sonnenberg, M. Hada, 
 M. Ehara, K. Toyota, R. Fukuda, J. Hasegawa, M. Ishida, T. Nakajima, 
 Y. Honda, O. Kitao, H. Nakai, T. Vreven, J. A. Montgomery, Jr., 
 J. E. Peralta, F. Ogliaro, M. Bearpark, J. J. Heyd, E. Brothers, 
 K. N. Kudin, V. N. Staroverov, R. Kobayashi, J. Normand, 
 K. Raghavachari, A. Rendell, J. C. Burant, S. S. Iyengar, J. Tomasi, 
 M. Cossi, N. Rega, J. M. Millam, M. Klene, J. E. Knox, J. B. Cross, 
 V. Bakken, C. Adamo, J. Jaramillo, R. Gomperts, R. E. Stratmann, 
 O. Yazyev, A. J. Austin, R. Cammi, C. Pomelli, J. W. Ochterski, 
 R. L. Martin, K. Morokuma, V. G. Zakrzewski, G. A. Voth, 
 P. Salvador, J. J. Dannenberg, S. Dapprich, A. D. Daniels, 
 O. Farkas, J. B. Foresman, J. V. Ortiz, J. Cioslowski, 
 and D. J. Fox, Gaussian, Inc., Wallingford CT, 2009.
 
 ******************************************
 Gaussian 09:  EM64L-G09RevA.02 11-Jun-2009
                16-Sep-2024 
 ******************************************
 %mem=100Mb
 %nprocshared=2
 Will use up to    2 processors via shared memory.
 -------------------------------------------------
 #p B3LYP/6-31+g(d,p) opt scrf=(smd,solvent=water)
 -------------------------------------------------
 1/14=-1,18=20,19=15,26=3,38=1/1,3;
 2/9=110,12=2,17=6,18=5,40=1/2;
 3/5=1,6=6,7=111,11=2,16=1,25=1,30=1,70=32201,71=1,72=1,74=-5/1,2,3;
 4//1;
 5/5=2,38=5,53=1/2;
 6/7=2,8=2,9=2,10=2,28=1/1;
 7//1,2,3,16;
 1/14=-1,18=20,19=15/3(2);
 2/9=110/2;
 99//99;
 2/9=110/2;
 3/5=1,6=6,7=111,11=2,16=1,25=1,30=1,70=32205,71=1,72=1,74=-5/1,2,3;
 4/5=5,16=3/1;
 5/5=2,38=5,53=1/2;
 7//1,2,3,16;
 1/14=-1,18=20,19=15/3(-5);
 2/9=110/2;
 6/7=2,8=2,9=2,10=2,19=2,28=1/1;
 99/9=1/99;
 Leave Link    1 at Mon Sep 16 17:44:00 2024, MaxMem=   13107200 cpu:       0.1
 (Enter /programs/64bit/g09/g09-gfortran/bin/l101.exe)
 --------------
 ch3o- solution
 --------------
 Symbolic Z-matrix:
 Charge = -1 Multiplicity = 1
 c
 o                    1    oc2
 h                    1    hc3      2    hco3
 h                    1    hc4      2    hco4     3    dih4     0
 h                    1    hc5      2    hco5     3    dih5     0
       Variables:
  oc2                   1.38                     
  hc3                   1.07                     
  hco3                109.471                    
  hc4                   1.07                     
  hco4                109.471                    
  dih4                120.                       
  hc5                   1.07                     
  hco5                109.471                    
  dih5                240.                       
 
     3 tetrahedral angles replaced.
 NAtoms=      5 NQM=      5 NQMF=      0 NMic=      0 NMicF=      0 NTot=      5.
                    Isotopes and Nuclear Properties:
 (Nuclear quadrupole moments (NQMom) in fm**2, nuclear magnetic moments (NMagM)
  in nuclear magnetons)

  Atom         1           2           3           4           5
 IAtWgt=          12          16           1           1           1
 AtmWgt=  12.0000000  15.9949146   1.0078250   1.0078250   1.0078250
 NucSpn=           0           0           1           1           1
 AtZEff=   0.0000000   0.0000000   0.0000000   0.0000000   0.0000000
 NQMom=    0.0000000   0.0000000   0.0000000   0.0000000   0.0000000
 NMagM=    0.0000000   0.0000000   2.7928460   2.7928460   2.7928460
 Leave Link  101 at Mon Sep 16 17:44:00 2024, MaxMem=   13107200 cpu:       0.2
 (Enter /programs/64bit/g09/g09-gfortran/bin/l103.exe)

 GradGradGradGradGradGradGradGradGradGradGradGradGradGradGradGradGradGrad
 Berny optimization.
 Initialization pass.
                           ----------------------------
                           !    Initial Parameters    !
                           ! (Angstroms and Degrees)  !
 --------------------------                            --------------------------
 ! Name  Definition              Value          Derivative Info.                !
 --------------------------------------------------------------------------------
 ! R1    R(1,2)                  1.38           estimate D2E/DX2                !
 ! R2    R(1,3)                  1.07           estimate D2E/DX2                !
 ! R3    R(1,4)                  1.07           estimate D2E/DX2                !
 ! R4    R(1,5)                  1.07           estimate D2E/DX2                !
 ! A1    A(2,1,3)              109.4712         estimate D2E/DX2                !
 ! A2    A(2,1,4)              109.4712         estimate D2E/DX2                !
 ! A3    A(2,1,5)              109.4712         estimate D2E/DX2                !
 ! A4    A(3,1,4)              109.4712         estimate D2E/DX2                !
 ! A5    A(3,1,5)              109.4712         estimate D2E/DX2                !
 ! A6    A(4,1,5)              109.4712         estimate D2E/DX2                !
 ! D1    D(2,1,4,3)           -120.0            estimate D2E/DX2                !
 ! D2    D(2,1,5,3)            120.0            estimate D2E/DX2                !
 ! D3    D(2,1,5,4)           -120.0            estimate D2E/DX2                !
 ! D4    D(3,1,5,4)            120.0            estimate D2E/DX2                !
 --------------------------------------------------------------------------------
 Trust Radius=3.00D-01 FncErr=1.00D-07 GrdErr=1.00D-06
 Number of steps in this run=  24 maximum allowed number of steps= 100.
 GradGradGradGradGradGradGradGradGradGradGradGradGradGradGradGradGradGrad

 Leave Link  103 at Mon Sep 16 17:44:00 2024, MaxMem=   13107200 cpu:       0.0
 (Enter /programs/64bit/g09/g09-gfortran/bin/l202.exe)
                          Input orientation:                          
 ---------------------------------------------------------------------
 Center     Atomic      Atomic             Coordinates (Angstroms)
 Number     Number       Type             X           Y           Z
 ---------------------------------------------------------------------
      1          6           0        0.000000    0.000000    0.000000
      2          8           0        0.000000    0.000000    1.380000
      3          1           0        1.008806    0.000000   -0.356667
      4          1           0       -0.504403   -0.873651   -0.356667
      5          1           0       -0.504403    0.873651   -0.356667
 ---------------------------------------------------------------------
                    Distance matrix (angstroms):
                    1          2          3          4          5
     1  C    0.000000
     2  O    1.380000   0.000000
     3  H    1.070000   2.008407   0.000000
     4  H    1.070000   2.008407   1.747303   0.000000
     5  H    1.070000   2.008407   1.747303   1.747303   0.000000
 Stoichiometry    CH3O(1-)
 Framework group  C3V[C3(CO),3SGV(H)]
 Deg. of freedom     3
 Full point group                 C3V     NOp   6
 Largest Abelian subgroup         CS      NOp   2
 Largest concise Abelian subgroup CS      NOp   2
                         Standard orientation:                         
 ---------------------------------------------------------------------
 Center     Atomic      Atomic             Coordinates (Angstroms)
 Number     Number       Type             X           Y           Z
 ---------------------------------------------------------------------
      1          6           0        0.000000    0.000000   -0.586471
      2          8           0        0.000000    0.000000    0.793529
      3          1           0        0.000000    1.008806   -0.943137
      4          1           0        0.873651   -0.504403   -0.943137
      5          1           0       -0.873651   -0.504403   -0.943137
 ---------------------------------------------------------------------
 Rotational constants (GHZ):    164.2463644     27.8082016     27.8082016
 Leave Link  202 at Mon Sep 16 17:44:00 2024, MaxMem=   13107200 cpu:       0.0
 (Enter /programs/64bit/g09/g09-gfortran/bin/l301.exe)
 Standard basis: 6-31+G(d,p) (6D, 7F)
 Ernie: Thresh=  0.10000D-02 Tol=  0.10000D-05 Strict=F.
 There are    37 symmetry adapted basis functions of A'  symmetry.
 There are    16 symmetry adapted basis functions of A"  symmetry.
 Integral buffers will be    131072 words long.
 Raffenetti 2 integral format.
 Two-electron integral symmetry is turned on.
    53 basis functions,    85 primitive gaussians,    53 cartesian basis functions
     9 alpha electrons        9 beta electrons
       nuclear repulsion energy        34.5403160361 Hartrees.
 IExCor=  402 DFT=T Ex+Corr=B3LYP ExCW=0 ScaHFX=  0.200000
 ScaDFX=  0.800000  0.720000  1.000000  0.810000 ScalE2=  1.000000  1.000000
 IRadAn=      0 IRanWt=     -1 IRanGd=            0 ICorTp=0
 NAtoms=    5 NActive=    5 NUniq=    3 SFac= 2.08D+00 NAtFMM=   80 NAOKFM=F Big=F
 ------------------------------------------------------------------------------
 Polarizable Continuum Model (PCM)
 =================================
 Model                : PCM.
 Atomic radii         : SMD-Coulomb.
 Polarization charges : Total charges.
 Charge compensation  : None.
 Solution method      : Matrix inversion.
 Cavity type          : VdW (van der Waals Surface) (Alpha=1.000).
 Cavity algorithm     : GePol (No added spheres)
                        Default sphere list used, NSphG=    5.
                        Lebedev-Laikov grids with approx.  5.0 points / Ang**2.
                        Smoothing algorithm: Karplus/York (Gamma=1.0000).
                        Polarization charges: spherical gaussians, with
                                              point-specific exponents (IZeta= 3).
                        Self-potential: point-specific (ISelfS= 7).
                        Self-field    : sphere-specific E.n sum rule (ISelfD= 2).
 1st derivatives      : Analytical E(r).r(x)/FMM algorithm (CHGder, D1EAlg=3).
                        Cavity 1st derivative terms included.
 Solvent              : Water, Eps=  78.355300 Eps(inf)=   1.777849
 ------------------------------------------------------------------------------
 Spheres list:
 ISph  on   Nord    Re0     Alpha      Xe            Ye            Ze
    1   C      1    1.850   1.000      0.000000      0.000000     -0.586471
    2   O      2    1.520   1.000      0.000000      0.000000      0.793529
    3   H      3    1.200   1.000      0.000000      1.008806     -0.943137
    4   H      4    1.200   1.000      0.873651     -0.504403     -0.943137
    5   H      5    1.200   1.000     -0.873651     -0.504403     -0.943137
 ------------------------------------------------------------------------------
 GePol: Number of generator spheres                  =       5
 GePol: Total number of spheres                      =       5
 GePol: Number of exposed spheres                    =       5 (100.00%)
 GePol: Number of points                             =     435
 GePol: Average weight of points                     =       0.13
 GePol: Minimum weight of points                     =   0.10D-05
 GePol: Maximum weight of points                     =    0.21991
 GePol: Number of points with low weight             =      21
 GePol: Fraction of low-weight points (<1% of avg)   =       4.83%
 GePol: Cavity surface area                          =     56.689 Ang**2
 GePol: Cavity volume                                =     36.552 Ang**3
 ------------------------------------------------------------------------------
 Atomic radii for non-electrostatic terms: SMD-CDS.
 ------------------------------------------------------------------------------
 PCM non-electrostatic energy =         0.0035010907 Hartrees.
 Nuclear repulsion after PCM non-electrostatic terms =       34.5438171268 Hartrees.
 Leave Link  301 at Mon Sep 16 17:44:00 2024, MaxMem=   13107200 cpu:       0.1
 (Enter /programs/64bit/g09/g09-gfortran/bin/l302.exe)
 NPDir=0 NMtPBC=     1 NCelOv=     1 NCel=       1 NClECP=     1 NCelD=      1
         NCelK=      1 NCelE2=     1 NClLst=     1 CellRange=     0.0.
 One-electron integrals computed using PRISM.
 One-electron integral symmetry used in STVInt
 NBasis=    53 RedAO= T  NBF=    37    16
 NBsUse=    53 1.00D-06 NBFU=    37    16
 Precomputing XC quadrature grid using
 IXCGrd= 2 IRadAn=           0 IRanWt=          -1 IRanGd=           0 AccXCQ= 1.00D-10.
 NRdTot=     320 NPtTot=       40158 NUsed=       42476 NTot=       42508
 NSgBfM=    53    53    53    53    53 NAtAll=     5     5.
 Leave Link  302 at Mon Sep 16 17:44:01 2024, MaxMem=   13107200 cpu:       0.3
 (Enter /programs/64bit/g09/g09-gfortran/bin/l303.exe)
 DipDrv:  MaxL=1.
 Leave Link  303 at Mon Sep 16 17:44:01 2024, MaxMem=   13107200 cpu:       0.0
 (Enter /programs/64bit/g09/g09-gfortran/bin/l401.exe)
 Harris functional with IExCor=  402 diagonalized for initial guess.
 ExpMin= 4.38D-02 ExpMax= 5.48D+03 ExpMxC= 8.25D+02 IAcc=2 IRadAn=         0 AccDes= 0.00D+00
 HarFok:  IExCor=  402 AccDes= 0.00D+00 IRadAn=         0 IDoV= 1
 ScaDFX=  1.000000  1.000000  1.000000  1.000000
 FoFCou: FMM=F IPFlag=           0 FMFlag=      100000 FMFlg1=           0
         NFxFlg=           0 DoJE=T BraDBF=F KetDBF=T FulRan=T
         Omega=  0.000000  0.000000  1.000000  0.000000  0.000000 ICntrl=     500 IOpCl=  0
         NMat0=    1 NMatS0=    1 NMatT0=    0 NMatD0=    1 NMtDS0=    0 NMtDT0=    0
         I1Cent=           4 NGrid=           0.
 Petite list used in FoFCou.
 Harris En= -115.365385239699    
 Initial guess orbital symmetries:
       Occupied  (A1) (A1) (A1) (A1) (E) (E) (A1) (E) (E)
       Virtual   (A1) (A1) (E) (E) (A1) (E) (E) (A1) (E) (E) (A1)
                 (A1) (E) (E) (A1) (E) (E) (A1) (E) (E) (A1) (A1)
                 (E) (E) (A1) (E) (E) (E) (E) (A2) (A1) (E) (E)
                 (E) (E) (A1) (A1) (E) (E) (A1) (E) (E) (A1) (A1)
 The electronic state of the initial guess is 1-A1.
 Leave Link  401 at Mon Sep 16 17:44:02 2024, MaxMem=   13107200 cpu:       0.9
 (Enter /programs/64bit/g09/g09-gfortran/bin/l502.exe)
 Closed shell SCF:
 Requested convergence on RMS density matrix=1.00D-08 within 128 cycles.
 Requested convergence on MAX density matrix=1.00D-06.
 Requested convergence on             energy=1.00D-06.
 No special actions if energy rises.
 Using DIIS extrapolation, IDIIS=  1040.
 Integral symmetry usage will be decided dynamically.
        42418 words used for storage of precomputed grid.
 Keep R1 ints in memory in canonical form, NReq=4206102.
 IEnd=       69857 IEndB=       69857 NGot=    13107200 MDV=    12032222
 LenX=    12032222 LenY=    12028972
 Symmetry not used in FoFDir.
 MinBra= 0 MaxBra= 2 Meth= 1.
 IRaf=       0 NMat=   1 IRICut=       1 DoRegI=T DoRafI=F ISym2E= 0 JSym2E=0.

 Cycle   1  Pass 1  IDiag  1:
 E= -115.048053544559    
 DIIS: error= 5.27D-02 at cycle   1 NSaved=   1.
 NSaved= 1 IEnMin= 1 EnMin= -115.048053544559     IErMin= 1 ErrMin= 5.27D-02
 ErrMax= 5.27D-02 EMaxC= 1.00D-01 BMatC= 1.98D-01 BMatP= 1.98D-01
 IDIUse=3 WtCom= 4.73D-01 WtEn= 5.27D-01
 Coeff-Com:  0.100D+01
 Coeff-En:   0.100D+01
 Coeff:      0.100D+01
 Gap=     0.013 Goal=   None    Shift=    0.000
 GapD=    0.013 DampG=0.250 DampE=0.500 DampFc=0.2500 IDamp=-1.
 Damping current iteration by 2.50D-01
 RMSDP=2.40D-02 MaxDP=3.48D-01              OVMax= 4.25D-01

 Cycle   2  Pass 1  IDiag  1:
 E= -115.106030698602     Delta-E=       -0.057977154043 Rises=F Damp=T
 DIIS: error= 1.65D-02 at cycle   2 NSaved=   2.
 NSaved= 2 IEnMin= 2 EnMin= -115.106030698602     IErMin= 2 ErrMin= 1.65D-02
 ErrMax= 1.65D-02 EMaxC= 1.00D-01 BMatC= 1.82D-02 BMatP= 1.98D-01
 IDIUse=3 WtCom= 8.35D-01 WtEn= 1.65D-01
 Coeff-Com: -0.299D+00 0.130D+01
 Coeff-En:   0.948D-01 0.905D+00
 Coeff:     -0.234D+00 0.123D+01
 Gap=     0.189 Goal=   None    Shift=    0.000
 RMSDP=4.06D-03 MaxDP=4.95D-02 DE=-5.80D-02 OVMax= 3.01D-01

 Cycle   3  Pass 1  IDiag  1:
 E= -115.230836058188     Delta-E=       -0.124805359585 Rises=F Damp=F
 DIIS: error= 1.20D-02 at cycle   3 NSaved=   3.
 NSaved= 3 IEnMin= 3 EnMin= -115.230836058188     IErMin= 3 ErrMin= 1.20D-02
 ErrMax= 1.20D-02 EMaxC= 1.00D-01 BMatC= 9.98D-03 BMatP= 1.82D-02
 IDIUse=3 WtCom= 8.80D-01 WtEn= 1.20D-01
 Coeff-Com: -0.207D+00 0.714D+00 0.493D+00
 Coeff-En:   0.000D+00 0.000D+00 0.100D+01
 Coeff:     -0.182D+00 0.629D+00 0.554D+00
 Gap=     0.225 Goal=   None    Shift=    0.000
 RMSDP=1.52D-03 MaxDP=2.40D-02 DE=-1.25D-01 OVMax= 2.89D-02

 Cycle   4  Pass 1  IDiag  1:
 E= -115.238580192363     Delta-E=       -0.007744134175 Rises=F Damp=F
 DIIS: error= 3.09D-03 at cycle   4 NSaved=   4.
 NSaved= 4 IEnMin= 4 EnMin= -115.238580192363     IErMin= 4 ErrMin= 3.09D-03
 ErrMax= 3.09D-03 EMaxC= 1.00D-01 BMatC= 7.31D-04 BMatP= 9.98D-03
 IDIUse=3 WtCom= 9.69D-01 WtEn= 3.09D-02
 Coeff-Com: -0.747D-01 0.136D+00 0.206D+00 0.732D+00
 Coeff-En:   0.000D+00 0.000D+00 0.000D+00 0.100D+01
 Coeff:     -0.724D-01 0.132D+00 0.200D+00 0.741D+00
 Gap=     0.221 Goal=   None    Shift=    0.000
 RMSDP=4.70D-04 MaxDP=6.81D-03 DE=-7.74D-03 OVMax= 8.03D-03

 Cycle   5  Pass 1  IDiag  1:
 E= -115.239319016079     Delta-E=       -0.000738823716 Rises=F Damp=F
 DIIS: error= 5.85D-04 at cycle   5 NSaved=   5.
 NSaved= 5 IEnMin= 5 EnMin= -115.239319016079     IErMin= 5 ErrMin= 5.85D-04
 ErrMax= 5.85D-04 EMaxC= 1.00D-01 BMatC= 1.95D-05 BMatP= 7.31D-04
 IDIUse=3 WtCom= 9.94D-01 WtEn= 5.85D-03
 Coeff-Com: -0.135D-01 0.101D-01 0.256D-02 0.121D+00 0.880D+00
 Coeff-En:   0.000D+00 0.000D+00 0.000D+00 0.000D+00 0.100D+01
 Coeff:     -0.134D-01 0.100D-01 0.255D-02 0.121D+00 0.880D+00
 Gap=     0.220 Goal=   None    Shift=    0.000
 RMSDP=8.57D-05 MaxDP=8.47D-04 DE=-7.39D-04 OVMax= 1.15D-03

 Cycle   6  Pass 1  IDiag  1:
 E= -115.239334356283     Delta-E=       -0.000015340204 Rises=F Damp=F
 DIIS: error= 3.35D-05 at cycle   6 NSaved=   6.
 NSaved= 6 IEnMin= 6 EnMin= -115.239334356283     IErMin= 6 ErrMin= 3.35D-05
 ErrMax= 3.35D-05 EMaxC= 1.00D-01 BMatC= 9.42D-08 BMatP= 1.95D-05
 IDIUse=1 WtCom= 1.00D+00 WtEn= 0.00D+00
 Coeff-Com: -0.726D-03 0.678D-03-0.372D-02-0.318D-02 0.829D-01 0.924D+00
 Coeff:     -0.726D-03 0.678D-03-0.372D-02-0.318D-02 0.829D-01 0.924D+00
 Gap=     0.220 Goal=   None    Shift=    0.000
 RMSDP=7.80D-06 MaxDP=7.43D-05 DE=-1.53D-05 OVMax= 1.39D-04

 Cycle   7  Pass 1  IDiag  1:
 E= -115.239334401513     Delta-E=       -0.000000045230 Rises=F Damp=F
 DIIS: error= 1.34D-05 at cycle   7 NSaved=   7.
 NSaved= 7 IEnMin= 7 EnMin= -115.239334401513     IErMin= 7 ErrMin= 1.34D-05
 ErrMax= 1.34D-05 EMaxC= 1.00D-01 BMatC= 1.23D-08 BMatP= 9.42D-08
 IDIUse=1 WtCom= 1.00D+00 WtEn= 0.00D+00
 Coeff-Com: -0.908D-04 0.229D-03-0.430D-03-0.101D-02-0.124D-01-0.350D-01
 Coeff-Com:  0.105D+01
 Coeff:     -0.908D-04 0.229D-03-0.430D-03-0.101D-02-0.124D-01-0.350D-01
 Coeff:      0.105D+01
 Gap=     0.220 Goal=   None    Shift=    0.000
 RMSDP=2.56D-06 MaxDP=2.22D-05 DE=-4.52D-08 OVMax= 3.83D-05

 Cycle   8  Pass 1  IDiag  1:
 E= -115.239334406091     Delta-E=       -0.000000004578 Rises=F Damp=F
 DIIS: error= 2.27D-06 at cycle   8 NSaved=   8.
 NSaved= 8 IEnMin= 8 EnMin= -115.239334406091     IErMin= 8 ErrMin= 2.27D-06
 ErrMax= 2.27D-06 EMaxC= 1.00D-01 BMatC= 5.40D-10 BMatP= 1.23D-08
 IDIUse=1 WtCom= 1.00D+00 WtEn= 0.00D+00
 Coeff-Com: -0.265D-04 0.383D-04-0.143D-06-0.640D-04-0.314D-02-0.278D-01
 Coeff-Com:  0.537D-01 0.977D+00
 Coeff:     -0.265D-04 0.383D-04-0.143D-06-0.640D-04-0.314D-02-0.278D-01
 Coeff:      0.537D-01 0.977D+00
 Gap=     0.220 Goal=   None    Shift=    0.000
 RMSDP=4.70D-07 MaxDP=4.48D-06 DE=-4.58D-09 OVMax= 6.84D-06

 Cycle   9  Pass 1  IDiag  1:
 E= -115.239334405713     Delta-E=        0.000000000378 Rises=F Damp=F
 DIIS: error= 1.61D-06 at cycle   9 NSaved=   9.
 NSaved= 9 IEnMin= 8 EnMin= -115.239334406091     IErMin= 9 ErrMin= 1.61D-06
 ErrMax= 1.61D-06 EMaxC= 1.00D-01 BMatC= 1.04D-10 BMatP= 5.40D-10
 IDIUse=1 WtCom= 1.00D+00 WtEn= 0.00D+00
 Coeff-Com: -0.201D-05 0.186D-05-0.265D-05-0.807D-05 0.153D-03 0.160D-02
 Coeff-Com: -0.845D-02-0.641D-01 0.107D+01
 Coeff:     -0.201D-05 0.186D-05-0.265D-05-0.807D-05 0.153D-03 0.160D-02
 Coeff:     -0.845D-02-0.641D-01 0.107D+01
 Gap=     0.220 Goal=   None    Shift=    0.000
 RMSDP=4.20D-08 MaxDP=4.16D-07 DE= 3.78D-10 OVMax= 6.27D-07

 Cycle  10  Pass 1  IDiag  1:
 E= -115.239334405657     Delta-E=        0.000000000056 Rises=F Damp=F
 DIIS: error= 1.61D-06 at cycle  10 NSaved=  10.
 NSaved=10 IEnMin= 8 EnMin= -115.239334406091     IErMin= 9 ErrMin= 1.61D-06
 ErrMax= 1.61D-06 EMaxC= 1.00D-01 BMatC= 1.00D-10 BMatP= 1.04D-10
 IDIUse=1 WtCom= 1.00D+00 WtEn= 0.00D+00
 Coeff-Com: -0.211D-06 0.360D-06-0.337D-06-0.255D-06 0.194D-04 0.225D-03
 Coeff-Com: -0.352D-03-0.897D-02 0.406D-01 0.968D+00
 Coeff:     -0.211D-06 0.360D-06-0.337D-06-0.255D-06 0.194D-04 0.225D-03
 Coeff:     -0.352D-03-0.897D-02 0.406D-01 0.968D+00
 Gap=     0.220 Goal=   None    Shift=    0.000
 RMSDP=1.45D-09 MaxDP=1.98D-08 DE= 5.55D-11 OVMax= 2.74D-08

 Error on total polarization charges =  0.06865
 SCF Done:  E(RB3LYP) =  -115.239334406     A.U. after   10 cycles
             Convg  =    0.1445D-08             -V/T =  2.0080
 KE= 1.143196390202D+02 PE=-3.447084496337D+02 EE= 8.060565908101D+01
 SMD-CDS (non-electrostatic) energy             (kcal/mol) =       2.20
 (included in total energy above)
 Leave Link  502 at Mon Sep 16 17:44:12 2024, MaxMem=   13107200 cpu:      10.8
 (Enter /programs/64bit/g09/g09-gfortran/bin/l601.exe)
 Copying SCF densities to generalized density rwf, IOpCl= 0 IROHF=0.

 **********************************************************************

            Population analysis using the SCF density.

 **********************************************************************

 Orbital symmetries:
       Occupied  (A1) (A1) (A1) (A1) (E) (E) (A1) (E) (E)
       Virtual   (A1) (A1) (E) (E) (A1) (E) (E) (E) (E) (A1) (A1)
                 (A1) (E) (E) (A1) (E) (E) (A1) (A1) (E) (E) (A1)
                 (E) (E) (A1) (E) (E) (E) (E) (A2) (A1) (E) (E)
                 (E) (E) (A1) (A1) (E) (E) (A1) (E) (E) (A1) (A1)
 The electronic state is 1-A1.
 Alpha  occ. eigenvalues --  -19.04416 -10.17529  -0.89624  -0.61151  -0.40487
 Alpha  occ. eigenvalues --   -0.40486  -0.34024  -0.19354  -0.19354
 Alpha virt. eigenvalues --    0.02651   0.04564   0.06531   0.06531   0.17102
 Alpha virt. eigenvalues --    0.21523   0.21524   0.23340   0.23340   0.25058
 Alpha virt. eigenvalues --    0.32088   0.34085   0.67323   0.67323   0.69961
 Alpha virt. eigenvalues --    0.92958   0.92959   1.07847   1.20740   1.22855
 Alpha virt. eigenvalues --    1.22855   1.31334   1.42983   1.42984   1.60307
 Alpha virt. eigenvalues --    1.85581   1.85582   2.05319   2.05319   2.07327
 Alpha virt. eigenvalues --    2.14128   2.16320   2.16320   2.64894   2.64894
 Alpha virt. eigenvalues --    2.67602   2.92281   2.96323   2.96324   3.32468
 Alpha virt. eigenvalues --    3.49974   3.49974   4.11025   4.51207
          Condensed to atoms (all electrons):
              1          2          3          4          5
     1  C    4.861621   0.026651   0.422801   0.422801   0.422801
     2  O    0.026651   9.372156  -0.097291  -0.097291  -0.097291
     3  H    0.422801  -0.097291   0.690684  -0.052032  -0.052032
     4  H    0.422801  -0.097291  -0.052032   0.690684  -0.052032
     5  H    0.422801  -0.097291  -0.052032  -0.052032   0.690684
 Mulliken atomic charges:
              1
     1  C   -0.156675
     2  O   -1.106934
     3  H    0.087870
     4  H    0.087870
     5  H    0.087870
 Sum of Mulliken atomic charges =  -1.00000
 Mulliken charges with hydrogens summed into heavy atoms:
              1
     1  C    0.106934
     2  O   -1.106934
 Sum of Mulliken charges with hydrogens summed into heavy atoms =  -1.00000
 Electronic spatial extent (au):  <R**2>=             85.4204
 Charge=             -1.0000 electrons
 Dipole moment (field-independent basis, Debye):
    X=              0.0000    Y=             -0.0000    Z=             -4.9508  Tot=              4.9508
 Quadrupole moment (field-independent basis, Debye-Ang):
   XX=            -16.1031   YY=            -16.1031   ZZ=            -21.0967
   XY=             -0.0000   XZ=             -0.0000   YZ=             -0.0000
 Traceless Quadrupole moment (field-independent basis, Debye-Ang):
   XX=              1.6646   YY=              1.6646   ZZ=             -3.3291
   XY=             -0.0000   XZ=             -0.0000   YZ=             -0.0000
 Octapole moment (field-independent basis, Debye-Ang**2):
  XXX=             -0.0000  YYY=              0.2453  ZZZ=             -5.1818  XYY=              0.0000
  XXY=             -0.2453  XXZ=             -1.4582  XZZ=             -0.0000  YZZ=             -0.0000
  YYZ=             -1.4582  XYZ=             -0.0000
 Hexadecapole moment (field-independent basis, Debye-Ang**3):
 XXXX=            -27.1588 YYYY=            -27.1588 ZZZZ=            -80.1302 XXXY=              0.0000
 XXXZ=             -0.0000 YYYX=              0.0000 YYYZ=             -0.0605 ZZZX=             -0.0000
 ZZZY=             -0.0000 XXYY=             -9.0529 XXZZ=            -18.8436 YYZZ=            -18.8436
 XXYZ=              0.0605 YYXZ=             -0.0000 ZZXY=              0.0000
 N-N= 3.454381712678D+01 E-N=-3.447084490943D+02  KE= 1.143196390202D+02
 Symmetry A'   KE= 1.081942431199D+02
 Symmetry A"   KE= 6.125395900329D+00
 No NMR shielding tensors so no spin-rotation constants.
 Leave Link  601 at Mon Sep 16 17:44:13 2024, MaxMem=   13107200 cpu:       0.2
 (Enter /programs/64bit/g09/g09-gfortran/bin/l701.exe)
 Compute integral first derivatives.
 ... and contract with generalized density number  0.
 D1PCM: PCM CHGder 1st derivatives, ID1Alg=3 FixD1E=F DoIter=F DoCFld=F I1PDM=0.
 GePol: Maximum number of non-zero 1st derivatives   =     280
 Leave Link  701 at Mon Sep 16 17:44:14 2024, MaxMem=   13107200 cpu:       1.1
 (Enter /programs/64bit/g09/g09-gfortran/bin/l702.exe)
 L702 exits ... SP integral derivatives will be done elsewhere.
 Leave Link  702 at Mon Sep 16 17:44:14 2024, MaxMem=   13107200 cpu:       0.0
 (Enter /programs/64bit/g09/g09-gfortran/bin/l703.exe)
 Compute integral first derivatives, UseDBF=F ICtDFT=           0.
 Integral derivatives from FoFDir, PRISM(SPDF).
 Calling FoFJK, ICntrl=      2127 FMM=F ISym2X=1 I1Cent= 0 IOpClX= 0 NMat=1 NMatS=1 NMatT=0.
 FoFCou: FMM=F IPFlag=           0 FMFlag=      100000 FMFlg1=         800
         NFxFlg=           0 DoJE=F BraDBF=F KetDBF=F FulRan=T
         Omega=  0.000000  0.000000  1.000000  0.000000  0.000000 ICntrl=    2127 IOpCl=  0
         NMat0=    1 NMatS0=    1 NMatT0=    0 NMatD0=    1 NMtDS0=    0 NMtDT0=    0
         I1Cent=           0 NGrid=           0.
 Petite list used in FoFCou.
 Leave Link  703 at Mon Sep 16 17:44:16 2024, MaxMem=   13107200 cpu:       2.2
 (Enter /programs/64bit/g09/g09-gfortran/bin/l716.exe)
 Dipole        = 0.00000000D+00-2.22044605D-16-1.94780520D+00
 ***** Axes restored to original set *****
 -------------------------------------------------------------------
 Center     Atomic                   Forces (Hartrees/Bohr)
 Number     Number              X              Y              Z
 -------------------------------------------------------------------
      1        6           0.000020055    0.000000000    0.014091841
      2        8          -0.000080246    0.000000000    0.043327925
      3        1           0.021142472   -0.000000000   -0.019117169
      4        1          -0.010541140   -0.018253607   -0.019151298
      5        1          -0.010541140    0.018253607   -0.019151298
 -------------------------------------------------------------------
 Cartesian Forces:  Max     0.043327925 RMS     0.017340762
 Leave Link  716 at Mon Sep 16 17:44:16 2024, MaxMem=   13107200 cpu:       0.0
 (Enter /programs/64bit/g09/g09-gfortran/bin/l103.exe)

 GradGradGradGradGradGradGradGradGradGradGradGradGradGradGradGradGradGrad
 Berny optimization.
 Internal  Forces:  Max     0.043327925 RMS     0.017435264
 Search for a local minimum.
 Step number   1 out of a maximum of   24
 All quantities printed in internal units (Hartrees-Bohrs-Radians)
 RMS Force = .17435D-01 SwitMx=.10000D-02 MixMth= 1
 Mixed Optimization -- RFO/linear search
 Second derivative matrix not updated -- first step.
 The second derivative matrix:
                          R1        R2        R3        R4        A1
           R1           0.49102
           R2           0.00000   0.37230
           R3           0.00000   0.00000   0.37230
           R4           0.00000   0.00000   0.00000   0.37230
           A1           0.00000   0.00000   0.00000   0.00000   0.16000
           A2           0.00000   0.00000   0.00000   0.00000   0.00000
           A3           0.00000   0.00000   0.00000   0.00000   0.00000
           A4           0.00000   0.00000   0.00000   0.00000   0.00000
           A5           0.00000   0.00000   0.00000   0.00000   0.00000
           A6           0.00000   0.00000   0.00000   0.00000   0.00000
           D1           0.00000   0.00000   0.00000   0.00000   0.00000
           D2           0.00000   0.00000   0.00000   0.00000   0.00000
           D3           0.00000   0.00000   0.00000   0.00000   0.00000
           D4           0.00000   0.00000   0.00000   0.00000   0.00000
                          A2        A3        A4        A5        A6
           A2           0.16000
           A3           0.00000   0.16000
           A4           0.00000   0.00000   0.16000
           A5           0.00000   0.00000   0.00000   0.16000
           A6           0.00000   0.00000   0.00000   0.00000   0.16000
           D1           0.00000   0.00000   0.00000   0.00000   0.00000
           D2           0.00000   0.00000   0.00000   0.00000   0.00000
           D3           0.00000   0.00000   0.00000   0.00000   0.00000
           D4           0.00000   0.00000   0.00000   0.00000   0.00000
                          D1        D2        D3        D4
           D1           0.00499
           D2           0.00000   0.00499
           D3           0.00000   0.00000   0.00499
           D4           0.00000   0.00000   0.00000   0.00499
     Eigenvalues ---    0.05269   0.05891   0.08766   0.16000   0.16000
     Eigenvalues ---    0.37230   0.37230   0.37230   0.491021000.00000
     Eigenvalues --- 1000.000001000.000001000.000001000.00000
 RFO step:  Lambda=-1.27661108D-02 EMin= 5.26880965D-02
 Linear search not attempted -- first point.
 Iteration  1 RMS(Cart)=  0.05401280 RMS(Int)=  0.00413574
 Iteration  2 RMS(Cart)=  0.00263224 RMS(Int)=  0.00242132
 Iteration  3 RMS(Cart)=  0.00001087 RMS(Int)=  0.00242129
 Iteration  4 RMS(Cart)=  0.00000005 RMS(Int)=  0.00242129
 ClnCor:  largest displacement from symmetrization is 6.75D-03 for atom     5.
 Variable       Old X    -DE/DX   Delta X   Delta X   Delta X     New X
                                 (Linear)    (Quad)   (Total)
    R1        2.60782   0.04333   0.00000   0.08600   0.08600   2.69382
    R2        2.02201   0.02630   0.00000   0.06831   0.06777   2.08978
    R3        2.02201   0.02626   0.00000   0.06819   0.06777   2.08978
    R4        2.02201   0.02626   0.00000   0.06819   0.06777   2.08978
    A1        1.91063   0.00247   0.00000   0.05114   0.05416   1.96479
    A2        1.91063   0.00385   0.00000   0.05447   0.05416   1.96479
    A3        1.91063   0.00751   0.00000   0.05885   0.05416   1.96479
    A4        1.91063  -0.00099   0.00000  -0.04926  -0.05713   1.85350
    A5        1.91063  -0.00602   0.00000  -0.05736  -0.05713   1.85350
    A6        1.91063  -0.00681   0.00000  -0.05784  -0.05713   1.85350
    D1       -2.09440  -0.00477   0.00000  -0.06582  -0.06318  -2.15758
    D2        2.09440   0.00393   0.00000   0.06355   0.06318   2.15758
    D3       -2.09440  -0.00514   0.00000  -0.06733  -0.06318  -2.15758
    D4        2.09440  -0.00907   0.00000  -0.13088  -0.12636   1.96803
         Item               Value     Threshold  Converged?
 Maximum Force            0.043328     0.000450     NO 
 RMS     Force            0.017435     0.000300     NO 
 Maximum Displacement     0.147490     0.001800     NO 
 RMS     Displacement     0.053800     0.001200     NO 
 Predicted change in Energy=-6.688152D-03
 GradGradGradGradGradGradGradGradGradGradGradGradGradGradGradGradGradGrad

 Leave Link  103 at Mon Sep 16 17:44:16 2024, MaxMem=   13107200 cpu:       0.0
 (Enter /programs/64bit/g09/g09-gfortran/bin/l202.exe)
                          Input orientation:                          
 ---------------------------------------------------------------------
 Center     Atomic      Atomic             Coordinates (Angstroms)
 Number     Number       Type             X           Y           Z
 ---------------------------------------------------------------------
      1          6           0       -0.000000   -0.000000    0.032538
      2          8           0        0.000000   -0.000000    1.458048
      3          1           0        1.021133   -0.000000   -0.391981
      4          1           0       -0.510567   -0.884327   -0.391981
      5          1           0       -0.510567    0.884327   -0.391981
 ---------------------------------------------------------------------
                    Distance matrix (angstroms):
                    1          2          3          4          5
     1  C    0.000000
     2  O    1.425510   0.000000
     3  H    1.105861   2.113131   0.000000
     4  H    1.105861   2.113131   1.768654   0.000000
     5  H    1.105861   2.113131   1.768654   1.768654   0.000000
 Stoichiometry    CH3O(1-)
 Framework group  C3V[C3(CO),3SGV(H)]
 Deg. of freedom     3
 Full point group                 C3V     NOp   6
 Largest Abelian subgroup         CS      NOp   2
 Largest concise Abelian subgroup CS      NOp   2
                         Standard orientation:                         
 ---------------------------------------------------------------------
 Center     Atomic      Atomic             Coordinates (Angstroms)
 Number     Number       Type             X           Y           Z
 ---------------------------------------------------------------------
      1          6           0        0.000000    0.000000   -0.595913
      2          8           0        0.000000    0.000000    0.829597
      3          1           0        0.000000    1.021133   -1.020432
      4          1           0        0.884327   -0.510567   -1.020432
      5          1           0       -0.884327   -0.510567   -1.020432
 ---------------------------------------------------------------------
 Rotational constants (GHZ):    160.3046341     25.6569409     25.6569409
 Leave Link  202 at Mon Sep 16 17:44:16 2024, MaxMem=   13107200 cpu:       0.0
 (Enter /programs/64bit/g09/g09-gfortran/bin/l301.exe)
 Standard basis: 6-31+G(d,p) (6D, 7F)
 Ernie: Thresh=  0.10000D-02 Tol=  0.10000D-05 Strict=F.
 There are    37 symmetry adapted basis functions of A'  symmetry.
 There are    16 symmetry adapted basis functions of A"  symmetry.
 Integral buffers will be    131072 words long.
 Raffenetti 2 integral format.
 Two-electron integral symmetry is turned on.
    53 basis functions,    85 primitive gaussians,    53 cartesian basis functions
     9 alpha electrons        9 beta electrons
       nuclear repulsion energy        33.3396566788 Hartrees.
 IExCor=  402 DFT=T Ex+Corr=B3LYP ExCW=0 ScaHFX=  0.200000
 ScaDFX=  0.800000  0.720000  1.000000  0.810000 ScalE2=  1.000000  1.000000
 IRadAn=      0 IRanWt=     -1 IRanGd=            0 ICorTp=0
 NAtoms=    5 NActive=    5 NUniq=    3 SFac= 2.08D+00 NAtFMM=   80 NAOKFM=F Big=F
 ------------------------------------------------------------------------------
 Polarizable Continuum Model (PCM)
 =================================
 Model                : PCM.
 Atomic radii         : SMD-Coulomb.
 Polarization charges : Total charges.
 Charge compensation  : None.
 Solution method      : Matrix inversion.
 Cavity type          : VdW (van der Waals Surface) (Alpha=1.000).
 Cavity algorithm     : GePol (No added spheres)
                        Default sphere list used, NSphG=    5.
                        Lebedev-Laikov grids with approx.  5.0 points / Ang**2.
                        Smoothing algorithm: Karplus/York (Gamma=1.0000).
                        Polarization charges: spherical gaussians, with
                                              point-specific exponents (IZeta= 3).
                        Self-potential: point-specific (ISelfS= 7).
                        Self-field    : sphere-specific E.n sum rule (ISelfD= 2).
 1st derivatives      : Analytical E(r).r(x)/FMM algorithm (CHGder, D1EAlg=3).
                        Cavity 1st derivative terms included.
 Solvent              : Water, Eps=  78.355300 Eps(inf)=   1.777849
 ------------------------------------------------------------------------------
 Spheres list:
 ISph  on   Nord    Re0     Alpha      Xe            Ye            Ze
    1   C      1    1.850   1.000     -0.000000      0.000000     -0.595913
    2   O      2    1.520   1.000      0.000000      0.000000      0.829597
    3   H      3    1.200   1.000      0.000000      1.021133     -1.020432
    4   H      4    1.200   1.000      0.884327     -0.510567     -1.020432
    5   H      5    1.200   1.000     -0.884327     -0.510567     -1.020432
 ------------------------------------------------------------------------------
 GePol: Number of generator spheres                  =       5
 GePol: Total number of spheres                      =       5
 GePol: Number of exposed spheres                    =       5 (100.00%)
 GePol: Number of points                             =     434
 GePol: Average weight of points                     =       0.13
 GePol: Minimum weight of points                     =   0.92D-05
 GePol: Maximum weight of points                     =    0.21991
 GePol: Number of points with low weight             =      12
 GePol: Fraction of low-weight points (<1% of avg)   =       2.76%
 GePol: Cavity surface area                          =     57.852 Ang**2
 GePol: Cavity volume                                =     37.337 Ang**3
 ------------------------------------------------------------------------------
 Atomic radii for non-electrostatic terms: SMD-CDS.
 ------------------------------------------------------------------------------
 PCM non-electrostatic energy =         0.0031000747 Hartrees.
 Nuclear repulsion after PCM non-electrostatic terms =       33.3427567535 Hartrees.
 Leave Link  301 at Mon Sep 16 17:44:16 2024, MaxMem=   13107200 cpu:       0.1
 (Enter /programs/64bit/g09/g09-gfortran/bin/l302.exe)
 NPDir=0 NMtPBC=     1 NCelOv=     1 NCel=       1 NClECP=     1 NCelD=      1
         NCelK=      1 NCelE2=     1 NClLst=     1 CellRange=     0.0.
 One-electron integrals computed using PRISM.
 One-electron integral symmetry used in STVInt
 NBasis=    53 RedAO= T  NBF=    37    16
 NBsUse=    53 1.00D-06 NBFU=    37    16
 Precomputing XC quadrature grid using
 IXCGrd= 2 IRadAn=           0 IRanWt=          -1 IRanGd=           0 AccXCQ= 1.00D-10.
 NRdTot=     320 NPtTot=       40596 NUsed=       42914 NTot=       42946
 NSgBfM=    53    53    53    53    53 NAtAll=     5     5.
 Leave Link  302 at Mon Sep 16 17:44:17 2024, MaxMem=   13107200 cpu:       0.3
 (Enter /programs/64bit/g09/g09-gfortran/bin/l303.exe)
 DipDrv:  MaxL=1.
 Leave Link  303 at Mon Sep 16 17:44:17 2024, MaxMem=   13107200 cpu:       0.0
 (Enter /programs/64bit/g09/g09-gfortran/bin/l401.exe)
 Initial guess read from the read-write file.
 B after Tr=     0.000000    0.000000    0.000000
         Rot=    1.000000    0.000000    0.000000    0.000000 Ang=   0.00 deg.
 Guess basis will be translated and rotated to current coordinates.
 Initial guess orbital symmetries:
       Occupied  (A1) (A1) (A1) (A1) (E) (E) (A1) (E) (E)
       Virtual   (A1) (A1) (E) (E) (A1) (E) (E) (E) (E) (A1) (A1)
                 (A1) (E) (E) (A1) (E) (E) (A1) (A1) (E) (E) (A1)
                 (E) (E) (A1) (E) (E) (E) (E) (A2) (A1) (E) (E)
                 (E) (E) (A1) (A1) (E) (E) (A1) (E) (E) (A1) (A1)
 The electronic state of the initial guess is 1-A1.
 Generating alternative initial guess.
 Harris functional with IExCor=  402 diagonalized for initial guess.
 ExpMin= 4.38D-02 ExpMax= 5.48D+03 ExpMxC= 8.25D+02 IAcc=2 IRadAn=         0 AccDes= 0.00D+00
 HarFok:  IExCor=  402 AccDes= 0.00D+00 IRadAn=         0 IDoV= 1
 ScaDFX=  1.000000  1.000000  1.000000  1.000000
 FoFCou: FMM=F IPFlag=           0 FMFlag=      100000 FMFlg1=           0
         NFxFlg=           0 DoJE=T BraDBF=F KetDBF=T FulRan=T
         Omega=  0.000000  0.000000  1.000000  0.000000  0.000000 ICntrl=     500 IOpCl=  0
         NMat0=    1 NMatS0=    1 NMatT0=    0 NMatD0=    1 NMtDS0=    0 NMtDT0=    0
         I1Cent=           4 NGrid=           0.
 Petite list used in FoFCou.
 Harris En= -115.356603273484    
 Leave Link  401 at Mon Sep 16 17:44:18 2024, MaxMem=   13107200 cpu:       1.0
 (Enter /programs/64bit/g09/g09-gfortran/bin/l502.exe)
 Closed shell SCF:
 Requested convergence on RMS density matrix=1.00D-08 within 128 cycles.
 Requested convergence on MAX density matrix=1.00D-06.
 Requested convergence on             energy=1.00D-06.
 No special actions if energy rises.
 Using DIIS extrapolation, IDIIS=  1040.
 Integral symmetry usage will be decided dynamically.
        42856 words used for storage of precomputed grid.
 Keep R1 ints in memory in canonical form, NReq=4205510.
 IEnd=       70295 IEndB=       70295 NGot=    13107200 MDV=    12031784
 LenX=    12031784 LenY=    12028534
 Symmetry not used in FoFDir.
 MinBra= 0 MaxBra= 2 Meth= 1.
 IRaf=       0 NMat=   1 IRICut=       1 DoRegI=T DoRafI=F ISym2E= 0 JSym2E=0.

 Cycle   1  Pass 1  IDiag  1:
 E= -115.243810774967    
 DIIS: error= 3.63D-03 at cycle   1 NSaved=   1.
 NSaved= 1 IEnMin= 1 EnMin= -115.243810774967     IErMin= 1 ErrMin= 3.63D-03
 ErrMax= 3.63D-03 EMaxC= 1.00D-01 BMatC= 1.17D-03 BMatP= 1.17D-03
 IDIUse=3 WtCom= 9.64D-01 WtEn= 3.63D-02
 Coeff-Com:  0.100D+01
 Coeff-En:   0.100D+01
 Coeff:      0.100D+01
 Gap=     0.229 Goal=   None    Shift=    0.000
 GapD=    0.229 DampG=1.000 DampE=1.000 DampFc=1.0000 IDamp=-1.
 RMSDP=8.61D-04 MaxDP=1.07D-02              OVMax= 1.59D-02

 Cycle   2  Pass 1  IDiag  1:
 E= -115.244711532380     Delta-E=       -0.000900757413 Rises=F Damp=F
 DIIS: error= 3.55D-03 at cycle   2 NSaved=   2.
 NSaved= 2 IEnMin= 2 EnMin= -115.244711532380     IErMin= 2 ErrMin= 3.55D-03
 ErrMax= 3.55D-03 EMaxC= 1.00D-01 BMatC= 6.52D-04 BMatP= 1.17D-03
 IDIUse=3 WtCom= 9.64D-01 WtEn= 3.55D-02
 Coeff-Com:  0.401D+00 0.599D+00
 Coeff-En:   0.000D+00 0.100D+01
 Coeff:      0.387D+00 0.613D+00
 Gap=     0.223 Goal=   None    Shift=    0.000
 RMSDP=5.22D-04 MaxDP=7.99D-03 DE=-9.01D-04 OVMax= 1.11D-02

 Cycle   3  Pass 1  IDiag  1:
 E= -115.245037629551     Delta-E=       -0.000326097171 Rises=F Damp=F
 DIIS: error= 2.29D-03 at cycle   3 NSaved=   3.
 NSaved= 3 IEnMin= 3 EnMin= -115.245037629551     IErMin= 3 ErrMin= 2.29D-03
 ErrMax= 2.29D-03 EMaxC= 1.00D-01 BMatC= 2.90D-04 BMatP= 6.52D-04
 IDIUse=3 WtCom= 9.77D-01 WtEn= 2.29D-02
 Coeff-Com:  0.192D-01 0.396D+00 0.584D+00
 Coeff-En:   0.000D+00 0.312D+00 0.688D+00
 Coeff:      0.188D-01 0.394D+00 0.587D+00
 Gap=     0.227 Goal=   None    Shift=    0.000
 RMSDP=2.60D-04 MaxDP=4.09D-03 DE=-3.26D-04 OVMax= 5.04D-03

 Cycle   4  Pass 1  IDiag  1:
 E= -115.245235991164     Delta-E=       -0.000198361613 Rises=F Damp=F
 DIIS: error= 6.13D-04 at cycle   4 NSaved=   4.
 NSaved= 4 IEnMin= 4 EnMin= -115.245235991164     IErMin= 4 ErrMin= 6.13D-04
 ErrMax= 6.13D-04 EMaxC= 1.00D-01 BMatC= 2.42D-05 BMatP= 2.90D-04
 IDIUse=3 WtCom= 9.94D-01 WtEn= 6.13D-03
 Coeff-Com: -0.158D-01 0.203D+00 0.359D+00 0.454D+00
 Coeff-En:   0.000D+00 0.000D+00 0.000D+00 0.100D+01
 Coeff:     -0.157D-01 0.202D+00 0.357D+00 0.457D+00
 Gap=     0.225 Goal=   None    Shift=    0.000
 RMSDP=7.80D-05 MaxDP=9.31D-04 DE=-1.98D-04 OVMax= 1.32D-03

 Cycle   5  Pass 1  IDiag  1:
 E= -115.245257725333     Delta-E=       -0.000021734169 Rises=F Damp=F
 DIIS: error= 3.29D-05 at cycle   5 NSaved=   5.
 NSaved= 5 IEnMin= 5 EnMin= -115.245257725333     IErMin= 5 ErrMin= 3.29D-05
 ErrMax= 3.29D-05 EMaxC= 1.00D-01 BMatC= 5.27D-08 BMatP= 2.42D-05
 IDIUse=1 WtCom= 1.00D+00 WtEn= 0.00D+00
 Coeff-Com: -0.175D-02 0.284D-02 0.459D-02 0.440D-01 0.950D+00
 Coeff:     -0.175D-02 0.284D-02 0.459D-02 0.440D-01 0.950D+00
 Gap=     0.226 Goal=   None    Shift=    0.000
 RMSDP=5.32D-06 MaxDP=5.62D-05 DE=-2.17D-05 OVMax= 1.08D-04

 Cycle   6  Pass 1  IDiag  1:
 E= -115.245257771555     Delta-E=       -0.000000046223 Rises=F Damp=F
 DIIS: error= 5.46D-06 at cycle   6 NSaved=   6.
 NSaved= 6 IEnMin= 6 EnMin= -115.245257771555     IErMin= 6 ErrMin= 5.46D-06
 ErrMax= 5.46D-06 EMaxC= 1.00D-01 BMatC= 1.07D-09 BMatP= 5.27D-08
 IDIUse=1 WtCom= 1.00D+00 WtEn= 0.00D+00
 Coeff-Com:  0.180D-03-0.471D-02-0.779D-02-0.488D-02 0.119D+00 0.898D+00
 Coeff:      0.180D-03-0.471D-02-0.779D-02-0.488D-02 0.119D+00 0.898D+00
 Gap=     0.226 Goal=   None    Shift=    0.000
 RMSDP=7.97D-07 MaxDP=1.01D-05 DE=-4.62D-08 OVMax= 1.65D-05

 Cycle   7  Pass 1  IDiag  1:
 E= -115.245257773253     Delta-E=       -0.000000001698 Rises=F Damp=F
 DIIS: error= 2.69D-06 at cycle   7 NSaved=   7.
 NSaved= 7 IEnMin= 7 EnMin= -115.245257773253     IErMin= 7 ErrMin= 2.69D-06
 ErrMax= 2.69D-06 EMaxC= 1.00D-01 BMatC= 2.62D-10 BMatP= 1.07D-09
 IDIUse=1 WtCom= 1.00D+00 WtEn= 0.00D+00
 Coeff-Com:  0.496D-04-0.536D-03-0.655D-03-0.133D-02-0.109D-01 0.107D+00
 Coeff-Com:  0.907D+00
 Coeff:      0.496D-04-0.536D-03-0.655D-03-0.133D-02-0.109D-01 0.107D+00
 Coeff:      0.907D+00
 Gap=     0.226 Goal=   None    Shift=    0.000
 RMSDP=1.21D-07 MaxDP=1.87D-06 DE=-1.70D-09 OVMax= 3.18D-06

 Cycle   8  Pass 1  IDiag  1:
 E= -115.245257773243     Delta-E=        0.000000000011 Rises=F Damp=F
 DIIS: error= 2.70D-06 at cycle   8 NSaved=   8.
 NSaved= 8 IEnMin= 7 EnMin= -115.245257773253     IErMin= 7 ErrMin= 2.69D-06
 ErrMax= 2.70D-06 EMaxC= 1.00D-01 BMatC= 2.34D-10 BMatP= 2.62D-10
 IDIUse=1 WtCom= 1.00D+00 WtEn= 0.00D+00
 Coeff-Com: -0.982D-06 0.410D-04 0.705D-04-0.306D-04-0.181D-02-0.806D-02
 Coeff-Com:  0.108D-01 0.999D+00
 Coeff:     -0.982D-06 0.410D-04 0.705D-04-0.306D-04-0.181D-02-0.806D-02
 Coeff:      0.108D-01 0.999D+00
 Gap=     0.226 Goal=   None    Shift=    0.000
 RMSDP=1.87D-08 MaxDP=2.12D-07 DE= 1.09D-11 OVMax= 3.31D-07

 Cycle   9  Pass 1  IDiag  1:
 E= -115.245257773242     Delta-E=        0.000000000000 Rises=F Damp=F
 DIIS: error= 2.70D-06 at cycle   9 NSaved=   9.
 NSaved= 9 IEnMin= 7 EnMin= -115.245257773253     IErMin= 7 ErrMin= 2.69D-06
 ErrMax= 2.70D-06 EMaxC= 1.00D-01 BMatC= 2.33D-10 BMatP= 2.34D-10
 IDIUse=1 WtCom= 1.00D+00 WtEn= 0.00D+00
 Coeff-Com: -0.795D-06 0.105D-04 0.190D-04 0.181D-04-0.733D-04-0.194D-02
 Coeff-Com: -0.121D-01 0.576D-01 0.956D+00
 Coeff:     -0.795D-06 0.105D-04 0.190D-04 0.181D-04-0.733D-04-0.194D-02
 Coeff:     -0.121D-01 0.576D-01 0.956D+00
 Gap=     0.226 Goal=   None    Shift=    0.000
 RMSDP=2.64D-09 MaxDP=2.04D-08 DE= 2.84D-13 OVMax= 4.44D-08

 Error on total polarization charges =  0.06858
 SCF Done:  E(RB3LYP) =  -115.245257773     A.U. after    9 cycles
             Convg  =    0.2636D-08             -V/T =  2.0103
 KE= 1.140690131574D+02 PE=-3.420879652426D+02 EE= 7.943093755852D+01
 SMD-CDS (non-electrostatic) energy             (kcal/mol) =       1.95
 (included in total energy above)
 Leave Link  502 at Mon Sep 16 17:44:27 2024, MaxMem=   13107200 cpu:       9.6
 (Enter /programs/64bit/g09/g09-gfortran/bin/l701.exe)
 Compute integral first derivatives.
 ... and contract with generalized density number  0.
 D1PCM: PCM CHGder 1st derivatives, ID1Alg=3 FixD1E=F DoIter=F DoCFld=F I1PDM=0.
 GePol: Maximum number of non-zero 1st derivatives   =     271
 Leave Link  701 at Mon Sep 16 17:44:29 2024, MaxMem=   13107200 cpu:       1.1
 (Enter /programs/64bit/g09/g09-gfortran/bin/l702.exe)
 L702 exits ... SP integral derivatives will be done elsewhere.
 Leave Link  702 at Mon Sep 16 17:44:29 2024, MaxMem=   13107200 cpu:       0.0
 (Enter /programs/64bit/g09/g09-gfortran/bin/l703.exe)
 Compute integral first derivatives, UseDBF=F ICtDFT=           0.
 Integral derivatives from FoFDir, PRISM(SPDF).
 Calling FoFJK, ICntrl=      2127 FMM=F ISym2X=1 I1Cent= 0 IOpClX= 0 NMat=1 NMatS=1 NMatT=0.
 FoFCou: FMM=F IPFlag=           0 FMFlag=      100000 FMFlg1=         800
         NFxFlg=           0 DoJE=F BraDBF=F KetDBF=F FulRan=T
         Omega=  0.000000  0.000000  1.000000  0.000000  0.000000 ICntrl=    2127 IOpCl=  0
         NMat0=    1 NMatS0=    1 NMatT0=    0 NMatD0=    1 NMtDS0=    0 NMtDT0=    0
         I1Cent=           0 NGrid=           0.
 Petite list used in FoFCou.
 Leave Link  703 at Mon Sep 16 17:44:31 2024, MaxMem=   13107200 cpu:       2.2
 (Enter /programs/64bit/g09/g09-gfortran/bin/l716.exe)
 Dipole        = 0.00000000D+00-1.11022302D-16-2.00019452D+00
 ***** Axes restored to original set *****
 -------------------------------------------------------------------
 Center     Atomic                   Forces (Hartrees/Bohr)
 Number     Number              X              Y              Z
 -------------------------------------------------------------------
      1        6           0.000124557   -0.000000000    0.014786551
      2        8          -0.000061846    0.000000000   -0.011655843
      3        1           0.001442008   -0.000000000   -0.000938656
      4        1          -0.000752360   -0.001172385   -0.001096026
      5        1          -0.000752360    0.001172385   -0.001096026
 -------------------------------------------------------------------
 Cartesian Forces:  Max     0.014786551 RMS     0.004924525
 Leave Link  716 at Mon Sep 16 17:44:31 2024, MaxMem=   13107200 cpu:       0.0
 (Enter /programs/64bit/g09/g09-gfortran/bin/l103.exe)

 GradGradGradGradGradGradGradGradGradGradGradGradGradGradGradGradGradGrad
 Berny optimization.
 Using GEDIIS/GDIIS optimizer.
 Internal  Forces:  Max     0.011655843 RMS     0.003219774
 Search for a local minimum.
 Step number   2 out of a maximum of   24
 All quantities printed in internal units (Hartrees-Bohrs-Radians)
 RMS Force = .32198D-02 SwitMx=.10000D-02 MixMth= 1
 Mixed Optimization -- RFO/linear search
 Update second derivatives using D2CorX and points    1    2
 DE= -5.92D-03 DEPred=-6.69D-03 R= 8.86D-01
 SS=  1.41D+00  RLast= 2.60D-01 DXNew= 5.0454D-01 7.8063D-01
 Trust test= 8.86D-01 RLast= 2.60D-01 DXMaxT set to 5.05D-01
 The second derivative matrix:
                          R1        R2        R3        R4        A1
           R1           0.57098
           R2           0.01330   0.36481
           R3           0.01304  -0.00760   0.36458
           R4           0.01304  -0.00760  -0.00772   0.36458
           A1          -0.02078  -0.01392  -0.01393  -0.01393   0.15411
           A2          -0.01559  -0.01159  -0.01161  -0.01161  -0.00566
           A3          -0.00082  -0.00498  -0.00502  -0.00502  -0.00502
           A4           0.02849   0.01762   0.01763   0.01763   0.00650
           A5           0.00819   0.00854   0.00856   0.00856   0.00561
           A6           0.00587   0.00750   0.00753   0.00753   0.00551
           D1          -0.01802  -0.00790  -0.00788  -0.00788  -0.00060
           D2           0.01469   0.00641   0.00639   0.00639   0.00046
           D3          -0.01969  -0.00865  -0.00862  -0.00862  -0.00068
           D4          -0.03438  -0.01505  -0.01501  -0.01501  -0.00114
                          A2        A3        A4        A5        A6
           A2           0.15468
           A3          -0.00434   0.15759
           A4           0.00640   0.00615   0.15303
           A5           0.00506   0.00350  -0.00661   0.15553
           A6           0.00491   0.00320  -0.00657  -0.00422   0.15605
           D1          -0.00104  -0.00226   0.00009   0.00178   0.00197
           D2           0.00082   0.00183  -0.00003  -0.00143  -0.00159
           D3          -0.00115  -0.00248   0.00012   0.00196   0.00217
           D4          -0.00196  -0.00431   0.00015   0.00338   0.00375
                          D1        D2        D3        D4
           D1           0.00658
           D2          -0.00131   0.00607
           D3           0.00172  -0.00142   0.00687
           D4           0.00303  -0.00250   0.00330   0.01079
 Use linear search instead of GDIIS.
     Eigenvalues ---    0.05142   0.06482   0.08278   0.15965   0.16004
     Eigenvalues ---    0.34720   0.37230   0.37230   0.573641000.00000
     Eigenvalues --- 1000.000001000.000001000.000001000.00000
 RFO step:  Lambda=-2.59478476D-04 EMin= 5.14218979D-02
 Quartic linear search produced a step of -0.04132.
 Iteration  1 RMS(Cart)=  0.00427610 RMS(Int)=  0.00008662
 Iteration  2 RMS(Cart)=  0.00001027 RMS(Int)=  0.00008559
 Iteration  3 RMS(Cart)=  0.00000000 RMS(Int)=  0.00008559
 ClnCor:  largest displacement from symmetrization is 1.50D-03 for atom     5.
 Variable       Old X    -DE/DX   Delta X   Delta X   Delta X     New X
                                 (Linear)    (Quad)   (Total)
    R1        2.69382  -0.01166  -0.00355  -0.01754  -0.02110   2.67273
    R2        2.08978   0.00169  -0.00280   0.00845   0.00588   2.09566
    R3        2.08978   0.00171  -0.00280   0.00849   0.00588   2.09566
    R4        2.08978   0.00171  -0.00280   0.00849   0.00588   2.09566
    A1        1.96479   0.00007  -0.00224   0.00498   0.00270   1.96749
    A2        1.96479   0.00021  -0.00224   0.00540   0.00270   1.96749
    A3        1.96479   0.00034  -0.00224   0.00558   0.00270   1.96749
    A4        1.85350  -0.00003   0.00236  -0.00527  -0.00300   1.85050
    A5        1.85350  -0.00021   0.00236  -0.00556  -0.00300   1.85050
    A6        1.85350  -0.00044   0.00236  -0.00684  -0.00300   1.85050
    D1       -2.15758  -0.00020   0.00261  -0.00595  -0.00299  -2.16057
    D2        2.15758   0.00015  -0.00261   0.00587   0.00299   2.16057
    D3       -2.15758  -0.00017   0.00261  -0.00551  -0.00299  -2.16057
    D4        1.96803  -0.00032   0.00522  -0.01137  -0.00598   1.96205
         Item               Value     Threshold  Converged?
 Maximum Force            0.011656     0.000450     NO 
 RMS     Force            0.003220     0.000300     NO 
 Maximum Displacement     0.012027     0.001800     NO 
 RMS     Displacement     0.004360     0.001200     NO 
 Predicted change in Energy=-1.419774D-04
 GradGradGradGradGradGradGradGradGradGradGradGradGradGradGradGradGradGrad

 Leave Link  103 at Mon Sep 16 17:44:31 2024, MaxMem=   13107200 cpu:       0.0
 (Enter /programs/64bit/g09/g09-gfortran/bin/l202.exe)
                          Input orientation:                          
 ---------------------------------------------------------------------
 Center     Atomic      Atomic             Coordinates (Angstroms)
 Number     Number       Type             X           Y           Z
 ---------------------------------------------------------------------
      1          6           0       -0.000000    0.000000    0.037339
      2          8           0       -0.000000    0.000000    1.451684
      3          1           0        1.022853   -0.000000   -0.391141
      4          1           0       -0.511427   -0.885817   -0.391141
      5          1           0       -0.511427    0.885817   -0.391141
 ---------------------------------------------------------------------
                    Distance matrix (angstroms):
                    1          2          3          4          5
     1  C    0.000000
     2  O    1.414345   0.000000
     3  H    1.108974   2.107661   0.000000
     4  H    1.108974   2.107661   1.771633   0.000000
     5  H    1.108974   2.107661   1.771633   1.771633   0.000000
 Stoichiometry    CH3O(1-)
 Framework group  C3V[C3(CO),3SGV(H)]
 Deg. of freedom     3
 Full point group                 C3V     NOp   6
 Largest Abelian subgroup         CS      NOp   2
 Largest concise Abelian subgroup CS      NOp   2
                         Standard orientation:                         
 ---------------------------------------------------------------------
 Center     Atomic      Atomic             Coordinates (Angstroms)
 Number     Number       Type             X           Y           Z
 ---------------------------------------------------------------------
      1          6           0        0.000000    0.000000   -0.589960
      2          8           0        0.000000    0.000000    0.824385
      3          1           0        0.000000    1.022853   -1.018440
      4          1           0        0.885817   -0.511427   -1.018440
      5          1           0       -0.885817   -0.511427   -1.018440
 ---------------------------------------------------------------------
 Rotational constants (GHZ):    159.7659808     25.9579412     25.9579412
 Leave Link  202 at Mon Sep 16 17:44:31 2024, MaxMem=   13107200 cpu:       0.0
 (Enter /programs/64bit/g09/g09-gfortran/bin/l301.exe)
 Standard basis: 6-31+G(d,p) (6D, 7F)
 Ernie: Thresh=  0.10000D-02 Tol=  0.10000D-05 Strict=F.
 There are    37 symmetry adapted basis functions of A'  symmetry.
 There are    16 symmetry adapted basis functions of A"  symmetry.
 Integral buffers will be    131072 words long.
 Raffenetti 2 integral format.
 Two-electron integral symmetry is turned on.
    53 basis functions,    85 primitive gaussians,    53 cartesian basis functions
     9 alpha electrons        9 beta electrons
       nuclear repulsion energy        33.4702282937 Hartrees.
 IExCor=  402 DFT=T Ex+Corr=B3LYP ExCW=0 ScaHFX=  0.200000
 ScaDFX=  0.800000  0.720000  1.000000  0.810000 ScalE2=  1.000000  1.000000
 IRadAn=      0 IRanWt=     -1 IRanGd=            0 ICorTp=0
 NAtoms=    5 NActive=    5 NUniq=    3 SFac= 2.08D+00 NAtFMM=   80 NAOKFM=F Big=F
 ------------------------------------------------------------------------------
 Polarizable Continuum Model (PCM)
 =================================
 Model                : PCM.
 Atomic radii         : SMD-Coulomb.
 Polarization charges : Total charges.
 Charge compensation  : None.
 Solution method      : Matrix inversion.
 Cavity type          : VdW (van der Waals Surface) (Alpha=1.000).
 Cavity algorithm     : GePol (No added spheres)
                        Default sphere list used, NSphG=    5.
                        Lebedev-Laikov grids with approx.  5.0 points / Ang**2.
                        Smoothing algorithm: Karplus/York (Gamma=1.0000).
                        Polarization charges: spherical gaussians, with
                                              point-specific exponents (IZeta= 3).
                        Self-potential: point-specific (ISelfS= 7).
                        Self-field    : sphere-specific E.n sum rule (ISelfD= 2).
 1st derivatives      : Analytical E(r).r(x)/FMM algorithm (CHGder, D1EAlg=3).
                        Cavity 1st derivative terms included.
 Solvent              : Water, Eps=  78.355300 Eps(inf)=   1.777849
 ------------------------------------------------------------------------------
 Spheres list:
 ISph  on   Nord    Re0     Alpha      Xe            Ye            Ze
    1   C      1    1.850   1.000     -0.000000      0.000000     -0.589960
    2   O      2    1.520   1.000      0.000000      0.000000      0.824385
    3   H      3    1.200   1.000      0.000000      1.022853     -1.018440
    4   H      4    1.200   1.000      0.885817     -0.511427     -1.018440
    5   H      5    1.200   1.000     -0.885817     -0.511427     -1.018440
 ------------------------------------------------------------------------------
 GePol: Number of generator spheres                  =       5
 GePol: Total number of spheres                      =       5
 GePol: Number of exposed spheres                    =       5 (100.00%)
 GePol: Number of points                             =     434
 GePol: Average weight of points                     =       0.13
 GePol: Minimum weight of points                     =   0.86D-07
 GePol: Maximum weight of points                     =    0.21991
 GePol: Number of points with low weight             =      12
 GePol: Fraction of low-weight points (<1% of avg)   =       2.76%
 GePol: Cavity surface area                          =     57.776 Ang**2
 GePol: Cavity volume                                =     37.284 Ang**3
 ------------------------------------------------------------------------------
 Atomic radii for non-electrostatic terms: SMD-CDS.
 ------------------------------------------------------------------------------
 PCM non-electrostatic energy =         0.0030974914 Hartrees.
 Nuclear repulsion after PCM non-electrostatic terms =       33.4733257851 Hartrees.
 Leave Link  301 at Mon Sep 16 17:44:31 2024, MaxMem=   13107200 cpu:       0.1
 (Enter /programs/64bit/g09/g09-gfortran/bin/l302.exe)
 NPDir=0 NMtPBC=     1 NCelOv=     1 NCel=       1 NClECP=     1 NCelD=      1
         NCelK=      1 NCelE2=     1 NClLst=     1 CellRange=     0.0.
 One-electron integrals computed using PRISM.
 One-electron integral symmetry used in STVInt
 NBasis=    53 RedAO= T  NBF=    37    16
 NBsUse=    53 1.00D-06 NBFU=    37    16
 Precomputing XC quadrature grid using
 IXCGrd= 2 IRadAn=           0 IRanWt=          -1 IRanGd=           0 AccXCQ= 1.00D-10.
 NRdTot=     320 NPtTot=       40596 NUsed=       42914 NTot=       42946
 NSgBfM=    53    53    53    53    53 NAtAll=     5     5.
 Leave Link  302 at Mon Sep 16 17:44:31 2024, MaxMem=   13107200 cpu:       0.3
 (Enter /programs/64bit/g09/g09-gfortran/bin/l303.exe)
 DipDrv:  MaxL=1.
 Leave Link  303 at Mon Sep 16 17:44:31 2024, MaxMem=   13107200 cpu:       0.0
 (Enter /programs/64bit/g09/g09-gfortran/bin/l401.exe)
 Initial guess read from the read-write file.
 B after Tr=     0.000000    0.000000    0.000000
         Rot=    1.000000    0.000000    0.000000    0.000000 Ang=   0.00 deg.
 Guess basis will be translated and rotated to current coordinates.
 Initial guess orbital symmetries:
       Occupied  (A1) (A1) (A1) (A1) (E) (E) (A1) (E) (E)
       Virtual   (A1) (A1) (E) (E) (A1) (E) (E) (E) (E) (A1) (A1)
                 (A1) (E) (E) (A1) (E) (E) (A1) (A1) (E) (E) (A1)
                 (E) (E) (A1) (E) (E) (E) (E) (A1) (A2) (E) (E)
                 (E) (E) (A1) (E) (E) (A1) (A1) (E) (E) (A1) (A1)
 The electronic state of the initial guess is 1-A1.
 Leave Link  401 at Mon Sep 16 17:44:32 2024, MaxMem=   13107200 cpu:       0.2
 (Enter /programs/64bit/g09/g09-gfortran/bin/l502.exe)
 Closed shell SCF:
 Requested convergence on RMS density matrix=1.00D-08 within 128 cycles.
 Requested convergence on MAX density matrix=1.00D-06.
 Requested convergence on             energy=1.00D-06.
 No special actions if energy rises.
 Using DIIS extrapolation, IDIIS=  1040.
 Integral symmetry usage will be decided dynamically.
        42856 words used for storage of precomputed grid.
 Keep R1 ints in memory in canonical form, NReq=4205510.
 IEnd=       70295 IEndB=       70295 NGot=    13107200 MDV=    12031784
 LenX=    12031784 LenY=    12028534
 Symmetry not used in FoFDir.
 MinBra= 0 MaxBra= 2 Meth= 1.
 IRaf=       0 NMat=   1 IRICut=       1 DoRegI=T DoRafI=F ISym2E= 0 JSym2E=0.

 Cycle   1  Pass 1  IDiag  1:
 E= -115.245400838881    
 DIIS: error= 7.76D-04 at cycle   1 NSaved=   1.
 NSaved= 1 IEnMin= 1 EnMin= -115.245400838881     IErMin= 1 ErrMin= 7.76D-04
 ErrMax= 7.76D-04 EMaxC= 1.00D-01 BMatC= 3.71D-05 BMatP= 3.71D-05
 IDIUse=3 WtCom= 9.92D-01 WtEn= 7.76D-03
 Coeff-Com:  0.100D+01
 Coeff-En:   0.100D+01
 Coeff:      0.100D+01
 Gap=     0.225 Goal=   None    Shift=    0.000
 RMSDP=1.92D-04 MaxDP=2.05D-03              OVMax= 3.81D-03

 Cycle   2  Pass 1  IDiag  1:
 E= -115.245466479184     Delta-E=       -0.000065640303 Rises=F Damp=F
 DIIS: error= 1.84D-04 at cycle   2 NSaved=   2.
 NSaved= 2 IEnMin= 2 EnMin= -115.245466479184     IErMin= 2 ErrMin= 1.84D-04
 ErrMax= 1.84D-04 EMaxC= 1.00D-01 BMatC= 2.93D-06 BMatP= 3.71D-05
 IDIUse=3 WtCom= 9.98D-01 WtEn= 1.84D-03
 Coeff-Com:  0.526D-01 0.947D+00
 Coeff-En:   0.000D+00 0.100D+01
 Coeff:      0.525D-01 0.948D+00
 Gap=     0.225 Goal=   None    Shift=    0.000
 RMSDP=4.68D-05 MaxDP=8.21D-04 DE=-6.56D-05 OVMax= 8.13D-04

 Cycle   3  Pass 1  IDiag  1:
 E= -115.245466350363     Delta-E=        0.000000128821 Rises=F Damp=F
 DIIS: error= 2.18D-04 at cycle   3 NSaved=   3.
 NSaved= 3 IEnMin= 2 EnMin= -115.245466479184     IErMin= 2 ErrMin= 1.84D-04
 ErrMax= 2.18D-04 EMaxC= 1.00D-01 BMatC= 3.61D-06 BMatP= 2.93D-06
 IDIUse=3 WtCom= 4.04D-01 WtEn= 5.96D-01
 Coeff-Com: -0.258D-01 0.541D+00 0.485D+00
 Coeff-En:   0.000D+00 0.512D+00 0.488D+00
 Coeff:     -0.104D-01 0.523D+00 0.487D+00
 Gap=     0.225 Goal=   None    Shift=    0.000
 RMSDP=2.84D-05 MaxDP=4.04D-04 DE= 1.29D-07 OVMax= 5.59D-04

 Cycle   4  Pass 1  IDiag  1:
 E= -115.245469236677     Delta-E=       -0.000002886314 Rises=F Damp=F
 DIIS: error= 6.56D-05 at cycle   4 NSaved=   4.
 NSaved= 4 IEnMin= 4 EnMin= -115.245469236677     IErMin= 4 ErrMin= 6.56D-05
 ErrMax= 6.56D-05 EMaxC= 1.00D-01 BMatC= 2.84D-07 BMatP= 2.93D-06
 IDIUse=1 WtCom= 1.00D+00 WtEn= 0.00D+00
 Coeff-Com: -0.138D-01 0.213D+00 0.284D+00 0.517D+00
 Coeff:     -0.138D-01 0.213D+00 0.284D+00 0.517D+00
 Gap=     0.225 Goal=   None    Shift=    0.000
 RMSDP=9.67D-06 MaxDP=1.32D-04 DE=-2.89D-06 OVMax= 1.71D-04

 Cycle   5  Pass 1  IDiag  1:
 E= -115.245469429543     Delta-E=       -0.000000192866 Rises=F Damp=F
 DIIS: error= 1.88D-05 at cycle   5 NSaved=   5.
 NSaved= 5 IEnMin= 5 EnMin= -115.245469429543     IErMin= 5 ErrMin= 1.88D-05
 ErrMax= 1.88D-05 EMaxC= 1.00D-01 BMatC= 2.41D-08 BMatP= 2.84D-07
 IDIUse=1 WtCom= 1.00D+00 WtEn= 0.00D+00
 Coeff-Com: -0.557D-02 0.427D-01 0.974D-01 0.278D+00 0.588D+00
 Coeff:     -0.557D-02 0.427D-01 0.974D-01 0.278D+00 0.588D+00
 Gap=     0.225 Goal=   None    Shift=    0.000
 RMSDP=2.49D-06 MaxDP=2.91D-05 DE=-1.93D-07 OVMax= 4.61D-05

 Cycle   6  Pass 1  IDiag  1:
 E= -115.245469453390     Delta-E=       -0.000000023847 Rises=F Damp=F
 DIIS: error= 2.41D-06 at cycle   6 NSaved=   6.
 NSaved= 6 IEnMin= 6 EnMin= -115.245469453390     IErMin= 6 ErrMin= 2.41D-06
 ErrMax= 2.41D-06 EMaxC= 1.00D-01 BMatC= 6.62D-10 BMatP= 2.41D-08
 IDIUse=1 WtCom= 1.00D+00 WtEn= 0.00D+00
 Coeff-Com:  0.483D-03-0.110D-01-0.437D-02-0.137D-01 0.749D-01 0.954D+00
 Coeff:      0.483D-03-0.110D-01-0.437D-02-0.137D-01 0.749D-01 0.954D+00
 Gap=     0.225 Goal=   None    Shift=    0.000
 RMSDP=6.40D-07 MaxDP=6.31D-06 DE=-2.38D-08 OVMax= 1.02D-05

 Cycle   7  Pass 1  IDiag  1:
 E= -115.245469453358     Delta-E=        0.000000000032 Rises=F Damp=F
 DIIS: error= 2.46D-06 at cycle   7 NSaved=   7.
 NSaved= 7 IEnMin= 6 EnMin= -115.245469453390     IErMin= 6 ErrMin= 2.41D-06
 ErrMax= 2.46D-06 EMaxC= 1.00D-01 BMatC= 2.28D-10 BMatP= 6.62D-10
 IDIUse=1 WtCom= 1.00D+00 WtEn= 0.00D+00
 Coeff-Com:  0.448D-04-0.241D-03-0.661D-03-0.148D-02-0.152D-01-0.252D-01
 Coeff-Com:  0.104D+01
 Coeff:      0.448D-04-0.241D-03-0.661D-03-0.148D-02-0.152D-01-0.252D-01
 Coeff:      0.104D+01
 Gap=     0.225 Goal=   None    Shift=    0.000
 RMSDP=5.82D-08 MaxDP=5.23D-07 DE= 3.19D-11 OVMax= 1.16D-06

 Cycle   8  Pass 1  IDiag  1:
 E= -115.245469453485     Delta-E=       -0.000000000126 Rises=F Damp=F
 DIIS: error= 2.47D-06 at cycle   8 NSaved=   8.
 NSaved= 8 IEnMin= 8 EnMin= -115.245469453485     IErMin= 6 ErrMin= 2.41D-06
 ErrMax= 2.47D-06 EMaxC= 1.00D-01 BMatC= 2.26D-10 BMatP= 2.28D-10
 IDIUse=1 WtCom= 1.00D+00 WtEn= 0.00D+00
 Coeff-Com: -0.133D-05 0.869D-04 0.976D-05-0.885D-04-0.120D-02-0.112D-01
 Coeff-Com:  0.484D-01 0.964D+00
 Coeff:     -0.133D-05 0.869D-04 0.976D-05-0.885D-04-0.120D-02-0.112D-01
 Coeff:      0.484D-01 0.964D+00
 Gap=     0.225 Goal=   None    Shift=    0.000
 RMSDP=4.07D-09 MaxDP=5.10D-08 DE=-1.26D-10 OVMax= 9.14D-08

 Error on total polarization charges =  0.06862
 SCF Done:  E(RB3LYP) =  -115.245469453     A.U. after    8 cycles
             Convg  =    0.4072D-08             -V/T =  2.0102
 KE= 1.140772961547D+02 PE=-3.423498501718D+02 EE= 7.955375877860D+01
 SMD-CDS (non-electrostatic) energy             (kcal/mol) =       1.94
 (included in total energy above)
 Leave Link  502 at Mon Sep 16 17:44:41 2024, MaxMem=   13107200 cpu:       8.8
 (Enter /programs/64bit/g09/g09-gfortran/bin/l701.exe)
 Compute integral first derivatives.
 ... and contract with generalized density number  0.
 D1PCM: PCM CHGder 1st derivatives, ID1Alg=3 FixD1E=F DoIter=F DoCFld=F I1PDM=0.
 GePol: Maximum number of non-zero 1st derivatives   =     271
 Leave Link  701 at Mon Sep 16 17:44:42 2024, MaxMem=   13107200 cpu:       1.1
 (Enter /programs/64bit/g09/g09-gfortran/bin/l702.exe)
 L702 exits ... SP integral derivatives will be done elsewhere.
 Leave Link  702 at Mon Sep 16 17:44:42 2024, MaxMem=   13107200 cpu:       0.0
 (Enter /programs/64bit/g09/g09-gfortran/bin/l703.exe)
 Compute integral first derivatives, UseDBF=F ICtDFT=           0.
 Integral derivatives from FoFDir, PRISM(SPDF).
 Calling FoFJK, ICntrl=      2127 FMM=F ISym2X=1 I1Cent= 0 IOpClX= 0 NMat=1 NMatS=1 NMatT=0.
 FoFCou: FMM=F IPFlag=           0 FMFlag=      100000 FMFlg1=         800
         NFxFlg=           0 DoJE=F BraDBF=F KetDBF=F FulRan=T
         Omega=  0.000000  0.000000  1.000000  0.000000  0.000000 ICntrl=    2127 IOpCl=  0
         NMat0=    1 NMatS0=    1 NMatT0=    0 NMatD0=    1 NMtDS0=    0 NMtDT0=    0
         I1Cent=           0 NGrid=           0.
 Petite list used in FoFCou.
 Leave Link  703 at Mon Sep 16 17:44:44 2024, MaxMem=   13107200 cpu:       2.1
 (Enter /programs/64bit/g09/g09-gfortran/bin/l716.exe)
 Dipole        = 0.00000000D+00 1.11022302D-16-1.96491513D+00
 ***** Axes restored to original set *****
 -------------------------------------------------------------------
 Center     Atomic                   Forces (Hartrees/Bohr)
 Number     Number              X              Y              Z
 -------------------------------------------------------------------
      1        6           0.000140672   -0.000000000    0.007448341
      2        8          -0.000068854    0.000000000   -0.005000823
      3        1           0.000255432   -0.000000000   -0.000703819
      4        1          -0.000163625   -0.000144334   -0.000871850
      5        1          -0.000163625    0.000144334   -0.000871850
 -------------------------------------------------------------------
 Cartesian Forces:  Max     0.007448341 RMS     0.002347859
 Leave Link  716 at Mon Sep 16 17:44:44 2024, MaxMem=   13107200 cpu:       0.0
 (Enter /programs/64bit/g09/g09-gfortran/bin/l103.exe)

 GradGradGradGradGradGradGradGradGradGradGradGradGradGradGradGradGradGrad
 Berny optimization.
 Using GEDIIS/GDIIS optimizer.
 Internal  Forces:  Max     0.005000823 RMS     0.001394917
 Search for a local minimum.
 Step number   3 out of a maximum of   24
 All quantities printed in internal units (Hartrees-Bohrs-Radians)
 RMS Force = .13949D-02 SwitMx=.10000D-02 MixMth= 1
 Mixed Optimization -- RFO/linear search
 Update second derivatives using D2CorX and points    1    2    3
 DE= -2.12D-04 DEPred=-1.42D-04 R= 1.49D+00
 SS=  1.41D+00  RLast= 2.57D-02 DXNew= 8.4853D-01 7.7096D-02
 Trust test= 1.49D+00 RLast= 2.57D-02 DXMaxT set to 5.05D-01
 The second derivative matrix:
                          R1        R2        R3        R4        A1
           R1           0.36825
           R2           0.03536   0.36345
           R3           0.03546  -0.00904   0.36306
           R4           0.03546  -0.00904  -0.00924   0.36306
           A1           0.00321  -0.01855  -0.01857  -0.01857   0.15291
           A2           0.00772  -0.01619  -0.01621  -0.01621  -0.00678
           A3           0.01978  -0.00928  -0.00931  -0.00931  -0.00592
           A4           0.00048   0.02295   0.02296   0.02296   0.00791
           A5          -0.01603   0.01344   0.01347   0.01347   0.00672
           A6          -0.01866   0.01254   0.01256   0.01256   0.00658
           D1          -0.01549  -0.00810  -0.00808  -0.00808  -0.00084
           D2           0.01243   0.00663   0.00661   0.00661   0.00065
           D3          -0.01629  -0.00902  -0.00900  -0.00900  -0.00094
           D4          -0.02871  -0.01564  -0.01561  -0.01561  -0.00159
                          A2        A3        A4        A5        A6
           A2           0.15364
           A3          -0.00518   0.15692
           A4           0.00773   0.00720   0.15137
           A5           0.00610   0.00432  -0.00792   0.15452
           A6           0.00590   0.00398  -0.00783  -0.00520   0.15512
           D1          -0.00126  -0.00245   0.00038   0.00201   0.00220
           D2           0.00099   0.00197  -0.00026  -0.00160  -0.00176
           D3          -0.00139  -0.00268   0.00044   0.00220   0.00241
           D4          -0.00239  -0.00465   0.00070   0.00381   0.00417
                          D1        D2        D3        D4
           D1           0.00653
           D2          -0.00127   0.00604
           D3           0.00167  -0.00138   0.00680
           D4           0.00294  -0.00242   0.00318   0.01060
 Use linear search instead of GDIIS.
     Eigenvalues ---    0.05087   0.05789   0.08178   0.15431   0.16000
     Eigenvalues ---    0.30426   0.37230   0.37230   0.421341000.00000
     Eigenvalues --- 1000.000001000.000001000.000001000.00000
 RFO step:  Lambda=-8.76084303D-06 EMin= 5.08724860D-02
 Quartic linear search produced a step of  0.54911.
 Iteration  1 RMS(Cart)=  0.00266436 RMS(Int)=  0.00002089
 Iteration  2 RMS(Cart)=  0.00001188 RMS(Int)=  0.00001561
 Iteration  3 RMS(Cart)=  0.00000000 RMS(Int)=  0.00001561
 ClnCor:  largest displacement from symmetrization is 2.89D-03 for atom     5.
 Variable       Old X    -DE/DX   Delta X   Delta X   Delta X     New X
                                 (Linear)    (Quad)   (Total)
    R1        2.67273  -0.00500  -0.01159  -0.00110  -0.01269   2.66004
    R2        2.09566   0.00051   0.00323  -0.00106   0.00241   2.09807
    R3        2.09566   0.00053   0.00323  -0.00099   0.00241   2.09807
    R4        2.09566   0.00053   0.00323  -0.00099   0.00241   2.09807
    A1        1.96749   0.00013   0.00148   0.00157   0.00327   1.97076
    A2        1.96749   0.00031   0.00148   0.00249   0.00327   1.97076
    A3        1.96749   0.00053   0.00148   0.00325   0.00327   1.97076
    A4        1.85050  -0.00007  -0.00165  -0.00111  -0.00365   1.84685
    A5        1.85050  -0.00037  -0.00165  -0.00275  -0.00365   1.84685
    A6        1.85050  -0.00063  -0.00165  -0.00427  -0.00365   1.84685
    D1       -2.16057  -0.00031  -0.00164  -0.00275  -0.00360  -2.16416
    D2        2.16057   0.00024   0.00164   0.00208   0.00360   2.16416
    D3       -2.16057  -0.00027  -0.00164  -0.00218  -0.00360  -2.16416
    D4        1.96205  -0.00051  -0.00328  -0.00426  -0.00719   1.95486
         Item               Value     Threshold  Converged?
 Maximum Force            0.005001     0.000450     NO 
 RMS     Force            0.001395     0.000300     NO 
 Maximum Displacement     0.007608     0.001800     NO 
 RMS     Displacement     0.002459     0.001200     NO 
 Predicted change in Energy=-5.406624D-05
 GradGradGradGradGradGradGradGradGradGradGradGradGradGradGradGradGradGrad

 Leave Link  103 at Mon Sep 16 17:44:44 2024, MaxMem=   13107200 cpu:       0.0
 (Enter /programs/64bit/g09/g09-gfortran/bin/l202.exe)
                          Input orientation:                          
 ---------------------------------------------------------------------
 Center     Atomic      Atomic             Coordinates (Angstroms)
 Number     Number       Type             X           Y           Z
 ---------------------------------------------------------------------
      1          6           0       -0.000000    0.000000    0.041365
      2          8           0       -0.000000    0.000000    1.448995
      3          1           0        1.022621   -0.000000   -0.390953
      4          1           0       -0.511310   -0.885616   -0.390953
      5          1           0       -0.511310    0.885616   -0.390953
 ---------------------------------------------------------------------
                    Distance matrix (angstroms):
                    1          2          3          4          5
     1  C    0.000000
     2  O    1.407630   0.000000
     3  H    1.110249   2.105033   0.000000
     4  H    1.110249   2.105033   1.771232   0.000000
     5  H    1.110249   2.105033   1.771232   1.771232   0.000000
 Stoichiometry    CH3O(1-)
 Framework group  C3V[C3(CO),3SGV(H)]
 Deg. of freedom     3
 Full point group                 C3V     NOp   6
 Largest Abelian subgroup         CS      NOp   2
 Largest concise Abelian subgroup CS      NOp   2
                         Standard orientation:                         
 ---------------------------------------------------------------------
 Center     Atomic      Atomic             Coordinates (Angstroms)
 Number     Number       Type             X           Y           Z
 ---------------------------------------------------------------------
      1          6           0        0.000000    0.000000   -0.586123
      2          8           0        0.000000    0.000000    0.821507
      3          1           0        0.000000    1.022621   -1.018441
[...]
 NSaved= 3 IEnMin= 3 EnMin= -115.245516856219     IErMin= 3 ErrMin= 6.06D-05
 ErrMax= 6.06D-05 EMaxC= 1.00D-01 BMatC= 2.52D-07 BMatP= 7.45D-07
 IDIUse=1 WtCom= 1.00D+00 WtEn= 0.00D+00
 Coeff-Com: -0.511D-02 0.364D+00 0.641D+00
 Coeff:     -0.511D-02 0.364D+00 0.641D+00
 Gap=     0.225 Goal=   None    Shift=    0.000
 RMSDP=7.96D-06 MaxDP=1.26D-04 DE=-3.78D-07 OVMax= 1.65D-04

 Cycle   4  Pass 1  IDiag  1:
 E= -115.245517030229     Delta-E=       -0.000000174010 Rises=F Damp=F
 DIIS: error= 1.65D-05 at cycle   4 NSaved=   4.
 NSaved= 4 IEnMin= 4 EnMin= -115.245517030229     IErMin= 4 ErrMin= 1.65D-05
 ErrMax= 1.65D-05 EMaxC= 1.00D-01 BMatC= 1.89D-08 BMatP= 2.52D-07
 IDIUse=1 WtCom= 1.00D+00 WtEn= 0.00D+00
 Coeff-Com: -0.205D-01 0.181D+00 0.377D+00 0.462D+00
 Coeff:     -0.205D-01 0.181D+00 0.377D+00 0.462D+00
 Gap=     0.225 Goal=   None    Shift=    0.000
 RMSDP=2.24D-06 MaxDP=2.82D-05 DE=-1.74D-07 OVMax= 3.46D-05

 Cycle   5  Pass 1  IDiag  1:
 E= -115.245517045999     Delta-E=       -0.000000015770 Rises=F Damp=F
 DIIS: error= 2.28D-06 at cycle   5 NSaved=   5.
 NSaved= 5 IEnMin= 5 EnMin= -115.245517045999     IErMin= 5 ErrMin= 2.28D-06
 ErrMax= 2.28D-06 EMaxC= 1.00D-01 BMatC= 3.25D-10 BMatP= 1.89D-08
 IDIUse=1 WtCom= 1.00D+00 WtEn= 0.00D+00
 Coeff-Com: -0.270D-02-0.182D-02 0.174D-01 0.450D-01 0.942D+00
 Coeff:     -0.270D-02-0.182D-02 0.174D-01 0.450D-01 0.942D+00
 Gap=     0.225 Goal=   None    Shift=    0.000
 RMSDP=2.53D-07 MaxDP=3.48D-06 DE=-1.58D-08 OVMax= 5.02D-06

 Cycle   6  Pass 1  IDiag  1:
 E= -115.245517045734     Delta-E=        0.000000000265 Rises=F Damp=F
 DIIS: error= 2.30D-06 at cycle   6 NSaved=   6.
 NSaved= 6 IEnMin= 5 EnMin= -115.245517045999     IErMin= 5 ErrMin= 2.28D-06
 ErrMax= 2.30D-06 EMaxC= 1.00D-01 BMatC= 2.32D-10 BMatP= 3.25D-10
 IDIUse=1 WtCom= 1.00D+00 WtEn= 0.00D+00
 Coeff-Com:  0.447D-03-0.551D-02-0.900D-02-0.824D-02 0.526D-01 0.970D+00
 Coeff:      0.447D-03-0.551D-02-0.900D-02-0.824D-02 0.526D-01 0.970D+00
 Gap=     0.225 Goal=   None    Shift=    0.000
 RMSDP=5.02D-08 MaxDP=4.93D-07 DE= 2.65D-10 OVMax= 8.58D-07

 Cycle   7  Pass 1  IDiag  1:
 E= -115.245517045801     Delta-E=       -0.000000000067 Rises=F Damp=F
 DIIS: error= 2.31D-06 at cycle   7 NSaved=   7.
 NSaved= 7 IEnMin= 5 EnMin= -115.245517045999     IErMin= 5 ErrMin= 2.28D-06
 ErrMax= 2.31D-06 EMaxC= 1.00D-01 BMatC= 2.31D-10 BMatP= 2.32D-10
 IDIUse=1 WtCom= 1.00D+00 WtEn= 0.00D+00
 Coeff-Com:  0.113D-03-0.959D-03-0.180D-02-0.173D-02-0.117D-01 0.173D+00
 Coeff-Com:  0.843D+00
 Coeff:      0.113D-03-0.959D-03-0.180D-02-0.173D-02-0.117D-01 0.173D+00
 Coeff:      0.843D+00
 Gap=     0.225 Goal=   None    Shift=    0.000
 RMSDP=5.08D-09 MaxDP=5.69D-08 DE=-6.69D-11 OVMax= 9.60D-08

 Error on total polarization charges =  0.06863
 SCF Done:  E(RB3LYP) =  -115.245517046     A.U. after    7 cycles
             Convg  =    0.5084D-08             -V/T =  2.0102
 KE= 1.140806443943D+02 PE=-3.424809582263D+02 EE= 7.961403230989D+01
 SMD-CDS (non-electrostatic) energy             (kcal/mol) =       1.96
 (included in total energy above)
 Leave Link  502 at Mon Sep 16 17:45:05 2024, MaxMem=   13107200 cpu:       7.8
 (Enter /programs/64bit/g09/g09-gfortran/bin/l701.exe)
 Compute integral first derivatives.
 ... and contract with generalized density number  0.
 D1PCM: PCM CHGder 1st derivatives, ID1Alg=3 FixD1E=F DoIter=F DoCFld=F I1PDM=0.
 GePol: Maximum number of non-zero 1st derivatives   =     265
 Leave Link  701 at Mon Sep 16 17:45:06 2024, MaxMem=   13107200 cpu:       1.1
 (Enter /programs/64bit/g09/g09-gfortran/bin/l702.exe)
 L702 exits ... SP integral derivatives will be done elsewhere.
 Leave Link  702 at Mon Sep 16 17:45:07 2024, MaxMem=   13107200 cpu:       0.0
 (Enter /programs/64bit/g09/g09-gfortran/bin/l703.exe)
 Compute integral first derivatives, UseDBF=F ICtDFT=           0.
 Integral derivatives from FoFDir, PRISM(SPDF).
 Calling FoFJK, ICntrl=      2127 FMM=F ISym2X=1 I1Cent= 0 IOpClX= 0 NMat=1 NMatS=1 NMatT=0.
 FoFCou: FMM=F IPFlag=           0 FMFlag=      100000 FMFlg1=         800
         NFxFlg=           0 DoJE=F BraDBF=F KetDBF=F FulRan=T
         Omega=  0.000000  0.000000  1.000000  0.000000  0.000000 ICntrl=    2127 IOpCl=  0
         NMat0=    1 NMatS0=    1 NMatT0=    0 NMatD0=    1 NMtDS0=    0 NMtDT0=    0
         I1Cent=           0 NGrid=           0.
 Petite list used in FoFCou.
 Leave Link  703 at Mon Sep 16 17:45:09 2024, MaxMem=   13107200 cpu:       2.1
 (Enter /programs/64bit/g09/g09-gfortran/bin/l716.exe)
 Dipole        = 0.00000000D+00-2.22044605D-16-1.94225463D+00
 ***** Axes restored to original set *****
 -------------------------------------------------------------------
 Center     Atomic                   Forces (Hartrees/Bohr)
 Number     Number              X              Y              Z
 -------------------------------------------------------------------
      1        6           0.000167147    0.000000000    0.000014412
      2        8          -0.000071800    0.000000000    0.000043955
      3        1          -0.000110383   -0.000000000    0.000100841
      4        1           0.000007518    0.000169065   -0.000079604
      5        1           0.000007518   -0.000169065   -0.000079604
 -------------------------------------------------------------------
 Cartesian Forces:  Max     0.000169065 RMS     0.000092210
 Leave Link  716 at Mon Sep 16 17:45:09 2024, MaxMem=   13107200 cpu:       0.0
 (Enter /programs/64bit/g09/g09-gfortran/bin/l103.exe)

 GradGradGradGradGradGradGradGradGradGradGradGradGradGradGradGradGradGrad
 Berny optimization.
 Using GEDIIS/GDIIS optimizer.
 Internal  Forces:  Max     0.000209036 RMS     0.000087648
 Search for a local minimum.
 Step number   5 out of a maximum of   24
 All quantities printed in internal units (Hartrees-Bohrs-Radians)
 RMS Force = .87648D-04 SwitMx=.10000D-02 MixMth= 2
 Mixed Optimization -- En-DIIS/RFO-DIIS
 Swaping is turned off.
 Update second derivatives using D2CorX and points    1    2    3    4    5
 DE= -5.96D-06 DEPred=-6.16D-06 R= 9.68D-01
 SS=  1.41D+00  RLast= 1.22D-02 DXNew= 8.4853D-01 3.6475D-02
 Trust test= 9.68D-01 RLast= 1.22D-02 DXMaxT set to 5.05D-01
 The second derivative matrix:
                          R1        R2        R3        R4        A1
           R1           0.52639
           R2           0.03129   0.36503
           R3           0.03153  -0.00771   0.36416
           R4           0.03153  -0.00771  -0.00814   0.36416
           A1           0.01018  -0.02704  -0.02704  -0.02704   0.14763
           A2           0.01301  -0.02314  -0.02320  -0.02320  -0.01221
           A3           0.02052  -0.01208  -0.01226  -0.01226  -0.01185
           A4          -0.00881   0.03385   0.03381   0.03381   0.01360
           A5          -0.01919   0.01886   0.01899   0.01899   0.01317
           A6          -0.02099   0.01721   0.01736   0.01736   0.01302
           D1          -0.01010  -0.01282  -0.01267  -0.01267   0.00002
           D2           0.00834   0.00981   0.00969   0.00969  -0.00026
           D3          -0.01064  -0.01361  -0.01345  -0.01345   0.00016
           D4          -0.01898  -0.02341  -0.02315  -0.02315   0.00043
                          A2        A3        A4        A5        A6
           A2           0.14834
           A3          -0.01024   0.15412
           A4           0.01382   0.01454   0.14547
           A5           0.01196   0.00872  -0.01555   0.14874
           A6           0.01163   0.00789  -0.01557  -0.01060   0.15013
           D1          -0.00129  -0.00494  -0.00140   0.00350   0.00412
           D2           0.00073   0.00347   0.00134  -0.00235  -0.00281
           D3          -0.00119  -0.00493  -0.00161   0.00342   0.00405
           D4          -0.00191  -0.00840  -0.00295   0.00576   0.00687
                          D1        D2        D3        D4
           D1           0.00950
           D2          -0.00338   0.00753
           D3           0.00462  -0.00347   0.00973
           D4           0.00800  -0.00600   0.00820   0.01920
     Eigenvalues ---    0.05025   0.05592   0.08131   0.15559   0.16002
     Eigenvalues ---    0.33860   0.37230   0.37232   0.545091000.00000
     Eigenvalues --- 1000.000001000.000001000.000001000.00000
 En-DIIS/RFO-DIIS IScMMF=        0 using points:     5    4
 RFO step:  Lambda=-2.36010501D-07.
 DIIS coeffs:      1.08125     -0.08125
 Iteration  1 RMS(Cart)=  0.00052812 RMS(Int)=  0.00000069
 Iteration  2 RMS(Cart)=  0.00000022 RMS(Int)=  0.00000064
 ClnCor:  largest displacement from symmetrization is 1.31D-03 for atom     4.
 Variable       Old X    -DE/DX   Delta X   Delta X   Delta X     New X
                                  (DIIS)     (GDIIS)  (Total)
    R1        2.66042   0.00004   0.00003  -0.00003   0.00000   2.66042
    R2        2.09950  -0.00014   0.00012  -0.00046   0.00004   2.09954
    R3        2.09950  -0.00011   0.00012  -0.00036   0.00004   2.09954
    R4        2.09950  -0.00011   0.00012  -0.00036   0.00004   2.09954
    A1        1.97382  -0.00003   0.00025   0.00001   0.00012   1.97394
    A2        1.97382   0.00008   0.00025   0.00023   0.00012   1.97394
    A3        1.97382   0.00008   0.00025   0.00022   0.00012   1.97394
    A4        1.84343   0.00004  -0.00028   0.00035  -0.00014   1.84329
    A5        1.84343   0.00002  -0.00028   0.00035  -0.00014   1.84329
    A6        1.84343  -0.00021  -0.00028  -0.00123  -0.00014   1.84329
    D1       -2.16750  -0.00004  -0.00027  -0.00041  -0.00013  -2.16764
    D2        2.16750   0.00003   0.00027   0.00041   0.00013   2.16764
    D3       -2.16750   0.00000  -0.00027   0.00044  -0.00013  -2.16764
    D4        1.94818  -0.00003  -0.00054   0.00003  -0.00027   1.94791
         Item               Value     Threshold  Converged?
 Maximum Force            0.000209     0.000450     YES
 RMS     Force            0.000088     0.000300     YES
 Maximum Displacement     0.000406     0.001800     YES
 RMS     Displacement     0.000171     0.001200     YES
 Predicted change in Energy=-3.404031D-08
 Optimization completed.
    -- Stationary point found.
                           ----------------------------
                           !   Optimized Parameters   !
                           ! (Angstroms and Degrees)  !
 --------------------------                            --------------------------
 ! Name  Definition              Value          Derivative Info.                !
 --------------------------------------------------------------------------------
 ! R1    R(1,2)                  1.4078         -DE/DX =    0.0                 !
 ! R2    R(1,3)                  1.111          -DE/DX =   -0.0001              !
 ! R3    R(1,4)                  1.111          -DE/DX =   -0.0001              !
 ! R4    R(1,5)                  1.111          -DE/DX =   -0.0001              !
 ! A1    A(2,1,3)              113.0916         -DE/DX =    0.0                 !
 ! A2    A(2,1,4)              113.0916         -DE/DX =    0.0001              !
 ! A3    A(2,1,5)              113.0916         -DE/DX =    0.0001              !
 ! A4    A(3,1,4)              105.6206         -DE/DX =    0.0                 !
 ! A5    A(3,1,5)              105.6206         -DE/DX =    0.0                 !
 ! A6    A(4,1,5)              105.6206         -DE/DX =   -0.0002              !
 ! D1    D(2,1,4,3)           -124.1888         -DE/DX =    0.0                 !
 ! D2    D(2,1,5,3)            124.1888         -DE/DX =    0.0                 !
 ! D3    D(2,1,5,4)           -124.1888         -DE/DX =    0.0                 !
 ! D4    D(3,1,5,4)            111.6224         -DE/DX =    0.0                 !
 --------------------------------------------------------------------------------
 GradGradGradGradGradGradGradGradGradGradGradGradGradGradGradGradGradGrad

 Largest change from initial coordinates is atom    4       0.079 Angstoms.
 Leave Link  103 at Mon Sep 16 17:45:09 2024, MaxMem=   13107200 cpu:       0.0
 (Enter /programs/64bit/g09/g09-gfortran/bin/l202.exe)
                          Input orientation:                          
 ---------------------------------------------------------------------
 Center     Atomic      Atomic             Coordinates (Angstroms)
 Number     Number       Type             X           Y           Z
 ---------------------------------------------------------------------
      1          6           0       -0.000000    0.000000    0.043525
      2          8           0       -0.000000    0.000000    1.451359
      3          1           0        1.021994   -0.000000   -0.392215
      4          1           0       -0.510997   -0.885073   -0.392215
      5          1           0       -0.510997    0.885073   -0.392215
 ---------------------------------------------------------------------
                    Distance matrix (angstroms):
                    1          2          3          4          5
     1  C    0.000000
     2  O    1.407834   0.000000
     3  H    1.111009   2.107898   0.000000
     4  H    1.111009   2.107898   1.770145   0.000000
     5  H    1.111009   2.107898   1.770145   1.770145   0.000000
 Stoichiometry    CH3O(1-)
 Framework group  C3V[C3(CO),3SGV(H)]
 Deg. of freedom     3
 Full point group                 C3V     NOp   6
 Largest Abelian subgroup         CS      NOp   2
 Largest concise Abelian subgroup CS      NOp   2
                         Standard orientation:                         
 ---------------------------------------------------------------------
 Center     Atomic      Atomic             Coordinates (Angstroms)
 Number     Number       Type             X           Y           Z
 ---------------------------------------------------------------------
      1          6           0        0.000000    0.000000   -0.585615
      2          8           0        0.000000    0.000000    0.822219
      3          1           0        0.000000    1.021994   -1.021355
      4          1           0        0.885073   -0.510997   -1.021355
      5          1           0       -0.885073   -0.510997   -1.021355
 ---------------------------------------------------------------------
 Rotational constants (GHZ):    160.0347632     26.0983397     26.0983397
 Leave Link  202 at Mon Sep 16 17:45:09 2024, MaxMem=   13107200 cpu:       0.0
 (Enter /programs/64bit/g09/g09-gfortran/bin/l601.exe)
 Copying SCF densities to generalized density rwf, IOpCl= 0 IROHF=0.

 **********************************************************************

            Population analysis using the SCF density.

 **********************************************************************

 Orbital symmetries:
       Occupied  (A1) (A1) (A1) (A1) (E) (E) (A1) (E) (E)
       Virtual   (A1) (A1) (E) (E) (A1) (E) (E) (E) (E) (A1) (A1)
                 (A1) (E) (E) (A1) (E) (E) (A1) (A1) (E) (E) (A1)
                 (E) (E) (A1) (E) (E) (E) (E) (A1) (A2) (E) (E)
                 (E) (E) (A1) (E) (E) (A1) (A1) (E) (E) (A1) (A1)
 The electronic state is 1-A1.
 Alpha  occ. eigenvalues --  -19.05364 -10.19183  -0.88834  -0.61167  -0.39106
 Alpha  occ. eigenvalues --   -0.39105  -0.34490  -0.19968  -0.19968
 Alpha virt. eigenvalues --    0.02522   0.04263   0.06580   0.06580   0.17057
 Alpha virt. eigenvalues --    0.21403   0.21403   0.22242   0.22243   0.24965
 Alpha virt. eigenvalues --    0.30097   0.32962   0.68308   0.68308   0.69194
 Alpha virt. eigenvalues --    0.90584   0.90585   1.05044   1.20465   1.23114
 Alpha virt. eigenvalues --    1.23114   1.31046   1.42522   1.42522   1.58393
 Alpha virt. eigenvalues --    1.84546   1.84549   1.99284   1.99285   2.05981
 Alpha virt. eigenvalues --    2.07516   2.14959   2.14960   2.55959   2.55959
 Alpha virt. eigenvalues --    2.72041   2.86918   2.86918   2.89907   3.18925
 Alpha virt. eigenvalues --    3.44182   3.44182   4.09735   4.51216
          Condensed to atoms (all electrons):
              1          2          3          4          5
     1  C    4.897934   0.052471   0.409769   0.409769   0.409769
     2  O    0.052471   9.276623  -0.083345  -0.083345  -0.083345
     3  H    0.409769  -0.083345   0.691937  -0.052309  -0.052309
     4  H    0.409769  -0.083345  -0.052309   0.691937  -0.052309
     5  H    0.409769  -0.083345  -0.052309  -0.052309   0.691937
 Mulliken atomic charges:
              1
     1  C   -0.179712
     2  O   -1.079059
     3  H    0.086257
     4  H    0.086257
     5  H    0.086257
 Sum of Mulliken atomic charges =  -1.00000
 Mulliken charges with hydrogens summed into heavy atoms:
              1
     1  C    0.079059
     2  O   -1.079059
 Sum of Mulliken charges with hydrogens summed into heavy atoms =  -1.00000
 Electronic spatial extent (au):  <R**2>=             89.0041
 Charge=             -1.0000 electrons
 Dipole moment (field-independent basis, Debye):
    X=              0.0000    Y=             -0.0000    Z=             -4.9367  Tot=              4.9367
 Quadrupole moment (field-independent basis, Debye-Ang):
   XX=            -16.3604   YY=            -16.3604   ZZ=            -21.0498
   XY=             -0.0000   XZ=             -0.0000   YZ=              0.0000
 Traceless Quadrupole moment (field-independent basis, Debye-Ang):
   XX=              1.5631   YY=              1.5631   ZZ=             -3.1263
   XY=             -0.0000   XZ=             -0.0000   YZ=              0.0000
 Octapole moment (field-independent basis, Debye-Ang**2):
  XXX=              0.0000  YYY=              0.2029  ZZZ=             -4.9989  XYY=              0.0000
  XXY=             -0.2029  XXZ=             -1.2411  XZZ=             -0.0000  YZZ=             -0.0000
  YYZ=             -1.2411  XYZ=             -0.0000
 Hexadecapole moment (field-independent basis, Debye-Ang**3):
 XXXX=            -28.1901 YYYY=            -28.1901 ZZZZ=            -84.2436 XXXY=              0.0000
 XXXZ=             -0.0000 YYYX=              0.0000 YYYZ=             -0.1019 ZZZX=             -0.0000
 ZZZY=              0.0000 XXYY=             -9.3967 XXZZ=            -19.6180 YYZZ=            -19.6180
 XXYZ=              0.1019 YYXZ=             -0.0000 ZZXY=             -0.0000
 N-N= 3.354076447634D+01 E-N=-3.424809590016D+02  KE= 1.140806443943D+02
 Symmetry A'   KE= 1.080289543628D+02
 Symmetry A"   KE= 6.051690031460D+00
 No NMR shielding tensors so no spin-rotation constants.
 Leave Link  601 at Mon Sep 16 17:45:09 2024, MaxMem=   13107200 cpu:       0.2
 (Enter /programs/64bit/g09/g09-gfortran/bin/l9999.exe)
 B after Tr=    -0.000000   -0.000000    1.108270
         Rot=    0.707107    0.000000    0.000000    0.707107 Ang=  90.00 deg.
 Final structure in terms of initial Z-matrix:
 C
 O,1,oc2
 H,1,hc3,2,hco3
 H,1,hc4,2,hco4,3,dih4,0
 H,1,hc5,2,hco5,3,dih5,0
      Variables:
 oc2=1.40783355
 hc3=1.11100876
 hco3=113.09158747
 hc4=1.11100876
 hco4=113.09158747
 dih4=120.
 hc5=1.11100876
 hco5=113.09158747
 dih5=-120.
 1\1\GINC-MOLMOD\FOpt\RB3LYP\6-31+G(d,p)\C1H3O1(1-)\OSPITE\16-Sep-2024\
 0\\#p B3LYP/6-31+g(d,p) opt scrf=(smd,solvent=water)\\ch3o- solution\\
 -1,1\C,0.,0.,0.0435253297\O,0.,0.,1.4513588841\H,1.0219937344,0.,-0.39
 22145946\H,-0.5109968672,-0.8850725365,-0.3922145946\H,-0.5109968672,0
 .8850725365,-0.3922145946\\Version=EM64L-G09RevA.02\State=1-A1\HF=-115
 .245517\RMSD=5.084e-09\RMSF=9.221e-05\Dipole=0.,0.,-1.9422546\Quadrupo
 le=1.162148,1.162148,-2.3242959,0.,0.,0.\PG=C03V [C3(C1O1),3SGV(H1)]\\
 @


 WE SHOULD BE CAREFUL TO GET OUT OF AN EXPERIENCE ONLY THE WISDOM
 THAT IS IN IT -- AND STOP THERE;
 LEST WE BE LIKE THE CAT THAT SITS DOWN ON A HOT STOVE-LID.
 SHE WILL NEVER SIT DOWN ON A HOT STOVE LID AGAIN;
 BUT ALSO SHE WILL NEVER SIT DOWN ON A COLD ONE ANY MORE.

                                                     -- MARK TWAIN
 Job cpu time:  0 days  0 hours  1 minutes  8.9 seconds.
 File lengths (MBytes):  RWF=      9 Int=      0 D2E=      0 Chk=      2 Scr=      1
 Normal termination of Gaussian 09 at Mon Sep 16 17:45:09 2024.
