 Entering Gaussian System, Link 0=/programs/64bit/g09/g09-gfortran/bin/g09
 Input=ch4_cc-pVQZ.com
 Output=ch4_cc-pVQZ.log
 Initial command:
 /programs/64bit/g09/g09-gfortran/bin/l1.exe /home/ospite/Desktop/MMfP/Project6/CH4/g09/DFT/B3LYP/Gau-5962.inp -scrdir=/home/ospite/Desktop/MMfP/Project6/CH4/g09/DFT/B3LYP/
 Entering Link 1 = /programs/64bit/g09/g09-gfortran/bin/l1.exe PID=      5963.
  
 Copyright (c) 1988,1990,1992,1993,1995,1998,2003,2009, Gaussian, Inc.
                  All Rights Reserved.
  
 This is part of the Gaussian(R) 09 program.  It is based on
 the Gaussian(R) 03 system (copyright 2003, Gaussian, Inc.),
 the Gaussian(R) 98 system (copyright 1998, Gaussian, Inc.),
 the Gaussian(R) 94 system (copyright 1995, Gaussian, Inc.),
 the Gaussian 92(TM) system (copyright 1992, Gaussian, Inc.),
 the Gaussian 90(TM) system (copyright 1990, Gaussian, Inc.),
 the Gaussian 88(TM) system (copyright 1988, Gaussian, Inc.),
 the Gaussian 86(TM) system (copyright 1986, Carnegie Mellon
 University), and the Gaussian 82(TM) system (copyright 1983,
 Carnegie Mellon University). Gaussian is a federally registered
 trademark of Gaussian, Inc.
  
 This software contains proprietary and confidential information,
 including trade secrets, belonging to Gaussian, Inc.
  
 This software is provided under written license and may be
 used, copied, transmitted, or stored only in accord with that
 written license.
  
 The following legend is applicable only to US Government
 contracts under FAR:
  
                    RESTRICTED RIGHTS LEGEND
  
 Use, reproduction and disclosure by the US Government is
 subject to restrictions as set forth in subparagraphs (a)
 and (c) of the Commercial Computer Software - Restricted
 Rights clause in FAR 52.227-19.
  
 Gaussian, Inc.
 340 Quinnipiac St., Bldg. 40, Wallingford CT 06492
  
  
 ---------------------------------------------------------------
 Warning -- This program may not be used in any manner that
 competes with the business of Gaussian, Inc. or will provide
 assistance to any competitor of Gaussian, Inc.  The licensee
 of this program is prohibited from giving any competitor of
 Gaussian, Inc. access to this program.  By using this program,
 the user acknowledges that Gaussian, Inc. is engaged in the
 business of creating and licensing software in the field of
 computational chemistry and represents and warrants to the
 licensee that it is not a competitor of Gaussian, Inc. and that
 it will not use this program in any manner prohibited above.
 ---------------------------------------------------------------
  

 Cite this work as:
 Gaussian 09, Revision A.02,
 M. J. Frisch, G. W. Trucks, H. B. Schlegel, G. E. Scuseria, 
 M. A. Robb, J. R. Cheeseman, G. Scalmani, V. Barone, B. Mennucci, 
 G. A. Petersson, H. Nakatsuji, M. Caricato, X. Li, H. P. Hratchian, 
 A. F. Izmaylov, J. Bloino, G. Zheng, J. L. Sonnenberg, M. Hada, 
 M. Ehara, K. Toyota, R. Fukuda, J. Hasegawa, M. Ishida, T. Nakajima, 
 Y. Honda, O. Kitao, H. Nakai, T. Vreven, J. A. Montgomery, Jr., 
 J. E. Peralta, F. Ogliaro, M. Bearpark, J. J. Heyd, E. Brothers, 
 K. N. Kudin, V. N. Staroverov, R. Kobayashi, J. Normand, 
 K. Raghavachari, A. Rendell, J. C. Burant, S. S. Iyengar, J. Tomasi, 
 M. Cossi, N. Rega, J. M. Millam, M. Klene, J. E. Knox, J. B. Cross, 
 V. Bakken, C. Adamo, J. Jaramillo, R. Gomperts, R. E. Stratmann, 
 O. Yazyev, A. J. Austin, R. Cammi, C. Pomelli, J. W. Ochterski, 
 R. L. Martin, K. Morokuma, V. G. Zakrzewski, G. A. Voth, 
 P. Salvador, J. J. Dannenberg, S. Dapprich, A. D. Daniels, 
 O. Farkas, J. B. Foresman, J. V. Ortiz, J. Cioslowski, 
 and D. J. Fox, Gaussian, Inc., Wallingford CT, 2009.
 
 ******************************************
 Gaussian 09:  EM64L-G09RevA.02 11-Jun-2009
                18-Aug-2024 
 ******************************************
 %mem=100MB
 ------------------------------------------------------------------
 #p b3lyp/cc-pVQZ opt freq symmetry=(follow,pg=Td) pop=full gfinput
 ------------------------------------------------------------------
 1/14=-1,18=20,19=15,26=3,38=1/1,3;
 2/9=110,12=2,17=6,18=5,19=2314885530818462804,40=1/2;
 3/5=16,6=2,11=2,16=1,24=10,25=1,30=1,71=1,74=-5/1,2,3;
 4//1;
 5/5=2,38=5/2;
 6/7=3,28=1/1;
 7//1,2,3,16;
 1/14=-1,18=20,19=15/3(2);
 2/9=110,15=5,19=2314885530818462804/2;
 99//99;
 2/9=110,15=5,19=2314885530818462804/2;
 3/5=16,6=2,11=2,16=1,25=1,30=1,71=1,74=-5/1,2,3;
 4/5=5,16=3/1;
 5/5=2,38=5/2;
 7//1,2,3,16;
 1/14=-1,18=20,19=15/3(-5);
 2/9=110,15=5,19=2314885530818462804/2;
 6/7=3,19=2,28=1/1;
 99/9=1/99;
 Leave Link    1 at Sun Aug 18 13:14:09 2024, MaxMem=   13107200 cpu:       0.1
 (Enter /programs/64bit/g09/g09-gfortran/bin/l101.exe)
 ------------------------------------------------------
 methane with imposed symmetry Td and cc-pVQZ basis set
 ------------------------------------------------------
 Symbolic Z-matrix:
 Charge =  0 Multiplicity = 1
 C1
 H2                   1    d
 H3                   1    d        2    a
 H4                   1    d        2    a        3    t        0
 H5                   1    d        2    a        3    -t       0
       Variables:
  d                     1.09                     
  a                   109.471                    
  t                   120.                       
 
     3 tetrahedral angles replaced.
 NAtoms=      5 NQM=      5 NQMF=      0 NMic=      0 NMicF=      0 NTot=      5.
                    Isotopes and Nuclear Properties:
 (Nuclear quadrupole moments (NQMom) in fm**2, nuclear magnetic moments (NMagM)
  in nuclear magnetons)

  Atom         1           2           3           4           5
 IAtWgt=          12           1           1           1           1
 AtmWgt=  12.0000000   1.0078250   1.0078250   1.0078250   1.0078250
 NucSpn=           0           1           1           1           1
 AtZEff=   0.0000000   0.0000000   0.0000000   0.0000000   0.0000000
 NQMom=    0.0000000   0.0000000   0.0000000   0.0000000   0.0000000
 NMagM=    0.0000000   2.7928460   2.7928460   2.7928460   2.7928460
 Leave Link  101 at Sun Aug 18 13:14:09 2024, MaxMem=   13107200 cpu:       0.1
 (Enter /programs/64bit/g09/g09-gfortran/bin/l103.exe)

 GradGradGradGradGradGradGradGradGradGradGradGradGradGradGradGradGradGrad
 Berny optimization.
 Initialization pass.
                           ----------------------------
                           !    Initial Parameters    !
                           ! (Angstroms and Degrees)  !
 --------------------------                            --------------------------
 ! Name  Definition              Value          Derivative Info.                !
 --------------------------------------------------------------------------------
 ! R1    R(1,2)                  1.09           estimate D2E/DX2                !
 ! R2    R(1,3)                  1.09           estimate D2E/DX2                !
 ! R3    R(1,4)                  1.09           estimate D2E/DX2                !
 ! R4    R(1,5)                  1.09           estimate D2E/DX2                !
 ! A1    A(2,1,3)              109.4712         estimate D2E/DX2                !
 ! A2    A(2,1,4)              109.4712         estimate D2E/DX2                !
 ! A3    A(2,1,5)              109.4712         estimate D2E/DX2                !
 ! A4    A(3,1,4)              109.4712         estimate D2E/DX2                !
 ! A5    A(3,1,5)              109.4712         estimate D2E/DX2                !
 ! A6    A(4,1,5)              109.4712         estimate D2E/DX2                !
 ! D1    D(2,1,4,3)           -120.0            estimate D2E/DX2                !
 ! D2    D(2,1,5,3)            120.0            estimate D2E/DX2                !
 ! D3    D(2,1,5,4)           -120.0            estimate D2E/DX2                !
 ! D4    D(3,1,5,4)            120.0            estimate D2E/DX2                !
 --------------------------------------------------------------------------------
 Trust Radius=3.00D-01 FncErr=1.00D-07 GrdErr=1.00D-06
 Number of steps in this run=  24 maximum allowed number of steps= 100.
 GradGradGradGradGradGradGradGradGradGradGradGradGradGradGradGradGradGrad

 Leave Link  103 at Sun Aug 18 13:14:09 2024, MaxMem=   13107200 cpu:       0.0
 (Enter /programs/64bit/g09/g09-gfortran/bin/l202.exe)
                          Input orientation:                          
 ---------------------------------------------------------------------
 Center     Atomic      Atomic             Coordinates (Angstroms)
 Number     Number       Type             X           Y           Z
 ---------------------------------------------------------------------
      1          6           0        0.000000    0.000000    0.000000
      2          1           0        0.000000    0.000000    1.090000
      3          1           0        1.027662    0.000000   -0.363333
      4          1           0       -0.513831   -0.889981   -0.363333
      5          1           0       -0.513831    0.889981   -0.363333
 ---------------------------------------------------------------------
                    Distance matrix (angstroms):
                    1          2          3          4          5
     1  C    0.000000
     2  H    1.090000   0.000000
     3  H    1.090000   1.779963   0.000000
     4  H    1.090000   1.779963   1.779963   0.000000
     5  H    1.090000   1.779963   1.779963   1.779963   0.000000
 Symm:  InNGrp=TD   InAxis=0.
 Stoichiometry    CH4
 Framework group  TD[O(C),4C3(H)]
 Deg. of freedom     1
 Full point group                 TD      NOp  24
 Largest Abelian subgroup         D2      NOp   4
 Largest concise Abelian subgroup D2      NOp   4
                         Standard orientation:                         
 ---------------------------------------------------------------------
 Center     Atomic      Atomic             Coordinates (Angstroms)
 Number     Number       Type             X           Y           Z
 ---------------------------------------------------------------------
      1          6           0        0.000000    0.000000    0.000000
      2          1           0        0.629312    0.629312    0.629312
      3          1           0       -0.629312   -0.629312    0.629312
      4          1           0       -0.629312    0.629312   -0.629312
      5          1           0        0.629312   -0.629312   -0.629312
 ---------------------------------------------------------------------
 Rotational constants (GHZ):    158.2742720    158.2742720    158.2742720
 Leave Link  202 at Sun Aug 18 13:14:09 2024, MaxMem=   13107200 cpu:       0.0
 (Enter /programs/64bit/g09/g09-gfortran/bin/l301.exe)
 Standard basis: CC-pVQZ (5D, 7F)
 Ernie: Thresh=  0.10000D-02 Tol=  0.10000D-05 Strict=F.
 Ernie:  3 primitive shells out of 81 were deleted.
 AO basis set in the form of general basis input (Overlap normalization):
      1 0
 S   8 1.00       0.000000000000
      0.3398000000D+05  0.1468124114D-03
      0.5089000000D+04  0.1116460016D-02
      0.1157000000D+04  0.5890887108D-02
      0.3266000000D+03  0.2421725547D-01
      0.1061000000D+03  0.8317163879D-01
      0.3811000000D+02  0.2205684777D+00
      0.1475000000D+02  0.4287314969D+00
      0.6035000000D+01  0.3643614225D+00
 S   7 1.00       0.000000000000
      0.5089000000D+04 -0.1002265364D-04
      0.3266000000D+03 -0.4365894368D-03
      0.1061000000D+03 -0.1932312730D-02
      0.3811000000D+02 -0.2148394772D-01
      0.1475000000D+02 -0.9030916566D-01
      0.6035000000D+01 -0.4187915117D+00
      0.2530000000D+01 -0.5318019058D+00
 S   1 1.00       0.000000000000
      0.7355000000D+00  0.1000000000D+01
 S   1 1.00       0.000000000000
      0.2905000000D+00  0.1000000000D+01
 S   1 1.00       0.000000000000
      0.1111000000D+00  0.1000000000D+01
 P   3 1.00       0.000000000000
      0.3451000000D+02  0.3168785521D-01
      0.7915000000D+01  0.2128943073D+00
      0.2368000000D+01  0.8395867520D+00
 P   1 1.00       0.000000000000
      0.8132000000D+00  0.1000000000D+01
 P   1 1.00       0.000000000000
      0.2890000000D+00  0.1000000000D+01
 P   1 1.00       0.000000000000
      0.1007000000D+00  0.1000000000D+01
 D   1 1.00       0.000000000000
      0.1848000000D+01  0.1000000000D+01
 D   1 1.00       0.000000000000
      0.6490000000D+00  0.1000000000D+01
 D   1 1.00       0.000000000000
      0.2280000000D+00  0.1000000000D+01
 F   1 1.00       0.000000000000
      0.1419000000D+01  0.1000000000D+01
 F   1 1.00       0.000000000000
      0.4850000000D+00  0.1000000000D+01
 G   1 1.00       0.000000000000
      0.1011000000D+01  0.1000000000D+01
 ****
      2 0
 S   3 1.00       0.000000000000
      0.8264000000D+02  0.2295075779D-01
      0.1241000000D+02  0.1755401181D+00
      0.2824000000D+01  0.8647035510D+00
 S   1 1.00       0.000000000000
      0.7977000000D+00  0.1000000000D+01
 S   1 1.00       0.000000000000
      0.2581000000D+00  0.1000000000D+01
 S   1 1.00       0.000000000000
      0.8989000000D-01  0.1000000000D+01
 P   1 1.00       0.000000000000
      0.2292000000D+01  0.1000000000D+01
 P   1 1.00       0.000000000000
      0.8380000000D+00  0.1000000000D+01
 P   1 1.00       0.000000000000
      0.2920000000D+00  0.1000000000D+01
 D   1 1.00       0.000000000000
      0.2062000000D+01  0.1000000000D+01
 D   1 1.00       0.000000000000
      0.6620000000D+00  0.1000000000D+01
 F   1 1.00       0.000000000000
      0.1397000000D+01  0.1000000000D+01
 ****
      3 0
 S   3 1.00       0.000000000000
      0.8264000000D+02  0.2295075779D-01
      0.1241000000D+02  0.1755401181D+00
      0.2824000000D+01  0.8647035510D+00
 S   1 1.00       0.000000000000
      0.7977000000D+00  0.1000000000D+01
 S   1 1.00       0.000000000000
      0.2581000000D+00  0.1000000000D+01
 S   1 1.00       0.000000000000
      0.8989000000D-01  0.1000000000D+01
 P   1 1.00       0.000000000000
      0.2292000000D+01  0.1000000000D+01
 P   1 1.00       0.000000000000
      0.8380000000D+00  0.1000000000D+01
 P   1 1.00       0.000000000000
      0.2920000000D+00  0.1000000000D+01
 D   1 1.00       0.000000000000
      0.2062000000D+01  0.1000000000D+01
 D   1 1.00       0.000000000000
      0.6620000000D+00  0.1000000000D+01
 F   1 1.00       0.000000000000
      0.1397000000D+01  0.1000000000D+01
 ****
      4 0
 S   3 1.00       0.000000000000
      0.8264000000D+02  0.2295075779D-01
      0.1241000000D+02  0.1755401181D+00
      0.2824000000D+01  0.8647035510D+00
 S   1 1.00       0.000000000000
      0.7977000000D+00  0.1000000000D+01
 S   1 1.00       0.000000000000
      0.2581000000D+00  0.1000000000D+01
 S   1 1.00       0.000000000000
      0.8989000000D-01  0.1000000000D+01
 P   1 1.00       0.000000000000
      0.2292000000D+01  0.1000000000D+01
 P   1 1.00       0.000000000000
      0.8380000000D+00  0.1000000000D+01
 P   1 1.00       0.000000000000
      0.2920000000D+00  0.1000000000D+01
 D   1 1.00       0.000000000000
      0.2062000000D+01  0.1000000000D+01
 D   1 1.00       0.000000000000
      0.6620000000D+00  0.1000000000D+01
 F   1 1.00       0.000000000000
      0.1397000000D+01  0.1000000000D+01
 ****
      5 0
 S   3 1.00       0.000000000000
      0.8264000000D+02  0.2295075779D-01
      0.1241000000D+02  0.1755401181D+00
      0.2824000000D+01  0.8647035510D+00
 S   1 1.00       0.000000000000
      0.7977000000D+00  0.1000000000D+01
 S   1 1.00       0.000000000000
      0.2581000000D+00  0.1000000000D+01
 S   1 1.00       0.000000000000
      0.8989000000D-01  0.1000000000D+01
 P   1 1.00       0.000000000000
      0.2292000000D+01  0.1000000000D+01
 P   1 1.00       0.000000000000
      0.8380000000D+00  0.1000000000D+01
 P   1 1.00       0.000000000000
      0.2920000000D+00  0.1000000000D+01
 D   1 1.00       0.000000000000
      0.2062000000D+01  0.1000000000D+01
 D   1 1.00       0.000000000000
      0.6620000000D+00  0.1000000000D+01
 F   1 1.00       0.000000000000
      0.1397000000D+01  0.1000000000D+01
 ****

 There are    46 symmetry adapted basis functions of A   symmetry.
 There are    43 symmetry adapted basis functions of B1  symmetry.
 There are    43 symmetry adapted basis functions of B2  symmetry.
 There are    43 symmetry adapted basis functions of B3  symmetry.
 Integral buffers will be    131072 words long.
 Raffenetti 2 integral format.
 Two-electron integral symmetry is turned on.
   175 basis functions,   237 primitive gaussians,   210 cartesian basis functions
     5 alpha electrons        5 beta electrons
       nuclear repulsion energy        13.4353891954 Hartrees.
 IExCor=  402 DFT=T Ex+Corr=B3LYP ExCW=0 ScaHFX=  0.200000
 ScaDFX=  0.800000  0.720000  1.000000  0.810000 ScalE2=  1.000000  1.000000
 IRadAn=      0 IRanWt=     -1 IRanGd=            0 ICorTp=0
 NAtoms=    5 NActive=    5 NUniq=    2 SFac= 3.00D+00 NAtFMM=   80 NAOKFM=F Big=F
 Leave Link  301 at Sun Aug 18 13:14:09 2024, MaxMem=   13107200 cpu:       0.1
 (Enter /programs/64bit/g09/g09-gfortran/bin/l302.exe)
 NPDir=0 NMtPBC=     1 NCelOv=     1 NCel=       1 NClECP=     1 NCelD=      1
         NCelK=      1 NCelE2=     1 NClLst=     1 CellRange=     0.0.
 One-electron integrals computed using PRISM.
 One-electron integral symmetry used in STVInt
 NBasis=   175 RedAO= T  NBF=    46    43    43    43
 NBsUse=   175 1.00D-06 NBFU=    46    43    43    43
 Precomputing XC quadrature grid using
 IXCGrd= 2 IRadAn=           0 IRanWt=          -1 IRanGd=           0 AccXCQ= 1.00D-10.
 NRdTot=     309 NPtTot=       39258 NUsed=       41499 NTot=       41531
 NSgBfM=   210   210   210   210   210 NAtAll=     5     5.
 Leave Link  302 at Sun Aug 18 13:14:09 2024, MaxMem=   13107200 cpu:       0.5
 (Enter /programs/64bit/g09/g09-gfortran/bin/l303.exe)
 DipDrv:  MaxL=1.
 Leave Link  303 at Sun Aug 18 13:14:10 2024, MaxMem=   13107200 cpu:       0.0
 (Enter /programs/64bit/g09/g09-gfortran/bin/l401.exe)
 Harris functional with IExCor=  402 diagonalized for initial guess.
 ExpMin= 8.99D-02 ExpMax= 3.40D+04 ExpMxC= 3.27D+02 IAcc=2 IRadAn=         0 AccDes= 0.00D+00
 HarFok:  IExCor=  402 AccDes= 0.00D+00 IRadAn=         0 IDoV= 1
 ScaDFX=  1.000000  1.000000  1.000000  1.000000
 FoFCou: FMM=F IPFlag=           0 FMFlag=      100000 FMFlg1=           0
         NFxFlg=           0 DoJE=T BraDBF=F KetDBF=T FulRan=T
         Omega=  0.000000  0.000000  1.000000  0.000000  0.000000 ICntrl=     500 IOpCl=  0
         NMat0=    1 NMatS0=    1 NMatT0=    0 NMatD0=    1 NMtDS0=    0 NMtDT0=    0
         I1Cent=           4 NGrid=           0.
 Petite list used in FoFCou.
 Harris En= -40.5929984921652    
 Initial guess orbital symmetries:
       Occupied  (A1) (A1) (T2) (T2) (T2)
       Virtual   (A1) (T2) (T2) (T2) (T2) (T2) (T2) (A1) (T2) (T2)
                 (T2) (E) (E) (A1) (T2) (T2) (T2) (T1) (T1) (T1)
                 (T2) (T2) (T2) (T2) (T2) (T2) (A1) (E) (E) (T2)
                 (T2) (T2) (A1) (E) (E) (T2) (T2) (T2) (T1) (T1)
                 (T1) (T2) (T2) (T2) (A1) (T1) (T1) (T1) (E) (E)
                 (T2) (T2) (T2) (T2) (T2) (T2) (E) (E) (A1) (T1)
                 (T1) (T1) (T2) (T2) (T2) (A1) (T2) (T2) (T2) (T1)
                 (T1) (T1) (T2) (T2) (T2) (A1) (T2) (T2) (T2) (E)
                 (E) (E) (E) (T2) (T2) (T2) (T1) (T1) (T1) (T2)
                 (T2) (T2) (A2) (A1) (T1) (T1) (T1) (T2) (T2) (T2)
                 (A1) (T1) (T1) (T1) (T2) (T2) (T2) (E) (E) (T2)
                 (T2) (T2) (A1) (T1) (T1) (T1) (E) (E) (T2) (T2)
                 (T2) (T2) (T2) (T2) (E) (E) (T1) (T1) (T1) (A1)
                 (T2) (T2) (T2) (A1) (E) (E) (T1) (T1) (T1) (T2)
                 (T2) (T2) (T2) (T2) (T2) (T1) (T1) (T1) (T2) (T2)
                 (T2) (E) (E) (E) (E) (T2) (T2) (T2) (A1) (T2)
                 (T2) (T2) (T1) (T1) (T1) (A1) (T2) (T2) (T2) (A1)
 The electronic state of the initial guess is 1-A1.
 Leave Link  401 at Sun Aug 18 13:14:13 2024, MaxMem=   13107200 cpu:       3.6
 (Enter /programs/64bit/g09/g09-gfortran/bin/l502.exe)
 Closed shell SCF:
 Requested convergence on RMS density matrix=1.00D-08 within 128 cycles.
 Requested convergence on MAX density matrix=1.00D-06.
 Requested convergence on             energy=1.00D-06.
 No special actions if energy rises.
 Using DIIS extrapolation, IDIIS=  1040.
 Integral symmetry usage will be decided dynamically.
        41441 words used for storage of precomputed grid.
 IEnd=      196437 IEndB=      196437 NGot=    13107200 MDV=    12971714
 LenX=    12971714 LenY=    12927173
 Fock matrices will be formed incrementally for  20 cycles.
 Integral accuracy reduced to 1.0D-05 until final iterations.

 Cycle   1  Pass 0  IDiag  1:
 FoFCou: FMM=F IPFlag=           0 FMFlag=      100000 FMFlg1=           0
         NFxFlg=           0 DoJE=F BraDBF=F KetDBF=F FulRan=T
         Omega=  0.000000  0.000000  1.000000  0.000000  0.000000 ICntrl=       0 IOpCl=  0
         NMat0=    1 NMatS0=    1 NMatT0=    0 NMatD0=    1 NMtDS0=    0 NMtDT0=    0
         I1Cent=           0 NGrid=           0.
 Petite list used in FoFCou.
 E= -40.4390388203006    
 DIIS: error= 7.53D-02 at cycle   1 NSaved=   1.
 NSaved= 1 IEnMin= 1 EnMin= -40.4390388203006     IErMin= 1 ErrMin= 7.53D-02
 ErrMax= 7.53D-02 EMaxC= 1.00D-01 BMatC= 1.04D-01 BMatP= 1.04D-01
 IDIUse=3 WtCom= 2.47D-01 WtEn= 7.53D-01
 Coeff-Com:  0.100D+01
 Coeff-En:   0.100D+01
 Coeff:      0.100D+01
 Gap=     0.321 Goal=   None    Shift=    0.000
 GapD=    0.321 DampG=1.000 DampE=0.500 DampFc=0.5000 IDamp=-1.
 Damping current iteration by 5.00D-01
 RMSDP=1.84D-03 MaxDP=9.78D-02              OVMax= 2.14D-01

 Cycle   2  Pass 0  IDiag  1:
 RMSU=  6.07D-04    CP:  9.31D-01
 E= -40.4846086272882     Delta-E=       -0.045569806988 Rises=F Damp=T
 DIIS: error= 9.50D-03 at cycle   2 NSaved=   2.
 NSaved= 2 IEnMin= 2 EnMin= -40.4846086272882     IErMin= 2 ErrMin= 9.50D-03
 ErrMax= 9.50D-03 EMaxC= 1.00D-01 BMatC= 2.51D-03 BMatP= 1.04D-01
 IDIUse=3 WtCom= 9.05D-01 WtEn= 9.50D-02
 Coeff-Com:  0.767D-01 0.923D+00
 Coeff-En:   0.151D+00 0.849D+00
 Coeff:      0.837D-01 0.916D+00
 Gap=     0.417 Goal=   None    Shift=    0.000
 RMSDP=2.39D-04 MaxDP=7.63D-03 DE=-4.56D-02 OVMax= 1.16D-01

 Cycle   3  Pass 0  IDiag  1:
 RMSU=  1.62D-04    CP:  9.40D-01  9.44D-01
 E= -40.5415147465222     Delta-E=       -0.056906119234 Rises=F Damp=F
 DIIS: error= 3.91D-04 at cycle   3 NSaved=   3.
 NSaved= 3 IEnMin= 3 EnMin= -40.5415147465222     IErMin= 3 ErrMin= 3.91D-04
 ErrMax= 3.91D-04 EMaxC= 1.00D-01 BMatC= 7.31D-06 BMatP= 2.51D-03
 IDIUse=3 WtCom= 9.96D-01 WtEn= 3.91D-03
 Coeff-Com: -0.487D-02-0.542D-02 0.101D+01
 Coeff-En:   0.000D+00 0.000D+00 0.100D+01
 Coeff:     -0.485D-02-0.540D-02 0.101D+01
 Gap=     0.424 Goal=   None    Shift=    0.000
 RMSDP=1.56D-05 MaxDP=1.16D-03 DE=-5.69D-02 OVMax= 1.21D-03

 Cycle   4  Pass 0  IDiag  1:
 RMSU=  8.11D-06    CP:  9.40D-01  9.52D-01  1.03D+00
 E= -40.5415213657711     Delta-E=       -0.000006619249 Rises=F Damp=F
 DIIS: error= 1.82D-04 at cycle   4 NSaved=   4.
 NSaved= 4 IEnMin= 4 EnMin= -40.5415213657711     IErMin= 4 ErrMin= 1.82D-04
 ErrMax= 1.82D-04 EMaxC= 1.00D-01 BMatC= 6.37D-07 BMatP= 7.31D-06
 IDIUse=3 WtCom= 9.98D-01 WtEn= 1.82D-03
 Coeff-Com:  0.195D-02-0.315D-02 0.285D-01 0.973D+00
 Coeff-En:   0.000D+00 0.000D+00 0.000D+00 0.100D+01
 Coeff:      0.195D-02-0.314D-02 0.285D-01 0.973D+00
 Gap=     0.424 Goal=   None    Shift=    0.000
 RMSDP=2.70D-06 MaxDP=1.63D-04 DE=-6.62D-06 OVMax= 2.68D-04

 Initial convergence to 1.0D-05 achieved.  Increase integral accuracy.
 Cycle   5  Pass 1  IDiag  1:
 E= -40.5414955057674     Delta-E=        0.000025860004 Rises=F Damp=F
 DIIS: error= 3.05D-05 at cycle   1 NSaved=   1.
 NSaved= 1 IEnMin= 1 EnMin= -40.5414955057674     IErMin= 1 ErrMin= 3.05D-05
 ErrMax= 3.05D-05 EMaxC= 1.00D-01 BMatC= 5.25D-08 BMatP= 5.25D-08
 IDIUse=1 WtCom= 1.00D+00 WtEn= 0.00D+00
 Coeff-Com:  0.100D+01
 Coeff:      0.100D+01
 Gap=     0.424 Goal=   None    Shift=    0.000
 RMSDP=2.70D-06 MaxDP=1.63D-04 DE= 2.59D-05 OVMax= 4.99D-05

 Cycle   6  Pass 1  IDiag  1:
 RMSU=  2.29D-06    CP:  1.00D+00
 E= -40.5414955272163     Delta-E=       -0.000000021449 Rises=F Damp=F
 DIIS: error= 7.25D-06 at cycle   2 NSaved=   2.
 NSaved= 2 IEnMin= 2 EnMin= -40.5414955272163     IErMin= 2 ErrMin= 7.25D-06
 ErrMax= 7.25D-06 EMaxC= 1.00D-01 BMatC= 1.17D-09 BMatP= 5.25D-08
 IDIUse=1 WtCom= 1.00D+00 WtEn= 0.00D+00
 Coeff-Com: -0.534D-02 0.101D+01
 Coeff:     -0.534D-02 0.101D+01
 Gap=     0.424 Goal=   None    Shift=    0.000
 RMSDP=2.07D-07 MaxDP=1.04D-05 DE=-2.14D-08 OVMax= 1.94D-05

 Cycle   7  Pass 1  IDiag  1:
 RMSU=  1.20D-07    CP:  1.00D+00  1.03D+00
 E= -40.5414955268897     Delta-E=        0.000000000327 Rises=F Damp=F
 DIIS: error= 8.64D-06 at cycle   3 NSaved=   3.
 NSaved= 3 IEnMin= 2 EnMin= -40.5414955272163     IErMin= 2 ErrMin= 7.25D-06
 ErrMax= 8.64D-06 EMaxC= 1.00D-01 BMatC= 1.41D-09 BMatP= 1.17D-09
 IDIUse=1 WtCom= 1.00D+00 WtEn= 0.00D+00
 Coeff-Com: -0.198D-01 0.538D+00 0.481D+00
 Coeff:     -0.198D-01 0.538D+00 0.481D+00
 Gap=     0.424 Goal=   None    Shift=    0.000
 RMSDP=1.01D-07 MaxDP=4.64D-06 DE= 3.27D-10 OVMax= 1.15D-05

 Cycle   8  Pass 1  IDiag  1:
 RMSU=  3.52D-08    CP:  1.00D+00  1.05D+00  5.79D-01
 E= -40.5414955282570     Delta-E=       -0.000000001367 Rises=F Damp=F
 DIIS: error= 2.71D-07 at cycle   4 NSaved=   4.
 NSaved= 4 IEnMin= 4 EnMin= -40.5414955282570     IErMin= 4 ErrMin= 2.71D-07
 ErrMax= 2.71D-07 EMaxC= 1.00D-01 BMatC= 1.53D-12 BMatP= 1.17D-09
 IDIUse=1 WtCom= 1.00D+00 WtEn= 0.00D+00
 Coeff-Com:  0.921D-04-0.191D-01 0.155D-01 0.100D+01
 Coeff:      0.921D-04-0.191D-01 0.155D-01 0.100D+01
 Gap=     0.424 Goal=   None    Shift=    0.000
 RMSDP=6.38D-09 MaxDP=2.25D-07 DE=-1.37D-09 OVMax= 3.80D-07

 SCF Done:  E(RB3LYP) =  -40.5414955283     A.U. after    8 cycles
             Convg  =    0.6377D-08             -V/T =  2.0069
 KE= 4.026186757155D+01 PE=-1.201163411845D+02 EE= 2.587758888926D+01
 Leave Link  502 at Sun Aug 18 13:15:05 2024, MaxMem=   13107200 cpu:      49.9
 (Enter /programs/64bit/g09/g09-gfortran/bin/l601.exe)
 Copying SCF densities to generalized density rwf, IOpCl= 0 IROHF=0.

 **********************************************************************

            Population analysis using the SCF density.

 **********************************************************************

 Orbital symmetries:
       Occupied  (A1) (A1) (T2) (T2) (T2)
       Virtual   (A1) (T2) (T2) (T2) (T2) (T2) (T2) (A1) (T2) (T2)
                 (T2) (E) (E) (A1) (T1) (T1) (T1) (T2) (T2) (T2)
                 (T2) (T2) (T2) (T2) (T2) (T2) (A1) (E) (E) (T2)
                 (T2) (T2) (A1) (E) (E) (T2) (T2) (T2) (T1) (T1)
                 (T1) (T2) (T2) (T2) (A1) (T1) (T1) (T1) (E) (E)
                 (T2) (T2) (T2) (T2) (T2) (T2) (E) (E) (A1) (T1)
                 (T1) (T1) (T2) (T2) (T2) (A1) (T2) (T2) (T2) (T1)
                 (T1) (T1) (T2) (T2) (T2) (A1) (T2) (T2) (T2) (E)
                 (E) (E) (E) (T2) (T2) (T2) (T1) (T1) (T1) (A2)
                 (T2) (T2) (T2) (A1) (T1) (T1) (T1) (A1) (T2) (T2)
                 (T2) (T1) (T1) (T1) (T2) (T2) (T2) (E) (E) (A1)
                 (T2) (T2) (T2) (T1) (T1) (T1) (E) (E) (T2) (T2)
                 (T2) (T2) (T2) (T2) (E) (E) (T1) (T1) (T1) (A1)
                 (T2) (T2) (T2) (A1) (E) (E) (T1) (T1) (T1) (T2)
                 (T2) (T2) (T2) (T2) (T2) (T1) (T1) (T1) (T2) (T2)
                 (T2) (E) (E) (E) (E) (T2) (T2) (T2) (A1) (T2)
                 (T2) (T2) (T1) (T1) (T1) (A1) (T2) (T2) (T2) (A1)
 The electronic state is 1-A1.
 Alpha  occ. eigenvalues --  -10.15349  -0.69643  -0.39541  -0.39541  -0.39541
 Alpha virt. eigenvalues --    0.02861   0.10514   0.10514   0.10514   0.17347
 Alpha virt. eigenvalues --    0.17347   0.17347   0.36047   0.37616   0.37616
 Alpha virt. eigenvalues --    0.37616   0.38301   0.38301   0.47277   0.66840
 Alpha virt. eigenvalues --    0.66840   0.66840   0.67862   0.67862   0.67862
 Alpha virt. eigenvalues --    0.79260   0.79260   0.79260   0.98047   0.98047
 Alpha virt. eigenvalues --    0.98047   1.00571   1.05338   1.05338   1.26597
 Alpha virt. eigenvalues --    1.26597   1.26597   1.30230   1.66793   1.66793
 Alpha virt. eigenvalues --    1.70641   1.70641   1.70641   1.80754   1.80754
 Alpha virt. eigenvalues --    1.80754   1.91275   1.91275   1.91275   2.08578
 Alpha virt. eigenvalues --    2.11612   2.11612   2.11612   2.25333   2.25333
 Alpha virt. eigenvalues --    2.32996   2.32996   2.32996   2.40617   2.40617
 Alpha virt. eigenvalues --    2.40617   2.50737   2.50737   2.54436   2.86393
 Alpha virt. eigenvalues --    2.86393   2.86393   2.94080   2.94080   2.94080
 Alpha virt. eigenvalues --    3.09193   3.17081   3.17081   3.17081   3.19606
 Alpha virt. eigenvalues --    3.19606   3.19606   3.36211   3.36211   3.36211
 Alpha virt. eigenvalues --    3.68791   3.80128   3.80128   3.80128   3.82520
 Alpha virt. eigenvalues --    3.82520   5.23374   5.23374   5.27963   5.27963
 Alpha virt. eigenvalues --    5.27963   5.35913   5.35913   5.35913   5.89342
 Alpha virt. eigenvalues --    5.89435   5.89435   5.89435   5.98386   5.99389
 Alpha virt. eigenvalues --    5.99389   5.99389   6.02048   6.04250   6.04250
 Alpha virt. eigenvalues --    6.04250   6.09963   6.09963   6.09963   6.15918
 Alpha virt. eigenvalues --    6.15918   6.15918   6.60863   6.60863   6.66954
 Alpha virt. eigenvalues --    6.68937   6.68937   6.68937   7.21121   7.21121
 Alpha virt. eigenvalues --    7.21121   7.24558   7.24558   7.26818   7.26818
 Alpha virt. eigenvalues --    7.26818   7.60680   7.60680   7.60680   7.64753
 Alpha virt. eigenvalues --    7.64753   7.67060   7.67060   7.67060   7.90383
 Alpha virt. eigenvalues --    7.92700   7.92700   7.92700   8.25808   8.27987
 Alpha virt. eigenvalues --    8.27987   8.35521   8.35521   8.35521   8.39363
 Alpha virt. eigenvalues --    8.39363   8.39363   8.47567   8.47567   8.47567
 Alpha virt. eigenvalues --    8.93633   8.93633   8.93633   9.00019   9.00019
 Alpha virt. eigenvalues --    9.00019   9.38503   9.38503   9.77097   9.77097
 Alpha virt. eigenvalues --    9.83061   9.83061   9.83061  10.00953  10.05140
 Alpha virt. eigenvalues --   10.05140  10.05140  10.47315  10.47315  10.47315
 Alpha virt. eigenvalues --   10.68050  12.29049  12.29049  12.29049  26.37983
     Molecular Orbital Coefficients:
                           1         2         3         4         5
                        (A1)--O   (A1)--O   (T2)--O   (T2)--O   (T2)--O
     Eigenvalues --   -10.15349  -0.69643  -0.39541  -0.39541  -0.39541
   1 1   C  1S          0.62669  -0.11957   0.00000   0.00000   0.00000
   2        2S         -0.39818   0.17981   0.00000   0.00000   0.00000
   3        3S          0.05599   0.20967   0.00000   0.00000   0.00000
   4        4S         -0.03248   0.40848   0.00000   0.00000   0.00000
   5        5S         -0.00153   0.12883   0.00000   0.00000   0.00000
   6        6PX         0.00000   0.00000   0.00000   0.00000   0.12372
   7        6PY         0.00000   0.00000   0.12372   0.00000   0.00000
   8        6PZ         0.00000   0.00000   0.00000   0.12372   0.00000
   9        7PX         0.00000   0.00000   0.00000   0.00000   0.22182
  10        7PY         0.00000   0.00000   0.22182   0.00000   0.00000
  11        7PZ         0.00000   0.00000   0.00000   0.22182   0.00000
  12        8PX         0.00000   0.00000   0.00000   0.00000   0.23957
  13        8PY         0.00000   0.00000   0.23957   0.00000   0.00000
  14        8PZ         0.00000   0.00000   0.00000   0.23957   0.00000
  15        9PX         0.00000   0.00000   0.00000   0.00000   0.10135
  16        9PY         0.00000   0.00000   0.10135   0.00000   0.00000
  17        9PZ         0.00000   0.00000   0.00000   0.10135   0.00000
  18       10D 0       -0.00000   0.00000   0.00000   0.00000   0.00000
  19       10D+1        0.00000   0.00000   0.00614   0.00000   0.00000
  20       10D-1        0.00000   0.00000   0.00000   0.00000   0.00614
  21       10D+2       -0.00000   0.00000   0.00000   0.00000   0.00000
  22       10D-2        0.00000   0.00000   0.00000   0.00614   0.00000
  23       11D 0        0.00000  -0.00000   0.00000   0.00000   0.00000
  24       11D+1        0.00000   0.00000   0.01090   0.00000   0.00000
  25       11D-1        0.00000   0.00000   0.00000   0.00000   0.01090
  26       11D+2        0.00000  -0.00000   0.00000   0.00000   0.00000
  27       11D-2        0.00000   0.00000   0.00000   0.01090   0.00000
  28       12D 0       -0.00000  -0.00000   0.00000   0.00000   0.00000
  29       12D+1        0.00000   0.00000   0.01288   0.00000   0.00000
  30       12D-1        0.00000   0.00000   0.00000   0.00000   0.01288
  31       12D+2        0.00000   0.00000   0.00000   0.00000   0.00000
  32       12D-2        0.00000   0.00000   0.00000   0.01288   0.00000
  33       13F 0        0.00000   0.00000   0.00000  -0.00071   0.00000
  34       13F+1        0.00000   0.00000   0.00000   0.00000   0.00043
  35       13F-1        0.00000   0.00000   0.00043   0.00000   0.00000
  36       13F+2        0.00000   0.00000   0.00000  -0.00000   0.00000
  37       13F-2        0.00273   0.00300   0.00000   0.00000   0.00000
  38       13F+3        0.00000   0.00000   0.00000   0.00000  -0.00056
  39       13F-3        0.00000   0.00000   0.00056   0.00000   0.00000
  40       14F 0        0.00000   0.00000   0.00000   0.00056   0.00000
  41       14F+1        0.00000   0.00000   0.00000   0.00000  -0.00034
  42       14F-1        0.00000   0.00000  -0.00034   0.00000   0.00000
  43       14F+2        0.00000   0.00000   0.00000   0.00000   0.00000
  44       14F-2       -0.00452   0.00807   0.00000   0.00000   0.00000
  45       14F+3        0.00000   0.00000   0.00000   0.00000   0.00044
  46       14F-3        0.00000   0.00000  -0.00044   0.00000   0.00000
  47       15G 0        0.00006  -0.00099   0.00000   0.00000   0.00000
  48       15G+1        0.00000   0.00000  -0.00037   0.00000   0.00000
  49       15G-1        0.00000   0.00000   0.00000   0.00000  -0.00037
  50       15G+2        0.00000   0.00000   0.00000   0.00000   0.00000
  51       15G-2        0.00000   0.00000   0.00000   0.00106   0.00000
  52       15G+3        0.00000   0.00000  -0.00099   0.00000   0.00000
  53       15G-3        0.00000   0.00000   0.00000   0.00000   0.00099
  54       15G+4        0.00005  -0.00084   0.00000   0.00000   0.00000
  55       15G-4        0.00000   0.00000   0.00000  -0.00000   0.00000
  56 2   H  1S          0.00050   0.03344   0.04000   0.04000   0.04000
  57        2S          0.00163   0.07693   0.10577   0.10577   0.10577
  58        3S          0.00329   0.07135   0.13340   0.13340   0.13340
  59        4S          0.00004   0.00992   0.05716   0.05716   0.05716
  60        5PX        -0.00042  -0.00197  -0.00183  -0.00183   0.00009
  61        5PY        -0.00042  -0.00197   0.00009  -0.00183  -0.00183
  62        5PZ        -0.00042  -0.00197  -0.00183   0.00009  -0.00183
  63        6PX         0.00135  -0.00438  -0.00803  -0.00803  -0.00131
  64        6PY         0.00135  -0.00438  -0.00131  -0.00803  -0.00803
  65        6PZ         0.00135  -0.00438  -0.00803  -0.00131  -0.00803
  66        7PX        -0.00043  -0.00179  -0.00572  -0.00572   0.00564
  67        7PY        -0.00043  -0.00179   0.00564  -0.00572  -0.00572
  68        7PZ        -0.00043  -0.00179  -0.00572   0.00564  -0.00572
  69        8D 0        0.00000   0.00000   0.00023  -0.00046   0.00023
  70        8D+1       -0.00018   0.00049   0.00100   0.00047   0.00047
  71        8D-1       -0.00018   0.00049   0.00047   0.00047   0.00100
  72        8D+2        0.00000   0.00000   0.00039   0.00000  -0.00039
  73        8D-2       -0.00018   0.00049   0.00047   0.00100   0.00047
  74        9D 0        0.00000  -0.00000   0.00080  -0.00159   0.00080
  75        9D+1       -0.00158   0.00090   0.00245   0.00117   0.00117
  76        9D-1       -0.00158   0.00090   0.00117   0.00117   0.00245
  77        9D+2        0.00000  -0.00000   0.00138  -0.00000  -0.00138
  78        9D-2       -0.00158   0.00090   0.00117   0.00245   0.00117
  79       10F 0       -0.00039   0.00008   0.00023   0.00035   0.00023
  80       10F+1        0.00024  -0.00005  -0.00037   0.00009  -0.00021
  81       10F-1        0.00024  -0.00005  -0.00021   0.00009  -0.00037
  82       10F+2       -0.00000   0.00000  -0.00029   0.00000   0.00029
  83       10F-2        0.00098  -0.00019  -0.00061  -0.00061  -0.00061
  84       10F+3       -0.00031   0.00007   0.00001   0.00036   0.00028
  85       10F-3        0.00031  -0.00007  -0.00028  -0.00036  -0.00001
  86 3   H  1S          0.00050   0.03344  -0.04000   0.04000  -0.04000
  87        2S          0.00163   0.07693  -0.10577   0.10577  -0.10577
  88        3S          0.00329   0.07135  -0.13340   0.13340  -0.13340
  89        4S          0.00004   0.00992  -0.05716   0.05716  -0.05716
  90        5PX         0.00042   0.00197  -0.00183   0.00183   0.00009
  91        5PY         0.00042   0.00197   0.00009   0.00183  -0.00183
  92        5PZ        -0.00042  -0.00197   0.00183   0.00009   0.00183
  93        6PX        -0.00135   0.00438  -0.00803   0.00803  -0.00131
  94        6PY        -0.00135   0.00438  -0.00131   0.00803  -0.00803
  95        6PZ         0.00135  -0.00438   0.00803  -0.00131   0.00803
  96        7PX         0.00043   0.00179  -0.00572   0.00572   0.00564
  97        7PY         0.00043   0.00179   0.00564   0.00572  -0.00572
  98        7PZ        -0.00043  -0.00179   0.00572   0.00564   0.00572
  99        8D 0        0.00000   0.00000  -0.00023  -0.00046  -0.00023
 100        8D+1        0.00018  -0.00049   0.00100  -0.00047   0.00047
 101        8D-1        0.00018  -0.00049   0.00047  -0.00047   0.00100
 102        8D+2        0.00000   0.00000  -0.00039   0.00000   0.00039
 103        8D-2       -0.00018   0.00049  -0.00047   0.00100  -0.00047
 104        9D 0        0.00000  -0.00000  -0.00080  -0.00159  -0.00080
 105        9D+1        0.00158  -0.00090   0.00245  -0.00117   0.00117
 106        9D-1        0.00158  -0.00090   0.00117  -0.00117   0.00245
 107        9D+2        0.00000  -0.00000  -0.00138  -0.00000   0.00138
 108        9D-2       -0.00158   0.00090  -0.00117   0.00245  -0.00117
 109       10F 0       -0.00039   0.00008  -0.00023   0.00035  -0.00023
 110       10F+1       -0.00024   0.00005  -0.00037  -0.00009  -0.00021
 111       10F-1       -0.00024   0.00005  -0.00021  -0.00009  -0.00037
 112       10F+2       -0.00000   0.00000   0.00029   0.00000  -0.00029
 113       10F-2        0.00098  -0.00019   0.00061  -0.00061   0.00061
 114       10F+3        0.00031  -0.00007   0.00001  -0.00036   0.00028
 115       10F-3       -0.00031   0.00007  -0.00028   0.00036  -0.00001
 116 4   H  1S          0.00050   0.03344   0.04000  -0.04000  -0.04000
 117        2S          0.00163   0.07693   0.10577  -0.10577  -0.10577
 118        3S          0.00329   0.07135   0.13340  -0.13340  -0.13340
 119        4S          0.00004   0.00992   0.05716  -0.05716  -0.05716
 120        5PX         0.00042   0.00197   0.00183  -0.00183   0.00009
 121        5PY        -0.00042  -0.00197   0.00009   0.00183   0.00183
 122        5PZ         0.00042   0.00197   0.00183   0.00009  -0.00183
 123        6PX        -0.00135   0.00438   0.00803  -0.00803  -0.00131
 124        6PY         0.00135  -0.00438  -0.00131   0.00803   0.00803
 125        6PZ        -0.00135   0.00438   0.00803  -0.00131  -0.00803
 126        7PX         0.00043   0.00179   0.00572  -0.00572   0.00564
 127        7PY        -0.00043  -0.00179   0.00564   0.00572   0.00572
 128        7PZ         0.00043   0.00179   0.00572   0.00564  -0.00572
 129        8D 0        0.00000   0.00000   0.00023   0.00046  -0.00023
 130        8D+1       -0.00018   0.00049   0.00100  -0.00047  -0.00047
 131        8D-1        0.00018  -0.00049  -0.00047   0.00047   0.00100
 132        8D+2        0.00000   0.00000   0.00039  -0.00000   0.00039
 133        8D-2        0.00018  -0.00049  -0.00047   0.00100   0.00047
 134        9D 0        0.00000  -0.00000   0.00080   0.00159  -0.00080
 135        9D+1       -0.00158   0.00090   0.00245  -0.00117  -0.00117
 136        9D-1        0.00158  -0.00090  -0.00117   0.00117   0.00245
 137        9D+2        0.00000  -0.00000   0.00138   0.00000   0.00138
 138        9D-2        0.00158  -0.00090  -0.00117   0.00245   0.00117
 139       10F 0        0.00039  -0.00008  -0.00023   0.00035   0.00023
 140       10F+1       -0.00024   0.00005   0.00037   0.00009  -0.00021
 141       10F-1        0.00024  -0.00005  -0.00021  -0.00009   0.00037
 142       10F+2        0.00000  -0.00000   0.00029   0.00000   0.00029
 143       10F-2        0.00098  -0.00019  -0.00061   0.00061   0.00061
 144       10F+3        0.00031  -0.00007  -0.00001   0.00036   0.00028
 145       10F-3        0.00031  -0.00007  -0.00028   0.00036   0.00001
 146 5   H  1S          0.00050   0.03344  -0.04000  -0.04000   0.04000
 147        2S          0.00163   0.07693  -0.10577  -0.10577   0.10577
 148        3S          0.00329   0.07135  -0.13340  -0.13340   0.13340
 149        4S          0.00004   0.00992  -0.05716  -0.05716   0.05716
 150        5PX        -0.00042  -0.00197   0.00183   0.00183   0.00009
 151        5PY         0.00042   0.00197   0.00009  -0.00183   0.00183
 152        5PZ         0.00042   0.00197  -0.00183   0.00009   0.00183
 153        6PX         0.00135  -0.00438   0.00803   0.00803  -0.00131
 154        6PY        -0.00135   0.00438  -0.00131  -0.00803   0.00803
 155        6PZ        -0.00135   0.00438  -0.00803  -0.00131   0.00803
 156        7PX        -0.00043  -0.00179   0.00572   0.00572   0.00564
 157        7PY         0.00043   0.00179   0.00564  -0.00572   0.00572
 158        7PZ         0.00043   0.00179  -0.00572   0.00564   0.00572
 159        8D 0        0.00000   0.00000  -0.00023   0.00046   0.00023
 160        8D+1        0.00018  -0.00049   0.00100   0.00047  -0.00047
 161        8D-1       -0.00018   0.00049  -0.00047  -0.00047   0.00100
 162        8D+2        0.00000   0.00000  -0.00039  -0.00000  -0.00039
 163        8D-2        0.00018  -0.00049   0.00047   0.00100  -0.00047
 164        9D 0        0.00000  -0.00000  -0.00080   0.00159   0.00080
 165        9D+1        0.00158  -0.00090   0.00245   0.00117  -0.00117
 166        9D-1       -0.00158   0.00090  -0.00117  -0.00117   0.00245
 167        9D+2        0.00000  -0.00000  -0.00138   0.00000  -0.00138
 168        9D-2        0.00158  -0.00090   0.00117   0.00245  -0.00117
 169       10F 0        0.00039  -0.00008   0.00023   0.00035  -0.00023
 170       10F+1        0.00024  -0.00005   0.00037  -0.00009  -0.00021
 171       10F-1       -0.00024   0.00005  -0.00021   0.00009   0.00037
 172       10F+2        0.00000  -0.00000  -0.00029   0.00000  -0.00029
 173       10F-2        0.00098  -0.00019   0.00061   0.00061  -0.00061
 174       10F+3       -0.00031   0.00007  -0.00001  -0.00036   0.00028
 175       10F-3       -0.00031   0.00007  -0.00028  -0.00036   0.00001
                           6         7         8         9        10
                        (A1)--V   (T2)--V   (T2)--V   (T2)--V   (T2)--V
     Eigenvalues --     0.02861   0.10514   0.10514   0.10514   0.17347
   1 1   C  1S         -0.05737   0.00000   0.00000   0.00000   0.00000
   2        2S          0.09054   0.00000   0.00000   0.00000   0.00000
   3        3S         -0.05479   0.00000   0.00000   0.00000   0.00000
   4        4S          1.63084   0.00000   0.00000   0.00000   0.00000
   5        5S          4.58040   0.00000   0.00000   0.00000   0.00000
   6        6PX         0.00000   0.00000   0.00000  -0.08464   0.00000
   7        6PY         0.00000   0.00000  -0.08464   0.00000  -0.04140
   8        6PZ         0.00000  -0.08464   0.00000   0.00000   0.00000
   9        7PX         0.00000   0.00000   0.00000  -0.14183   0.00000
  10        7PY         0.00000   0.00000  -0.14183   0.00000   0.00590
  11        7PZ         0.00000  -0.14183   0.00000   0.00000   0.00000
  12        8PX         0.00000   0.00000   0.00000  -0.57201   0.00000
  13        8PY         0.00000   0.00000  -0.57201   0.00000   1.97728
  14        8PZ         0.00000  -0.57201   0.00000   0.00000   0.00000
  15        9PX         0.00000   0.00000   0.00000  -1.76772   0.00000
  16        9PY         0.00000   0.00000  -1.76772   0.00000   2.95425
  17        9PZ         0.00000  -1.76772   0.00000   0.00000   0.00000
  18       10D 0       -0.00000   0.00000   0.00000   0.00000   0.00000
  19       10D+1        0.00000   0.00000   0.00096   0.00000  -0.01546
  20       10D-1        0.00000   0.00000   0.00000   0.00096   0.00000
  21       10D+2       -0.00000   0.00000   0.00000   0.00000   0.00000
  22       10D-2        0.00000   0.00096   0.00000   0.00000   0.00000
  23       11D 0       -0.00000   0.00000   0.00000   0.00000   0.00000
  24       11D+1        0.00000   0.00000   0.02493   0.00000   0.17607
  25       11D-1        0.00000   0.00000   0.00000   0.02493   0.00000
  26       11D+2        0.00000   0.00000   0.00000   0.00000   0.00000
  27       11D-2        0.00000   0.02493   0.00000   0.00000   0.00000
  28       12D 0       -0.00000   0.00000   0.00000   0.00000   0.00000
  29       12D+1        0.00000   0.00000  -0.16853   0.00000   0.86379
  30       12D-1        0.00000   0.00000   0.00000  -0.16853   0.00000
  31       12D+2        0.00000   0.00000   0.00000   0.00000   0.00000
  32       12D-2        0.00000  -0.16853   0.00000   0.00000   0.00000
  33       13F 0        0.00000  -0.00203   0.00000   0.00000   0.00000
  34       13F+1        0.00000   0.00000   0.00000   0.00124   0.00000
  35       13F-1        0.00000   0.00000   0.00124   0.00000   0.00549
  36       13F+2        0.00000   0.00000   0.00000   0.00000   0.00000
  37       13F-2        0.00385   0.00000   0.00000   0.00000   0.00000
  38       13F+3        0.00000   0.00000   0.00000  -0.00161   0.00000
  39       13F-3        0.00000   0.00000   0.00161   0.00000   0.00709
  40       14F 0        0.00000  -0.00675   0.00000   0.00000   0.00000
  41       14F+1        0.00000   0.00000   0.00000   0.00413   0.00000
  42       14F-1        0.00000   0.00000   0.00413   0.00000   0.03224
  43       14F+2        0.00000  -0.00000   0.00000   0.00000   0.00000
  44       14F-2        0.08609   0.00000   0.00000   0.00000   0.00000
  45       14F+3        0.00000   0.00000   0.00000  -0.00534   0.00000
  46       14F-3        0.00000   0.00000   0.00534   0.00000   0.04162
  47       15G 0       -0.00554   0.00000   0.00000   0.00000   0.00000
  48       15G+1        0.00000   0.00000   0.00069   0.00000  -0.00539
  49       15G-1        0.00000   0.00000   0.00000   0.00069   0.00000
  50       15G+2        0.00000   0.00000   0.00000   0.00000   0.00000
  51       15G-2        0.00000  -0.00195   0.00000   0.00000   0.00000
  52       15G+3        0.00000   0.00000   0.00182   0.00000  -0.01426
  53       15G-3        0.00000   0.00000   0.00000  -0.00182   0.00000
  54       15G+4       -0.00468   0.00000   0.00000   0.00000   0.00000
  55       15G-4        0.00000  -0.00000   0.00000   0.00000   0.00000
  56 2   H  1S          0.00100   0.00307   0.00307   0.00307  -0.02113
  57        2S         -0.02594   0.01935   0.01935   0.01935  -0.02732
  58        3S         -0.72842   0.26491   0.26491   0.26491  -2.20145
  59        4S         -1.19605   1.85338   1.85338   1.85338  -0.75886
  60        5PX        -0.00214  -0.00024  -0.00024  -0.00121  -0.00853
  61        5PY        -0.00214  -0.00024  -0.00121  -0.00024  -0.00790
  62        5PZ        -0.00214  -0.00121  -0.00024  -0.00024  -0.00853
  63        6PX         0.01079   0.02018   0.02018   0.00926   0.06132
  64        6PY         0.01079   0.02018   0.00926   0.02018   0.07883
  65        6PZ         0.01079   0.00926   0.02018   0.02018   0.06132
  66        7PX         0.18662  -0.10588  -0.10588  -0.07442   0.39455
  67        7PY         0.18662  -0.10588  -0.07442  -0.10588   0.26900
  68        7PZ         0.18662  -0.07442  -0.10588  -0.10588   0.39455
  69        8D 0        0.00000   0.00031  -0.00016  -0.00016   0.00018
  70        8D+1        0.00109  -0.00111  -0.00181  -0.00111   0.00317
  71        8D-1        0.00109  -0.00111  -0.00111  -0.00181  -0.00206
  72        8D+2       -0.00000  -0.00000  -0.00027   0.00027   0.00030
  73        8D-2        0.00109  -0.00181  -0.00111  -0.00111  -0.00206
  74        9D 0       -0.00000  -0.00150   0.00075   0.00075  -0.00452
  75        9D+1       -0.01969   0.00364   0.01064   0.00364  -0.07273
  76        9D-1       -0.01969   0.00364   0.00364   0.01064  -0.03506
  77        9D+2        0.00000  -0.00000   0.00130  -0.00130  -0.00783
  78        9D-2       -0.01969   0.01064   0.00364   0.00364  -0.03506
  79       10F 0       -0.00071   0.00010  -0.00027  -0.00027  -0.00320
  80       10F+1        0.00043   0.00067  -0.00034  -0.00006   0.00270
  81       10F-1        0.00043   0.00067  -0.00006  -0.00034   0.00181
  82       10F+2       -0.00000  -0.00000  -0.00064   0.00064   0.00094
  83       10F-2        0.00173   0.00061   0.00061   0.00061   0.00569
  84       10F+3       -0.00056   0.00018  -0.00061   0.00008  -0.00195
  85       10F-3        0.00056  -0.00018  -0.00008   0.00061   0.00233
  86 3   H  1S          0.00100   0.00307  -0.00307  -0.00307   0.02113
  87        2S         -0.02594   0.01935  -0.01935  -0.01935   0.02732
  88        3S         -0.72842   0.26491  -0.26491  -0.26491   2.20145
  89        4S         -1.19605   1.85338  -1.85338  -1.85338   0.75886
  90        5PX         0.00214   0.00024  -0.00024  -0.00121  -0.00853
  91        5PY         0.00214   0.00024  -0.00121  -0.00024  -0.00790
  92        5PZ        -0.00214  -0.00121   0.00024   0.00024   0.00853
  93        6PX        -0.01079  -0.02018   0.02018   0.00926   0.06132
  94        6PY        -0.01079  -0.02018   0.00926   0.02018   0.07883
  95        6PZ         0.01079   0.00926  -0.02018  -0.02018  -0.06132
  96        7PX        -0.18662   0.10588  -0.10588  -0.07442   0.39455
  97        7PY        -0.18662   0.10588  -0.07442  -0.10588   0.26900
  98        7PZ         0.18662  -0.07442   0.10588   0.10588  -0.39455
  99        8D 0        0.00000   0.00031   0.00016   0.00016  -0.00018
 100        8D+1       -0.00109   0.00111  -0.00181  -0.00111   0.00317
 101        8D-1       -0.00109   0.00111  -0.00111  -0.00181  -0.00206
 102        8D+2       -0.00000  -0.00000   0.00027  -0.00027  -0.00030
 103        8D-2        0.00109  -0.00181   0.00111   0.00111   0.00206
 104        9D 0       -0.00000  -0.00150  -0.00075  -0.00075   0.00452
 105        9D+1        0.01969  -0.00364   0.01064   0.00364  -0.07273
 106        9D-1        0.01969  -0.00364   0.00364   0.01064  -0.03506
 107        9D+2        0.00000  -0.00000  -0.00130   0.00130   0.00783
 108        9D-2       -0.01969   0.01064  -0.00364  -0.00364   0.03506
 109       10F 0       -0.00071   0.00010   0.00027   0.00027   0.00320
 110       10F+1       -0.00043  -0.00067  -0.00034  -0.00006   0.00270
 111       10F-1       -0.00043  -0.00067  -0.00006  -0.00034   0.00181
 112       10F+2       -0.00000  -0.00000   0.00064  -0.00064  -0.00094
 113       10F-2        0.00173   0.00061  -0.00061  -0.00061  -0.00569
 114       10F+3        0.00056  -0.00018  -0.00061   0.00008  -0.00195
 115       10F-3       -0.00056   0.00018  -0.00008   0.00061   0.00233
 116 4   H  1S          0.00100  -0.00307   0.00307  -0.00307  -0.02113
 117        2S         -0.02594  -0.01935   0.01935  -0.01935  -0.02732
 118        3S         -0.72842  -0.26491   0.26491  -0.26491  -2.20145
 119        4S         -1.19605  -1.85338   1.85338  -1.85338  -0.75886
 120        5PX         0.00214  -0.00024   0.00024  -0.00121   0.00853
 121        5PY        -0.00214   0.00024  -0.00121   0.00024  -0.00790
 122        5PZ         0.00214  -0.00121   0.00024  -0.00024   0.00853
 123        6PX        -0.01079   0.02018  -0.02018   0.00926  -0.06132
 124        6PY         0.01079  -0.02018   0.00926  -0.02018   0.07883
 125        6PZ        -0.01079   0.00926  -0.02018   0.02018  -0.06132
 126        7PX        -0.18662  -0.10588   0.10588  -0.07442  -0.39455
 127        7PY         0.18662   0.10588  -0.07442   0.10588   0.26900
 128        7PZ        -0.18662  -0.07442   0.10588  -0.10588  -0.39455
 129        8D 0        0.00000  -0.00031  -0.00016   0.00016   0.00018
 130        8D+1        0.00109   0.00111  -0.00181   0.00111   0.00317
 131        8D-1       -0.00109  -0.00111   0.00111  -0.00181   0.00206
 132        8D+2       -0.00000   0.00000  -0.00027  -0.00027   0.00030
 133        8D-2       -0.00109  -0.00181   0.00111  -0.00111   0.00206
 134        9D 0       -0.00000   0.00150   0.00075  -0.00075  -0.00452
 135        9D+1       -0.01969  -0.00364   0.01064  -0.00364  -0.07273
 136        9D-1        0.01969   0.00364  -0.00364   0.01064   0.03506
 137        9D+2        0.00000   0.00000   0.00130   0.00130  -0.00783
 138        9D-2        0.01969   0.01064  -0.00364   0.00364   0.03506
 139       10F 0        0.00071   0.00010   0.00027  -0.00027   0.00320
 140       10F+1       -0.00043   0.00067   0.00034  -0.00006  -0.00270
 141       10F-1        0.00043  -0.00067  -0.00006   0.00034   0.00181
 142       10F+2        0.00000  -0.00000   0.00064   0.00064  -0.00094
 143       10F-2        0.00173  -0.00061   0.00061  -0.00061   0.00569
 144       10F+3        0.00056   0.00018   0.00061   0.00008   0.00195
 145       10F-3        0.00056   0.00018  -0.00008  -0.00061   0.00233
 146 5   H  1S          0.00100  -0.00307  -0.00307   0.00307   0.02113
 147        2S         -0.02594  -0.01935  -0.01935   0.01935   0.02732
 148        3S         -0.72842  -0.26491  -0.26491   0.26491   2.20145
 149        4S         -1.19605  -1.85338  -1.85338   1.85338   0.75886
 150        5PX        -0.00214   0.00024   0.00024  -0.00121   0.00853
 151        5PY         0.00214  -0.00024  -0.00121   0.00024  -0.00790
 152        5PZ         0.00214  -0.00121  -0.00024   0.00024  -0.00853
 153        6PX         0.01079  -0.02018  -0.02018   0.00926  -0.06132
 154        6PY        -0.01079   0.02018   0.00926  -0.02018   0.07883
 155        6PZ        -0.01079   0.00926   0.02018  -0.02018   0.06132
 156        7PX         0.18662   0.10588   0.10588  -0.07442  -0.39455
 157        7PY        -0.18662  -0.10588  -0.07442   0.10588   0.26900
 158        7PZ        -0.18662  -0.07442  -0.10588   0.10588   0.39455
 159        8D 0        0.00000  -0.00031   0.00016  -0.00016  -0.00018
 160        8D+1       -0.00109  -0.00111  -0.00181   0.00111   0.00317
 161        8D-1        0.00109   0.00111   0.00111  -0.00181   0.00206
 162        8D+2       -0.00000   0.00000   0.00027   0.00027  -0.00030
 163        8D-2       -0.00109  -0.00181  -0.00111   0.00111  -0.00206
 164        9D 0       -0.00000   0.00150  -0.00075   0.00075   0.00452
 165        9D+1        0.01969   0.00364   0.01064  -0.00364  -0.07273
 166        9D-1       -0.01969  -0.00364  -0.00364   0.01064   0.03506
 167        9D+2        0.00000   0.00000  -0.00130  -0.00130   0.00783
 168        9D-2        0.01969   0.01064   0.00364  -0.00364  -0.03506
 169       10F 0        0.00071   0.00010  -0.00027   0.00027  -0.00320
 170       10F+1        0.00043  -0.00067   0.00034  -0.00006  -0.00270
 171       10F-1       -0.00043   0.00067  -0.00006   0.00034   0.00181
 172       10F+2        0.00000  -0.00000  -0.00064  -0.00064   0.00094
 173       10F-2        0.00173  -0.00061  -0.00061   0.00061  -0.00569
 174       10F+3       -0.00056  -0.00018   0.00061   0.00008   0.00195
 175       10F-3       -0.00056  -0.00018  -0.00008  -0.00061   0.00233
                          11        12        13        14        15
                        (T2)--V   (T2)--V   (A1)--V   (T2)--V   (T2)--V
     Eigenvalues --     0.17347   0.17347   0.36047   0.37616   0.37616
   1 1   C  1S          0.00000   0.00000   0.08899   0.00000   0.00000
   2        2S          0.00000   0.00000  -0.15414   0.00000   0.00000
   3        3S          0.00000   0.00000  -0.94977   0.00000   0.00000
   4        4S          0.00000   0.00000   4.96370   0.00000   0.00000
   5        5S          0.00000   0.00000  12.28591   0.00000   0.00000
   6        6PX        -0.04140   0.00000   0.00000   0.00000  -0.12369
   7        6PY         0.00000   0.00000   0.00000   0.00000   0.00000
   8        6PZ         0.00000  -0.04140   0.00000  -0.12369   0.00000
   9        7PX         0.00590   0.00000   0.00000   0.00000  -0.24393
  10        7PY         0.00000   0.00000   0.00000   0.00000   0.00000
  11        7PZ         0.00000   0.00590   0.00000  -0.24393   0.00000
  12        8PX         1.97728   0.00000   0.00000   0.00000   2.07125
  13        8PY         0.00000   0.00000   0.00000   0.00000   0.00000
  14        8PZ         0.00000   1.97728   0.00000   2.07125   0.00000
  15        9PX         2.95425   0.00000   0.00000   0.00000   3.67864
  16        9PY         0.00000   0.00000   0.00000   0.00000   0.00000
  17        9PZ         0.00000   2.95425   0.00000   3.67864   0.00000
  18       10D 0        0.00000   0.00000  -0.00000   0.00000   0.00000
  19       10D+1        0.00000   0.00000   0.00000   0.00000   0.00000
  20       10D-1       -0.01546   0.00000   0.00000   0.00000   0.01124
  21       10D+2        0.00000   0.00000  -0.00000   0.00000   0.00000
  22       10D-2        0.00000  -0.01546   0.00000   0.01124   0.00000
  23       11D 0        0.00000   0.00000  -0.00000   0.00000   0.00000
  24       11D+1        0.00000   0.00000   0.00000   0.00000   0.00000
  25       11D-1        0.17607   0.00000   0.00000   0.00000   0.13642
  26       11D+2        0.00000   0.00000   0.00000   0.00000   0.00000
  27       11D-2        0.00000   0.17607   0.00000   0.13642   0.00000
  28       12D 0        0.00000   0.00000  -0.00000   0.00000   0.00000
  29       12D+1        0.00000   0.00000   0.00000   0.00000   0.00000
  30       12D-1        0.86379   0.00000   0.00000   0.00000   1.32846
  31       12D+2        0.00000   0.00000   0.00000   0.00000   0.00000
  32       12D-2        0.00000   0.86379   0.00000   1.32846   0.00000
  33       13F 0        0.00000  -0.00897   0.00000  -0.00338   0.00000
  34       13F+1        0.00549   0.00000   0.00000   0.00000   0.00207
  35       13F-1        0.00000   0.00000   0.00000   0.00000   0.00000
  36       13F+2        0.00000  -0.00000   0.00000  -0.00000   0.00000
  37       13F-2        0.00000   0.00000   0.01729   0.00000   0.00000
  38       13F+3       -0.00709   0.00000   0.00000   0.00000  -0.00267
  39       13F-3        0.00000   0.00000   0.00000   0.00000   0.00000
  40       14F 0        0.00000  -0.05264   0.00000  -0.02375   0.00000
  41       14F+1        0.03224   0.00000   0.00000   0.00000   0.01455
  42       14F-1        0.00000   0.00000   0.00000   0.00000   0.00000
  43       14F+2        0.00000  -0.00000   0.00000  -0.00000   0.00000
  44       14F-2        0.00000   0.00000   0.37012   0.00000   0.00000
  45       14F+3       -0.04162   0.00000   0.00000   0.00000  -0.01878
  46       14F-3        0.00000   0.00000   0.00000   0.00000   0.00000
  47       15G 0        0.00000   0.00000  -0.02449   0.00000   0.00000
  48       15G+1        0.00000   0.00000   0.00000   0.00000   0.00000
  49       15G-1       -0.00539   0.00000   0.00000   0.00000  -0.00545
  50       15G+2        0.00000   0.00000   0.00000   0.00000   0.00000
  51       15G-2        0.00000   0.01525   0.00000   0.01542   0.00000
  52       15G+3        0.00000   0.00000   0.00000   0.00000   0.00000
  53       15G-3        0.01426   0.00000   0.00000   0.00000   0.01443
  54       15G+4        0.00000   0.00000  -0.02070   0.00000   0.00000
  55       15G-4        0.00000  -0.00000   0.00000  -0.00000   0.00000
  56 2   H  1S         -0.02113  -0.02113   0.02463   0.03288   0.03288
  57        2S         -0.02732  -0.02732  -0.04478   0.06995   0.06995
  58        3S         -2.20145  -2.20145  -2.80545  -1.68196  -1.68196
  59        4S         -0.75886  -0.75886  -2.01339  -2.44195  -2.44195
  60        5PX        -0.00790  -0.00853  -0.00165   0.00494  -0.00196
  61        5PY        -0.00853  -0.00853  -0.00165   0.00494   0.00494
  62        5PZ        -0.00853  -0.00790  -0.00165  -0.00196   0.00494
  63        6PX         0.07883   0.06132   0.08817   0.01299   0.01497
  64        6PY         0.06132   0.06132   0.08817   0.01299   0.01299
  65        6PZ         0.06132   0.07883   0.08817   0.01497   0.01299
  66        7PX         0.26900   0.39455   0.81613   0.67829   0.40273
  67        7PY         0.39455   0.39455   0.81613   0.67829   0.67829
  68        7PZ         0.39455   0.26900   0.81613   0.40273   0.67829
  69        8D 0        0.00018  -0.00035   0.00000   0.00104  -0.00052
  70        8D+1       -0.00206  -0.00206   0.00164   0.00187   0.00187
  71        8D-1        0.00317  -0.00206   0.00164   0.00187   0.00495
  72        8D+2       -0.00030   0.00000  -0.00000   0.00000   0.00090
  73        8D-2       -0.00206   0.00317   0.00164   0.00495   0.00187
  74        9D 0       -0.00452   0.00905  -0.00000   0.02079  -0.01040
  75        9D+1       -0.03506  -0.03506  -0.08150  -0.03144  -0.03144
  76        9D-1       -0.07273  -0.03506  -0.08150  -0.03144  -0.07287
  77        9D+2        0.00783  -0.00000   0.00000  -0.00000   0.01801
  78        9D-2       -0.03506  -0.07273  -0.08150  -0.07287  -0.03144
  79       10F 0       -0.00320  -0.00295  -0.00321  -0.00308  -0.00064
  80       10F+1        0.00181   0.00121   0.00197  -0.00220   0.00189
  81       10F-1        0.00270   0.00121   0.00197  -0.00220   0.00298
  82       10F+2       -0.00094   0.00000  -0.00000   0.00000  -0.00328
  83       10F-2        0.00569   0.00569   0.00675   0.00160   0.00160
  84       10F+3       -0.00233  -0.00310  -0.00254  -0.00251  -0.00244
  85       10F-3        0.00195   0.00310   0.00254   0.00251  -0.00150
  86 3   H  1S          0.02113  -0.02113   0.02463   0.03288  -0.03288
  87        2S          0.02732  -0.02732  -0.04478   0.06995  -0.06995
  88        3S          2.20145  -2.20145  -2.80545  -1.68196   1.68196
  89        4S          0.75886  -0.75886  -2.01339  -2.44195   2.44195
  90        5PX        -0.00790   0.00853   0.00165  -0.00494  -0.00196
  91        5PY        -0.00853   0.00853   0.00165  -0.00494   0.00494
  92        5PZ         0.00853  -0.00790  -0.00165  -0.00196  -0.00494
  93        6PX         0.07883  -0.06132  -0.08817  -0.01299   0.01497
  94        6PY         0.06132  -0.06132  -0.08817  -0.01299   0.01299
  95        6PZ        -0.06132   0.07883   0.08817   0.01497  -0.01299
  96        7PX         0.26900  -0.39455  -0.81613  -0.67829   0.40273
  97        7PY         0.39455  -0.39455  -0.81613  -0.67829   0.67829
  98        7PZ        -0.39455   0.26900   0.81613   0.40273  -0.67829
  99        8D 0       -0.00018  -0.00035   0.00000   0.00104   0.00052
 100        8D+1       -0.00206   0.00206  -0.00164  -0.00187   0.00187
 101        8D-1        0.00317   0.00206  -0.00164  -0.00187   0.00495
 102        8D+2        0.00030   0.00000  -0.00000   0.00000  -0.00090
 103        8D-2        0.00206   0.00317   0.00164   0.00495  -0.00187
 104        9D 0        0.00452   0.00905  -0.00000   0.02079   0.01040
 105        9D+1       -0.03506   0.03506   0.08150   0.03144  -0.03144
 106        9D-1       -0.07273   0.03506   0.08150   0.03144  -0.07287
 107        9D+2       -0.00783  -0.00000   0.00000  -0.00000  -0.01801
 108        9D-2        0.03506  -0.07273  -0.08150  -0.07287   0.03144
 109       10F 0        0.00320  -0.00295  -0.00321  -0.00308   0.00064
 110       10F+1        0.00181  -0.00121  -0.00197   0.00220   0.00189
 111       10F-1        0.00270  -0.00121  -0.00197   0.00220   0.00298
 112       10F+2        0.00094   0.00000  -0.00000   0.00000   0.00328
 113       10F-2       -0.00569   0.00569   0.00675   0.00160  -0.00160
 114       10F+3       -0.00233   0.00310   0.00254   0.00251  -0.00244
 115       10F-3        0.00195  -0.00310  -0.00254  -0.00251  -0.00150
 116 4   H  1S          0.02113   0.02113   0.02463  -0.03288  -0.03288
 117        2S          0.02732   0.02732  -0.04478  -0.06995  -0.06995
 118        3S          2.20145   2.20145  -2.80545   1.68196   1.68196
 119        4S          0.75886   0.75886  -2.01339   2.44195   2.44195
 120        5PX        -0.00790  -0.00853   0.00165   0.00494  -0.00196
 121        5PY         0.00853   0.00853  -0.00165  -0.00494  -0.00494
 122        5PZ        -0.00853  -0.00790   0.00165  -0.00196   0.00494
 123        6PX         0.07883   0.06132  -0.08817   0.01299   0.01497
 124        6PY        -0.06132  -0.06132   0.08817  -0.01299  -0.01299
 125        6PZ         0.06132   0.07883  -0.08817   0.01497   0.01299
 126        7PX         0.26900   0.39455  -0.81613   0.67829   0.40273
 127        7PY        -0.39455  -0.39455   0.81613  -0.67829  -0.67829
 128        7PZ         0.39455   0.26900  -0.81613   0.40273   0.67829
 129        8D 0       -0.00018   0.00035   0.00000  -0.00104   0.00052
 130        8D+1        0.00206   0.00206   0.00164  -0.00187  -0.00187
 131        8D-1        0.00317  -0.00206  -0.00164   0.00187   0.00495
 132        8D+2        0.00030  -0.00000  -0.00000  -0.00000  -0.00090
 133        8D-2       -0.00206   0.00317  -0.00164   0.00495   0.00187
 134        9D 0        0.00452  -0.00905  -0.00000  -0.02079   0.01040
 135        9D+1        0.03506   0.03506  -0.08150   0.03144   0.03144
 136        9D-1       -0.07273  -0.03506   0.08150  -0.03144  -0.07287
 137        9D+2       -0.00783   0.00000   0.00000   0.00000  -0.01801
 138        9D-2       -0.03506  -0.07273   0.08150  -0.07287  -0.03144
 139       10F 0       -0.00320  -0.00295   0.00321  -0.00308  -0.00064
 140       10F+1        0.00181   0.00121  -0.00197  -0.00220   0.00189
 141       10F-1       -0.00270  -0.00121   0.00197   0.00220  -0.00298
 142       10F+2       -0.00094   0.00000   0.00000   0.00000  -0.00328
 143       10F-2       -0.00569  -0.00569   0.00675  -0.00160  -0.00160
 144       10F+3       -0.00233  -0.00310   0.00254  -0.00251  -0.00244
 145       10F-3       -0.00195  -0.00310   0.00254  -0.00251   0.00150
 146 5   H  1S         -0.02113   0.02113   0.02463  -0.03288   0.03288
 147        2S         -0.02732   0.02732  -0.04478  -0.06995   0.06995
 148        3S         -2.20145   2.20145  -2.80545   1.68196  -1.68196
 149        4S         -0.75886   0.75886  -2.01339   2.44195  -2.44195
 150        5PX        -0.00790   0.00853  -0.00165  -0.00494  -0.00196
 151        5PY         0.00853  -0.00853   0.00165   0.00494  -0.00494
 152        5PZ         0.00853  -0.00790   0.00165  -0.00196  -0.00494
 153        6PX         0.07883  -0.06132   0.08817  -0.01299   0.01497
 154        6PY        -0.06132   0.06132  -0.08817   0.01299  -0.01299
 155        6PZ        -0.06132   0.07883  -0.08817   0.01497  -0.01299
 156        7PX         0.26900  -0.39455   0.81613  -0.67829   0.40273
 157        7PY        -0.39455   0.39455  -0.81613   0.67829  -0.67829
 158        7PZ        -0.39455   0.26900  -0.81613   0.40273  -0.67829
 159        8D 0        0.00018   0.00035   0.00000  -0.00104  -0.00052
 160        8D+1        0.00206  -0.00206  -0.00164   0.00187  -0.00187
 161        8D-1        0.00317   0.00206   0.00164  -0.00187   0.00495
 162        8D+2       -0.00030  -0.00000  -0.00000  -0.00000   0.00090
 163        8D-2        0.00206   0.00317  -0.00164   0.00495  -0.00187
 164        9D 0       -0.00452  -0.00905  -0.00000  -0.02079  -0.01040
 165        9D+1        0.03506  -0.03506   0.08150  -0.03144   0.03144
 166        9D-1       -0.07273   0.03506  -0.08150   0.03144  -0.07287
 167        9D+2        0.00783   0.00000   0.00000   0.00000   0.01801
 168        9D-2        0.03506  -0.07273   0.08150  -0.07287   0.03144
 169       10F 0        0.00320  -0.00295   0.00321  -0.00308   0.00064
 170       10F+1        0.00181  -0.00121   0.00197   0.00220   0.00189
 171       10F-1       -0.00270   0.00121  -0.00197  -0.00220  -0.00298
 172       10F+2        0.00094   0.00000   0.00000   0.00000   0.00328
 173       10F-2        0.00569  -0.00569   0.00675  -0.00160   0.00160
 174       10F+3       -0.00233   0.00310  -0.00254   0.00251  -0.00244
 175       10F-3       -0.00195   0.00310  -0.00254   0.00251   0.00150
                          16        17        18        19        20
                        (T2)--V   (E)--V    (E)--V    (A1)--V   (T1)--V
     Eigenvalues --     0.37616   0.38301   0.38301   0.47277   0.66840
   1 1   C  1S          0.00000   0.00000   0.00000  -0.02299   0.00000
   2        2S          0.00000  -0.00000  -0.00000   0.03240   0.00000
   3        3S          0.00000  -0.00000  -0.00000  -0.68044   0.00000
   4        4S          0.00000   0.00000   0.00000   3.83799   0.00000
   5        5S          0.00000   0.00000   0.00000   9.27115   0.00000
   6        6PX         0.00000   0.00000  -0.00000   0.00000  -0.00000
   7        6PY        -0.12369   0.00000  -0.00000   0.00000   0.00000
   8        6PZ         0.00000   0.00000  -0.00000   0.00000   0.00000
   9        7PX         0.00000   0.00000  -0.00000   0.00000  -0.00000
  10        7PY        -0.24393   0.00000  -0.00000   0.00000   0.00000
  11        7PZ         0.00000   0.00000  -0.00000   0.00000   0.00000
  12        8PX         0.00000   0.00000  -0.00000   0.00000  -0.00000
  13        8PY         2.07125   0.00000  -0.00000   0.00000   0.00000
  14        8PZ         0.00000   0.00000  -0.00000   0.00000   0.00000
  15        9PX         0.00000   0.00000  -0.00000   0.00000  -0.00000
  16        9PY         3.67864   0.00000  -0.00000   0.00000   0.00000
  17        9PZ         0.00000   0.00000  -0.00000   0.00000   0.00000
  18       10D 0        0.00000   0.03568  -0.00241   0.00000   0.00000
  19       10D+1        0.01124   0.00000  -0.00000   0.00000   0.00000
  20       10D-1        0.00000   0.00000  -0.00000   0.00000   0.00000
  21       10D+2        0.00000   0.00241   0.03568  -0.00000   0.00000
  22       10D-2        0.00000   0.00000  -0.00000   0.00000   0.00000
  23       11D 0        0.00000  -0.07510   0.00508  -0.00000   0.00000
  24       11D+1        0.13642   0.00000  -0.00000   0.00000   0.00000
  25       11D-1        0.00000   0.00000  -0.00000   0.00000  -0.00000
  26       11D+2        0.00000  -0.00508  -0.07510   0.00000   0.00000
  27       11D-2        0.00000   0.00000  -0.00000   0.00000   0.00000
  28       12D 0        0.00000   0.09829  -0.00665  -0.00000   0.00000
  29       12D+1        1.32846   0.00000  -0.00000   0.00000   0.00000
  30       12D-1        0.00000   0.00000  -0.00000   0.00000  -0.00000
  31       12D+2        0.00000   0.00665   0.09829   0.00000   0.00000
  32       12D-2        0.00000   0.00000  -0.00000   0.00000   0.00000
  33       13F 0        0.00000   0.00000  -0.00000   0.00000   0.00000
  34       13F+1        0.00000   0.00000  -0.00000   0.00000  -0.00518
  35       13F-1        0.00207   0.00000  -0.00000   0.00000   0.00000
  36       13F+2        0.00000   0.00000  -0.00000   0.00000   0.00000
  37       13F-2        0.00000   0.00000   0.00000   0.01550   0.00000
  38       13F+3        0.00000   0.00000  -0.00000   0.00000  -0.00402
  39       13F-3        0.00267   0.00000  -0.00000   0.00000   0.00000
  40       14F 0        0.00000   0.00000  -0.00000   0.00000   0.00000
  41       14F+1        0.00000   0.00000  -0.00000   0.00000   0.38648
  42       14F-1        0.01455   0.00000  -0.00000   0.00000   0.00000
  43       14F+2        0.00000   0.00000  -0.00000   0.00000   0.00000
  44       14F-2        0.00000   0.00000   0.00000   0.41984   0.00000
  45       14F+3        0.00000   0.00000  -0.00000   0.00000   0.29937
  46       14F-3        0.01878   0.00000  -0.00000   0.00000   0.00000
  47       15G 0        0.00000  -0.00184   0.00012  -0.03446   0.00000
  48       15G+1       -0.00545   0.00000  -0.00000   0.00000   0.00000
  49       15G-1        0.00000   0.00000  -0.00000   0.00000   0.05393
  50       15G+2        0.00000   0.00019   0.00284   0.00000   0.00000
  51       15G-2        0.00000   0.00000  -0.00000   0.00000   0.00000
  52       15G+3       -0.01443   0.00000  -0.00000   0.00000   0.00000
  53       15G-3        0.00000   0.00000  -0.00000   0.00000   0.02038
  54       15G+4        0.00000   0.00217  -0.00015  -0.02913   0.00000
  55       15G-4        0.00000   0.00000  -0.00000   0.00000   0.00000
  56 2   H  1S          0.03288   0.00000   0.00000  -0.03046  -0.00000
  57        2S          0.06995  -0.00000  -0.00000  -0.17900   0.00000
  58        3S         -1.68196  -0.00000  -0.00000  -3.12586   0.00000
  59        4S         -2.44195  -0.00000  -0.00000  -0.87685   0.00000
  60        5PX         0.00494  -0.00845   0.01723  -0.01584   0.00000
  61        5PY        -0.00196  -0.01070  -0.01593  -0.01584   0.01307
  62        5PZ         0.00494   0.01915  -0.00130  -0.01584  -0.01307
  63        6PX         0.01299   0.02310  -0.04710   0.13600  -0.00000
  64        6PY         0.01497   0.02924   0.04356   0.13600  -0.00313
  65        6PZ         0.01299  -0.05234   0.00354   0.13600   0.00313
  66        7PX         0.67829  -0.17133   0.34929   0.32098  -0.00000
  67        7PY         0.40273  -0.21683  -0.32302   0.32098   0.71347
  68        7PZ         0.67829   0.38816  -0.02627   0.32098  -0.71347
  69        8D 0       -0.00052  -0.00108   0.00007   0.00000  -0.00608
  70        8D+1        0.00495   0.00012   0.00018  -0.00388   0.00065
  71        8D-1        0.00187   0.00010  -0.00020  -0.00388   0.00000
  72        8D+2       -0.00090  -0.00007  -0.00108  -0.00000  -0.00351
  73        8D-2        0.00187  -0.00022   0.00001  -0.00388  -0.00065
  74        9D 0       -0.01040  -0.01124   0.00076  -0.00000   0.13820
  75        9D+1       -0.07287  -0.01077  -0.01605  -0.04819   0.04477
  76        9D-1       -0.03144  -0.00851   0.01736  -0.04819   0.00000
  77        9D+2       -0.01801  -0.00076  -0.01124   0.00000   0.07979
  78        9D-2       -0.03144   0.01929  -0.00131  -0.04819  -0.04477
  79       10F 0       -0.00064   0.00178  -0.00012  -0.00327  -0.00981
  80       10F+1        0.00298   0.00541   0.00143   0.00200  -0.01757
  81       10F-1        0.00189   0.00516  -0.00215   0.00200  -0.01103
  82       10F+2        0.00328   0.00047   0.00692  -0.00000  -0.00635
  83       10F-2        0.00160   0.00000   0.00000   0.00176  -0.00000
  84       10F+3        0.00150   0.00319   0.00314  -0.00259  -0.01361
  85       10F-3        0.00244  -0.00274   0.00354   0.00259  -0.00386
  86 3   H  1S         -0.03288   0.00000   0.00000  -0.03046   0.00000
  87        2S         -0.06995  -0.00000  -0.00000  -0.17900  -0.00000
  88        3S          1.68196  -0.00000  -0.00000  -3.12586  -0.00000
  89        4S          2.44195  -0.00000  -0.00000  -0.87685  -0.00000
  90        5PX         0.00494   0.00845  -0.01723   0.01584   0.00000
  91        5PY        -0.00196   0.01070   0.01593   0.01584   0.01307
  92        5PZ        -0.00494   0.01915  -0.00130  -0.01584   0.01307
  93        6PX         0.01299  -0.02310   0.04710  -0.13600  -0.00000
  94        6PY         0.01497  -0.02924  -0.04356  -0.13600  -0.00313
  95        6PZ        -0.01299  -0.05234   0.00354   0.13600  -0.00313
  96        7PX         0.67829   0.17133  -0.34929  -0.32098  -0.00000
  97        7PY         0.40273   0.21683   0.32302  -0.32098   0.71347
  98        7PZ        -0.67829   0.38816  -0.02627   0.32098   0.71347
  99        8D 0        0.00052  -0.00108   0.00007   0.00000   0.00608
 100        8D+1        0.00495  -0.00012  -0.00018   0.00388   0.00065
 101        8D-1        0.00187  -0.00010   0.00020   0.00388   0.00000
 102        8D+2        0.00090  -0.00007  -0.00108  -0.00000   0.00351
 103        8D-2       -0.00187  -0.00022   0.00001  -0.00388   0.00065
 104        9D 0        0.01040  -0.01124   0.00076  -0.00000  -0.13820
 105        9D+1       -0.07287   0.01077   0.01605   0.04819   0.04477
 106        9D-1       -0.03144   0.00851  -0.01736   0.04819   0.00000
 107        9D+2        0.01801  -0.00076  -0.01124   0.00000  -0.07979
 108        9D-2        0.03144   0.01929  -0.00131  -0.04819   0.04477
 109       10F 0        0.00064   0.00178  -0.00012  -0.00327   0.00981
 110       10F+1        0.00298  -0.00541  -0.00143  -0.00200  -0.01757
 111       10F-1        0.00189  -0.00516   0.00215  -0.00200  -0.01103
 112       10F+2       -0.00328   0.00047   0.00692  -0.00000   0.00635
 113       10F-2       -0.00160   0.00000   0.00000   0.00176   0.00000
 114       10F+3        0.00150  -0.00319  -0.00314   0.00259  -0.01361
 115       10F-3        0.00244   0.00274  -0.00354  -0.00259  -0.00386
 116 4   H  1S          0.03288   0.00000   0.00000  -0.03046   0.00000
 117        2S          0.06995  -0.00000  -0.00000  -0.17900  -0.00000
 118        3S         -1.68196  -0.00000  -0.00000  -3.12586  -0.00000
 119        4S         -2.44195  -0.00000  -0.00000  -0.87685  -0.00000
 120        5PX        -0.00494   0.00845  -0.01723   0.01584   0.00000
 121        5PY        -0.00196  -0.01070  -0.01593  -0.01584  -0.01307
 122        5PZ        -0.00494  -0.01915   0.00130   0.01584  -0.01307
 123        6PX        -0.01299  -0.02310   0.04710  -0.13600  -0.00000
 124        6PY         0.01497   0.02924   0.04356   0.13600   0.00313
 125        6PZ        -0.01299   0.05234  -0.00354  -0.13600   0.00313
 126        7PX        -0.67829   0.17133  -0.34929  -0.32098  -0.00000
 127        7PY         0.40273  -0.21683  -0.32302   0.32098  -0.71347
 128        7PZ        -0.67829  -0.38816   0.02627  -0.32098  -0.71347
 129        8D 0       -0.00052  -0.00108   0.00007   0.00000   0.00608
 130        8D+1        0.00495   0.00012   0.00018  -0.00388  -0.00065
 131        8D-1       -0.00187  -0.00010   0.00020   0.00388   0.00000
 132        8D+2       -0.00090  -0.00007  -0.00108  -0.00000   0.00351
 133        8D-2       -0.00187   0.00022  -0.00001   0.00388  -0.00065
 134        9D 0       -0.01040  -0.01124   0.00076  -0.00000  -0.13820
 135        9D+1       -0.07287  -0.01077  -0.01605  -0.04819  -0.04477
 136        9D-1        0.03144   0.00851  -0.01736   0.04819   0.00000
 137        9D+2       -0.01801  -0.00076  -0.01124   0.00000  -0.07979
 138        9D-2        0.03144  -0.01929   0.00131   0.04819  -0.04477
 139       10F 0        0.00064  -0.00178   0.00012   0.00327  -0.00981
 140       10F+1       -0.00298  -0.00541  -0.00143  -0.00200  -0.01757
 141       10F-1        0.00189   0.00516  -0.00215   0.00200   0.01103
 142       10F+2       -0.00328  -0.00047  -0.00692   0.00000  -0.00635
 143       10F-2        0.00160   0.00000   0.00000   0.00176   0.00000
 144       10F+3       -0.00150  -0.00319  -0.00314   0.00259  -0.01361
 145       10F-3        0.00244  -0.00274   0.00354   0.00259   0.00386
 146 5   H  1S         -0.03288   0.00000   0.00000  -0.03046  -0.00000
 147        2S         -0.06995  -0.00000  -0.00000  -0.17900   0.00000
 148        3S          1.68196  -0.00000  -0.00000  -3.12586   0.00000
 149        4S          2.44195  -0.00000  -0.00000  -0.87685   0.00000
 150        5PX        -0.00494  -0.00845   0.01723  -0.01584   0.00000
 151        5PY        -0.00196   0.01070   0.01593   0.01584  -0.01307
 152        5PZ         0.00494  -0.01915   0.00130   0.01584   0.01307
 153        6PX        -0.01299   0.02310  -0.04710   0.13600  -0.00000
[...]
                         171       172       173       174       175
 171       10F-1        0.00000
 172       10F+2       -0.00000   0.00000
 173       10F-2        0.00000   0.00000   0.00000
 174       10F+3       -0.00000   0.00000  -0.00000   0.00000
 175       10F-3        0.00000  -0.00000   0.00000   0.00000   0.00000
     Gross orbital populations:
                           1
   1 1   C  1S          1.23724
   2        2S          0.71421
   3        3S          0.34189
   4        4S          0.74236
   5        5S          0.22907
   6        6PX         0.10244
   7        6PY         0.10244
   8        6PZ         0.10244
   9        7PX         0.33048
  10        7PY         0.33048
  11        7PZ         0.33048
  12        8PX         0.43985
  13        8PY         0.43985
  14        8PZ         0.43985
  15        9PX         0.14784
  16        9PY         0.14784
  17        9PZ         0.14784
  18       10D 0       -0.00000
  19       10D+1        0.00092
  20       10D-1        0.00092
  21       10D+2       -0.00000
  22       10D-2        0.00092
  23       11D 0        0.00000
  24       11D+1        0.00462
  25       11D-1        0.00462
  26       11D+2        0.00000
  27       11D-2        0.00462
  28       12D 0       -0.00000
  29       12D+1        0.00699
  30       12D-1        0.00699
  31       12D+2       -0.00000
  32       12D-2        0.00699
  33       13F 0        0.00006
  34       13F+1        0.00002
  35       13F-1        0.00002
  36       13F+2        0.00000
  37       13F-2        0.00041
  38       13F+3        0.00003
  39       13F-3        0.00003
  40       14F 0       -0.00012
  41       14F+1       -0.00004
  42       14F-1       -0.00004
  43       14F+2        0.00000
  44       14F-2        0.00255
  45       14F+3       -0.00007
  46       14F-3       -0.00007
  47       15G 0        0.00008
  48       15G+1        0.00002
  49       15G-1        0.00002
  50       15G+2       -0.00000
  51       15G-2        0.00015
  52       15G+3        0.00013
  53       15G-3        0.00013
  54       15G+4        0.00005
  55       15G-4        0.00000
  56 2   H  1S          0.07217
  57        2S          0.31790
  58        3S          0.39417
  59        4S          0.08402
  60        5PX         0.00063
  61        5PY         0.00063
  62        5PZ         0.00063
  63        6PX         0.00464
  64        6PY         0.00464
  65        6PZ         0.00464
  66        7PX         0.00708
  67        7PY         0.00708
  68        7PZ         0.00708
  69        8D 0        0.00005
  70        8D+1        0.00013
  71        8D-1        0.00013
  72        8D+2        0.00005
  73        8D-2        0.00013
  74        9D 0        0.00081
  75        9D+1        0.00021
  76        9D-1        0.00021
  77        9D+2        0.00081
  78        9D-2        0.00021
  79       10F 0       -0.00001
  80       10F+1        0.00004
  81       10F-1        0.00004
  82       10F+2        0.00006
  83       10F-2       -0.00006
  84       10F+3        0.00002
  85       10F-3        0.00002
  86 3   H  1S          0.07217
  87        2S          0.31790
  88        3S          0.39417
  89        4S          0.08402
  90        5PX         0.00063
  91        5PY         0.00063
  92        5PZ         0.00063
  93        6PX         0.00464
  94        6PY         0.00464
  95        6PZ         0.00464
  96        7PX         0.00708
  97        7PY         0.00708
  98        7PZ         0.00708
  99        8D 0        0.00005
 100        8D+1        0.00013
 101        8D-1        0.00013
 102        8D+2        0.00005
 103        8D-2        0.00013
 104        9D 0        0.00081
 105        9D+1        0.00021
 106        9D-1        0.00021
 107        9D+2        0.00081
 108        9D-2        0.00021
 109       10F 0       -0.00001
 110       10F+1        0.00004
 111       10F-1        0.00004
 112       10F+2        0.00006
 113       10F-2       -0.00006
 114       10F+3        0.00002
 115       10F-3        0.00002
 116 4   H  1S          0.07217
 117        2S          0.31790
 118        3S          0.39417
 119        4S          0.08402
 120        5PX         0.00063
 121        5PY         0.00063
 122        5PZ         0.00063
 123        6PX         0.00464
 124        6PY         0.00464
 125        6PZ         0.00464
 126        7PX         0.00708
 127        7PY         0.00708
 128        7PZ         0.00708
 129        8D 0        0.00005
 130        8D+1        0.00013
 131        8D-1        0.00013
 132        8D+2        0.00005
 133        8D-2        0.00013
 134        9D 0        0.00081
 135        9D+1        0.00021
 136        9D-1        0.00021
 137        9D+2        0.00081
 138        9D-2        0.00021
 139       10F 0       -0.00001
 140       10F+1        0.00004
 141       10F-1        0.00004
 142       10F+2        0.00006
 143       10F-2       -0.00006
 144       10F+3        0.00002
 145       10F-3        0.00002
 146 5   H  1S          0.07217
 147        2S          0.31790
 148        3S          0.39417
 149        4S          0.08402
 150        5PX         0.00063
 151        5PY         0.00063
 152        5PZ         0.00063
 153        6PX         0.00464
 154        6PY         0.00464
 155        6PZ         0.00464
 156        7PX         0.00708
 157        7PY         0.00708
 158        7PZ         0.00708
 159        8D 0        0.00005
 160        8D+1        0.00013
 161        8D-1        0.00013
 162        8D+2        0.00005
 163        8D-2        0.00013
 164        9D 0        0.00081
 165        9D+1        0.00021
 166        9D-1        0.00021
 167        9D+2        0.00081
 168        9D-2        0.00021
 169       10F 0       -0.00001
 170       10F+1        0.00004
 171       10F-1        0.00004
 172       10F+2        0.00006
 173       10F-2       -0.00006
 174       10F+3        0.00002
 175       10F-3        0.00002
          Condensed to atoms (all electrons):
              1          2          3          4          5
     1  C    4.733225   0.408569   0.408569   0.408569   0.408569
     2  H    0.408569   0.572616  -0.024353  -0.024353  -0.024353
     3  H    0.408569  -0.024353   0.572616  -0.024353  -0.024353
     4  H    0.408569  -0.024353  -0.024353   0.572616  -0.024353
     5  H    0.408569  -0.024353  -0.024353  -0.024353   0.572616
 Mulliken atomic charges:
              1
     1  C   -0.367500
     2  H    0.091875
     3  H    0.091875
     4  H    0.091875
     5  H    0.091875
 Sum of Mulliken atomic charges =  -0.00000
 Mulliken charges with hydrogens summed into heavy atoms:
              1
     1  C   -0.000000
 Sum of Mulliken charges with hydrogens summed into heavy atoms =  -0.00000
 APT atomic charges:
              1
     1  C    0.006793
     2  H   -0.001698
     3  H   -0.001698
     4  H   -0.001698
     5  H   -0.001698
 Sum of APT charges=  -0.00000
 APT Atomic charges with hydrogens summed into heavy atoms:
              1
     1  C   -0.000000
     2  H    0.000000
     3  H    0.000000
     4  H    0.000000
     5  H    0.000000
 Sum of APT charges=  -0.00000
 Electronic spatial extent (au):  <R**2>=             35.8030
 Charge=             -0.0000 electrons
 Dipole moment (field-independent basis, Debye):
    X=             -0.0000    Y=              0.0000    Z=              0.0000  Tot=              0.0000
 Quadrupole moment (field-independent basis, Debye-Ang):
   XX=             -8.4764   YY=             -8.4764   ZZ=             -8.4764
   XY=              0.0000   XZ=              0.0000   YZ=              0.0000
 Traceless Quadrupole moment (field-independent basis, Debye-Ang):
   XX=             -0.0000   YY=             -0.0000   ZZ=              0.0000
   XY=              0.0000   XZ=              0.0000   YZ=              0.0000
 Octapole moment (field-independent basis, Debye-Ang**2):
  XXX=             -0.0000  YYY=             -0.0000  ZZZ=              0.0000  XYY=             -0.0000
  XXY=              0.0000  XXZ=              0.0000  XZZ=              0.0000  YZZ=              0.0000
  YYZ=              0.0000  XYZ=              0.6839
 Hexadecapole moment (field-independent basis, Debye-Ang**3):
 XXXX=            -17.2163 YYYY=            -17.2163 ZZZZ=            -17.2163 XXXY=             -0.0000
 XXXZ=              0.0000 YYYX=             -0.0000 YYYZ=              0.0000 ZZZX=             -0.0000
 ZZZY=              0.0000 XXYY=             -5.2264 XXZZ=             -5.2264 YYZZ=             -5.2264
 XXYZ=              0.0000 YYXZ=              0.0000 ZZXY=             -0.0000
 N-N= 1.346485428759D+01 E-N=-1.201843683223D+02  KE= 4.027464655417D+01
 Symmetry A    KE= 3.440281956358D+01
 Symmetry B1   KE= 1.957275663530D+00
 Symmetry B2   KE= 1.957275663530D+00
 Symmetry B3   KE= 1.957275663530D+00
 Orbital energies and kinetic energies (alpha):
                                 1                 2
   1         (A1)--O         -10.152444         15.930594
   2         (A1)--O          -0.697160          1.270815
   3         (T2)--O          -0.395812          0.978638
   4         (T2)--O          -0.395812          0.978638
   5         (T2)--O          -0.395812          0.978638
   6         (A1)--V           0.028826          0.422461
   7         (T2)--V           0.105474          0.479635
   8         (T2)--V           0.105474          0.479635
   9         (T2)--V           0.105474          0.479635
  10         (T2)--V           0.173472          0.443202
  11         (T2)--V           0.173472          0.443202
  12         (T2)--V           0.173472          0.443202
  13         (A1)--V           0.361088          1.209845
  14         (T2)--V           0.377025          1.149904
  15         (T2)--V           0.377025          1.149904
  16         (T2)--V           0.377025          1.149904
  17         (E)--V            0.383434          0.725682
  18         (E)--V            0.383434          0.725682
  19         (A1)--V           0.473851          0.882159
  20         (T1)--V           0.668995          0.919952
  21         (T1)--V           0.668995          0.919952
  22         (T1)--V           0.668995          0.919952
  23         (T2)--V           0.678628          1.084594
  24         (T2)--V           0.678628          1.084594
  25         (T2)--V           0.678628          1.084594
  26         (T2)--V           0.792474          1.208235
  27         (T2)--V           0.792474          1.208235
  28         (T2)--V           0.792474          1.208235
  29         (T2)--V           0.981543          1.514131
  30         (T2)--V           0.981543          1.514131
  31         (T2)--V           0.981543          1.514131
  32         (A1)--V           1.006983          2.005954
  33         (E)--V            1.054209          1.294036
  34         (E)--V            1.054209          1.294036
  35         (T2)--V           1.266169          1.981221
  36         (T2)--V           1.266169          1.981221
  37         (T2)--V           1.266169          1.981221
  38         (A1)--V           1.302996          2.070482
  39         (E)--V            1.666922          2.386004
  40         (E)--V            1.666922          2.386004
  41         (T2)--V           1.706698          2.752777
  42         (T2)--V           1.706698          2.752777
  43         (T2)--V           1.706698          2.752777
  44         (T1)--V           1.806970          2.285102
  45         (T1)--V           1.806970          2.285102
  46         (T1)--V           1.806970          2.285102
  47         (T2)--V           1.913129          2.566157
  48         (T2)--V           1.913129          2.566157
  49         (T2)--V           1.913129          2.566157
  50         (A1)--V           2.086601          3.375522
  51         (T1)--V           2.117546          2.517318
  52         (T1)--V           2.117546          2.517318
  53         (T1)--V           2.117546          2.517318
  54         (E)--V            2.255086          2.610070
  55         (E)--V            2.255086          2.610070
  56         (T2)--V           2.332095          3.036264
  57         (T2)--V           2.332095          3.036264
  58         (T2)--V           2.332095          3.036264
  59         (T2)--V           2.407855          2.861747
  60         (T2)--V           2.407855          2.861747
  61         (T2)--V           2.407855          2.861747
  62         (E)--V            2.508959          2.997698
  63         (E)--V            2.508959          2.997698
  64         (A1)--V           2.546640          3.481173
  65         (T1)--V           2.868034          3.282726
  66         (T1)--V           2.868034          3.282726
  67         (T1)--V           2.868034          3.282726
  68         (T2)--V           2.943145          3.381490
  69         (T2)--V           2.943145          3.381490
  70         (T2)--V           2.943145          3.381490
  71         (A1)--V           3.089727          3.976917
  72         (T2)--V           3.173057          3.783152
  73         (T2)--V           3.173057          3.783152
  74         (T2)--V           3.173057          3.783152
  75         (T1)--V           3.197593          3.658339
  76         (T1)--V           3.197593          3.658339
  77         (T1)--V           3.197593          3.658339
  78         (T2)--V           3.363475          4.408749
  79         (T2)--V           3.363475          4.408749
  80         (T2)--V           3.363475          4.408749
  81         (A1)--V           3.695332          5.430186
  82         (T2)--V           3.805534          4.928716
  83         (T2)--V           3.805534          4.928716
  84         (T2)--V           3.805534          4.928716
  85         (E)--V            3.829295          4.658088
  86         (E)--V            3.829295          4.658088
  87         (E)--V            5.239934          6.133996
  88         (E)--V            5.239934          6.133996
  89         (T2)--V           5.273328          7.288467
  90         (T2)--V           5.273328          7.288467
  91         (T2)--V           5.273328          7.288467
  92         (T1)--V           5.359543          6.346942
  93         (T1)--V           5.359543          6.346942
  94         (T1)--V           5.359543          6.346942
  95         (A2)--V           5.895825          6.418724
  96         (T2)--V           5.896645          7.207610
  97         (T2)--V           5.896645          7.207610
  98         (T2)--V           5.896645          7.207610
  99         (A1)--V           5.986098          7.498796
 100         (T1)--V           5.998701          6.641384
 101         (T1)--V           5.998701          6.641384
 102         (T1)--V           5.998701          6.641384
 103         (A1)--V           6.021472          6.934264
 104         (T2)--V           6.042991          7.326191
 105         (T2)--V           6.042991          7.326191
 106         (T2)--V           6.042991          7.326191
 107         (T1)--V           6.105886          6.932834
 108         (T1)--V           6.105886          6.932834
 109         (T1)--V           6.105886          6.932834
 110         (T2)--V           6.165692          7.417789
 111         (T2)--V           6.165692          7.417789
 112         (T2)--V           6.165692          7.417789
 113         (E)--V            6.605669          8.261408
 114         (E)--V            6.605669          8.261408
 115         (A1)--V           6.676090          7.544749
 116         (T2)--V           6.696232          8.592661
 117         (T2)--V           6.696232          8.592661
 118         (T2)--V           6.696232          8.592661
 119         (T1)--V           7.219194          7.993168
 120         (T1)--V           7.219194          7.993168
 121         (T1)--V           7.219194          7.993168
 122         (E)--V            7.250706          8.434878
 123         (E)--V            7.250706          8.434878
 124         (T2)--V           7.277023          8.417881
 125         (T2)--V           7.277023          8.417881
 126         (T2)--V           7.277023          8.417881
 127         (T2)--V           7.609360          8.732146
 128         (T2)--V           7.609360          8.732146
 129         (T2)--V           7.609360          8.732146
 130         (E)--V            7.651103          8.540100
 131         (E)--V            7.651103          8.540100
 132         (T1)--V           7.672513          8.578131
 133         (T1)--V           7.672513          8.578131
 134         (T1)--V           7.672513          8.578131
 135         (A1)--V           7.910527          9.560638
 136         (T2)--V           7.934335          8.794077
 137         (T2)--V           7.934335          8.794077
 138         (T2)--V           7.934335          8.794077
 139         (A1)--V           8.271463         10.328034
 140         (E)--V            8.279181          9.157466
 141         (E)--V            8.279181          9.157466
 142         (T1)--V           8.359819          9.263551
 143         (T1)--V           8.359819          9.263551
 144         (T1)--V           8.359819          9.263551
 145         (T2)--V           8.395502          9.335982
 146         (T2)--V           8.395502          9.335982
 147         (T2)--V           8.395502          9.335982
 148         (T2)--V           8.481285         10.403813
 149         (T2)--V           8.481285         10.403813
 150         (T2)--V           8.481285         10.403813
 151         (T1)--V           8.945582          9.882808
 152         (T1)--V           8.945582          9.882808
 153         (T1)--V           8.945582          9.882808
 154         (T2)--V           9.006457         10.284487
 155         (T2)--V           9.006457         10.284487
 156         (T2)--V           9.006457         10.284487
 157         (E)--V            9.400561         10.326830
 158         (E)--V            9.400561         10.326830
 159         (E)--V            9.785691         10.759086
 160         (E)--V            9.785691         10.759086
 161         (T2)--V           9.839657         11.864196
 162         (T2)--V           9.839657         11.864196
 163         (T2)--V           9.839657         11.864196
 164         (A1)--V          10.023467         13.206493
 165         (T2)--V          10.067447         11.455025
 166         (T2)--V          10.067447         11.455025
 167         (T2)--V          10.067447         11.455025
 168         (T1)--V          10.492097         11.791280
 169         (T1)--V          10.492097         11.791280
 170         (T1)--V          10.492097         11.791280
 171         (A1)--V          10.678969         12.627353
 172         (T2)--V          12.313659         15.676219
 173         (T2)--V          12.313659         15.676219
 174         (T2)--V          12.313659         15.676219
 175         (A1)--V          26.439104         58.734137
 Total kinetic energy from orbitals= 4.027464655417D+01
  Exact polarizability:  16.013   0.000  16.013   0.000   0.000  16.013
 Approx polarizability:  19.991   0.000  19.991   0.000   0.000  19.991
 No NMR shielding tensors so no spin-rotation constants.
 Leave Link  601 at Sun Aug 18 13:27:10 2024, MaxMem=   13107200 cpu:       1.0
 (Enter /programs/64bit/g09/g09-gfortran/bin/l701.exe)
 Compute integral second derivatives.
 ... and contract with generalized density number  0.
 Insufficient memory in PRISM at phase 22 IEnd=     9338601 limit=     7350112.
 Error termination via Lnk1e in /programs/64bit/g09/g09-gfortran/bin/l701.exe at Sun Aug 18 13:27:10 2024.
 Job cpu time:  0 days  0 hours 10 minutes 25.6 seconds.
 File lengths (MBytes):  RWF=     21 Int=      0 D2E=      0 Chk=      3 Scr=      1
