 Entering Gaussian System, Link 0=/programs/64bit/g09/g09-gfortran/bin/g09
 Input=ch4_cc-pVTZ.com
 Output=ch4_cc-pVTZ.log
 Initial command:
 /programs/64bit/g09/g09-gfortran/bin/l1.exe /home/ospite/Desktop/MMfP/Project6/CH4/g09/DFT/B3LYP/Gau-19207.inp -scrdir=/home/ospite/Desktop/MMfP/Project6/CH4/g09/DFT/B3LYP/
 Entering Link 1 = /programs/64bit/g09/g09-gfortran/bin/l1.exe PID=     19208.
  
 Copyright (c) 1988,1990,1992,1993,1995,1998,2003,2009, Gaussian, Inc.
                  All Rights Reserved.
  
 This is part of the Gaussian(R) 09 program.  It is based on
 the Gaussian(R) 03 system (copyright 2003, Gaussian, Inc.),
 the Gaussian(R) 98 system (copyright 1998, Gaussian, Inc.),
 the Gaussian(R) 94 system (copyright 1995, Gaussian, Inc.),
 the Gaussian 92(TM) system (copyright 1992, Gaussian, Inc.),
 the Gaussian 90(TM) system (copyright 1990, Gaussian, Inc.),
 the Gaussian 88(TM) system (copyright 1988, Gaussian, Inc.),
 the Gaussian 86(TM) system (copyright 1986, Carnegie Mellon
 University), and the Gaussian 82(TM) system (copyright 1983,
 Carnegie Mellon University). Gaussian is a federally registered
 trademark of Gaussian, Inc.
  
 This software contains proprietary and confidential information,
 including trade secrets, belonging to Gaussian, Inc.
  
 This software is provided under written license and may be
 used, copied, transmitted, or stored only in accord with that
 written license.
  
 The following legend is applicable only to US Government
 contracts under FAR:
  
                    RESTRICTED RIGHTS LEGEND
  
 Use, reproduction and disclosure by the US Government is
 subject to restrictions as set forth in subparagraphs (a)
 and (c) of the Commercial Computer Software - Restricted
 Rights clause in FAR 52.227-19.
  
 Gaussian, Inc.
 340 Quinnipiac St., Bldg. 40, Wallingford CT 06492
  
  
 ---------------------------------------------------------------
 Warning -- This program may not be used in any manner that
 competes with the business of Gaussian, Inc. or will provide
 assistance to any competitor of Gaussian, Inc.  The licensee
 of this program is prohibited from giving any competitor of
 Gaussian, Inc. access to this program.  By using this program,
 the user acknowledges that Gaussian, Inc. is engaged in the
 business of creating and licensing software in the field of
 computational chemistry and represents and warrants to the
 licensee that it is not a competitor of Gaussian, Inc. and that
 it will not use this program in any manner prohibited above.
 ---------------------------------------------------------------
  

 Cite this work as:
 Gaussian 09, Revision A.02,
 M. J. Frisch, G. W. Trucks, H. B. Schlegel, G. E. Scuseria, 
 M. A. Robb, J. R. Cheeseman, G. Scalmani, V. Barone, B. Mennucci, 
 G. A. Petersson, H. Nakatsuji, M. Caricato, X. Li, H. P. Hratchian, 
 A. F. Izmaylov, J. Bloino, G. Zheng, J. L. Sonnenberg, M. Hada, 
 M. Ehara, K. Toyota, R. Fukuda, J. Hasegawa, M. Ishida, T. Nakajima, 
 Y. Honda, O. Kitao, H. Nakai, T. Vreven, J. A. Montgomery, Jr., 
 J. E. Peralta, F. Ogliaro, M. Bearpark, J. J. Heyd, E. Brothers, 
 K. N. Kudin, V. N. Staroverov, R. Kobayashi, J. Normand, 
 K. Raghavachari, A. Rendell, J. C. Burant, S. S. Iyengar, J. Tomasi, 
 M. Cossi, N. Rega, J. M. Millam, M. Klene, J. E. Knox, J. B. Cross, 
 V. Bakken, C. Adamo, J. Jaramillo, R. Gomperts, R. E. Stratmann, 
 O. Yazyev, A. J. Austin, R. Cammi, C. Pomelli, J. W. Ochterski, 
 R. L. Martin, K. Morokuma, V. G. Zakrzewski, G. A. Voth, 
 P. Salvador, J. J. Dannenberg, S. Dapprich, A. D. Daniels, 
 O. Farkas, J. B. Foresman, J. V. Ortiz, J. Cioslowski, 
 and D. J. Fox, Gaussian, Inc., Wallingford CT, 2009.
 
 ******************************************
 Gaussian 09:  EM64L-G09RevA.02 11-Jun-2009
                18-Aug-2024 
 ******************************************
 %mem=100MB
 ------------------------------------------------------------------
 #p b3lyp/cc-pVTZ opt freq symmetry=(follow,pg=Td) pop=full gfinput
 ------------------------------------------------------------------
 1/14=-1,18=20,19=15,26=3,38=1/1,3;
 2/9=110,12=2,17=6,18=5,19=2314885530818462804,40=1/2;
 3/5=16,6=1,11=2,16=1,24=10,25=1,30=1,71=1,74=-5/1,2,3;
 4//1;
 5/5=2,38=5/2;
 6/7=3,28=1/1;
 7//1,2,3,16;
 1/14=-1,18=20,19=15/3(2);
 2/9=110,15=5,19=2314885530818462804/2;
 99//99;
 2/9=110,15=5,19=2314885530818462804/2;
 3/5=16,6=1,11=2,16=1,25=1,30=1,71=1,74=-5/1,2,3;
 4/5=5,16=3/1;
 5/5=2,38=5/2;
 7//1,2,3,16;
 1/14=-1,18=20,19=15/3(-5);
 2/9=110,15=5,19=2314885530818462804/2;
 6/7=3,19=2,28=1/1;
 99/9=1/99;
 Leave Link    1 at Sun Aug 18 00:32:20 2024, MaxMem=   13107200 cpu:       0.1
 (Enter /programs/64bit/g09/g09-gfortran/bin/l101.exe)
 ------------------------------------------------------
 methane with imposed symmetry Td and cc-pVTZ basis set
 ------------------------------------------------------
 Symbolic Z-matrix:
 Charge =  0 Multiplicity = 1
 C1
 H2                   1    d
 H3                   1    d        2    a
 H4                   1    d        2    a        3    t        0
 H5                   1    d        2    a        3    -t       0
       Variables:
  d                     1.09                     
  a                   109.471                    
  t                   120.                       
 
     3 tetrahedral angles replaced.
 NAtoms=      5 NQM=      5 NQMF=      0 NMic=      0 NMicF=      0 NTot=      5.
                    Isotopes and Nuclear Properties:
 (Nuclear quadrupole moments (NQMom) in fm**2, nuclear magnetic moments (NMagM)
  in nuclear magnetons)

  Atom         1           2           3           4           5
 IAtWgt=          12           1           1           1           1
 AtmWgt=  12.0000000   1.0078250   1.0078250   1.0078250   1.0078250
 NucSpn=           0           1           1           1           1
 AtZEff=   0.0000000   0.0000000   0.0000000   0.0000000   0.0000000
 NQMom=    0.0000000   0.0000000   0.0000000   0.0000000   0.0000000
 NMagM=    0.0000000   2.7928460   2.7928460   2.7928460   2.7928460
 Leave Link  101 at Sun Aug 18 00:32:20 2024, MaxMem=   13107200 cpu:       0.1
 (Enter /programs/64bit/g09/g09-gfortran/bin/l103.exe)

 GradGradGradGradGradGradGradGradGradGradGradGradGradGradGradGradGradGrad
 Berny optimization.
 Initialization pass.
                           ----------------------------
                           !    Initial Parameters    !
                           ! (Angstroms and Degrees)  !
 --------------------------                            --------------------------
 ! Name  Definition              Value          Derivative Info.                !
 --------------------------------------------------------------------------------
 ! R1    R(1,2)                  1.09           estimate D2E/DX2                !
 ! R2    R(1,3)                  1.09           estimate D2E/DX2                !
 ! R3    R(1,4)                  1.09           estimate D2E/DX2                !
 ! R4    R(1,5)                  1.09           estimate D2E/DX2                !
 ! A1    A(2,1,3)              109.4712         estimate D2E/DX2                !
 ! A2    A(2,1,4)              109.4712         estimate D2E/DX2                !
 ! A3    A(2,1,5)              109.4712         estimate D2E/DX2                !
 ! A4    A(3,1,4)              109.4712         estimate D2E/DX2                !
 ! A5    A(3,1,5)              109.4712         estimate D2E/DX2                !
 ! A6    A(4,1,5)              109.4712         estimate D2E/DX2                !
 ! D1    D(2,1,4,3)           -120.0            estimate D2E/DX2                !
 ! D2    D(2,1,5,3)            120.0            estimate D2E/DX2                !
 ! D3    D(2,1,5,4)           -120.0            estimate D2E/DX2                !
 ! D4    D(3,1,5,4)            120.0            estimate D2E/DX2                !
 --------------------------------------------------------------------------------
 Trust Radius=3.00D-01 FncErr=1.00D-07 GrdErr=1.00D-06
 Number of steps in this run=  24 maximum allowed number of steps= 100.
 GradGradGradGradGradGradGradGradGradGradGradGradGradGradGradGradGradGrad

 Leave Link  103 at Sun Aug 18 00:32:20 2024, MaxMem=   13107200 cpu:       0.0
 (Enter /programs/64bit/g09/g09-gfortran/bin/l202.exe)
                          Input orientation:                          
 ---------------------------------------------------------------------
 Center     Atomic      Atomic             Coordinates (Angstroms)
 Number     Number       Type             X           Y           Z
 ---------------------------------------------------------------------
      1          6           0        0.000000    0.000000    0.000000
      2          1           0        0.000000    0.000000    1.090000
      3          1           0        1.027662    0.000000   -0.363333
      4          1           0       -0.513831   -0.889981   -0.363333
      5          1           0       -0.513831    0.889981   -0.363333
 ---------------------------------------------------------------------
                    Distance matrix (angstroms):
                    1          2          3          4          5
     1  C    0.000000
     2  H    1.090000   0.000000
     3  H    1.090000   1.779963   0.000000
     4  H    1.090000   1.779963   1.779963   0.000000
     5  H    1.090000   1.779963   1.779963   1.779963   0.000000
 Symm:  InNGrp=TD   InAxis=0.
 Stoichiometry    CH4
 Framework group  TD[O(C),4C3(H)]
 Deg. of freedom     1
 Full point group                 TD      NOp  24
 Largest Abelian subgroup         D2      NOp   4
 Largest concise Abelian subgroup D2      NOp   4
                         Standard orientation:                         
 ---------------------------------------------------------------------
 Center     Atomic      Atomic             Coordinates (Angstroms)
 Number     Number       Type             X           Y           Z
 ---------------------------------------------------------------------
      1          6           0        0.000000    0.000000    0.000000
      2          1           0        0.629312    0.629312    0.629312
      3          1           0       -0.629312   -0.629312    0.629312
      4          1           0       -0.629312    0.629312   -0.629312
      5          1           0        0.629312   -0.629312   -0.629312
 ---------------------------------------------------------------------
 Rotational constants (GHZ):    158.2742720    158.2742720    158.2742720
 Leave Link  202 at Sun Aug 18 00:32:20 2024, MaxMem=   13107200 cpu:       0.0
 (Enter /programs/64bit/g09/g09-gfortran/bin/l301.exe)
 Standard basis: CC-pVTZ (5D, 7F)
 Ernie: Thresh=  0.10000D-02 Tol=  0.10000D-05 Strict=F.
 Ernie:  3 primitive shells out of 58 were deleted.
 AO basis set in the form of general basis input (Overlap normalization):
      1 0
 S   7 1.00       0.000000000000
      0.8236000000D+04  0.5419783203D-03
      0.1235000000D+04  0.4192873817D-02
      0.2808000000D+03  0.2152216205D-01
      0.7927000000D+02  0.8353432195D-01
      0.2559000000D+02  0.2395828457D+00
      0.8997000000D+01  0.4428528419D+00
      0.3319000000D+01  0.3517995618D+00
 S   6 1.00       0.000000000000
      0.2808000000D+03 -0.5949224937D-04
      0.7927000000D+02 -0.1148158310D-02
      0.2559000000D+02 -0.1001913745D-01
      0.8997000000D+01 -0.6121949230D-01
      0.3319000000D+01 -0.1732698541D+00
      0.3643000000D+00  0.1072915192D+01
 S   1 1.00       0.000000000000
      0.9059000000D+00  0.1000000000D+01
 S   1 1.00       0.000000000000
      0.1285000000D+00  0.1000000000D+01
 P   3 1.00       0.000000000000
      0.1871000000D+02  0.3942638716D-01
      0.4133000000D+01  0.2440889849D+00
      0.1200000000D+01  0.8154920089D+00
 P   1 1.00       0.000000000000
      0.3827000000D+00  0.1000000000D+01
 P   1 1.00       0.000000000000
      0.1209000000D+00  0.1000000000D+01
 D   1 1.00       0.000000000000
      0.1097000000D+01  0.1000000000D+01
 D   1 1.00       0.000000000000
      0.3180000000D+00  0.1000000000D+01
 F   1 1.00       0.000000000000
      0.7610000000D+00  0.1000000000D+01
 ****
      2 0
 S   3 1.00       0.000000000000
      0.3387000000D+02  0.2549486323D-01
      0.5095000000D+01  0.1903627659D+00
      0.1159000000D+01  0.8521620222D+00
 S   1 1.00       0.000000000000
      0.3258000000D+00  0.1000000000D+01
 S   1 1.00       0.000000000000
      0.1027000000D+00  0.1000000000D+01
 P   1 1.00       0.000000000000
      0.1407000000D+01  0.1000000000D+01
 P   1 1.00       0.000000000000
      0.3880000000D+00  0.1000000000D+01
 D   1 1.00       0.000000000000
      0.1057000000D+01  0.1000000000D+01
 ****
      3 0
 S   3 1.00       0.000000000000
      0.3387000000D+02  0.2549486323D-01
      0.5095000000D+01  0.1903627659D+00
      0.1159000000D+01  0.8521620222D+00
 S   1 1.00       0.000000000000
      0.3258000000D+00  0.1000000000D+01
 S   1 1.00       0.000000000000
      0.1027000000D+00  0.1000000000D+01
 P   1 1.00       0.000000000000
      0.1407000000D+01  0.1000000000D+01
 P   1 1.00       0.000000000000
      0.3880000000D+00  0.1000000000D+01
 D   1 1.00       0.000000000000
      0.1057000000D+01  0.1000000000D+01
 ****
      4 0
 S   3 1.00       0.000000000000
      0.3387000000D+02  0.2549486323D-01
      0.5095000000D+01  0.1903627659D+00
      0.1159000000D+01  0.8521620222D+00
 S   1 1.00       0.000000000000
      0.3258000000D+00  0.1000000000D+01
 S   1 1.00       0.000000000000
      0.1027000000D+00  0.1000000000D+01
 P   1 1.00       0.000000000000
      0.1407000000D+01  0.1000000000D+01
 P   1 1.00       0.000000000000
      0.3880000000D+00  0.1000000000D+01
 D   1 1.00       0.000000000000
      0.1057000000D+01  0.1000000000D+01
 ****
      5 0
 S   3 1.00       0.000000000000
      0.3387000000D+02  0.2549486323D-01
      0.5095000000D+01  0.1903627659D+00
      0.1159000000D+01  0.8521620222D+00
 S   1 1.00       0.000000000000
      0.3258000000D+00  0.1000000000D+01
 S   1 1.00       0.000000000000
      0.1027000000D+00  0.1000000000D+01
 P   1 1.00       0.000000000000
      0.1407000000D+01  0.1000000000D+01
 P   1 1.00       0.000000000000
      0.3880000000D+00  0.1000000000D+01
 D   1 1.00       0.000000000000
      0.1057000000D+01  0.1000000000D+01
 ****

 There are    23 symmetry adapted basis functions of A   symmetry.
 There are    21 symmetry adapted basis functions of B1  symmetry.
 There are    21 symmetry adapted basis functions of B2  symmetry.
 There are    21 symmetry adapted basis functions of B3  symmetry.
 Integral buffers will be    131072 words long.
 Raffenetti 2 integral format.
 Two-electron integral symmetry is turned on.
    86 basis functions,   120 primitive gaussians,    95 cartesian basis functions
     5 alpha electrons        5 beta electrons
       nuclear repulsion energy        13.4353891954 Hartrees.
 IExCor=  402 DFT=T Ex+Corr=B3LYP ExCW=0 ScaHFX=  0.200000
 ScaDFX=  0.800000  0.720000  1.000000  0.810000 ScalE2=  1.000000  1.000000
 IRadAn=      0 IRanWt=     -1 IRanGd=            0 ICorTp=0
 NAtoms=    5 NActive=    5 NUniq=    2 SFac= 3.00D+00 NAtFMM=   80 NAOKFM=F Big=F
 Leave Link  301 at Sun Aug 18 00:32:20 2024, MaxMem=   13107200 cpu:       0.1
 (Enter /programs/64bit/g09/g09-gfortran/bin/l302.exe)
 NPDir=0 NMtPBC=     1 NCelOv=     1 NCel=       1 NClECP=     1 NCelD=      1
         NCelK=      1 NCelE2=     1 NClLst=     1 CellRange=     0.0.
 One-electron integrals computed using PRISM.
 One-electron integral symmetry used in STVInt
 NBasis=    86 RedAO= T  NBF=    23    21    21    21
 NBsUse=    86 1.00D-06 NBFU=    23    21    21    21
 Precomputing XC quadrature grid using
 IXCGrd= 2 IRadAn=           0 IRanWt=          -1 IRanGd=           0 AccXCQ= 1.00D-10.
 NRdTot=     309 NPtTot=       39112 NUsed=       41353 NTot=       41385
 NSgBfM=    95    95    95    95    95 NAtAll=     5     5.
 Leave Link  302 at Sun Aug 18 00:32:20 2024, MaxMem=   13107200 cpu:       0.2
 (Enter /programs/64bit/g09/g09-gfortran/bin/l303.exe)
 DipDrv:  MaxL=1.
 Leave Link  303 at Sun Aug 18 00:32:20 2024, MaxMem=   13107200 cpu:       0.0
 (Enter /programs/64bit/g09/g09-gfortran/bin/l401.exe)
 Harris functional with IExCor=  402 diagonalized for initial guess.
 ExpMin= 1.03D-01 ExpMax= 8.24D+03 ExpMxC= 2.81D+02 IAcc=1 IRadAn=         1 AccDes= 0.00D+00
 HarFok:  IExCor=  402 AccDes= 0.00D+00 IRadAn=         1 IDoV= 1
 ScaDFX=  1.000000  1.000000  1.000000  1.000000
 FoFCou: FMM=F IPFlag=           0 FMFlag=      100000 FMFlg1=           0
         NFxFlg=           0 DoJE=T BraDBF=F KetDBF=T FulRan=T
         Omega=  0.000000  0.000000  1.000000  0.000000  0.000000 ICntrl=     500 IOpCl=  0
         NMat0=    1 NMatS0=    1 NMatT0=    0 NMatD0=    1 NMtDS0=    0 NMtDT0=    0
         I1Cent=           4 NGrid=           0.
 Petite list used in FoFCou.
 Harris En= -40.5891888550914    
 Initial guess orbital symmetries:
       Occupied  (A1) (A1) (T2) (T2) (T2)
       Virtual   (A1) (T2) (T2) (T2) (T2) (T2) (T2) (T2) (T2) (T2)
                 (A1) (E) (E) (A1) (T1) (T1) (T1) (T2) (T2) (T2)
                 (T2) (T2) (T2) (T2) (T2) (T2) (E) (E) (A1) (T2)
                 (T2) (T2) (A1) (T2) (T2) (T2) (E) (E) (T1) (T1)
                 (T1) (T2) (T2) (T2) (T1) (T1) (T1) (T2) (T2) (T2)
                 (E) (E) (A1) (T2) (T2) (T2) (E) (E) (T1) (T1)
                 (T1) (T2) (T2) (T2) (A1) (T2) (T2) (T2) (T2) (T2)
                 (T2) (T1) (T1) (T1) (A1) (E) (E) (T2) (T2) (T2)
                 (A1)
 The electronic state of the initial guess is 1-A1.
 Leave Link  401 at Sun Aug 18 00:32:21 2024, MaxMem=   13107200 cpu:       0.5
 (Enter /programs/64bit/g09/g09-gfortran/bin/l502.exe)
 Closed shell SCF:
 Requested convergence on RMS density matrix=1.00D-08 within 128 cycles.
 Requested convergence on MAX density matrix=1.00D-06.
 Requested convergence on             energy=1.00D-06.
 No special actions if energy rises.
 Using DIIS extrapolation, IDIIS=  1040.
 Integral symmetry usage will be decided dynamically.
        41295 words used for storage of precomputed grid.
 Keep R1 ints in memory in canonical form, NReq=12427920.
 IEnd=       88826 IEndB=       88826 NGot=    13107200 MDV=     2645027
 LenX=     2645027 LenY=     2635561
 Symmetry not used in FoFDir.
 MinBra= 0 MaxBra= 3 Meth= 1.
 IRaf=       0 NMat=   1 IRICut=       1 DoRegI=T DoRafI=F ISym2E= 0 JSym2E=0.
 Integral accuracy reduced to 1.0D-05 until final iterations.

 Cycle   1  Pass 0  IDiag  1:
 E= -40.4365143338440    
 DIIS: error= 7.44D-02 at cycle   1 NSaved=   1.
 NSaved= 1 IEnMin= 1 EnMin= -40.4365143338440     IErMin= 1 ErrMin= 7.44D-02
 ErrMax= 7.44D-02 EMaxC= 1.00D-01 BMatC= 1.02D-01 BMatP= 1.02D-01
 IDIUse=3 WtCom= 2.56D-01 WtEn= 7.44D-01
 Coeff-Com:  0.100D+01
 Coeff-En:   0.100D+01
 Coeff:      0.100D+01
 Gap=     0.340 Goal=   None    Shift=    0.000
 GapD=    0.340 DampG=1.000 DampE=0.500 DampFc=0.5000 IDamp=-1.
 Damping current iteration by 5.00D-01
 RMSDP=4.19D-03 MaxDP=7.50D-02              OVMax= 2.12D-01

 Cycle   2  Pass 0  IDiag  1:
 E= -40.4819189280807     Delta-E=       -0.045404594237 Rises=F Damp=T
 DIIS: error= 9.26D-03 at cycle   2 NSaved=   2.
 NSaved= 2 IEnMin= 2 EnMin= -40.4819189280807     IErMin= 2 ErrMin= 9.26D-03
 ErrMax= 9.26D-03 EMaxC= 1.00D-01 BMatC= 2.35D-03 BMatP= 1.02D-01
 IDIUse=3 WtCom= 9.07D-01 WtEn= 9.26D-02
 Coeff-Com:  0.774D-01 0.923D+00
 Coeff-En:   0.148D+00 0.852D+00
 Coeff:      0.839D-01 0.916D+00
 Gap=     0.432 Goal=   None    Shift=    0.000
 RMSDP=4.90D-04 MaxDP=1.08D-02 DE=-4.54D-02 OVMax= 1.15D-01

 Cycle   3  Pass 0  IDiag  1:
 E= -40.5382575251411     Delta-E=       -0.056338597060 Rises=F Damp=F
 DIIS: error= 2.44D-04 at cycle   3 NSaved=   3.
 NSaved= 3 IEnMin= 3 EnMin= -40.5382575251411     IErMin= 3 ErrMin= 2.44D-04
 ErrMax= 2.44D-04 EMaxC= 1.00D-01 BMatC= 4.07D-06 BMatP= 2.35D-03
 IDIUse=3 WtCom= 9.98D-01 WtEn= 2.44D-03
 Coeff-Com: -0.268D-02-0.785D-02 0.101D+01
 Coeff-En:   0.000D+00 0.000D+00 0.100D+01
 Coeff:     -0.267D-02-0.783D-02 0.101D+01
 Gap=     0.439 Goal=   None    Shift=    0.000
 RMSDP=2.80D-05 MaxDP=5.19D-04 DE=-5.63D-02 OVMax= 9.12D-04

 Cycle   4  Pass 0  IDiag  1:
 E= -40.5382609998542     Delta-E=       -0.000003474713 Rises=F Damp=F
 DIIS: error= 1.61D-04 at cycle   4 NSaved=   4.
 NSaved= 4 IEnMin= 4 EnMin= -40.5382609998542     IErMin= 4 ErrMin= 1.61D-04
 ErrMax= 1.61D-04 EMaxC= 1.00D-01 BMatC= 4.70D-07 BMatP= 4.07D-06
 IDIUse=3 WtCom= 9.98D-01 WtEn= 1.61D-03
 Coeff-Com:  0.179D-02-0.236D-02 0.289D-01 0.972D+00
 Coeff-En:   0.000D+00 0.000D+00 0.000D+00 0.100D+01
 Coeff:      0.178D-02-0.236D-02 0.289D-01 0.972D+00
 Gap=     0.439 Goal=   None    Shift=    0.000
 RMSDP=5.26D-06 MaxDP=1.11D-04 DE=-3.47D-06 OVMax= 2.30D-04

 Initial convergence to 1.0D-05 achieved.  Increase integral accuracy.
 Cycle   5  Pass 1  IDiag  1:
 E= -40.5382364836686     Delta-E=        0.000024516186 Rises=F Damp=F
 DIIS: error= 1.83D-05 at cycle   1 NSaved=   1.
 NSaved= 1 IEnMin= 1 EnMin= -40.5382364836686     IErMin= 1 ErrMin= 1.83D-05
 ErrMax= 1.83D-05 EMaxC= 1.00D-01 BMatC= 1.34D-08 BMatP= 1.34D-08
 IDIUse=1 WtCom= 1.00D+00 WtEn= 0.00D+00
 Coeff-Com:  0.100D+01
 Coeff:      0.100D+01
 Gap=     0.439 Goal=   None    Shift=    0.000
 RMSDP=5.26D-06 MaxDP=1.11D-04 DE= 2.45D-05 OVMax= 4.43D-05

 Cycle   6  Pass 1  IDiag  1:
 E= -40.5382364966571     Delta-E=       -0.000000012988 Rises=F Damp=F
 DIIS: error= 4.51D-06 at cycle   2 NSaved=   2.
 NSaved= 2 IEnMin= 2 EnMin= -40.5382364966571     IErMin= 2 ErrMin= 4.51D-06
 ErrMax= 4.51D-06 EMaxC= 1.00D-01 BMatC= 4.83D-10 BMatP= 1.34D-08
 IDIUse=1 WtCom= 1.00D+00 WtEn= 0.00D+00
 Coeff-Com: -0.113D-01 0.101D+01
 Coeff:     -0.113D-01 0.101D+01
 Gap=     0.439 Goal=   None    Shift=    0.000
 RMSDP=2.81D-07 MaxDP=5.84D-06 DE=-1.30D-08 OVMax= 1.18D-05

 Cycle   7  Pass 1  IDiag  1:
 E= -40.5382364965645     Delta-E=        0.000000000093 Rises=F Damp=F
 DIIS: error= 5.34D-06 at cycle   3 NSaved=   3.
 NSaved= 3 IEnMin= 2 EnMin= -40.5382364966571     IErMin= 2 ErrMin= 4.51D-06
 ErrMax= 5.34D-06 EMaxC= 1.00D-01 BMatC= 5.43D-10 BMatP= 4.83D-10
 IDIUse=1 WtCom= 1.00D+00 WtEn= 0.00D+00
 Coeff-Com: -0.286D-01 0.537D+00 0.491D+00
 Coeff:     -0.286D-01 0.537D+00 0.491D+00
 Gap=     0.439 Goal=   None    Shift=    0.000
 RMSDP=1.45D-07 MaxDP=2.91D-06 DE= 9.27D-11 OVMax= 7.19D-06

 Cycle   8  Pass 1  IDiag  1:
 E= -40.5382364970898     Delta-E=       -0.000000000525 Rises=F Damp=F
 DIIS: error= 2.25D-07 at cycle   4 NSaved=   4.
 NSaved= 4 IEnMin= 4 EnMin= -40.5382364970898     IErMin= 4 ErrMin= 2.25D-07
 ErrMax= 2.25D-07 EMaxC= 1.00D-01 BMatC= 9.84D-13 BMatP= 4.83D-10
 IDIUse=1 WtCom= 1.00D+00 WtEn= 0.00D+00
 Coeff-Com: -0.814D-03 0.107D-02 0.406D-01 0.959D+00
 Coeff:     -0.814D-03 0.107D-02 0.406D-01 0.959D+00
 Gap=     0.439 Goal=   None    Shift=    0.000
 RMSDP=8.08D-09 MaxDP=1.64D-07 DE=-5.25D-10 OVMax= 3.10D-07

 SCF Done:  E(RB3LYP) =  -40.5382364971     A.U. after    8 cycles
             Convg  =    0.8081D-08             -V/T =  2.0083
 KE= 4.020481901717D+01 PE=-1.200519194916D+02 EE= 2.587347478197D+01
 Leave Link  502 at Sun Aug 18 00:32:31 2024, MaxMem=   13107200 cpu:       7.1
 (Enter /programs/64bit/g09/g09-gfortran/bin/l601.exe)
 Copying SCF densities to generalized density rwf, IOpCl= 0 IROHF=0.

 **********************************************************************

            Population analysis using the SCF density.

 **********************************************************************

 Orbital symmetries:
       Occupied  (A1) (A1) (T2) (T2) (T2)
       Virtual   (A1) (T2) (T2) (T2) (T2) (T2) (T2) (T2) (T2) (T2)
                 (A1) (E) (E) (A1) (T1) (T1) (T1) (T2) (T2) (T2)
                 (T2) (T2) (T2) (T2) (T2) (T2) (E) (E) (A1) (T2)
                 (T2) (T2) (A1) (T2) (T2) (T2) (E) (E) (T1) (T1)
                 (T1) (T2) (T2) (T2) (T1) (T1) (T1) (T2) (T2) (T2)
                 (E) (E) (A1) (T2) (T2) (T2) (E) (E) (T1) (T1)
                 (T1) (T2) (T2) (T2) (A1) (T2) (T2) (T2) (T2) (T2)
                 (T2) (T1) (T1) (T1) (A1) (E) (E) (T2) (T2) (T2)
                 (A1)
 The electronic state is 1-A1.
 Alpha  occ. eigenvalues --  -10.15584  -0.69633  -0.39506  -0.39506  -0.39506
 Alpha virt. eigenvalues --    0.04425   0.11998   0.11998   0.11998   0.23710
 Alpha virt. eigenvalues --    0.23710   0.23710   0.46548   0.46548   0.46548
 Alpha virt. eigenvalues --    0.46981   0.50538   0.50538   0.58503   0.87746
 Alpha virt. eigenvalues --    0.87746   0.87746   0.95836   0.95836   0.95836
 Alpha virt. eigenvalues --    1.12101   1.12101   1.12101   1.31261   1.31261
 Alpha virt. eigenvalues --    1.31261   1.38827   1.38827   1.53365   2.11173
 Alpha virt. eigenvalues --    2.11173   2.11173   2.26255   2.64716   2.64716
 Alpha virt. eigenvalues --    2.64716   2.80959   2.80959   2.81809   2.81809
 Alpha virt. eigenvalues --    2.81809   2.96677   2.96677   2.96677   3.30649
 Alpha virt. eigenvalues --    3.30649   3.30649   3.40139   3.40139   3.40139
 Alpha virt. eigenvalues --    3.49471   3.49471   3.54291   3.76551   3.76551
 Alpha virt. eigenvalues --    3.76551   3.78647   3.78647   4.07438   4.07438
 Alpha virt. eigenvalues --    4.07438   4.21735   4.21735   4.21735   4.42958
 Alpha virt. eigenvalues --    4.71428   4.71428   4.71428   5.12379   5.12379
 Alpha virt. eigenvalues --    5.12379   5.15579   5.15579   5.15579   5.19280
 Alpha virt. eigenvalues --    5.28699   5.28699   5.80726   5.80726   5.80726
 Alpha virt. eigenvalues --   13.72092
     Molecular Orbital Coefficients:
                           1         2         3         4         5
                        (A1)--O   (A1)--O   (T2)--O   (T2)--O   (T2)--O
     Eigenvalues --   -10.15584  -0.69633  -0.39506  -0.39506  -0.39506
   1 1   C  1S          0.97632  -0.18843   0.00000   0.00000   0.00000
   2        2S          0.00809   0.41739   0.00000   0.00000   0.00000
   3        3S          0.05068   0.10620   0.00000   0.00000   0.00000
   4        4S          0.02292   0.20086   0.00000   0.00000   0.00000
   5        5PX         0.00000   0.00000   0.25333   0.00000   0.00000
   6        5PY         0.00000   0.00000   0.00000   0.25333   0.00000
   7        5PZ         0.00000   0.00000   0.00000   0.00000   0.25333
   8        6PX         0.00000   0.00000   0.27485   0.00000   0.00000
   9        6PY         0.00000   0.00000   0.00000   0.27485   0.00000
  10        6PZ         0.00000   0.00000   0.00000   0.00000   0.27485
  11        7PX         0.00000   0.00000   0.14310   0.00000   0.00000
  12        7PY         0.00000   0.00000   0.00000   0.14310   0.00000
  13        7PZ         0.00000   0.00000   0.00000   0.00000   0.14310
  14        8D 0        0.00000  -0.00000   0.00000   0.00000   0.00000
  15        8D+1        0.00000   0.00000   0.00000   0.01418   0.00000
  16        8D-1        0.00000   0.00000   0.01418   0.00000   0.00000
  17        8D+2        0.00000  -0.00000   0.00000   0.00000   0.00000
  18        8D-2        0.00000   0.00000   0.00000   0.00000   0.01418
  19        9D 0        0.00000  -0.00000   0.00000   0.00000   0.00000
  20        9D+1        0.00000   0.00000   0.00000   0.01167   0.00000
  21        9D-1        0.00000   0.00000   0.01167   0.00000   0.00000
  22        9D+2       -0.00000  -0.00000   0.00000   0.00000   0.00000
  23        9D-2        0.00000   0.00000   0.00000   0.00000   0.01167
  24       10F 0        0.00000   0.00000   0.00000   0.00000   0.00005
  25       10F+1        0.00000   0.00000  -0.00003   0.00000   0.00000
  26       10F-1        0.00000   0.00000   0.00000  -0.00003   0.00000
  27       10F+2        0.00000   0.00000   0.00000   0.00000   0.00000
  28       10F-2        0.00289   0.00619   0.00000   0.00000   0.00000
  29       10F+3        0.00000   0.00000   0.00004   0.00000   0.00000
  30       10F-3        0.00000   0.00000   0.00000  -0.00004   0.00000
  31 2   H  1S          0.00004   0.08557   0.10638   0.10638   0.10638
  32        2S         -0.00906   0.08481   0.15015   0.15015   0.15015
  33        3S         -0.00274   0.01487   0.07815   0.07815   0.07815
  34        4PX         0.00074  -0.00481  -0.00105  -0.00648  -0.00648
  35        4PY         0.00074  -0.00481  -0.00648  -0.00105  -0.00648
  36        4PZ         0.00074  -0.00481  -0.00648  -0.00648  -0.00105
  37        5PX         0.00267  -0.00155   0.00525  -0.00782  -0.00782
  38        5PY         0.00267  -0.00155  -0.00782   0.00525  -0.00782
  39        5PZ         0.00267  -0.00155  -0.00782  -0.00782   0.00525
  40        6D 0        0.00000  -0.00000   0.00085   0.00085  -0.00169
  41        6D+1       -0.00093   0.00093   0.00073   0.00229   0.00073
  42        6D-1       -0.00093   0.00093   0.00229   0.00073   0.00073
  43        6D+2       -0.00000  -0.00000  -0.00147   0.00147   0.00000
  44        6D-2       -0.00093   0.00093   0.00073   0.00073   0.00229
  45 3   H  1S          0.00004   0.08557  -0.10638  -0.10638   0.10638
  46        2S         -0.00906   0.08481  -0.15015  -0.15015   0.15015
  47        3S         -0.00274   0.01487  -0.07815  -0.07815   0.07815
  48        4PX        -0.00074   0.00481  -0.00105  -0.00648   0.00648
  49        4PY        -0.00074   0.00481  -0.00648  -0.00105   0.00648
  50        4PZ         0.00074  -0.00481   0.00648   0.00648  -0.00105
  51        5PX        -0.00267   0.00155   0.00525  -0.00782   0.00782
  52        5PY        -0.00267   0.00155  -0.00782   0.00525   0.00782
  53        5PZ         0.00267  -0.00155   0.00782   0.00782   0.00525
  54        6D 0        0.00000  -0.00000  -0.00085  -0.00085  -0.00169
  55        6D+1        0.00093  -0.00093   0.00073   0.00229  -0.00073
  56        6D-1        0.00093  -0.00093   0.00229   0.00073  -0.00073
  57        6D+2       -0.00000  -0.00000   0.00147  -0.00147   0.00000
  58        6D-2       -0.00093   0.00093  -0.00073  -0.00073   0.00229
  59 4   H  1S          0.00004   0.08557  -0.10638   0.10638  -0.10638
  60        2S         -0.00906   0.08481  -0.15015   0.15015  -0.15015
  61        3S         -0.00274   0.01487  -0.07815   0.07815  -0.07815
  62        4PX        -0.00074   0.00481  -0.00105   0.00648  -0.00648
  63        4PY         0.00074  -0.00481   0.00648  -0.00105   0.00648
  64        4PZ        -0.00074   0.00481  -0.00648   0.00648  -0.00105
  65        5PX        -0.00267   0.00155   0.00525   0.00782  -0.00782
  66        5PY         0.00267  -0.00155   0.00782   0.00525   0.00782
  67        5PZ        -0.00267   0.00155  -0.00782   0.00782   0.00525
  68        6D 0        0.00000  -0.00000  -0.00085   0.00085   0.00169
  69        6D+1       -0.00093   0.00093  -0.00073   0.00229  -0.00073
  70        6D-1        0.00093  -0.00093   0.00229  -0.00073   0.00073
  71        6D+2       -0.00000  -0.00000   0.00147   0.00147  -0.00000
  72        6D-2        0.00093  -0.00093   0.00073  -0.00073   0.00229
  73 5   H  1S          0.00004   0.08557   0.10638  -0.10638  -0.10638
  74        2S         -0.00906   0.08481   0.15015  -0.15015  -0.15015
  75        3S         -0.00274   0.01487   0.07815  -0.07815  -0.07815
  76        4PX         0.00074  -0.00481  -0.00105   0.00648   0.00648
  77        4PY        -0.00074   0.00481   0.00648  -0.00105  -0.00648
  78        4PZ        -0.00074   0.00481   0.00648  -0.00648  -0.00105
  79        5PX         0.00267  -0.00155   0.00525   0.00782   0.00782
  80        5PY        -0.00267   0.00155   0.00782   0.00525  -0.00782
  81        5PZ        -0.00267   0.00155   0.00782  -0.00782   0.00525
  82        6D 0        0.00000  -0.00000   0.00085  -0.00085   0.00169
  83        6D+1        0.00093  -0.00093  -0.00073   0.00229   0.00073
  84        6D-1       -0.00093   0.00093   0.00229  -0.00073  -0.00073
  85        6D+2       -0.00000  -0.00000  -0.00147  -0.00147  -0.00000
  86        6D-2        0.00093  -0.00093  -0.00073   0.00073   0.00229
                           6         7         8         9        10
                        (A1)--V   (T2)--V   (T2)--V   (T2)--V   (T2)--V
     Eigenvalues --     0.04425   0.11998   0.11998   0.11998   0.23710
   1 1   C  1S         -0.09439   0.00000   0.00000   0.00000   0.00000
   2        2S          0.29887   0.00000   0.00000   0.00000   0.00000
   3        3S          0.07501   0.00000   0.00000   0.00000   0.00000
   4        4S          3.15166   0.00000   0.00000   0.00000   0.00000
   5        5PX         0.00000   0.18376   0.00000   0.00000  -0.09472
   6        5PY         0.00000   0.00000   0.18376   0.00000   0.00000
   7        5PZ         0.00000   0.00000   0.00000   0.18376   0.00000
   8        6PX         0.00000   0.38479   0.00000   0.00000   0.42172
   9        6PY         0.00000   0.00000   0.38479   0.00000   0.00000
  10        6PZ         0.00000   0.00000   0.00000   0.38479   0.00000
  11        7PX         0.00000   1.56649   0.00000   0.00000   2.00816
  12        7PY         0.00000   0.00000   1.56649   0.00000   0.00000
  13        7PZ         0.00000   0.00000   0.00000   1.56649   0.00000
  14        8D 0        0.00000   0.00000   0.00000   0.00000   0.00000
  15        8D+1        0.00000   0.00000  -0.00920   0.00000   0.00000
  16        8D-1        0.00000  -0.00920   0.00000   0.00000  -0.00869
  17        8D+2       -0.00000   0.00000   0.00000   0.00000   0.00000
  18        8D-2        0.00000   0.00000   0.00000  -0.00920   0.00000
  19        9D 0       -0.00000   0.00000   0.00000   0.00000   0.00000
  20        9D+1        0.00000   0.00000   0.08867   0.00000   0.00000
  21        9D-1        0.00000   0.08867   0.00000   0.00000   0.42551
  22        9D+2        0.00000   0.00000   0.00000   0.00000   0.00000
  23        9D-2        0.00000   0.00000   0.00000   0.08867   0.00000
  24       10F 0        0.00000   0.00000   0.00000  -0.00224   0.00000
  25       10F+1        0.00000   0.00137   0.00000   0.00000   0.02846
  26       10F-1        0.00000   0.00000   0.00137   0.00000   0.00000
  27       10F+2        0.00000   0.00000   0.00000   0.00000   0.00000
  28       10F-2        0.02035   0.00000   0.00000   0.00000   0.00000
  29       10F+3        0.00000  -0.00177   0.00000   0.00000  -0.03675
  30       10F-3        0.00000   0.00000   0.00177   0.00000   0.00000
  31 2   H  1S         -0.00111  -0.02027  -0.02027  -0.02027  -0.04218
  32        2S         -0.19328  -0.15226  -0.15226  -0.15226  -1.04455
  33        3S         -0.99362  -1.52435  -1.52435  -1.52435  -0.23696
  34        4PX        -0.00715  -0.00001  -0.01130  -0.01130   0.02248
  35        4PY        -0.00715  -0.01130  -0.00001  -0.01130   0.00587
  36        4PZ        -0.00715  -0.01130  -0.01130  -0.00001   0.00587
  37        5PX         0.05755   0.03646   0.05210   0.05210   0.11938
  38        5PY         0.05755   0.05210   0.03646   0.05210   0.12678
  39        5PZ         0.05755   0.05210   0.05210   0.03646   0.12678
  40        6D 0       -0.00000   0.00110   0.00110  -0.00219   0.00251
  41        6D+1       -0.00318  -0.00263  -0.00416  -0.00263  -0.00923
  42        6D-1       -0.00318  -0.00416  -0.00263  -0.00263  -0.01771
  43        6D+2        0.00000  -0.00190   0.00190   0.00000  -0.00434
  44        6D-2       -0.00318  -0.00263  -0.00263  -0.00416  -0.00923
  45 3   H  1S         -0.00111   0.02027   0.02027  -0.02027   0.04218
  46        2S         -0.19328   0.15226   0.15226  -0.15226   1.04455
  47        3S         -0.99362   1.52435   1.52435  -1.52435   0.23696
  48        4PX         0.00715  -0.00001  -0.01130   0.01130   0.02248
  49        4PY         0.00715  -0.01130  -0.00001   0.01130   0.00587
  50        4PZ        -0.00715   0.01130   0.01130  -0.00001  -0.00587
  51        5PX        -0.05755   0.03646   0.05210  -0.05210   0.11938
  52        5PY        -0.05755   0.05210   0.03646  -0.05210   0.12678
  53        5PZ         0.05755  -0.05210  -0.05210   0.03646  -0.12678
  54        6D 0       -0.00000  -0.00110  -0.00110  -0.00219  -0.00251
  55        6D+1        0.00318  -0.00263  -0.00416   0.00263  -0.00923
  56        6D-1        0.00318  -0.00416  -0.00263   0.00263  -0.01771
  57        6D+2        0.00000   0.00190  -0.00190   0.00000   0.00434
  58        6D-2       -0.00318   0.00263   0.00263  -0.00416   0.00923
  59 4   H  1S         -0.00111   0.02027  -0.02027   0.02027   0.04218
  60        2S         -0.19328   0.15226  -0.15226   0.15226   1.04455
  61        3S         -0.99362   1.52435  -1.52435   1.52435   0.23696
  62        4PX         0.00715  -0.00001   0.01130  -0.01130   0.02248
  63        4PY        -0.00715   0.01130  -0.00001   0.01130  -0.00587
  64        4PZ         0.00715  -0.01130   0.01130  -0.00001   0.00587
  65        5PX        -0.05755   0.03646  -0.05210   0.05210   0.11938
  66        5PY         0.05755  -0.05210   0.03646  -0.05210  -0.12678
  67        5PZ        -0.05755   0.05210  -0.05210   0.03646   0.12678
  68        6D 0       -0.00000  -0.00110   0.00110   0.00219  -0.00251
  69        6D+1       -0.00318   0.00263  -0.00416   0.00263   0.00923
  70        6D-1        0.00318  -0.00416   0.00263  -0.00263  -0.01771
  71        6D+2        0.00000   0.00190   0.00190  -0.00000   0.00434
  72        6D-2        0.00318  -0.00263   0.00263  -0.00416  -0.00923
  73 5   H  1S         -0.00111  -0.02027   0.02027   0.02027  -0.04218
  74        2S         -0.19328  -0.15226   0.15226   0.15226  -1.04455
  75        3S         -0.99362  -1.52435   1.52435   1.52435  -0.23696
  76        4PX        -0.00715  -0.00001   0.01130   0.01130   0.02248
  77        4PY         0.00715   0.01130  -0.00001  -0.01130  -0.00587
  78        4PZ         0.00715   0.01130  -0.01130  -0.00001  -0.00587
  79        5PX         0.05755   0.03646  -0.05210  -0.05210   0.11938
  80        5PY        -0.05755  -0.05210   0.03646   0.05210  -0.12678
  81        5PZ        -0.05755  -0.05210   0.05210   0.03646  -0.12678
  82        6D 0       -0.00000   0.00110  -0.00110   0.00219   0.00251
  83        6D+1        0.00318   0.00263  -0.00416  -0.00263   0.00923
  84        6D-1       -0.00318  -0.00416   0.00263   0.00263  -0.01771
  85        6D+2        0.00000  -0.00190  -0.00190  -0.00000  -0.00434
  86        6D-2        0.00318   0.00263  -0.00263  -0.00416   0.00923
                          11        12        13        14        15
                        (T2)--V   (T2)--V   (T2)--V   (T2)--V   (T2)--V
     Eigenvalues --     0.23710   0.23710   0.46548   0.46548   0.46548
   1 1   C  1S          0.00000   0.00000   0.00000   0.00000   0.00000
   2        2S          0.00000   0.00000   0.00000   0.00000   0.00000
   3        3S          0.00000   0.00000   0.00000   0.00000   0.00000
   4        4S          0.00000   0.00000   0.00000   0.00000   0.00000
   5        5PX         0.00000   0.00000  -0.32461   0.00000   0.00000
   6        5PY        -0.09472   0.00000   0.00000  -0.32461   0.00000
   7        5PZ         0.00000  -0.09472   0.00000   0.00000  -0.32461
   8        6PX         0.00000   0.00000   0.35962   0.00000   0.00000
   9        6PY         0.42172   0.00000   0.00000   0.35962   0.00000
  10        6PZ         0.00000   0.42172   0.00000   0.00000   0.35962
  11        7PX         0.00000   0.00000   2.76691   0.00000   0.00000
  12        7PY         2.00816   0.00000   0.00000   2.76691   0.00000
  13        7PZ         0.00000   2.00816   0.00000   0.00000   2.76691
  14        8D 0        0.00000   0.00000   0.00000   0.00000   0.00000
  15        8D+1       -0.00869   0.00000   0.00000   0.04911   0.00000
  16        8D-1        0.00000   0.00000   0.04911   0.00000   0.00000
  17        8D+2        0.00000   0.00000   0.00000   0.00000   0.00000
  18        8D-2        0.00000  -0.00869   0.00000   0.00000   0.04911
  19        9D 0        0.00000   0.00000   0.00000   0.00000   0.00000
  20        9D+1        0.42551   0.00000   0.00000   0.79656   0.00000
  21        9D-1        0.00000   0.00000   0.79656   0.00000   0.00000
  22        9D+2        0.00000   0.00000   0.00000   0.00000   0.00000
  23        9D-2        0.00000   0.42551   0.00000   0.00000   0.79656
  24       10F 0        0.00000  -0.04648   0.00000   0.00000  -0.03838
  25       10F+1        0.00000   0.00000   0.02350   0.00000   0.00000
  26       10F-1        0.02846   0.00000   0.00000   0.02350   0.00000
  27       10F+2        0.00000   0.00000   0.00000   0.00000   0.00000
  28       10F-2        0.00000   0.00000   0.00000   0.00000   0.00000
  29       10F+3        0.00000   0.00000  -0.03034   0.00000   0.00000
  30       10F-3        0.03675   0.00000   0.00000   0.03034   0.00000
  31 2   H  1S         -0.04218  -0.04218   0.08388   0.08388   0.08388
  32        2S         -1.04455  -1.04455  -0.47713  -0.47713  -0.47713
  33        3S         -0.23696  -0.23696  -1.77168  -1.77168  -1.77168
  34        4PX         0.00587   0.00587   0.00747  -0.00390  -0.00390
  35        4PY         0.02248   0.00587  -0.00390   0.00747  -0.00390
  36        4PZ         0.00587   0.02248  -0.00390  -0.00390   0.00747
  37        5PX         0.12678   0.12678   0.19265   0.36232   0.36232
  38        5PY         0.11938   0.12678   0.36232   0.19265   0.36232
  39        5PZ         0.12678   0.11938   0.36232   0.36232   0.19265
  40        6D 0        0.00251  -0.00502  -0.00086  -0.00086   0.00172
  41        6D+1       -0.01771  -0.00923  -0.01413  -0.02660  -0.01413
  42        6D-1       -0.00923  -0.00923  -0.02660  -0.01413  -0.01413
  43        6D+2        0.00434   0.00000   0.00149  -0.00149   0.00000
  44        6D-2       -0.00923  -0.01771  -0.01413  -0.01413  -0.02660
  45 3   H  1S          0.04218  -0.04218  -0.08388  -0.08388   0.08388
  46        2S          1.04455  -1.04455   0.47713   0.47713  -0.47713
  47        3S          0.23696  -0.23696   1.77168   1.77168  -1.77168
  48        4PX         0.00587  -0.00587   0.00747  -0.00390   0.00390
  49        4PY         0.02248  -0.00587  -0.00390   0.00747   0.00390
  50        4PZ        -0.00587   0.02248   0.00390   0.00390   0.00747
  51        5PX         0.12678  -0.12678   0.19265   0.36232  -0.36232
  52        5PY         0.11938  -0.12678   0.36232   0.19265  -0.36232
  53        5PZ        -0.12678   0.11938  -0.36232  -0.36232   0.19265
  54        6D 0       -0.00251  -0.00502   0.00086   0.00086   0.00172
  55        6D+1       -0.01771   0.00923  -0.01413  -0.02660   0.01413
  56        6D-1       -0.00923   0.00923  -0.02660  -0.01413   0.01413
  57        6D+2       -0.00434   0.00000  -0.00149   0.00149   0.00000
  58        6D-2        0.00923  -0.01771   0.01413   0.01413  -0.02660
  59 4   H  1S         -0.04218   0.04218  -0.08388   0.08388  -0.08388
  60        2S         -1.04455   1.04455   0.47713  -0.47713   0.47713
  61        3S         -0.23696   0.23696   1.77168  -1.77168   1.77168
  62        4PX        -0.00587   0.00587   0.00747   0.00390  -0.00390
  63        4PY         0.02248  -0.00587   0.00390   0.00747   0.00390
  64        4PZ        -0.00587   0.02248  -0.00390   0.00390   0.00747
  65        5PX        -0.12678   0.12678   0.19265  -0.36232   0.36232
  66        5PY         0.11938  -0.12678  -0.36232   0.19265  -0.36232
  67        5PZ        -0.12678   0.11938   0.36232  -0.36232   0.19265
  68        6D 0        0.00251   0.00502   0.00086  -0.00086  -0.00172
  69        6D+1       -0.01771   0.00923   0.01413  -0.02660   0.01413
  70        6D-1        0.00923  -0.00923  -0.02660   0.01413  -0.01413
  71        6D+2        0.00434  -0.00000  -0.00149  -0.00149  -0.00000
  72        6D-2        0.00923  -0.01771  -0.01413   0.01413  -0.02660
  73 5   H  1S          0.04218   0.04218   0.08388  -0.08388  -0.08388
  74        2S          1.04455   1.04455  -0.47713   0.47713   0.47713
  75        3S          0.23696   0.23696  -1.77168   1.77168   1.77168
  76        4PX        -0.00587  -0.00587   0.00747   0.00390   0.00390
  77        4PY         0.02248   0.00587   0.00390   0.00747  -0.00390
  78        4PZ         0.00587   0.02248   0.00390  -0.00390   0.00747
  79        5PX        -0.12678  -0.12678   0.19265  -0.36232  -0.36232
  80        5PY         0.11938   0.12678  -0.36232   0.19265   0.36232
  81        5PZ         0.12678   0.11938  -0.36232   0.36232   0.19265
  82        6D 0       -0.00251   0.00502  -0.00086   0.00086  -0.00172
  83        6D+1       -0.01771  -0.00923   0.01413  -0.02660  -0.01413
  84        6D-1        0.00923   0.00923  -0.02660   0.01413   0.01413
  85        6D+2       -0.00434  -0.00000   0.00149   0.00149  -0.00000
  86        6D-2       -0.00923  -0.01771   0.01413  -0.01413  -0.02660
                          16        17        18        19        20
                        (A1)--V   (E)--V    (E)--V    (A1)--V   (T1)--V
     Eigenvalues --     0.46981   0.50538   0.50538   0.58503   0.87746
   1 1   C  1S          0.17592  -0.00000  -0.00000   0.02507   0.00000
   2        2S         -0.31924   0.00000   0.00000  -0.05146   0.00000
   3        3S         -0.16892   0.00000   0.00000  -0.17958   0.00000
   4        4S          5.59897  -0.00000   0.00000   7.70798   0.00000
   5        5PX         0.00000  -0.00000  -0.00000   0.00000   0.00000
   6        5PY         0.00000  -0.00000  -0.00000   0.00000   0.00000
   7        5PZ         0.00000  -0.00000  -0.00000   0.00000   0.00000
   8        6PX         0.00000  -0.00000  -0.00000   0.00000   0.00000
   9        6PY         0.00000  -0.00000  -0.00000   0.00000  -0.00000
  10        6PZ         0.00000  -0.00000  -0.00000   0.00000   0.00000
  11        7PX         0.00000  -0.00000  -0.00000   0.00000   0.00000
  12        7PY         0.00000  -0.00000  -0.00000   0.00000  -0.00000
  13        7PZ         0.00000  -0.00000  -0.00000   0.00000   0.00000
  14        8D 0        0.00000  -0.00265   0.02113  -0.00000   0.00000
  15        8D+1        0.00000  -0.00000  -0.00000   0.00000  -0.00000
  16        8D-1        0.00000  -0.00000  -0.00000   0.00000   0.00000
  17        8D+2       -0.00000   0.02113   0.00265  -0.00000   0.00000
  18        8D-2        0.00000  -0.00000  -0.00000   0.00000   0.00000
  19        9D 0        0.00000  -0.01298   0.10355   0.00000   0.00000
  20        9D+1        0.00000  -0.00000  -0.00000   0.00000  -0.00000
  21        9D-1        0.00000  -0.00000  -0.00000   0.00000   0.00000
  22        9D+2        0.00000   0.10355   0.01298   0.00000   0.00000
  23        9D-2        0.00000  -0.00000  -0.00000   0.00000   0.00000
  24       10F 0        0.00000  -0.00000  -0.00000   0.00000   0.00000
  25       10F+1        0.00000  -0.00000  -0.00000   0.00000   0.00000
  26       10F-1        0.00000  -0.00000  -0.00000   0.00000   0.05901
  27       10F+2        0.00000  -0.00000  -0.00000   0.00000   0.00000
  28       10F-2        0.08470   0.00000   0.00000   0.14053   0.00000
  29       10F+3        0.00000  -0.00000  -0.00000   0.00000   0.00000
  30       10F-3        0.00000  -0.00000  -0.00000   0.00000  -0.04571
  31 2   H  1S          0.09556  -0.00000  -0.00000  -0.04341  -0.00000
  32        2S         -0.34743  -0.00000  -0.00000  -1.71070   0.00000
  33        3S         -1.19442   0.00000   0.00000  -0.92266   0.00000
  34        4PX         0.00071  -0.02056   0.00867   0.01839  -0.02511
  35        4PY         0.00071   0.01778   0.01347   0.01839  -0.00000
  36        4PZ         0.00071   0.00277  -0.02214   0.01839   0.02511
  37        5PX         0.31967   0.32598  -0.13742   0.19119   0.47782
  38        5PY         0.31967  -0.28200  -0.21360   0.19119  -0.00000
  39        5PZ         0.31967  -0.04398   0.35101   0.19119  -0.47782
  40        6D 0        0.00000   0.00018  -0.00141   0.00000   0.01644
  41        6D+1       -0.01887  -0.00953  -0.00722  -0.02415   0.00000
  42        6D-1       -0.01887   0.01102  -0.00465  -0.02415  -0.00065
  43        6D+2        0.00000  -0.00141  -0.00018   0.00000  -0.00949
  44        6D-2       -0.01887  -0.00149   0.01187  -0.02415   0.00065
  45 3   H  1S          0.09556  -0.00000  -0.00000  -0.04341   0.00000
  46        2S         -0.34743  -0.00000  -0.00000  -1.71070  -0.00000
  47        3S         -1.19442   0.00000   0.00000  -0.92266  -0.00000
  48        4PX        -0.00071   0.02056  -0.00867  -0.01839  -0.02511
  49        4PY        -0.00071  -0.01778  -0.01347  -0.01839  -0.00000
  50        4PZ         0.00071   0.00277  -0.02214   0.01839  -0.02511
  51        5PX        -0.31967  -0.32598   0.13742  -0.19119   0.47782
  52        5PY        -0.31967   0.28200   0.21360  -0.19119  -0.00000
  53        5PZ         0.31967  -0.04398   0.35101   0.19119   0.47782
  54        6D 0        0.00000   0.00018  -0.00141   0.00000  -0.01644
  55        6D+1        0.01887   0.00953   0.00722   0.02415   0.00000
  56        6D-1        0.01887  -0.01102   0.00465   0.02415  -0.00065
  57        6D+2        0.00000  -0.00141  -0.00018   0.00000   0.00949
  58        6D-2       -0.01887  -0.00149   0.01187  -0.02415  -0.00065
  59 4   H  1S          0.09556  -0.00000  -0.00000  -0.04341  -0.00000
  60        2S         -0.34743  -0.00000  -0.00000  -1.71070   0.00000
  61        3S         -1.19442   0.00000   0.00000  -0.92266   0.00000
  62        4PX        -0.00071   0.02056  -0.00867  -0.01839   0.02511
  63        4PY         0.00071   0.01778   0.01347   0.01839  -0.00000
  64        4PZ        -0.00071  -0.00277   0.02214  -0.01839  -0.02511
  65        5PX        -0.31967  -0.32598   0.13742  -0.19119  -0.47782
  66        5PY         0.31967  -0.28200  -0.21360   0.19119  -0.00000
  67        5PZ        -0.31967   0.04398  -0.35101  -0.19119   0.47782
  68        6D 0        0.00000   0.00018  -0.00141   0.00000   0.01644
  69        6D+1       -0.01887  -0.00953  -0.00722  -0.02415   0.00000
  70        6D-1        0.01887  -0.01102   0.00465   0.02415   0.00065
  71        6D+2        0.00000  -0.00141  -0.00018   0.00000  -0.00949
  72        6D-2        0.01887   0.00149  -0.01187   0.02415  -0.00065
  73 5   H  1S          0.09556  -0.00000  -0.00000  -0.04341   0.00000
  74        2S         -0.34743  -0.00000  -0.00000  -1.71070  -0.00000
  75        3S         -1.19442   0.00000   0.00000  -0.92266  -0.00000
  76        4PX         0.00071  -0.02056   0.00867   0.01839   0.02511
  77        4PY        -0.00071  -0.01778  -0.01347  -0.01839  -0.00000
  78        4PZ        -0.00071  -0.00277   0.02214  -0.01839   0.02511
  79        5PX         0.31967   0.32598  -0.13742   0.19119  -0.47782
  80        5PY        -0.31967   0.28200   0.21360  -0.19119  -0.00000
  81        5PZ        -0.31967   0.04398  -0.35101  -0.19119  -0.47782
  82        6D 0        0.00000   0.00018  -0.00141   0.00000  -0.01644
  83        6D+1        0.01887   0.00953   0.00722   0.02415   0.00000
  84        6D-1       -0.01887   0.01102  -0.00465  -0.02415   0.00065
  85        6D+2        0.00000  -0.00141  -0.00018   0.00000   0.00949
  86        6D-2        0.01887   0.00149  -0.01187   0.02415   0.00065
                          21        22        23        24        25
                        (T1)--V   (T1)--V   (T2)--V   (T2)--V   (T2)--V
     Eigenvalues --     0.87746   0.87746   0.95836   0.95836   0.95836
   1 1   C  1S          0.00000   0.00000   0.00000   0.00000   0.00000
   2        2S          0.00000   0.00000   0.00000   0.00000   0.00000
   3        3S          0.00000   0.00000   0.00000   0.00000   0.00000
   4        4S          0.00000   0.00000   0.00000   0.00000   0.00000
   5        5PX         0.00000  -0.00000   0.00000   0.14032   0.00000
   6        5PY         0.00000   0.00000   0.14032   0.00000   0.00000
   7        5PZ        -0.00000   0.00000   0.00000   0.00000   0.14032
   8        6PX         0.00000   0.00000   0.00000   1.58480   0.00000
   9        6PY         0.00000   0.00000   1.58480   0.00000   0.00000
  10        6PZ        -0.00000   0.00000   0.00000   0.00000   1.58480
  11        7PX         0.00000   0.00000   0.00000   1.93556   0.00000
  12        7PY         0.00000   0.00000   1.93556   0.00000   0.00000
  13        7PZ        -0.00000   0.00000   0.00000   0.00000   1.93556
  14        8D 0        0.00000   0.00000   0.00000   0.00000   0.00000
  15        8D+1        0.00000   0.00000   0.03458   0.00000   0.00000
  16        8D-1        0.00000   0.00000   0.00000   0.03458   0.00000
  17        8D+2        0.00000   0.00000   0.00000   0.00000   0.00000
  18        8D-2       -0.00000   0.00000   0.00000   0.00000   0.03458
  19        9D 0        0.00000   0.00000   0.00000   0.00000   0.00000
  20        9D+1        0.00000   0.00000   2.14247   0.00000   0.00000
  21        9D-1        0.00000  -0.00000   0.00000   2.14247   0.00000
  22        9D+2        0.00000   0.00000   0.00000   0.00000   0.00000
  23        9D-2       -0.00000   0.00000   0.00000   0.00000   2.14247
  24       10F 0        0.00000   0.00000   0.00000   0.00000  -0.11905
  25       10F+1        0.00000   0.05901   0.00000   0.07291   0.00000
  26       10F-1        0.00000   0.00000   0.07291   0.00000   0.00000
  27       10F+2       -0.07464   0.00000   0.00000   0.00000  -0.00000
  28       10F-2        0.00000   0.00000   0.00000   0.00000   0.00000
  29       10F+3        0.00000   0.04571   0.00000  -0.09412   0.00000
  30       10F-3        0.00000   0.00000   0.09412   0.00000   0.00000
  31 2   H  1S         -0.00000   0.00000   0.04263   0.04263   0.04263
  32        2S          0.00000  -0.00000  -2.04465  -2.04465  -2.04465
  33        3S          0.00000  -0.00000  -0.22191  -0.22191  -0.22191
  34        4PX        -0.02511   0.00000   0.02013   0.03632   0.02013
  35        4PY         0.02511  -0.02511   0.03632   0.02013   0.02013
  36        4PZ        -0.00000   0.02511   0.02013   0.02013   0.03632
  37        5PX         0.47782   0.00000   0.21508   0.08979   0.21508
  38        5PY        -0.47782   0.47782   0.08979   0.21508   0.21508
  39        5PZ        -0.00000  -0.47782   0.21508   0.21508   0.08979
  40        6D 0       -0.00000   0.01644   0.00916   0.00916  -0.01832
  41        6D+1        0.00065  -0.00065  -0.00838  -0.02518  -0.02518
  42        6D-1       -0.00065  -0.00000  -0.02518  -0.00838  -0.02518
  43        6D+2       -0.01898   0.00949   0.01586  -0.01586  -0.00000
  44        6D-2        0.00000   0.00065  -0.02518  -0.02518  -0.00838
  45 3   H  1S         -0.00000  -0.00000  -0.04263  -0.04263   0.04263
  46        2S          0.00000   0.00000   2.04465   2.04465  -2.04465
  47        3S          0.00000   0.00000   0.22191   0.22191  -0.22191
  48        4PX         0.02511   0.00000   0.02013   0.03632  -0.02013
  49        4PY        -0.02511  -0.02511   0.03632   0.02013  -0.02013
  50        4PZ        -0.00000  -0.02511  -0.02013  -0.02013   0.03632
  51        5PX        -0.47782   0.00000   0.21508   0.08979  -0.21508
  52        5PY         0.47782   0.47782   0.08979   0.21508  -0.21508
  53        5PZ        -0.00000   0.47782  -0.21508  -0.21508   0.08979
  54        6D 0       -0.00000  -0.01644  -0.00916  -0.00916  -0.01832
  55        6D+1       -0.00065  -0.00065  -0.00838  -0.02518   0.02518
  56        6D-1        0.00065  -0.00000  -0.02518  -0.00838   0.02518
  57        6D+2       -0.01898  -0.00949  -0.01586   0.01586  -0.00000
  58        6D-2        0.00000  -0.00065   0.02518   0.02518  -0.00838
  59 4   H  1S          0.00000  -0.00000   0.04263  -0.04263  -0.04263
  60        2S         -0.00000   0.00000  -2.04465   2.04465   2.04465
  61        3S         -0.00000   0.00000  -0.22191   0.22191   0.22191
  62        4PX        -0.02511   0.00000  -0.02013   0.03632   0.02013
  63        4PY        -0.02511   0.02511   0.03632  -0.02013  -0.02013
  64        4PZ        -0.00000   0.02511  -0.02013   0.02013   0.03632
  65        5PX         0.47782   0.00000  -0.21508   0.08979   0.21508
  66        5PY         0.47782  -0.47782   0.08979  -0.21508  -0.21508
  67        5PZ        -0.00000  -0.47782  -0.21508   0.21508   0.08979
  68        6D 0        0.00000  -0.01644   0.00916  -0.00916   0.01832
  69        6D+1       -0.00065   0.00065  -0.00838   0.02518   0.02518
  70        6D-1       -0.00065  -0.00000   0.02518  -0.00838  -0.02518
  71        6D+2        0.01898  -0.00949   0.01586   0.01586   0.00000
  72        6D-2        0.00000   0.00065   0.02518  -0.02518  -0.00838
  73 5   H  1S          0.00000   0.00000  -0.04263   0.04263  -0.04263
  74        2S         -0.00000  -0.00000   2.04465  -2.04465   2.04465
  75        3S         -0.00000  -0.00000   0.22191  -0.22191   0.22191
  76        4PX         0.02511   0.00000  -0.02013   0.03632  -0.02013
  77        4PY         0.02511   0.02511   0.03632  -0.02013   0.02013
  78        4PZ        -0.00000  -0.02511   0.02013  -0.02013   0.03632
  79        5PX        -0.47782   0.00000  -0.21508   0.08979  -0.21508
  80        5PY        -0.47782  -0.47782   0.08979  -0.21508   0.21508
  81        5PZ        -0.00000   0.47782   0.21508  -0.21508   0.08979
  82        6D 0        0.00000   0.01644  -0.00916   0.00916   0.01832
  83        6D+1        0.00065   0.00065  -0.00838   0.02518  -0.02518
  84        6D-1        0.00065  -0.00000   0.02518  -0.00838   0.02518
  85        6D+2        0.01898   0.00949  -0.01586  -0.01586   0.00000
  86        6D-2        0.00000  -0.00065  -0.02518   0.02518  -0.00838
                          26        27        28        29        30
                        (T2)--V   (T2)--V   (T2)--V   (T2)--V   (T2)--V
     Eigenvalues --     1.12101   1.12101   1.12101   1.31261   1.31261
   1 1   C  1S          0.00000   0.00000   0.00000   0.00000   0.00000
   2        2S          0.00000   0.00000   0.00000   0.00000   0.00000
   3        3S          0.00000   0.00000   0.00000   0.00000   0.00000
   4        4S          0.00000   0.00000   0.00000   0.00000   0.00000
   5        5PX         0.00000   0.16890   0.00000   0.28063   0.00000
   6        5PY         0.16890   0.00000   0.00000   0.00000   0.00000
   7        5PZ         0.00000   0.00000   0.16890   0.00000   0.28063
   8        6PX         0.00000   0.39779   0.00000   4.47482   0.00000
   9        6PY         0.39779   0.00000   0.00000   0.00000   0.00000
  10        6PZ         0.00000   0.00000   0.39779   0.00000   4.47482
  11        7PX         0.00000   1.65578   0.00000   2.05123   0.00000
  12        7PY         1.65578   0.00000   0.00000   0.00000   0.00000
  13        7PZ         0.00000   0.00000   1.65578   0.00000   2.05123
  14        8D 0        0.00000   0.00000   0.00000   0.00000   0.00000
  15        8D+1        0.03632   0.00000   0.00000   0.00000   0.00000
  16        8D-1        0.00000   0.03632   0.00000   0.08490   0.00000
  17        8D+2        0.00000   0.00000   0.00000   0.00000   0.00000
  18        8D-2        0.00000   0.00000   0.03632   0.00000   0.08490
  19        9D 0        0.00000   0.00000   0.00000   0.00000   0.00000
  20        9D+1       -1.23822   0.00000   0.00000   0.00000   0.00000
  21        9D-1        0.00000  -1.23822   0.00000   2.42528   0.00000
  22        9D+2        0.00000   0.00000   0.00000   0.00000   0.00000
  23        9D-2        0.00000   0.00000  -1.23822   0.00000   2.42528
  24       10F 0        0.00000   0.00000   0.07576   0.00000  -0.14058
  25       10F+1        0.00000  -0.04640   0.00000   0.08609   0.00000
  26       10F-1       -0.04640   0.00000   0.00000   0.00000   0.00000
  27       10F+2        0.00000   0.00000   0.00000   0.00000  -0.00000
  28       10F-2        0.00000   0.00000   0.00000   0.00000   0.00000
  29       10F+3        0.00000   0.05990   0.00000  -0.11114   0.00000
  30       10F-3       -0.05990   0.00000   0.00000   0.00000   0.00000
  31 2   H  1S          0.01394   0.01394   0.01394  -0.03087  -0.03087
  32        2S          0.14002   0.14002   0.14002  -3.22988  -3.22988
  33        3S         -0.58930  -0.58930  -0.58930  -1.07516  -1.07516
  34        4PX        -0.03945   0.02371  -0.03945  -0.01131  -0.01832
  35        4PY         0.02371  -0.03945  -0.03945  -0.01832  -0.01832
  36        4PZ        -0.03945  -0.03945   0.02371  -0.01832  -0.01131
  37        5PX         0.41957  -0.80964   0.41957   1.29218   1.20161
  38        5PY        -0.80964   0.41957   0.41957   1.20161   1.20161
  39        5PZ         0.41957   0.41957  -0.80964   1.20161   1.29218
  40        6D 0       -0.01095  -0.01095   0.02189   0.00347  -0.00694
  41        6D+1       -0.02875   0.01281   0.01281  -0.05203  -0.05203
  42        6D-1        0.01281  -0.02875   0.01281  -0.07370  -0.05203
  43        6D+2       -0.01896   0.01896   0.00000  -0.00601  -0.00000
  44        6D-2        0.01281   0.01281  -0.02875  -0.05203  -0.07370
  45 3   H  1S         -0.01394  -0.01394   0.01394   0.03087  -0.03087
  46        2S         -0.14002  -0.14002   0.14002   3.22988  -3.22988
  47        3S          0.58930   0.58930  -0.58930   1.07516  -1.07516
  48        4PX        -0.03945   0.02371   0.03945  -0.01131   0.01832
  49        4PY         0.02371  -0.03945   0.03945  -0.01832   0.01832
  50        4PZ         0.03945   0.03945   0.02371   0.01832  -0.01131
  51        5PX         0.41957  -0.80964  -0.41957   1.29218  -1.20161
  52        5PY        -0.80964   0.41957  -0.41957   1.20161  -1.20161
  53        5PZ        -0.41957  -0.41957  -0.80964  -1.20161   1.29218
  54        6D 0        0.01095   0.01095   0.02189  -0.00347  -0.00694
  55        6D+1       -0.02875   0.01281  -0.01281  -0.05203   0.05203
  56        6D-1        0.01281  -0.02875  -0.01281  -0.07370   0.05203
  57        6D+2        0.01896  -0.01896   0.00000   0.00601  -0.00000
  58        6D-2       -0.01281  -0.01281  -0.02875   0.05203  -0.07370
  59 4   H  1S          0.01394  -0.01394  -0.01394   0.03087   0.03087
  60        2S          0.14002  -0.14002  -0.14002   3.22988   3.22988
  61        3S         -0.58930   0.58930   0.58930   1.07516   1.07516
  62        4PX         0.03945   0.02371  -0.03945  -0.01131  -0.01832
  63        4PY         0.02371   0.03945   0.03945   0.01832   0.01832
  64        4PZ         0.03945  -0.03945   0.02371  -0.01832  -0.01131
  65        5PX        -0.41957  -0.80964   0.41957   1.29218   1.20161
  66        5PY        -0.80964  -0.41957  -0.41957  -1.20161  -1.20161
  67        5PZ        -0.41957   0.41957  -0.80964   1.20161   1.29218
  68        6D 0       -0.01095   0.01095  -0.02189  -0.00347   0.00694
  69        6D+1       -0.02875  -0.01281  -0.01281   0.05203   0.05203
  70        6D-1       -0.01281  -0.02875   0.01281  -0.07370  -0.05203
  71        6D+2       -0.01896  -0.01896  -0.00000   0.00601   0.00000
  72        6D-2       -0.01281   0.01281  -0.02875  -0.05203  -0.07370
  73 5   H  1S         -0.01394   0.01394  -0.01394  -0.03087   0.03087
  74        2S         -0.14002   0.14002  -0.14002  -3.22988   3.22988
  75        3S          0.58930  -0.58930   0.58930  -1.07516   1.07516
  76        4PX         0.03945   0.02371   0.03945  -0.01131   0.01832
  77        4PY         0.02371   0.03945  -0.03945   0.01832  -0.01832
  78        4PZ        -0.03945   0.03945   0.02371   0.01832  -0.01131
  79        5PX        -0.41957  -0.80964  -0.41957   1.29218  -1.20161
  80        5PY        -0.80964  -0.41957   0.41957  -1.20161   1.20161
  81        5PZ         0.41957  -0.41957  -0.80964  -1.20161   1.29218
  82        6D 0        0.01095  -0.01095  -0.02189   0.00347   0.00694
  83        6D+1       -0.02875  -0.01281   0.01281   0.05203  -0.05203
  84        6D-1       -0.01281  -0.02875  -0.01281  -0.07370   0.05203
  85        6D+2        0.01896   0.01896  -0.00000  -0.00601   0.00000
  86        6D-2        0.01281  -0.01281  -0.02875   0.05203  -0.07370
                          31        32        33        34        35
                        (T2)--V   (E)--V    (E)--V    (A1)--V   (T2)--V
     Eigenvalues --     1.31261   1.38827   1.38827   1.53365   2.11173
   1 1   C  1S          0.00000  -0.00000  -0.00000  -0.11302   0.00000
   2        2S          0.00000  -0.00000  -0.00000   1.42600   0.00000
   3        3S          0.00000  -0.00000  -0.00000   0.88150   0.00000
   4        4S          0.00000  -0.00000  -0.00000   3.68244   0.00000
   5        5PX         0.00000   0.00000   0.00000   0.00000   0.00000
   6        5PY         0.28063   0.00000   0.00000   0.00000   0.02565
   7        5PZ         0.00000   0.00000   0.00000   0.00000   0.00000
   8        6PX         0.00000   0.00000   0.00000   0.00000   0.00000
   9        6PY         4.47482   0.00000   0.00000   0.00000  -1.84901
  10        6PZ         0.00000   0.00000   0.00000   0.00000   0.00000
  11        7PX         0.00000   0.00000   0.00000   0.00000   0.00000
  12        7PY         2.05123   0.00000   0.00000   0.00000  -0.29132
  13        7PZ         0.00000   0.00000   0.00000   0.00000   0.00000
  14        8D 0        0.00000   0.01195   0.01468  -0.00000   0.00000
  15        8D+1        0.08490   0.00000   0.00000   0.00000  -0.32062
  16        8D-1        0.00000   0.00000   0.00000   0.00000   0.00000
  17        8D+2        0.00000   0.01468  -0.01195  -0.00000   0.00000
  18        8D-2        0.00000   0.00000   0.00000   0.00000   0.00000
  19        9D 0        0.00000   1.75546   2.15538   0.00000   0.00000
  20        9D+1        2.42528   0.00000   0.00000   0.00000  -0.60032
  21        9D-1        0.00000   0.00000   0.00000   0.00000   0.00000
  22        9D+2        0.00000   2.15538  -1.75546   0.00000   0.00000
  23        9D-2        0.00000   0.00000   0.00000   0.00000   0.00000
  24       10F 0        0.00000   0.00000   0.00000   0.00000   0.00000
  25       10F+1        0.00000   0.00000   0.00000   0.00000   0.00000
  26       10F-1        0.08609   0.00000   0.00000   0.00000  -0.28044
  27       10F+2        0.00000   0.00000   0.00000   0.00000   0.00000
  28       10F-2        0.00000   0.00000   0.00000  -0.21925   0.00000
  29       10F+3        0.00000   0.00000   0.00000   0.00000   0.00000
  30       10F-3        0.11114   0.00000   0.00000   0.00000  -0.36205
  31 2   H  1S         -0.03087   0.00000   0.00000  -0.20165  -0.58247
  32        2S         -3.22988   0.00000   0.00000  -0.73931   1.92771
  33        3S         -1.07516   0.00000   0.00000  -0.68940  -0.26878
  34        4PX        -0.01832   0.02391  -0.06280  -0.08014  -0.02443
  35        4PY        -0.01131  -0.06634   0.01070  -0.08014  -0.00767
  36        4PZ        -0.01832   0.04244   0.05210  -0.08014  -0.02443
  37        5PX         1.20161  -0.37324   0.98055   0.55193  -0.37756
  38        5PY         1.29218   1.03580  -0.16704   0.55193  -0.48438
  39        5PZ         1.20161  -0.66257  -0.81351   0.55193  -0.37756
  40        6D 0        0.00347   0.02950   0.03622   0.00000  -0.00939
  41        6D+1       -0.07370   0.02770  -0.00447   0.02711   0.10528
  42        6D-1       -0.05203  -0.00998   0.02622   0.02711  -0.00214
  43        6D+2        0.00601   0.03622  -0.02950   0.00000  -0.01627
  44        6D-2       -0.05203  -0.01772  -0.02175   0.02711  -0.00214
  45 3   H  1S          0.03087   0.00000   0.00000  -0.20165   0.58247
  46        2S          3.22988   0.00000   0.00000  -0.73931  -1.92771
  47        3S          1.07516   0.00000   0.00000  -0.68940   0.26878
  48        4PX        -0.01832  -0.02391   0.06280   0.08014  -0.02443
  49        4PY        -0.01131   0.06634  -0.01070   0.08014  -0.00767
  50        4PZ         0.01832   0.04244   0.05210  -0.08014   0.02443
  51        5PX         1.20161   0.37324  -0.98055  -0.55193  -0.37756
  52        5PY         1.29218  -1.03580   0.16704  -0.55193  -0.48438
  53        5PZ        -1.20161  -0.66257  -0.81351   0.55193   0.37756
  54        6D 0       -0.00347   0.02950   0.03622   0.00000   0.00939
  55        6D+1       -0.07370  -0.02770   0.00447  -0.02711   0.10528
  56        6D-1       -0.05203   0.00998  -0.02622  -0.02711  -0.00214
  57        6D+2       -0.00601   0.03622  -0.02950   0.00000   0.01627
  58        6D-2        0.05203  -0.01772  -0.02175   0.02711   0.00214
  59 4   H  1S         -0.03087   0.00000   0.00000  -0.20165  -0.58247
  60        2S         -3.22988   0.00000   0.00000  -0.73931   1.92771
  61        3S         -1.07516   0.00000   0.00000  -0.68940  -0.26878
  62        4PX         0.01832  -0.02391   0.06280   0.08014   0.02443
  63        4PY        -0.01131  -0.06634   0.01070  -0.08014  -0.00767
  64        4PZ         0.01832  -0.04244  -0.05210   0.08014   0.02443
  65        5PX        -1.20161   0.37324  -0.98055  -0.55193   0.37756
  66        5PY         1.29218   1.03580  -0.16704   0.55193  -0.48438
  67        5PZ        -1.20161   0.66257   0.81351  -0.55193   0.37756
  68        6D 0        0.00347   0.02950   0.03622   0.00000  -0.00939
  69        6D+1       -0.07370   0.02770  -0.00447   0.02711   0.10528
  70        6D-1        0.05203   0.00998  -0.02622  -0.02711   0.00214
  71        6D+2        0.00601   0.03622  -0.02950   0.00000  -0.01627
  72        6D-2        0.05203   0.01772   0.02175  -0.02711   0.00214
  73 5   H  1S          0.03087   0.00000   0.00000  -0.20165   0.58247
  74        2S          3.22988   0.00000   0.00000  -0.73931  -1.92771
  75        3S          1.07516   0.00000   0.00000  -0.68940   0.26878
  76        4PX         0.01832   0.02391  -0.06280  -0.08014   0.02443
  77        4PY        -0.01131   0.06634  -0.01070   0.08014  -0.00767
  78        4PZ        -0.01832  -0.04244  -0.05210   0.08014  -0.02443
  79        5PX        -1.20161  -0.37324   0.98055   0.55193   0.37756
  80        5PY         1.29218  -1.03580   0.16704  -0.55193  -0.48438
  81        5PZ         1.20161   0.66257   0.81351  -0.55193  -0.37756
  82        6D 0       -0.00347   0.02950   0.03622   0.00000   0.00939
  83        6D+1       -0.07370  -0.02770   0.00447  -0.02711   0.10528
  84        6D-1        0.05203  -0.00998   0.02622   0.02711   0.00214
  85        6D+2       -0.00601   0.03622  -0.02950   0.00000   0.01627
  86        6D-2       -0.05203   0.01772   0.02175  -0.02711  -0.00214
                          36        37        38        39        40
                        (T2)--V   (T2)--V   (A1)--V   (T2)--V   (T2)--V
     Eigenvalues --     2.11173   2.11173   2.26255   2.64716   2.64716
   1 1   C  1S          0.00000   0.00000  -0.07440   0.00000   0.00000
   2        2S          0.00000   0.00000   1.41103   0.00000   0.00000
   3        3S          0.00000   0.00000   0.83467   0.00000   0.00000
   4        4S          0.00000   0.00000   6.75086   0.00000   0.00000
   5        5PX         0.00000   0.02565   0.00000   0.00000   0.00000
   6        5PY         0.00000   0.00000   0.00000   0.00000  -1.02923
   7        5PZ         0.02565   0.00000   0.00000  -1.02923   0.00000
   8        6PX         0.00000  -1.84901   0.00000   0.00000   0.00000
   9        6PY         0.00000   0.00000   0.00000   0.00000   5.03087
  10        6PZ        -1.84901   0.00000   0.00000   5.03087   0.00000
  11        7PX         0.00000  -0.29132   0.00000   0.00000   0.00000
  12        7PY         0.00000   0.00000   0.00000   0.00000   1.48690
  13        7PZ        -0.29132   0.00000   0.00000   1.48690   0.00000
  14        8D 0        0.00000   0.00000  -0.00000   0.00000   0.00000
  15        8D+1        0.00000   0.00000   0.00000   0.00000  -0.25285
  16        8D-1        0.00000  -0.32062   0.00000   0.00000   0.00000
  17        8D+2        0.00000   0.00000  -0.00000   0.00000   0.00000
  18        8D-2       -0.32062   0.00000   0.00000  -0.25285   0.00000
  19        9D 0        0.00000   0.00000  -0.00000   0.00000   0.00000
  20        9D+1        0.00000   0.00000   0.00000   0.00000   2.15539
  21        9D-1        0.00000  -0.60032   0.00000   0.00000   0.00000
  22        9D+2        0.00000   0.00000   0.00000   0.00000   0.00000
  23        9D-2       -0.60032   0.00000   0.00000   2.15539   0.00000
  24       10F 0        0.45796   0.00000   0.00000  -0.16421   0.00000
  25       10F+1        0.00000  -0.28044   0.00000   0.00000   0.00000
  26       10F-1        0.00000   0.00000   0.00000   0.00000   0.10056
  27       10F+2        0.00000   0.00000   0.00000   0.00000   0.00000
  28       10F-2        0.00000   0.00000   0.66922   0.00000   0.00000
  29       10F+3        0.00000   0.36205   0.00000   0.00000   0.00000
  30       10F-3        0.00000   0.00000   0.00000   0.00000   0.12982
  31 2   H  1S         -0.58247  -0.58247   0.48919   0.23462   0.23462
  32        2S          1.92771   1.92771  -2.44707  -3.25517  -3.25517
  33        3S         -0.26878  -0.26878  -0.69586  -0.25965  -0.25965
  34        4PX        -0.02443  -0.00767   0.03997   0.07138   0.07138
  35        4PY        -0.02443  -0.02443   0.03997   0.07138   0.18002
  36        4PZ        -0.00767  -0.02443   0.03997   0.18002   0.07138
  37        5PX        -0.37756  -0.48438   0.47267   0.83330   0.83330
  38        5PY        -0.37756  -0.37756   0.47267   0.83330   0.51762
  39        5PZ        -0.48438  -0.37756   0.47267   0.51762   0.83330
  40        6D 0        0.01878  -0.00939   0.00000  -0.05231   0.02615
  41        6D+1       -0.00214  -0.00214  -0.01932  -0.12747   0.01779
  42        6D-1       -0.00214   0.10528  -0.01932  -0.12747  -0.12747
  43        6D+2        0.00000   0.01627   0.00000  -0.00000   0.04530
  44        6D-2        0.10528  -0.00214  -0.01932   0.01779  -0.12747
  45 3   H  1S         -0.58247   0.58247   0.48919   0.23462  -0.23462
  46        2S          1.92771  -1.92771  -2.44707  -3.25517   3.25517
  47        3S         -0.26878   0.26878  -0.69586  -0.25965   0.25965
  48        4PX         0.02443  -0.00767  -0.03997  -0.07138   0.07138
  49        4PY         0.02443  -0.02443  -0.03997  -0.07138   0.18002
  50        4PZ        -0.00767   0.02443   0.03997   0.18002  -0.07138
  51        5PX         0.37756  -0.48438  -0.47267  -0.83330   0.83330
  52        5PY         0.37756  -0.37756  -0.47267  -0.83330   0.51762
  53        5PZ        -0.48438   0.37756   0.47267   0.51762  -0.83330
  54        6D 0        0.01878   0.00939   0.00000  -0.05231  -0.02615
  55        6D+1        0.00214  -0.00214   0.01932   0.12747   0.01779
  56        6D-1        0.00214   0.10528   0.01932   0.12747  -0.12747
  57        6D+2        0.00000  -0.01627   0.00000  -0.00000  -0.04530
  58        6D-2        0.10528   0.00214  -0.01932   0.01779   0.12747
  59 4   H  1S          0.58247   0.58247   0.48919  -0.23462   0.23462
  60        2S         -1.92771  -1.92771  -2.44707   3.25517  -3.25517
  61        3S          0.26878   0.26878  -0.69586   0.25965  -0.25965
  62        4PX        -0.02443  -0.00767  -0.03997   0.07138  -0.07138
  63        4PY         0.02443   0.02443   0.03997  -0.07138   0.18002
  64        4PZ        -0.00767  -0.02443  -0.03997   0.18002  -0.07138
  65        5PX        -0.37756  -0.48438  -0.47267   0.83330  -0.83330
  66        5PY         0.37756   0.37756   0.47267  -0.83330   0.51762
  67        5PZ        -0.48438  -0.37756  -0.47267   0.51762  -0.83330
  68        6D 0       -0.01878   0.00939   0.00000   0.05231   0.02615
  69        6D+1        0.00214   0.00214  -0.01932   0.12747   0.01779
  70        6D-1       -0.00214   0.10528   0.01932  -0.12747   0.12747
  71        6D+2       -0.00000  -0.01627   0.00000   0.00000   0.04530
  72        6D-2        0.10528  -0.00214   0.01932   0.01779   0.12747
  73 5   H  1S          0.58247  -0.58247   0.48919  -0.23462  -0.23462
  74        2S         -1.92771   1.92771  -2.44707   3.25517   3.25517
  75        3S          0.26878  -0.26878  -0.69586   0.25965   0.25965
  76        4PX         0.02443  -0.00767   0.03997  -0.07138  -0.07138
  77        4PY        -0.02443   0.02443  -0.03997   0.07138   0.18002
  78        4PZ        -0.00767   0.02443  -0.03997   0.18002   0.07138
  79        5PX         0.37756  -0.48438   0.47267  -0.83330  -0.83330
  80        5PY        -0.37756   0.37756  -0.47267   0.83330   0.51762
  81        5PZ        -0.48438   0.37756  -0.47267   0.51762   0.83330
  82        6D 0       -0.01878  -0.00939   0.00000   0.05231  -0.02615
  83        6D+1       -0.00214   0.00214   0.01932  -0.12747   0.01779
  84        6D-1        0.00214   0.10528  -0.01932   0.12747   0.12747
  85        6D+2       -0.00000   0.01627   0.00000   0.00000  -0.04530
  86        6D-2        0.10528   0.00214   0.01932   0.01779  -0.12747
                          41        42        43        44        45
                        (T2)--V   (E)--V    (E)--V    (T1)--V   (T1)--V
     Eigenvalues --     2.64716   2.80959   2.80959   2.81809   2.81809
   1 1   C  1S          0.00000  -0.00000   0.00000   0.00000   0.00000
   2        2S          0.00000  -0.00000   0.00000   0.00000   0.00000
   3        3S          0.00000  -0.00000   0.00000   0.00000   0.00000
   4        4S          0.00000  -0.00000   0.00000   0.00000   0.00000
   5        5PX        -1.02923   0.00000  -0.00000   0.00000   0.00000
   6        5PY         0.00000   0.00000  -0.00000   0.00000   0.00000
   7        5PZ         0.00000   0.00000  -0.00000  -0.00000   0.00000
   8        6PX         5.03087   0.00000  -0.00000   0.00000   0.00000
   9        6PY         0.00000   0.00000  -0.00000   0.00000  -0.00000
  10        6PZ         0.00000   0.00000  -0.00000   0.00000   0.00000
  11        7PX         1.48690   0.00000  -0.00000   0.00000   0.00000
  12        7PY         0.00000   0.00000  -0.00000   0.00000  -0.00000
  13        7PZ         0.00000   0.00000  -0.00000  -0.00000   0.00000
  14        8D 0        0.00000  -0.42100  -0.72815   0.00000   0.00000
  15        8D+1        0.00000   0.00000  -0.00000   0.00000   0.00000
  16        8D-1       -0.25285   0.00000  -0.00000   0.00000   0.00000
  17        8D+2        0.00000  -0.72815   0.42100   0.00000   0.00000
  18        8D-2        0.00000   0.00000  -0.00000   0.00000   0.00000
  19        9D 0        0.00000   0.75897   1.31268   0.00000   0.00000
  20        9D+1        0.00000   0.00000  -0.00000   0.00000  -0.00000
  21        9D-1        2.15539   0.00000  -0.00000   0.00000   0.00000
  22        9D+2        0.00000   1.31268  -0.75897   0.00000   0.00000
  23        9D-2        0.00000   0.00000  -0.00000  -0.00000   0.00000
  24       10F 0        0.00000   0.00000  -0.00000   0.00000   0.00000
  25       10F+1        0.10056   0.00000  -0.00000   0.00000   0.00000
  26       10F-1        0.00000   0.00000  -0.00000   0.00000   0.67334
  27       10F+2        0.00000   0.00000  -0.00000   0.85172   0.00000
  28       10F-2        0.00000  -0.00000   0.00000   0.00000   0.00000
  29       10F+3       -0.12982   0.00000  -0.00000   0.00000   0.00000
  30       10F-3        0.00000   0.00000  -0.00000   0.00000  -0.52157
  31 2   H  1S          0.23462  -0.00000   0.00000   0.00000  -0.00000
  32        2S         -3.25517   0.00000  -0.00000   0.00000   0.00000
  33        3S         -0.25965   0.00000  -0.00000   0.00000   0.00000
  34        4PX         0.18002  -0.08561   0.14850   0.13892  -0.13892
  35        4PY         0.07138   0.17141  -0.00011  -0.13892  -0.00000
  36        4PZ         0.07138  -0.08580  -0.14839  -0.00000   0.13892
  37        5PX         0.51762  -0.16210   0.28116  -0.27826   0.27826
  38        5PY         0.83330   0.32454  -0.00020   0.27826  -0.00000
  39        5PZ         0.83330  -0.16245  -0.28096  -0.00000  -0.27826
  40        6D 0        0.02615   0.12118   0.20958   0.00000  -0.08971
[...]

 -------------------
 - Thermochemistry -
 -------------------
 Temperature   298.150 Kelvin.  Pressure   1.00000 Atm.
 Atom     1 has atomic number  6 and mass  12.00000
 Atom     2 has atomic number  1 and mass   1.00783
 Atom     3 has atomic number  1 and mass   1.00783
 Atom     4 has atomic number  1 and mass   1.00783
 Atom     5 has atomic number  1 and mass   1.00783
 Molecular mass:    16.03130 amu.
 Principal axes and moments of inertia in atomic units:
                           1         2         3
     Eigenvalues --    11.36738  11.36738  11.36738
           X            0.07195   0.95119  -0.30012
           Y            0.30250   0.26591   0.91531
           Z            0.95043  -0.15664  -0.26860
 This molecule is a spherical top.
 Rotational symmetry number 12.
 Rotational temperatures (Kelvin)      7.61951     7.61951     7.61951
 Rotational constants (GHZ):         158.76493   158.76493   158.76493
 Zero-point vibrational energy     117071.1 (Joules/Mol)
                                   27.98068 (Kcal/Mol)
 Vibrational temperatures:   1931.46  1931.46  1931.46  2244.93  2244.93
          (Kelvin)           4358.16  4506.14  4506.14  4506.14
 
 Zero-point correction=                           0.044590 (Hartree/Particle)
 Thermal correction to Energy=                    0.047459
 Thermal correction to Enthalpy=                  0.048403
 Thermal correction to Gibbs Free Energy=         0.027279
 Sum of electronic and zero-point Energies=            -40.493654
 Sum of electronic and thermal Energies=               -40.490785
 Sum of electronic and thermal Enthalpies=             -40.489841
 Sum of electronic and thermal Free Energies=          -40.510965
 
                     E (Thermal)             CV                S
                      KCal/Mol        Cal/Mol-Kelvin    Cal/Mol-Kelvin
 Total                   29.781              6.469             44.459
 Electronic               0.000              0.000              0.000
 Translational            0.889              2.981             34.261
 Rotational               0.889              2.981             10.110
 Vibrational             28.003              0.507              0.087
                       Q            Log10(Q)             Ln(Q)
 Total Bot       0.283518D-12        -12.547419        -28.891500
 Total V=0       0.917349D+08          7.962535         18.334414
 Vib (Bot)       0.310826D-20        -20.507483        -47.220225
 Vib (V=0)       0.100571D+01          0.002471          0.005689
 Electronic      0.100000D+01          0.000000          0.000000
 Translational   0.252295D+07          6.401908         14.740939
 Rotational      0.361539D+02          1.558156          3.587786
 
                                        methane with imposed symmetry Td and cc-p
 VTZ basis set
                                                             IR Spectrum
 
      3   3                                                          1        1                                                      
      1   0                                                          5        3                                                      
      3   2                                                          6        4                                                      
      2   9                                                          0        2                                                      
 
      X                                                                       X                                                      
      X                                                                       X                                                      
      X                                                                       X                                                      
      X                                                                       X                                                      
      X                                                                       X                                                      
      X                                                                       X                                                      
      X                                                                       X                                                      
      X                                                                       X                                                      
      X                                                                       X                                                      
      X                                                                       X                                                      
      X                                                                                                                              
      X                                                                                                                              
      X                                                                                                                              
      X                                                                                                                              
      X                                                                                                                              
      X                                                                                                                              
      X                                                                                                                              
      X                                                                                                                              
      X                                                                                                                              
      X                                                                                                                              
 
 ***** Axes restored to original set *****
 -------------------------------------------------------------------
 Center     Atomic                   Forces (Hartrees/Bohr)
 Number     Number              X              Y              Z
 -------------------------------------------------------------------
      1        6          -0.000000000   -0.000000000   -0.000000000
      2        1           0.000000000   -0.000000000    0.000000608
      3        1           0.000000573   -0.000000000   -0.000000203
      4        1          -0.000000287   -0.000000497   -0.000000203
      5        1          -0.000000287    0.000000497   -0.000000203
 -------------------------------------------------------------------
 Cartesian Forces:  Max     0.000000608 RMS     0.000000314
 Force constants in Cartesian coordinates: 
                1             2             3             4             5 
      1  0.541349D+00
      2  0.000000D+00  0.541349D+00
      3  0.000000D+00  0.000000D+00  0.541349D+00
      4 -0.452922D-01  0.000000D+00  0.000000D+00  0.448377D-01
      5  0.000000D+00 -0.452922D-01  0.000000D+00  0.000000D+00  0.448377D-01
      6  0.000000D+00  0.000000D+00 -0.315428D+00  0.000000D+00  0.000000D+00
      7 -0.285413D+00  0.000000D+00  0.848954D-01  0.196874D-02  0.000000D+00
      8  0.000000D+00 -0.452922D-01  0.000000D+00  0.000000D+00 -0.166575D-02
      9  0.848954D-01  0.000000D+00 -0.753072D-01  0.314891D-01  0.000000D+00
     10 -0.105322D+00 -0.103975D+00 -0.424477D-01 -0.757126D-03  0.157378D-02
     11 -0.103975D+00 -0.225383D+00 -0.735216D-01  0.157378D-02  0.106012D-02
     12 -0.424477D-01 -0.735216D-01 -0.753072D-01 -0.157446D-01 -0.272704D-01
     13 -0.105322D+00  0.103975D+00 -0.424477D-01 -0.757126D-03 -0.157378D-02
     14  0.103975D+00 -0.225383D+00  0.735216D-01 -0.157378D-02  0.106012D-02
     15 -0.424477D-01  0.735216D-01 -0.753072D-01 -0.157446D-01  0.272704D-01
                6             7             8             9            10 
      6  0.342385D+00
      7 -0.504987D-03  0.309324D+00
      8  0.000000D+00  0.000000D+00  0.448377D-01
      9 -0.898582D-02 -0.935101D-01  0.000000D+00  0.778985D-01
     10  0.252493D-03 -0.129402D-01 -0.251862D-01 -0.114372D-01  0.110959D+00
     11  0.437332D-03  0.936913D-03  0.106012D-02  0.133800D-02  0.114526D+00
     12 -0.898582D-02  0.455986D-02  0.105739D-01  0.319727D-02  0.467551D-01
     13  0.252494D-03 -0.129402D-01  0.251862D-01 -0.114372D-01  0.806028D-02
     14 -0.437332D-03 -0.936913D-03  0.106012D-02 -0.133800D-02  0.130616D-01
     15 -0.898582D-02  0.455986D-02 -0.105739D-01  0.319727D-02  0.687734D-02
               11            12            13            14            15 
     11  0.243203D+00
     12  0.809822D-01  0.778985D-01
     13 -0.130616D-01  0.687734D-02  0.110959D+00
     14 -0.199404D-01  0.923591D-02 -0.114526D+00  0.243203D+00
     15 -0.923591D-02  0.319727D-02  0.467551D-01 -0.809822D-01  0.778985D-01
 Force constants in internal coordinates: 
                1             2             3             4             5 
      1  0.342385D+00
      2  0.251917D-02  0.342385D+00
      3  0.251917D-02  0.251917D-02  0.342385D+00
      4  0.251917D-02  0.251917D-02  0.251917D-02  0.342385D+00
      5  0.195922D-02  0.195922D-02 -0.123021D-02 -0.268823D-02  0.194131D-01
      6  0.307056D-02 -0.792404D-03  0.341724D-02 -0.569540D-02 -0.860931D-02
      7  0.600048D-02 -0.481583D-02 -0.533090D-02  0.414625D-02 -0.128640D-01
      8 -0.792403D-03  0.307056D-02  0.341724D-02 -0.569540D-02 -0.860931D-02
      9 -0.481583D-02  0.600048D-02 -0.533090D-02  0.414625D-02 -0.128640D-01
     10 -0.542202D-02 -0.542202D-02  0.505752D-02  0.578653D-02  0.235336D-01
     11 -0.379462D-02 -0.379462D-02 -0.267856D-02  0.102678D-01 -0.132318D-01
     12  0.312499D-02  0.312499D-02 -0.803568D-02  0.178571D-02  0.802091D-02
     13 -0.411489D-02  0.723987D-02 -0.401784D-02  0.892853D-03  0.401045D-02
     14 -0.723987D-02  0.411489D-02  0.401784D-02 -0.892853D-03 -0.401045D-02
                6             7             8             9            10 
      6  0.366045D-01
      7 -0.222420D-01  0.715116D-01
      8 -0.202933D-02  0.244022D-01  0.366045D-01
      9  0.244022D-01 -0.346663D-01 -0.222420D-01  0.715116D-01
     10 -0.281260D-01 -0.261415D-01 -0.281260D-01 -0.261415D-01  0.850013D-01
     11 -0.106286D-01  0.144323D-01 -0.106286D-01  0.144323D-01  0.562449D-02
     12 -0.922139D-02  0.680792D-02 -0.922139D-02  0.680792D-02 -0.319398D-02
     13 -0.139871D-01 -0.542586D-03  0.476575D-02  0.735051D-02 -0.159699D-02
     14 -0.476575D-02 -0.735051D-02  0.139871D-01  0.542586D-03  0.159699D-02
               11            12            13            14 
     11  0.292230D-01
     12  0.147028D-02  0.181615D-01
     13  0.735140D-03  0.908077D-02  0.184409D-01
     14 -0.735140D-03 -0.908077D-02  0.936012D-02  0.184409D-01
 Leave Link  716 at Sun Aug 18 00:34:54 2024, MaxMem=   13107200 cpu:       0.0
 (Enter /programs/64bit/g09/g09-gfortran/bin/l103.exe)

 GradGradGradGradGradGradGradGradGradGradGradGradGradGradGradGradGradGrad
 Berny optimization.
 Internal  Forces:  Max     0.000000608 RMS     0.000000325
 Search for a local minimum.
 Step number   1 out of a maximum of    2
 All quantities printed in internal units (Hartrees-Bohrs-Radians)
 Second derivative matrix not updated -- analytic derivatives used.
 The second derivative matrix:
                          R1        R2        R3        R4        A1
           R1           0.34239
           R2           0.00252   0.34239
           R3           0.00252   0.00252   0.34239
           R4           0.00252   0.00252   0.00252   0.34239
           A1           0.00196   0.00196  -0.00123  -0.00269   0.01941
           A2           0.00307  -0.00079   0.00342  -0.00570  -0.00861
           A3           0.00600  -0.00482  -0.00533   0.00415  -0.01286
           A4          -0.00079   0.00307   0.00342  -0.00570  -0.00861
           A5          -0.00482   0.00600  -0.00533   0.00415  -0.01286
           A6          -0.00542  -0.00542   0.00506   0.00579   0.02353
           D1          -0.00379  -0.00379  -0.00268   0.01027  -0.01323
           D2           0.00312   0.00312  -0.00804   0.00179   0.00802
           D3          -0.00411   0.00724  -0.00402   0.00089   0.00401
           D4          -0.00724   0.00411   0.00402  -0.00089  -0.00401
                          A2        A3        A4        A5        A6
           A2           0.03660
           A3          -0.02224   0.07151
           A4          -0.00203   0.02440   0.03660
           A5           0.02440  -0.03467  -0.02224   0.07151
           A6          -0.02813  -0.02614  -0.02813  -0.02614   0.08500
           D1          -0.01063   0.01443  -0.01063   0.01443   0.00562
           D2          -0.00922   0.00681  -0.00922   0.00681  -0.00319
           D3          -0.01399  -0.00054   0.00477   0.00735  -0.00160
           D4          -0.00477  -0.00735   0.01399   0.00054   0.00160
                          D1        D2        D3        D4
           D1           0.02922
           D2           0.00147   0.01816
           D3           0.00074   0.00908   0.01844
           D4          -0.00074  -0.00908   0.00936   0.01844
     Eigenvalues ---    0.03721   0.04192   0.06368   0.12922   0.12974
     Eigenvalues ---    0.34081   0.34082   0.34111   0.349941000.00000
     Eigenvalues --- 1000.000001000.000001000.000001000.00000
 Angle between quadratic step and forces=   0.00 degrees.
 Linear search not attempted -- first point.
 Iteration  1 RMS(Cart)=  0.00000093 RMS(Int)=  0.00000000
 ClnCor:  largest displacement from symmetrization is 1.18D-13 for atom     3.
 Variable       Old X    -DE/DX   Delta X   Delta X   Delta X     New X
                                 (Linear)    (Quad)   (Total)
    R1        2.05662   0.00000   0.00000   0.00000   0.00000   2.05662
    R2        2.05662   0.00000   0.00000   0.00000   0.00000   2.05662
    R3        2.05662   0.00000   0.00000   0.00000   0.00000   2.05662
    R4        2.05662   0.00000   0.00000   0.00000   0.00000   2.05662
    A1        1.91063  -0.00000   0.00000  -0.00000   0.00000   1.91063
    A2        1.91063  -0.00000   0.00000  -0.00000  -0.00000   1.91063
    A3        1.91063   0.00000   0.00000  -0.00000  -0.00000   1.91063
    A4        1.91063   0.00000   0.00000  -0.00000  -0.00000   1.91063
    A5        1.91063   0.00000   0.00000   0.00000  -0.00000   1.91063
    A6        1.91063  -0.00000   0.00000  -0.00000   0.00000   1.91063
    D1       -2.09440   0.00000   0.00000   0.00000   0.00000  -2.09440
    D2        2.09440  -0.00000   0.00000  -0.00000   0.00000   2.09440
    D3       -2.09440   0.00000   0.00000   0.00000   0.00000  -2.09440
    D4        2.09440   0.00000   0.00000   0.00000   0.00000   2.09440
         Item               Value     Threshold  Converged?
 Maximum Force            0.000001     0.000450     YES
 RMS     Force            0.000000     0.000300     YES
 Maximum Displacement     0.000002     0.001800     YES
 RMS     Displacement     0.000001     0.001200     YES
 Predicted change in Energy=-2.113675D-12
 Optimization completed.
    -- Stationary point found.
                           ----------------------------
                           !   Optimized Parameters   !
                           ! (Angstroms and Degrees)  !
 --------------------------                            --------------------------
 ! Name  Definition              Value          Derivative Info.                !
 --------------------------------------------------------------------------------
 ! R1    R(1,2)                  1.0883         -DE/DX =    0.0                 !
 ! R2    R(1,3)                  1.0883         -DE/DX =    0.0                 !
 ! R3    R(1,4)                  1.0883         -DE/DX =    0.0                 !
 ! R4    R(1,5)                  1.0883         -DE/DX =    0.0                 !
 ! A1    A(2,1,3)              109.4712         -DE/DX =    0.0                 !
 ! A2    A(2,1,4)              109.4712         -DE/DX =    0.0                 !
 ! A3    A(2,1,5)              109.4712         -DE/DX =    0.0                 !
 ! A4    A(3,1,4)              109.4712         -DE/DX =    0.0                 !
 ! A5    A(3,1,5)              109.4712         -DE/DX =    0.0                 !
 ! A6    A(4,1,5)              109.4712         -DE/DX =    0.0                 !
 ! D1    D(2,1,4,3)           -120.0            -DE/DX =    0.0                 !
 ! D2    D(2,1,5,3)            120.0            -DE/DX =    0.0                 !
 ! D3    D(2,1,5,4)           -120.0            -DE/DX =    0.0                 !
 ! D4    D(3,1,5,4)            120.0            -DE/DX =    0.0                 !
 --------------------------------------------------------------------------------
 GradGradGradGradGradGradGradGradGradGradGradGradGradGradGradGradGradGrad

 Leave Link  103 at Sun Aug 18 00:34:54 2024, MaxMem=   13107200 cpu:       0.0
 (Enter /programs/64bit/g09/g09-gfortran/bin/l9999.exe)
 1\1\GINC-MOLMOD\Freq\RB3LYP\CC-pVTZ\C1H4\OSPITE\18-Aug-2024\0\\#P Geom
 =AllCheck Guess=TCheck SCRF=Check GenChk RB3LYP/CC-pVTZ Freq\\methane 
 with imposed symmetry Td and cc-pVTZ basis set\\0,1\C,0.,0.,0.\H,0.,0.
 ,1.0883143983\H,1.0260726548,0.,-0.3627714661\H,-0.5130363274,-0.88860
 49852,-0.3627714661\H,-0.5130363274,0.8886049852,-0.3627714661\\Versio
 n=EM64L-G09RevA.02\State=1-A1\HF=-40.5382436\RMSD=2.774e-10\RMSF=3.140
 e-07\ZeroPoint=0.04459\Thermal=0.0474585\Dipole=0.,0.,0.\DipoleDeriv=0
 .009993,0.,0.,0.,0.009993,0.,0.,0.,0.009993,0.0665143,0.,0.,0.,0.06651
 43,0.,0.,0.,-0.1405234,-0.1175192,0.,0.0650657,0.,0.0665143,0.,0.06506
 57,0.,0.0435101,0.0205059,-0.0796889,-0.0325328,-0.0796889,-0.0715108,
 -0.0563485,-0.0325328,-0.0563485,0.0435101,0.0205059,0.0796889,-0.0325
 328,0.0796889,-0.0715108,0.0563485,-0.0325328,0.0563485,0.0435101\Pola
 r=15.2660621,0.,15.2660621,0.,0.,15.2660621\PG=TD [O(C1),4C3(H1)]\NIma
 g=0\\0.54134933,0.,0.54134933,0.,0.,0.54134933,-0.04529216,0.,0.,0.044
 83768,0.,-0.04529216,0.,0.,0.04483768,0.,0.,-0.31542767,0.,0.,0.342385
 12,-0.28541262,0.,0.08489540,0.00196874,0.,-0.00050499,0.30932429,0.,-
 0.04529216,0.,0.,-0.00166575,0.,0.,0.04483768,0.08489540,0.,-0.0753072
 2,0.03148915,0.,-0.00898582,-0.09351014,0.,0.07789850,-0.10532228,-0.1
 0397521,-0.04244770,-0.00075713,0.00157378,0.00025249,-0.01294021,-0.0
 2518619,-0.01143720,0.11095933,-0.10397521,-0.22538250,-0.07352157,0.0
 0157378,0.00106012,0.00043733,0.00093691,0.00106012,0.00133800,0.11452
 606,0.24320264,-0.04244770,-0.07352157,-0.07530722,-0.01574457,-0.0272
 7040,-0.00898582,0.00455986,0.01057391,0.00319727,0.04675507,0.0809821
 6,0.07789850,-0.10532228,0.10397521,-0.04244770,-0.00075713,-0.0015737
 8,0.00025249,-0.01294021,0.02518619,-0.01143720,0.00806028,-0.01306155
 ,0.00687734,0.11095933,0.10397521,-0.22538250,0.07352157,-0.00157378,0
 .00106012,-0.00043733,-0.00093691,0.00106012,-0.00133800,0.01306155,-0
 .01994037,0.00923591,-0.11452606,0.24320264,-0.04244770,0.07352157,-0.
 07530722,-0.01574457,0.02727040,-0.00898582,0.00455986,-0.01057391,0.0
 0319727,0.00687734,-0.00923591,0.00319727,0.04675507,-0.08098216,0.077
 89850\\0.,0.,0.,0.,0.,-0.00000061,-0.00000057,0.,0.00000020,0.00000029
 ,0.00000050,0.00000020,0.00000029,-0.00000050,0.00000020\\\@


 IT IS THE BEHAVIOR AND DISTRIBUTION OF THE ELECTRONS 
 AROUND THE NUCLEUS THAT GIVES THE FUNDAMENTAL 
 CHARACTER OF AN ATOM:  IT MUST BE THE SAME FOR MOLECULES.

                               -- C. A. COULSON, 1951
 Job cpu time:  0 days  0 hours  1 minutes 34.5 seconds.
 File lengths (MBytes):  RWF=      9 Int=      0 D2E=      0 Chk=      2 Scr=      1
 Normal termination of Gaussian 09 at Sun Aug 18 00:34:54 2024.
