 Entering Gaussian System, Link 0=/programs/64bit/g09/g09-gfortran/bin/g09
 Input=ch4_cc-pVDZ.com
 Output=ch4_cc-pVDZ.log
 Initial command:
 /programs/64bit/g09/g09-gfortran/bin/l1.exe /home/ospite/Desktop/MMfP/Project6/CH4/g09/DFT/B3LYP/Gau-19122.inp -scrdir=/home/ospite/Desktop/MMfP/Project6/CH4/g09/DFT/B3LYP/
 Entering Link 1 = /programs/64bit/g09/g09-gfortran/bin/l1.exe PID=     19124.
  
 Copyright (c) 1988,1990,1992,1993,1995,1998,2003,2009, Gaussian, Inc.
                  All Rights Reserved.
  
 This is part of the Gaussian(R) 09 program.  It is based on
 the Gaussian(R) 03 system (copyright 2003, Gaussian, Inc.),
 the Gaussian(R) 98 system (copyright 1998, Gaussian, Inc.),
 the Gaussian(R) 94 system (copyright 1995, Gaussian, Inc.),
 the Gaussian 92(TM) system (copyright 1992, Gaussian, Inc.),
 the Gaussian 90(TM) system (copyright 1990, Gaussian, Inc.),
 the Gaussian 88(TM) system (copyright 1988, Gaussian, Inc.),
 the Gaussian 86(TM) system (copyright 1986, Carnegie Mellon
 University), and the Gaussian 82(TM) system (copyright 1983,
 Carnegie Mellon University). Gaussian is a federally registered
 trademark of Gaussian, Inc.
  
 This software contains proprietary and confidential information,
 including trade secrets, belonging to Gaussian, Inc.
  
 This software is provided under written license and may be
 used, copied, transmitted, or stored only in accord with that
 written license.
  
 The following legend is applicable only to US Government
 contracts under FAR:
  
                    RESTRICTED RIGHTS LEGEND
  
 Use, reproduction and disclosure by the US Government is
 subject to restrictions as set forth in subparagraphs (a)
 and (c) of the Commercial Computer Software - Restricted
 Rights clause in FAR 52.227-19.
  
 Gaussian, Inc.
 340 Quinnipiac St., Bldg. 40, Wallingford CT 06492
  
  
 ---------------------------------------------------------------
 Warning -- This program may not be used in any manner that
 competes with the business of Gaussian, Inc. or will provide
 assistance to any competitor of Gaussian, Inc.  The licensee
 of this program is prohibited from giving any competitor of
 Gaussian, Inc. access to this program.  By using this program,
 the user acknowledges that Gaussian, Inc. is engaged in the
 business of creating and licensing software in the field of
 computational chemistry and represents and warrants to the
 licensee that it is not a competitor of Gaussian, Inc. and that
 it will not use this program in any manner prohibited above.
 ---------------------------------------------------------------
  

 Cite this work as:
 Gaussian 09, Revision A.02,
 M. J. Frisch, G. W. Trucks, H. B. Schlegel, G. E. Scuseria, 
 M. A. Robb, J. R. Cheeseman, G. Scalmani, V. Barone, B. Mennucci, 
 G. A. Petersson, H. Nakatsuji, M. Caricato, X. Li, H. P. Hratchian, 
 A. F. Izmaylov, J. Bloino, G. Zheng, J. L. Sonnenberg, M. Hada, 
 M. Ehara, K. Toyota, R. Fukuda, J. Hasegawa, M. Ishida, T. Nakajima, 
 Y. Honda, O. Kitao, H. Nakai, T. Vreven, J. A. Montgomery, Jr., 
 J. E. Peralta, F. Ogliaro, M. Bearpark, J. J. Heyd, E. Brothers, 
 K. N. Kudin, V. N. Staroverov, R. Kobayashi, J. Normand, 
 K. Raghavachari, A. Rendell, J. C. Burant, S. S. Iyengar, J. Tomasi, 
 M. Cossi, N. Rega, J. M. Millam, M. Klene, J. E. Knox, J. B. Cross, 
 V. Bakken, C. Adamo, J. Jaramillo, R. Gomperts, R. E. Stratmann, 
 O. Yazyev, A. J. Austin, R. Cammi, C. Pomelli, J. W. Ochterski, 
 R. L. Martin, K. Morokuma, V. G. Zakrzewski, G. A. Voth, 
 P. Salvador, J. J. Dannenberg, S. Dapprich, A. D. Daniels, 
 O. Farkas, J. B. Foresman, J. V. Ortiz, J. Cioslowski, 
 and D. J. Fox, Gaussian, Inc., Wallingford CT, 2009.
 
 ******************************************
 Gaussian 09:  EM64L-G09RevA.02 11-Jun-2009
                18-Aug-2024 
 ******************************************
 %mem=100MB
 ------------------------------------------------------------------
 #p b3lyp/cc-pVDZ opt freq symmetry=(follow,pg=Td) pop=full gfinput
 ------------------------------------------------------------------
 1/14=-1,18=20,19=15,26=3,38=1/1,3;
 2/9=110,12=2,17=6,18=5,19=2314885530818462804,40=1/2;
 3/5=16,11=2,16=1,24=10,25=1,30=1,71=1,74=-5/1,2,3;
 4//1;
 5/5=2,38=5/2;
 6/7=3,28=1/1;
 7//1,2,3,16;
 1/14=-1,18=20,19=15/3(2);
 2/9=110,15=5,19=2314885530818462804/2;
 99//99;
 2/9=110,15=5,19=2314885530818462804/2;
 3/5=16,11=2,16=1,25=1,30=1,71=1,74=-5/1,2,3;
 4/5=5,16=3/1;
 5/5=2,38=5/2;
 7//1,2,3,16;
 1/14=-1,18=20,19=15/3(-5);
 2/9=110,15=5,19=2314885530818462804/2;
 6/7=3,19=2,28=1/1;
 99/9=1/99;
 Leave Link    1 at Sun Aug 18 00:30:24 2024, MaxMem=   13107200 cpu:       0.1
 (Enter /programs/64bit/g09/g09-gfortran/bin/l101.exe)
 ------------------------------------------------------
 methane with imposed symmetry Td and cc-pVDZ basis set
 ------------------------------------------------------
 Symbolic Z-matrix:
 Charge =  0 Multiplicity = 1
 C1
 H2                   1    d
 H3                   1    d        2    a
 H4                   1    d        2    a        3    t        0
 H5                   1    d        2    a        3    -t       0
       Variables:
  d                     1.09                     
  a                   109.471                    
  t                   120.                       
 
     3 tetrahedral angles replaced.
 NAtoms=      5 NQM=      5 NQMF=      0 NMic=      0 NMicF=      0 NTot=      5.
                    Isotopes and Nuclear Properties:
 (Nuclear quadrupole moments (NQMom) in fm**2, nuclear magnetic moments (NMagM)
  in nuclear magnetons)

  Atom         1           2           3           4           5
 IAtWgt=          12           1           1           1           1
 AtmWgt=  12.0000000   1.0078250   1.0078250   1.0078250   1.0078250
 NucSpn=           0           1           1           1           1
 AtZEff=   0.0000000   0.0000000   0.0000000   0.0000000   0.0000000
 NQMom=    0.0000000   0.0000000   0.0000000   0.0000000   0.0000000
 NMagM=    0.0000000   2.7928460   2.7928460   2.7928460   2.7928460
 Leave Link  101 at Sun Aug 18 00:30:24 2024, MaxMem=   13107200 cpu:       0.1
 (Enter /programs/64bit/g09/g09-gfortran/bin/l103.exe)

 GradGradGradGradGradGradGradGradGradGradGradGradGradGradGradGradGradGrad
 Berny optimization.
 Initialization pass.
                           ----------------------------
                           !    Initial Parameters    !
                           ! (Angstroms and Degrees)  !
 --------------------------                            --------------------------
 ! Name  Definition              Value          Derivative Info.                !
 --------------------------------------------------------------------------------
 ! R1    R(1,2)                  1.09           estimate D2E/DX2                !
 ! R2    R(1,3)                  1.09           estimate D2E/DX2                !
 ! R3    R(1,4)                  1.09           estimate D2E/DX2                !
 ! R4    R(1,5)                  1.09           estimate D2E/DX2                !
 ! A1    A(2,1,3)              109.4712         estimate D2E/DX2                !
 ! A2    A(2,1,4)              109.4712         estimate D2E/DX2                !
 ! A3    A(2,1,5)              109.4712         estimate D2E/DX2                !
 ! A4    A(3,1,4)              109.4712         estimate D2E/DX2                !
 ! A5    A(3,1,5)              109.4712         estimate D2E/DX2                !
 ! A6    A(4,1,5)              109.4712         estimate D2E/DX2                !
 ! D1    D(2,1,4,3)           -120.0            estimate D2E/DX2                !
 ! D2    D(2,1,5,3)            120.0            estimate D2E/DX2                !
 ! D3    D(2,1,5,4)           -120.0            estimate D2E/DX2                !
 ! D4    D(3,1,5,4)            120.0            estimate D2E/DX2                !
 --------------------------------------------------------------------------------
 Trust Radius=3.00D-01 FncErr=1.00D-07 GrdErr=1.00D-06
 Number of steps in this run=  24 maximum allowed number of steps= 100.
 GradGradGradGradGradGradGradGradGradGradGradGradGradGradGradGradGradGrad

 Leave Link  103 at Sun Aug 18 00:30:24 2024, MaxMem=   13107200 cpu:       0.0
 (Enter /programs/64bit/g09/g09-gfortran/bin/l202.exe)
                          Input orientation:                          
 ---------------------------------------------------------------------
 Center     Atomic      Atomic             Coordinates (Angstroms)
 Number     Number       Type             X           Y           Z
 ---------------------------------------------------------------------
      1          6           0        0.000000    0.000000    0.000000
      2          1           0        0.000000    0.000000    1.090000
      3          1           0        1.027662    0.000000   -0.363333
      4          1           0       -0.513831   -0.889981   -0.363333
      5          1           0       -0.513831    0.889981   -0.363333
 ---------------------------------------------------------------------
                    Distance matrix (angstroms):
                    1          2          3          4          5
     1  C    0.000000
     2  H    1.090000   0.000000
     3  H    1.090000   1.779963   0.000000
     4  H    1.090000   1.779963   1.779963   0.000000
     5  H    1.090000   1.779963   1.779963   1.779963   0.000000
 Symm:  InNGrp=TD   InAxis=0.
 Stoichiometry    CH4
 Framework group  TD[O(C),4C3(H)]
 Deg. of freedom     1
 Full point group                 TD      NOp  24
 Largest Abelian subgroup         D2      NOp   4
 Largest concise Abelian subgroup D2      NOp   4
                         Standard orientation:                         
 ---------------------------------------------------------------------
 Center     Atomic      Atomic             Coordinates (Angstroms)
 Number     Number       Type             X           Y           Z
 ---------------------------------------------------------------------
      1          6           0        0.000000    0.000000    0.000000
      2          1           0        0.629312    0.629312    0.629312
      3          1           0       -0.629312   -0.629312    0.629312
      4          1           0       -0.629312    0.629312   -0.629312
      5          1           0        0.629312   -0.629312   -0.629312
 ---------------------------------------------------------------------
 Rotational constants (GHZ):    158.2742720    158.2742720    158.2742720
 Leave Link  202 at Sun Aug 18 00:30:24 2024, MaxMem=   13107200 cpu:       0.0
 (Enter /programs/64bit/g09/g09-gfortran/bin/l301.exe)
 Standard basis: CC-pVDZ (5D, 7F)
 Ernie: Thresh=  0.10000D-02 Tol=  0.10000D-05 Strict=F.
 Ernie:  2 primitive shells out of 42 were deleted.
 AO basis set in the form of general basis input (Overlap normalization):
      1 0
 S   7 1.00       0.000000000000
      0.6665000000D+04  0.6935163173D-03
      0.1000000000D+04  0.5341502433D-02
      0.2280000000D+03  0.2713667141D-01
      0.6471000000D+02  0.1019923853D+00
      0.2106000000D+02  0.2755086365D+00
      0.7495000000D+01  0.4510864331D+00
      0.2797000000D+01  0.2875657448D+00
 S   7 1.00       0.000000000000
      0.6665000000D+04  0.7733547404D-05
      0.2280000000D+03  0.2780721367D-03
      0.6471000000D+02 -0.2578756542D-02
      0.2106000000D+02 -0.8950876838D-02
      0.7495000000D+01 -0.1060588547D+00
      0.2797000000D+01 -0.1315176856D+00
      0.5215000000D+00  0.1099486598D+01
 S   1 1.00       0.000000000000
      0.1596000000D+00  0.1000000000D+01
 P   3 1.00       0.000000000000
      0.9439000000D+01  0.5697925159D-01
      0.2002000000D+01  0.3132072115D+00
      0.5456000000D+00  0.7603767417D+00
 P   1 1.00       0.000000000000
      0.1517000000D+00  0.1000000000D+01
 D   1 1.00       0.000000000000
      0.5500000000D+00  0.1000000000D+01
 ****
      2 0
 S   3 1.00       0.000000000000
      0.1301000000D+02  0.3349872639D-01
      0.1962000000D+01  0.2348008012D+00
      0.4446000000D+00  0.8136829579D+00
 S   1 1.00       0.000000000000
      0.1220000000D+00  0.1000000000D+01
 P   1 1.00       0.000000000000
      0.7270000000D+00  0.1000000000D+01
 ****
      3 0
 S   3 1.00       0.000000000000
      0.1301000000D+02  0.3349872639D-01
      0.1962000000D+01  0.2348008012D+00
      0.4446000000D+00  0.8136829579D+00
 S   1 1.00       0.000000000000
      0.1220000000D+00  0.1000000000D+01
 P   1 1.00       0.000000000000
      0.7270000000D+00  0.1000000000D+01
 ****
      4 0
 S   3 1.00       0.000000000000
      0.1301000000D+02  0.3349872639D-01
      0.1962000000D+01  0.2348008012D+00
      0.4446000000D+00  0.8136829579D+00
 S   1 1.00       0.000000000000
      0.1220000000D+00  0.1000000000D+01
 P   1 1.00       0.000000000000
      0.7270000000D+00  0.1000000000D+01
 ****
      5 0
 S   3 1.00       0.000000000000
      0.1301000000D+02  0.3349872639D-01
      0.1962000000D+01  0.2348008012D+00
      0.4446000000D+00  0.8136829579D+00
 S   1 1.00       0.000000000000
      0.1220000000D+00  0.1000000000D+01
 P   1 1.00       0.000000000000
      0.7270000000D+00  0.1000000000D+01
 ****

 There are    10 symmetry adapted basis functions of A   symmetry.
 There are     8 symmetry adapted basis functions of B1  symmetry.
 There are     8 symmetry adapted basis functions of B2  symmetry.
 There are     8 symmetry adapted basis functions of B3  symmetry.
 Integral buffers will be    131072 words long.
 Raffenetti 2 integral format.
 Two-electron integral symmetry is turned on.
    34 basis functions,    61 primitive gaussians,    35 cartesian basis functions
     5 alpha electrons        5 beta electrons
       nuclear repulsion energy        13.4353891954 Hartrees.
 IExCor=  402 DFT=T Ex+Corr=B3LYP ExCW=0 ScaHFX=  0.200000
 ScaDFX=  0.800000  0.720000  1.000000  0.810000 ScalE2=  1.000000  1.000000
 IRadAn=      0 IRanWt=     -1 IRanGd=            0 ICorTp=0
 NAtoms=    5 NActive=    5 NUniq=    2 SFac= 3.00D+00 NAtFMM=   80 NAOKFM=F Big=F
 Leave Link  301 at Sun Aug 18 00:30:24 2024, MaxMem=   13107200 cpu:       0.1
 (Enter /programs/64bit/g09/g09-gfortran/bin/l302.exe)
 NPDir=0 NMtPBC=     1 NCelOv=     1 NCel=       1 NClECP=     1 NCelD=      1
         NCelK=      1 NCelE2=     1 NClLst=     1 CellRange=     0.0.
 One-electron integrals computed using PRISM.
 One-electron integral symmetry used in STVInt
 NBasis=    34 RedAO= T  NBF=    10     8     8     8
 NBsUse=    34 1.00D-06 NBFU=    10     8     8     8
 Precomputing XC quadrature grid using
 IXCGrd= 2 IRadAn=           0 IRanWt=          -1 IRanGd=           0 AccXCQ= 1.00D-10.
 NRdTot=     308 NPtTot=       38528 NUsed=       40762 NTot=       40794
 NSgBfM=    35    35    35    35    35 NAtAll=     5     5.
 Leave Link  302 at Sun Aug 18 00:30:25 2024, MaxMem=   13107200 cpu:       0.2
 (Enter /programs/64bit/g09/g09-gfortran/bin/l303.exe)
 DipDrv:  MaxL=1.
 Leave Link  303 at Sun Aug 18 00:30:25 2024, MaxMem=   13107200 cpu:       0.0
 (Enter /programs/64bit/g09/g09-gfortran/bin/l401.exe)
 Harris functional with IExCor=  402 diagonalized for initial guess.
 ExpMin= 1.22D-01 ExpMax= 6.66D+03 ExpMxC= 2.28D+02 IAcc=1 IRadAn=         1 AccDes= 0.00D+00
 HarFok:  IExCor=  402 AccDes= 0.00D+00 IRadAn=         1 IDoV= 1
 ScaDFX=  1.000000  1.000000  1.000000  1.000000
 FoFCou: FMM=F IPFlag=           0 FMFlag=      100000 FMFlg1=           0
         NFxFlg=           0 DoJE=T BraDBF=F KetDBF=T FulRan=T
         Omega=  0.000000  0.000000  1.000000  0.000000  0.000000 ICntrl=     500 IOpCl=  0
         NMat0=    1 NMatS0=    1 NMatT0=    0 NMatD0=    1 NMtDS0=    0 NMtDT0=    0
         I1Cent=           4 NGrid=           0.
 Petite list used in FoFCou.
 Harris En= -40.5589501436746    
 Initial guess orbital symmetries:
       Occupied  (A1) (A1) (T2) (T2) (T2)
       Virtual   (A1) (T2) (T2) (T2) (T2) (T2) (T2) (T2) (T2) (T2)
                 (A1) (E) (E) (A1) (T1) (T1) (T1) (T2) (T2) (T2)
                 (T2) (T2) (T2) (E) (E) (A1) (T2) (T2) (T2)
 The electronic state of the initial guess is 1-A1.
 Leave Link  401 at Sun Aug 18 00:30:25 2024, MaxMem=   13107200 cpu:       0.3
 (Enter /programs/64bit/g09/g09-gfortran/bin/l502.exe)
 Closed shell SCF:
 Requested convergence on RMS density matrix=1.00D-08 within 128 cycles.
 Requested convergence on MAX density matrix=1.00D-06.
 Requested convergence on             energy=1.00D-06.
 No special actions if energy rises.
 Using DIIS extrapolation, IDIIS=  1040.
 Integral symmetry usage will be decided dynamically.
        40704 words used for storage of precomputed grid.
 Keep R1 ints in memory in canonical form, NReq=1121336.
 IEnd=       63523 IEndB=       63523 NGot=    13107200 MDV=    12862785
 LenX=    12862785 LenY=    12861119
 Symmetry not used in FoFDir.
 MinBra= 0 MaxBra= 2 Meth= 1.
 IRaf=       0 NMat=   1 IRICut=       1 DoRegI=T DoRafI=F ISym2E= 0 JSym2E=0.
 Integral accuracy reduced to 1.0D-05 until final iterations.

 Cycle   1  Pass 0  IDiag  1:
 E= -40.4256142935168    
 DIIS: error= 6.67D-02 at cycle   1 NSaved=   1.
 NSaved= 1 IEnMin= 1 EnMin= -40.4256142935168     IErMin= 1 ErrMin= 6.67D-02
 ErrMax= 6.67D-02 EMaxC= 1.00D-01 BMatC= 7.98D-02 BMatP= 7.98D-02
 IDIUse=3 WtCom= 3.33D-01 WtEn= 6.67D-01
 Coeff-Com:  0.100D+01
 Coeff-En:   0.100D+01
 Coeff:      0.100D+01
 Gap=     0.378 Goal=   None    Shift=    0.000
 GapD=    0.378 DampG=1.000 DampE=0.500 DampFc=0.5000 IDamp=-1.
 Damping current iteration by 5.00D-01
 RMSDP=1.47D-02 MaxDP=1.47D-01              OVMax= 1.99D-01

 Cycle   2  Pass 0  IDiag  1:
 E= -40.4670666923180     Delta-E=       -0.041452398801 Rises=F Damp=T
 DIIS: error= 7.72D-03 at cycle   2 NSaved=   2.
 NSaved= 2 IEnMin= 2 EnMin= -40.4670666923180     IErMin= 2 ErrMin= 7.72D-03
 ErrMax= 7.72D-03 EMaxC= 1.00D-01 BMatC= 1.14D-03 BMatP= 7.98D-02
 IDIUse=3 WtCom= 9.23D-01 WtEn= 7.72D-02
 Coeff-Com:  0.751D-01 0.925D+00
 Coeff-En:   0.120D+00 0.880D+00
 Coeff:      0.786D-01 0.921D+00
 Gap=     0.457 Goal=   None    Shift=    0.000
 RMSDP=1.39D-03 MaxDP=1.21D-02 DE=-4.15D-02 OVMax= 1.04D-01

 Cycle   3  Pass 0  IDiag  1:
 E= -40.5161139023744     Delta-E=       -0.049047210056 Rises=F Damp=F
 DIIS: error= 5.62D-04 at cycle   3 NSaved=   3.
 NSaved= 3 IEnMin= 3 EnMin= -40.5161139023744     IErMin= 3 ErrMin= 5.62D-04
 ErrMax= 5.62D-04 EMaxC= 1.00D-01 BMatC= 9.63D-06 BMatP= 1.14D-03
 IDIUse=3 WtCom= 9.94D-01 WtEn= 5.62D-03
 Coeff-Com:  0.642D-02-0.506D-01 0.104D+01
 Coeff-En:   0.000D+00 0.000D+00 0.100D+01
 Coeff:      0.639D-02-0.503D-01 0.104D+01
 Gap=     0.465 Goal=   None    Shift=    0.000
 RMSDP=7.22D-05 MaxDP=7.38D-04 DE=-4.90D-02 OVMax= 7.09D-04

 Cycle   4  Pass 0  IDiag  1:
 E= -40.5161220454963     Delta-E=       -0.000008143122 Rises=F Damp=F
 DIIS: error= 5.77D-05 at cycle   4 NSaved=   4.
 NSaved= 4 IEnMin= 4 EnMin= -40.5161220454963     IErMin= 4 ErrMin= 5.77D-05
 ErrMax= 5.77D-05 EMaxC= 1.00D-01 BMatC= 6.00D-08 BMatP= 9.63D-06
 IDIUse=1 WtCom= 1.00D+00 WtEn= 0.00D+00
 Coeff-Com:  0.114D-02-0.134D-02 0.477D-01 0.953D+00
 Coeff:      0.114D-02-0.134D-02 0.477D-01 0.953D+00
 Gap=     0.465 Goal=   None    Shift=    0.000
 RMSDP=6.82D-06 MaxDP=4.59D-05 DE=-8.14D-06 OVMax= 8.79D-05

 Initial convergence to 1.0D-05 achieved.  Increase integral accuracy.
 Cycle   5  Pass 1  IDiag  1:
 E= -40.5161030969082     Delta-E=        0.000018948588 Rises=F Damp=F
 DIIS: error= 9.13D-06 at cycle   1 NSaved=   1.
 NSaved= 1 IEnMin= 1 EnMin= -40.5161030969082     IErMin= 1 ErrMin= 9.13D-06
 ErrMax= 9.13D-06 EMaxC= 1.00D-01 BMatC= 2.68D-09 BMatP= 2.68D-09
 IDIUse=1 WtCom= 1.00D+00 WtEn= 0.00D+00
 Coeff-Com:  0.100D+01
 Coeff:      0.100D+01
 Gap=     0.465 Goal=   None    Shift=    0.000
 RMSDP=6.82D-06 MaxDP=4.59D-05 DE= 1.89D-05 OVMax= 2.83D-05

 Cycle   6  Pass 1  IDiag  1:
 E= -40.5161031015519     Delta-E=       -0.000000004644 Rises=F Damp=F
 DIIS: error= 8.76D-07 at cycle   2 NSaved=   2.
 NSaved= 2 IEnMin= 2 EnMin= -40.5161031015519     IErMin= 2 ErrMin= 8.76D-07
 ErrMax= 8.76D-07 EMaxC= 1.00D-01 BMatC= 2.68D-11 BMatP= 2.68D-09
 IDIUse=1 WtCom= 1.00D+00 WtEn= 0.00D+00
 Coeff-Com: -0.322D-01 0.103D+01
 Coeff:     -0.322D-01 0.103D+01
 Gap=     0.465 Goal=   None    Shift=    0.000
 RMSDP=3.51D-07 MaxDP=2.02D-06 DE=-4.64D-09 OVMax= 2.16D-06

 Cycle   7  Pass 1  IDiag  1:
 E= -40.5161031015757     Delta-E=       -0.000000000024 Rises=F Damp=F
 DIIS: error= 6.89D-07 at cycle   3 NSaved=   3.
 NSaved= 3 IEnMin= 3 EnMin= -40.5161031015757     IErMin= 3 ErrMin= 6.89D-07
 ErrMax= 6.89D-07 EMaxC= 1.00D-01 BMatC= 9.55D-12 BMatP= 2.68D-11
 IDIUse=1 WtCom= 1.00D+00 WtEn= 0.00D+00
 Coeff-Com: -0.133D-01 0.384D+00 0.629D+00
 Coeff:     -0.133D-01 0.384D+00 0.629D+00
 Gap=     0.465 Goal=   None    Shift=    0.000
 RMSDP=9.68D-08 MaxDP=1.05D-06 DE=-2.38D-11 OVMax= 1.30D-06

 Cycle   8  Pass 1  IDiag  1:
 E= -40.5161031015842     Delta-E=       -0.000000000009 Rises=F Damp=F
 DIIS: error= 2.54D-07 at cycle   4 NSaved=   4.
 NSaved= 4 IEnMin= 4 EnMin= -40.5161031015842     IErMin= 4 ErrMin= 2.54D-07
 ErrMax= 2.54D-07 EMaxC= 1.00D-01 BMatC= 1.20D-12 BMatP= 9.55D-12
 IDIUse=1 WtCom= 1.00D+00 WtEn= 0.00D+00
 Coeff-Com: -0.249D-02 0.840D-02 0.264D+00 0.730D+00
 Coeff:     -0.249D-02 0.840D-02 0.264D+00 0.730D+00
 Gap=     0.465 Goal=   None    Shift=    0.000
 RMSDP=2.22D-08 MaxDP=2.61D-07 DE=-8.51D-12 OVMax= 3.34D-07

 Cycle   9  Pass 1  IDiag  1:
 E= -40.5161031015857     Delta-E=       -0.000000000002 Rises=F Damp=F
 DIIS: error= 5.02D-09 at cycle   5 NSaved=   5.
 NSaved= 5 IEnMin= 5 EnMin= -40.5161031015857     IErMin= 5 ErrMin= 5.02D-09
 ErrMax= 5.02D-09 EMaxC= 1.00D-01 BMatC= 4.03D-16 BMatP= 1.20D-12
 IDIUse=1 WtCom= 1.00D+00 WtEn= 0.00D+00
 Coeff-Com:  0.652D-04-0.146D-02-0.352D-02 0.122D-01 0.993D+00
 Coeff:      0.652D-04-0.146D-02-0.352D-02 0.122D-01 0.993D+00
 Gap=     0.465 Goal=   None    Shift=    0.000
 RMSDP=7.30D-10 MaxDP=5.50D-09 DE=-1.52D-12 OVMax= 8.67D-09

 SCF Done:  E(RB3LYP) =  -40.5161031016     A.U. after    9 cycles
             Convg  =    0.7300D-09             -V/T =  2.0101
 KE= 4.011293032899D+01 PE=-1.199269036894D+02 EE= 2.586248106345D+01
 Leave Link  502 at Sun Aug 18 00:30:28 2024, MaxMem=   13107200 cpu:       1.7
 (Enter /programs/64bit/g09/g09-gfortran/bin/l601.exe)
 Copying SCF densities to generalized density rwf, IOpCl= 0 IROHF=0.

 **********************************************************************

            Population analysis using the SCF density.

 **********************************************************************

 Orbital symmetries:
       Occupied  (A1) (A1) (T2) (T2) (T2)
       Virtual   (A1) (T2) (T2) (T2) (T2) (T2) (T2) (T2) (T2) (T2)
                 (A1) (E) (E) (A1) (T1) (T1) (T1) (T2) (T2) (T2)
                 (T2) (T2) (T2) (E) (E) (A1) (T2) (T2) (T2)
 The electronic state is 1-A1.
 Alpha  occ. eigenvalues --  -10.17070  -0.69335  -0.39009  -0.39009  -0.39009
 Alpha virt. eigenvalues --    0.07472   0.14507   0.14507   0.14507   0.41320
 Alpha virt. eigenvalues --    0.41320   0.41320   0.65467   0.65467   0.65467
 Alpha virt. eigenvalues --    0.68833   0.90184   0.90184   1.04264   1.42207
 Alpha virt. eigenvalues --    1.42207   1.42207   1.61954   1.61954   1.61954
 Alpha virt. eigenvalues --    1.92946   1.92946   1.92946   2.24881   2.24881
 Alpha virt. eigenvalues --    2.41866   2.44590   2.44590   2.44590
     Molecular Orbital Coefficients:
                           1         2         3         4         5
                        (A1)--O   (A1)--O   (T2)--O   (T2)--O   (T2)--O
     Eigenvalues --   -10.17070  -0.69335  -0.39009  -0.39009  -0.39009
   1 1   C  1S          0.99640  -0.19050   0.00000   0.00000   0.00000
   2        2S          0.03109   0.37607   0.00000   0.00000   0.00000
   3        3S         -0.01471   0.21672   0.00000   0.00000   0.00000
   4        4PX         0.00000   0.00000   0.44060   0.00000   0.00000
   5        4PY         0.00000   0.00000   0.00000   0.00000   0.44060
   6        4PZ         0.00000   0.00000   0.00000   0.44060   0.00000
   7        5PX         0.00000   0.00000   0.17890   0.00000   0.00000
   8        5PY         0.00000   0.00000   0.00000   0.00000   0.17890
   9        5PZ         0.00000   0.00000   0.00000   0.17890   0.00000
  10        6D 0       -0.00000  -0.00000   0.00000   0.00000   0.00000
  11        6D+1        0.00000   0.00000   0.00000   0.00000   0.01932
  12        6D-1        0.00000   0.00000   0.01932   0.00000   0.00000
  13        6D+2        0.00000  -0.00000   0.00000   0.00000   0.00000
  14        6D-2        0.00000   0.00000   0.00000   0.01932   0.00000
  15 2   H  1S         -0.00159   0.18442   0.22274   0.22274   0.22274
  16        2S          0.00220   0.03256   0.10095   0.10095   0.10095
  17        3PX         0.00116  -0.01452   0.00530  -0.00972  -0.00972
  18        3PY         0.00116  -0.01452  -0.00972  -0.00972   0.00530
  19        3PZ         0.00116  -0.01452  -0.00972   0.00530  -0.00972
  20 3   H  1S         -0.00159   0.18442  -0.22274   0.22274  -0.22274
  21        2S          0.00220   0.03256  -0.10095   0.10095  -0.10095
  22        3PX        -0.00116   0.01452   0.00530   0.00972  -0.00972
  23        3PY        -0.00116   0.01452  -0.00972   0.00972   0.00530
  24        3PZ         0.00116  -0.01452   0.00972   0.00530   0.00972
  25 4   H  1S         -0.00159   0.18442  -0.22274  -0.22274   0.22274
  26        2S          0.00220   0.03256  -0.10095  -0.10095   0.10095
  27        3PX        -0.00116   0.01452   0.00530  -0.00972   0.00972
  28        3PY         0.00116  -0.01452   0.00972   0.00972   0.00530
  29        3PZ        -0.00116   0.01452  -0.00972   0.00530   0.00972
  30 5   H  1S         -0.00159   0.18442   0.22274  -0.22274  -0.22274
  31        2S          0.00220   0.03256   0.10095  -0.10095  -0.10095
  32        3PX         0.00116  -0.01452   0.00530   0.00972   0.00972
  33        3PY        -0.00116   0.01452   0.00972  -0.00972   0.00530
  34        3PZ        -0.00116   0.01452   0.00972   0.00530  -0.00972
                           6         7         8         9        10
                        (A1)--V   (T2)--V   (T2)--V   (T2)--V   (T2)--V
     Eigenvalues --     0.07472   0.14507   0.14507   0.14507   0.41320
   1 1   C  1S         -0.13458   0.00000   0.00000   0.00000   0.00000
   2        2S          0.15926   0.00000   0.00000   0.00000   0.00000
   3        3S          2.17174   0.00000   0.00000   0.00000   0.00000
   4        4PX         0.00000   0.00000   0.37713   0.00000   0.00000
   5        4PY         0.00000   0.00000   0.00000   0.37713   0.00000
   6        4PZ         0.00000   0.37713   0.00000   0.00000  -0.29955
   7        5PX         0.00000   0.00000   1.27430   0.00000   0.00000
   8        5PY         0.00000   0.00000   0.00000   1.27430   0.00000
   9        5PZ         0.00000   1.27430   0.00000   0.00000   1.13483
  10        6D 0       -0.00000   0.00000   0.00000   0.00000   0.00000
  11        6D+1        0.00000   0.00000   0.00000  -0.00206   0.00000
  12        6D-1        0.00000   0.00000  -0.00206   0.00000   0.00000
  13        6D+2       -0.00000   0.00000   0.00000   0.00000   0.00000
  14        6D-2        0.00000  -0.00206   0.00000   0.00000  -0.13211
  15 2   H  1S         -0.03266  -0.06973  -0.06973  -0.06973  -0.47776
  16        2S         -0.80099  -1.19798  -1.19798  -1.19798   0.09197
  17        3PX         0.00018  -0.00136   0.00674  -0.00136  -0.01893
  18        3PY         0.00018  -0.00136  -0.00136   0.00674  -0.01893
  19        3PZ         0.00018   0.00674  -0.00136  -0.00136   0.02127
  20 3   H  1S         -0.03266  -0.06973   0.06973   0.06973  -0.47776
  21        2S         -0.80099  -1.19798   1.19798   1.19798   0.09197
  22        3PX        -0.00018   0.00136   0.00674  -0.00136   0.01893
  23        3PY        -0.00018   0.00136  -0.00136   0.00674   0.01893
  24        3PZ         0.00018   0.00674   0.00136   0.00136   0.02127
  25 4   H  1S         -0.03266   0.06973   0.06973  -0.06973   0.47776
  26        2S         -0.80099   1.19798   1.19798  -1.19798  -0.09197
  27        3PX        -0.00018  -0.00136   0.00674   0.00136  -0.01893
  28        3PY         0.00018   0.00136   0.00136   0.00674   0.01893
  29        3PZ        -0.00018   0.00674  -0.00136   0.00136   0.02127
  30 5   H  1S         -0.03266   0.06973  -0.06973   0.06973   0.47776
  31        2S         -0.80099   1.19798  -1.19798   1.19798  -0.09197
  32        3PX         0.00018   0.00136   0.00674   0.00136   0.01893
  33        3PY        -0.00018  -0.00136   0.00136   0.00674  -0.01893
  34        3PZ        -0.00018   0.00674   0.00136  -0.00136   0.02127
                          11        12        13        14        15
                        (T2)--V   (T2)--V   (T2)--V   (T2)--V   (T2)--V
     Eigenvalues --     0.41320   0.41320   0.65467   0.65467   0.65467
   1 1   C  1S          0.00000   0.00000   0.00000   0.00000   0.00000
   2        2S          0.00000   0.00000   0.00000   0.00000   0.00000
   3        3S          0.00000   0.00000   0.00000   0.00000   0.00000
   4        4PX         0.00000  -0.29955   0.00000   0.00000  -0.86161
   5        4PY        -0.29955   0.00000  -0.86161   0.00000   0.00000
   6        4PZ         0.00000   0.00000   0.00000  -0.86161   0.00000
   7        5PX         0.00000   1.13483   0.00000   0.00000   1.81141
   8        5PY         1.13483   0.00000   1.81141   0.00000   0.00000
   9        5PZ         0.00000   0.00000   0.00000   1.81141   0.00000
  10        6D 0        0.00000   0.00000   0.00000   0.00000   0.00000
  11        6D+1       -0.13211   0.00000   0.28746   0.00000   0.00000
  12        6D-1        0.00000  -0.13211   0.00000   0.00000   0.28746
  13        6D+2        0.00000   0.00000   0.00000   0.00000   0.00000
  14        6D-2        0.00000   0.00000   0.00000   0.28746   0.00000
  15 2   H  1S         -0.47776  -0.47776   0.23286   0.23286   0.23286
  16        2S          0.09197   0.09197  -1.14362  -1.14362  -1.14362
  17        3PX        -0.01893   0.02127   0.10313   0.10313   0.04376
  18        3PY         0.02127  -0.01893   0.04376   0.10313   0.10313
  19        3PZ        -0.01893  -0.01893   0.10313   0.04376   0.10313
  20 3   H  1S          0.47776   0.47776  -0.23286   0.23286  -0.23286
  21        2S         -0.09197  -0.09197   1.14362  -1.14362   1.14362
  22        3PX        -0.01893   0.02127   0.10313  -0.10313   0.04376
  23        3PY         0.02127  -0.01893   0.04376  -0.10313   0.10313
  24        3PZ         0.01893   0.01893  -0.10313   0.04376  -0.10313
  25 4   H  1S         -0.47776   0.47776   0.23286  -0.23286  -0.23286
  26        2S          0.09197  -0.09197  -1.14362   1.14362   1.14362
  27        3PX         0.01893   0.02127  -0.10313   0.10313   0.04376
  28        3PY         0.02127   0.01893   0.04376  -0.10313  -0.10313
  29        3PZ         0.01893  -0.01893  -0.10313   0.04376   0.10313
  30 5   H  1S          0.47776  -0.47776  -0.23286  -0.23286   0.23286
  31        2S         -0.09197   0.09197   1.14362   1.14362  -1.14362
  32        3PX         0.01893   0.02127  -0.10313  -0.10313   0.04376
  33        3PY         0.02127   0.01893   0.04376   0.10313  -0.10313
  34        3PZ        -0.01893   0.01893   0.10313   0.04376  -0.10313
                          16        17        18        19        20
                        (A1)--V   (E)--V    (E)--V    (A1)--V   (T1)--V
     Eigenvalues --     0.68833   0.90184   0.90184   1.04264   1.42207
   1 1   C  1S          0.09200   0.00000   0.00000  -0.10120   0.00000
   2        2S         -0.74285   0.00000   0.00000  -1.87704   0.00000
   3        3S          1.03675  -0.00000  -0.00000   5.07952   0.00000
   4        4PX         0.00000   0.00000   0.00000   0.00000   0.00000
   5        4PY         0.00000   0.00000   0.00000   0.00000  -0.00000
   6        4PZ         0.00000   0.00000   0.00000   0.00000   0.00000
   7        5PX         0.00000   0.00000   0.00000   0.00000   0.00000
   8        5PY         0.00000   0.00000   0.00000   0.00000  -0.00000
   9        5PZ         0.00000   0.00000   0.00000   0.00000   0.00000
  10        6D 0       -0.00000   0.49070   0.21933   0.00000   0.00000
  11        6D+1        0.00000   0.00000   0.00000   0.00000  -0.00000
  12        6D-1        0.00000   0.00000   0.00000   0.00000   0.00000
  13        6D+2       -0.00000  -0.21933   0.49070   0.00000   0.00000
  14        6D-2        0.00000   0.00000   0.00000   0.00000   0.00000
  15 2   H  1S          0.59194   0.00000   0.00000  -0.56377   0.00000
  16        2S         -0.49329   0.00000   0.00000  -0.75915   0.00000
  17        3PX         0.09335  -0.17481   0.12662   0.03866   0.36934
  18        3PY         0.09335  -0.02225  -0.21469   0.03866   0.00000
  19        3PZ         0.09335   0.19706   0.08808   0.03866  -0.36934
  20 3   H  1S          0.59194   0.00000   0.00000  -0.56377  -0.00000
  21        2S         -0.49329   0.00000   0.00000  -0.75915  -0.00000
  22        3PX        -0.09335   0.17481  -0.12662  -0.03866   0.36934
  23        3PY        -0.09335   0.02225   0.21469  -0.03866   0.00000
  24        3PZ         0.09335   0.19706   0.08808   0.03866   0.36934
  25 4   H  1S          0.59194   0.00000   0.00000  -0.56377   0.00000
  26        2S         -0.49329   0.00000   0.00000  -0.75915   0.00000
  27        3PX        -0.09335   0.17481  -0.12662  -0.03866  -0.36934
  28        3PY         0.09335  -0.02225  -0.21469   0.03866   0.00000
  29        3PZ        -0.09335  -0.19706  -0.08808  -0.03866   0.36934
  30 5   H  1S          0.59194   0.00000   0.00000  -0.56377  -0.00000
  31        2S         -0.49329   0.00000   0.00000  -0.75915  -0.00000
  32        3PX         0.09335  -0.17481   0.12662   0.03866  -0.36934
  33        3PY        -0.09335   0.02225   0.21469  -0.03866   0.00000
  34        3PZ        -0.09335  -0.19706  -0.08808  -0.03866  -0.36934
                          21        22        23        24        25
                        (T1)--V   (T1)--V   (T2)--V   (T2)--V   (T2)--V
     Eigenvalues --     1.42207   1.42207   1.61954   1.61954   1.61954
   1 1   C  1S          0.00000   0.00000   0.00000   0.00000   0.00000
   2        2S          0.00000   0.00000   0.00000   0.00000   0.00000
   3        3S          0.00000   0.00000   0.00000   0.00000   0.00000
   4        4PX        -0.00000   0.00000   0.00000   0.00000  -0.05905
   5        4PY         0.00000   0.00000  -0.05905   0.00000   0.00000
   6        4PZ         0.00000  -0.00000   0.00000  -0.05905   0.00000
   7        5PX        -0.00000   0.00000   0.00000   0.00000   1.02611
   8        5PY         0.00000   0.00000   1.02611   0.00000   0.00000
   9        5PZ         0.00000   0.00000   0.00000   1.02611   0.00000
  10        6D 0        0.00000   0.00000   0.00000   0.00000   0.00000
  11        6D+1        0.00000   0.00000   0.70959   0.00000   0.00000
  12        6D-1       -0.00000   0.00000   0.00000   0.00000   0.70959
  13        6D+2        0.00000   0.00000   0.00000   0.00000   0.00000
  14        6D-2        0.00000   0.00000   0.00000   0.70959   0.00000
  15 2   H  1S          0.00000   0.00000  -0.47336  -0.47336  -0.47336
  16        2S          0.00000  -0.00000  -0.08015  -0.08015  -0.08015
  17        3PX         0.00000   0.36934  -0.01581  -0.01581  -0.34864
  18        3PY         0.36934  -0.36934  -0.34864  -0.01581  -0.01581
  19        3PZ        -0.36934   0.00000  -0.01581  -0.34864  -0.01581
  20 3   H  1S         -0.00000   0.00000   0.47336  -0.47336   0.47336
  21        2S         -0.00000  -0.00000   0.08015  -0.08015   0.08015
  22        3PX         0.00000  -0.36934  -0.01581   0.01581  -0.34864
  23        3PY         0.36934   0.36934  -0.34864   0.01581  -0.01581
  24        3PZ         0.36934   0.00000   0.01581  -0.34864   0.01581
  25 4   H  1S         -0.00000  -0.00000  -0.47336   0.47336   0.47336
  26        2S         -0.00000   0.00000  -0.08015   0.08015   0.08015
  27        3PX         0.00000   0.36934   0.01581  -0.01581  -0.34864
  28        3PY        -0.36934   0.36934  -0.34864   0.01581   0.01581
  29        3PZ        -0.36934   0.00000   0.01581  -0.34864  -0.01581
  30 5   H  1S          0.00000  -0.00000   0.47336   0.47336  -0.47336
  31        2S          0.00000   0.00000   0.08015   0.08015  -0.08015
  32        3PX         0.00000  -0.36934   0.01581   0.01581  -0.34864
  33        3PY        -0.36934  -0.36934  -0.34864  -0.01581   0.01581
  34        3PZ         0.36934   0.00000  -0.01581  -0.34864   0.01581
                          26        27        28        29        30
                        (T2)--V   (T2)--V   (T2)--V   (E)--V    (E)--V
     Eigenvalues --     1.92946   1.92946   1.92946   2.24881   2.24881
   1 1   C  1S          0.00000   0.00000   0.00000  -0.00000  -0.00000
   2        2S          0.00000   0.00000   0.00000  -0.00000   0.00000
   3        3S          0.00000   0.00000   0.00000   0.00000   0.00000
   4        4PX        -0.26780   0.00000   0.00000   0.00000  -0.00000
   5        4PY         0.00000  -0.26780   0.00000   0.00000  -0.00000
   6        4PZ         0.00000   0.00000  -0.26780   0.00000  -0.00000
   7        5PX        -0.77374   0.00000   0.00000   0.00000  -0.00000
   8        5PY         0.00000  -0.77374   0.00000   0.00000  -0.00000
   9        5PZ         0.00000   0.00000  -0.77374   0.00000  -0.00000
  10        6D 0        0.00000   0.00000   0.00000   1.14672  -0.67072
  11        6D+1        0.00000   0.77855   0.00000   0.00000  -0.00000
  12        6D-1        0.77855   0.00000   0.00000   0.00000  -0.00000
  13        6D+2        0.00000   0.00000   0.00000   0.67072   1.14672
  14        6D-2        0.00000   0.00000   0.77855   0.00000  -0.00000
  15 2   H  1S         -0.08420  -0.08420  -0.08420   0.00000  -0.00000
  16        2S          0.35900   0.35900   0.35900  -0.00000  -0.00000
  17        3PX         0.42201  -0.30689  -0.30689  -0.00298  -0.52830
  18        3PY        -0.30689   0.42201  -0.30689   0.45901   0.26156
  19        3PZ        -0.30689  -0.30689   0.42201  -0.45603   0.26673
  20 3   H  1S          0.08420   0.08420  -0.08420   0.00000  -0.00000
  21        2S         -0.35900  -0.35900   0.35900  -0.00000  -0.00000
  22        3PX         0.42201  -0.30689   0.30689   0.00298   0.52830
  23        3PY        -0.30689   0.42201   0.30689  -0.45901  -0.26156
  24        3PZ         0.30689   0.30689   0.42201  -0.45603   0.26673
  25 4   H  1S          0.08420  -0.08420   0.08420   0.00000  -0.00000
  26        2S         -0.35900   0.35900  -0.35900  -0.00000  -0.00000
  27        3PX         0.42201   0.30689  -0.30689   0.00298   0.52830
  28        3PY         0.30689   0.42201   0.30689   0.45901   0.26156
  29        3PZ        -0.30689   0.30689   0.42201   0.45603  -0.26673
  30 5   H  1S         -0.08420   0.08420   0.08420   0.00000  -0.00000
  31        2S          0.35900  -0.35900  -0.35900  -0.00000  -0.00000
  32        3PX         0.42201   0.30689   0.30689  -0.00298  -0.52830
  33        3PY         0.30689   0.42201  -0.30689  -0.45901  -0.26156
  34        3PZ         0.30689  -0.30689   0.42201   0.45603  -0.26673
                          31        32        33        34
                        (A1)--V   (T2)--V   (T2)--V   (T2)--V
     Eigenvalues --     2.41866   2.44590   2.44590   2.44590
   1 1   C  1S         -0.04937   0.00000   0.00000   0.00000
   2        2S          1.51415   0.00000   0.00000   0.00000
   3        3S          1.64836   0.00000   0.00000   0.00000
   4        4PX         0.00000   0.00000   1.36031   0.00000
   5        4PY         0.00000   1.36031   0.00000   0.00000
   6        4PZ         0.00000   0.00000   0.00000   1.36031
   7        5PX         0.00000   0.00000   0.97820   0.00000
   8        5PY         0.00000   0.97820   0.00000   0.00000
   9        5PZ         0.00000   0.00000   0.00000   0.97820
  10        6D 0        0.00000   0.00000   0.00000   0.00000
  11        6D+1        0.00000   1.42229   0.00000   0.00000
  12        6D-1        0.00000   0.00000   1.42229   0.00000
  13        6D+2       -0.00000   0.00000   0.00000   0.00000
  14        6D-2        0.00000   0.00000   0.00000   1.42229
  15 2   H  1S         -0.61856  -0.89780  -0.89780  -0.89780
  16        2S         -0.30439  -0.44580  -0.44580  -0.44580
  17        3PX         0.47034   0.46721   0.51804   0.46721
  18        3PY         0.47034   0.51804   0.46721   0.46721
  19        3PZ         0.47034   0.46721   0.46721   0.51804
  20 3   H  1S         -0.61856   0.89780   0.89780  -0.89780
  21        2S         -0.30439   0.44580   0.44580  -0.44580
  22        3PX        -0.47034   0.46721   0.51804  -0.46721
  23        3PY        -0.47034   0.51804   0.46721  -0.46721
  24        3PZ         0.47034  -0.46721  -0.46721   0.51804
  25 4   H  1S         -0.61856  -0.89780   0.89780   0.89780
  26        2S         -0.30439  -0.44580   0.44580   0.44580
  27        3PX        -0.47034  -0.46721   0.51804   0.46721
  28        3PY         0.47034   0.51804  -0.46721  -0.46721
  29        3PZ        -0.47034  -0.46721   0.46721   0.51804
  30 5   H  1S         -0.61856   0.89780  -0.89780   0.89780
  31        2S         -0.30439   0.44580  -0.44580   0.44580
  32        3PX         0.47034  -0.46721   0.51804  -0.46721
  33        3PY        -0.47034   0.51804  -0.46721   0.46721
  34        3PZ        -0.47034   0.46721  -0.46721   0.51804
     Density Matrix:
                           1         2         3         4         5
   1 1   C  1S          2.05820
   2        2S         -0.08133   0.28479
   3        3S         -0.11189   0.16209   0.09437
   4        4PX         0.00000   0.00000   0.00000   0.38825
   5        4PY         0.00000   0.00000   0.00000   0.00000   0.38825
   6        4PZ         0.00000   0.00000   0.00000   0.00000   0.00000
   7        5PX         0.00000   0.00000   0.00000   0.15764   0.00000
   8        5PY         0.00000   0.00000   0.00000   0.00000   0.15764
   9        5PZ         0.00000   0.00000   0.00000   0.00000   0.00000
  10        6D 0        0.00000   0.00000   0.00000   0.00000   0.00000
  11        6D+1       -0.00000  -0.00000  -0.00000  -0.00000   0.01703
  12        6D-1        0.00000   0.00000   0.00000   0.01703   0.00000
  13        6D+2        0.00000  -0.00000  -0.00000  -0.00000   0.00000
  14        6D-2       -0.00000  -0.00000  -0.00000   0.00000   0.00000
  15 2   H  1S         -0.07342   0.13861   0.07998   0.19627   0.19627
  16        2S         -0.00802   0.02463   0.01405   0.08896   0.08896
  17        3PX         0.00784  -0.01085  -0.00633   0.00467  -0.00856
  18        3PY         0.00784  -0.01085  -0.00633  -0.00856   0.00467
  19        3PZ         0.00784  -0.01085  -0.00633  -0.00856  -0.00856
  20 3   H  1S         -0.07342   0.13861   0.07998  -0.19627  -0.19627
  21        2S         -0.00802   0.02463   0.01405  -0.08896  -0.08896
  22        3PX        -0.00784   0.01085   0.00633   0.00467  -0.00856
  23        3PY        -0.00784   0.01085   0.00633  -0.00856   0.00467
  24        3PZ         0.00784  -0.01085  -0.00633   0.00856   0.00856
  25 4   H  1S         -0.07342   0.13861   0.07998  -0.19627   0.19627
  26        2S         -0.00802   0.02463   0.01405  -0.08896   0.08896
  27        3PX        -0.00784   0.01085   0.00633   0.00467   0.00856
  28        3PY         0.00784  -0.01085  -0.00633   0.00856   0.00467
  29        3PZ        -0.00784   0.01085   0.00633  -0.00856   0.00856
  30 5   H  1S         -0.07342   0.13861   0.07998   0.19627  -0.19627
  31        2S         -0.00802   0.02463   0.01405   0.08896  -0.08896
  32        3PX         0.00784  -0.01085  -0.00633   0.00467   0.00856
  33        3PY        -0.00784   0.01085   0.00633   0.00856   0.00467
  34        3PZ        -0.00784   0.01085   0.00633   0.00856  -0.00856
                           6         7         8         9        10
   6        4PZ         0.38825
   7        5PX         0.00000   0.06401
   8        5PY         0.00000   0.00000   0.06401
   9        5PZ         0.15764   0.00000   0.00000   0.06401
  10        6D 0       -0.00000   0.00000   0.00000  -0.00000   0.00000
  11        6D+1        0.00000  -0.00000   0.00691   0.00000   0.00000
  12        6D-1        0.00000   0.00691   0.00000   0.00000   0.00000
  13        6D+2       -0.00000  -0.00000   0.00000  -0.00000   0.00000
  14        6D-2        0.01703   0.00000   0.00000   0.00691  -0.00000
  15 2   H  1S          0.19627   0.07969   0.07969   0.07969   0.00000
  16        2S          0.08896   0.03612   0.03612   0.03612   0.00000
  17        3PX        -0.00856   0.00190  -0.00348  -0.00348   0.00000
  18        3PY        -0.00856  -0.00348   0.00190  -0.00348   0.00000
  19        3PZ         0.00467  -0.00348  -0.00348   0.00190  -0.00000
  20 3   H  1S          0.19627  -0.07969  -0.07969   0.07969  -0.00000
  21        2S          0.08896  -0.03612  -0.03612   0.03612  -0.00000
  22        3PX         0.00856   0.00190  -0.00348   0.00348  -0.00000
  23        3PY         0.00856  -0.00348   0.00190   0.00348  -0.00000
  24        3PZ         0.00467   0.00348   0.00348   0.00190   0.00000
  25 4   H  1S         -0.19627  -0.07969   0.07969  -0.07969   0.00000
  26        2S         -0.08896  -0.03612   0.03612  -0.03612   0.00000
  27        3PX        -0.00856   0.00190   0.00348  -0.00348   0.00000
  28        3PY         0.00856   0.00348   0.00190   0.00348   0.00000
  29        3PZ         0.00467  -0.00348   0.00348   0.00190  -0.00000
  30 5   H  1S         -0.19627   0.07969  -0.07969  -0.07969   0.00000
  31        2S         -0.08896   0.03612  -0.03612  -0.03612   0.00000
  32        3PX         0.00856   0.00190   0.00348   0.00348   0.00000
  33        3PY        -0.00856   0.00348   0.00190  -0.00348   0.00000
  34        3PZ         0.00467   0.00348  -0.00348   0.00190  -0.00000
                          11        12        13        14        15
  11        6D+1        0.00075
  12        6D-1        0.00000   0.00075
  13        6D+2        0.00000  -0.00000   0.00000
  14        6D-2        0.00000   0.00000  -0.00000   0.00075
  15 2   H  1S          0.00861   0.00861  -0.00000   0.00861   0.36569
  16        2S          0.00390   0.00390  -0.00000   0.00390   0.14691
  17        3PX        -0.00038   0.00020   0.00000  -0.00038  -0.01166
  18        3PY         0.00020  -0.00038   0.00000  -0.00038  -0.01166
  19        3PZ        -0.00038  -0.00038  -0.00000   0.00020  -0.01166
  20 3   H  1S         -0.00861  -0.00861  -0.00000   0.00861  -0.03120
  21        2S         -0.00390  -0.00390  -0.00000   0.00390  -0.03297
  22        3PX        -0.00038   0.00020  -0.00000   0.00038   0.00772
  23        3PY         0.00020  -0.00038  -0.00000   0.00038   0.00772
  24        3PZ         0.00038   0.00038  -0.00000   0.00020   0.00566
  25 4   H  1S          0.00861  -0.00861   0.00000  -0.00861  -0.03120
  26        2S          0.00390  -0.00390   0.00000  -0.00390  -0.03297
  27        3PX         0.00038   0.00020   0.00000  -0.00038   0.00772
  28        3PY         0.00020   0.00038  -0.00000   0.00038   0.00566
  29        3PZ         0.00038  -0.00038   0.00000   0.00020   0.00772
  30 5   H  1S         -0.00861   0.00861   0.00000  -0.00861  -0.03120
  31        2S         -0.00390   0.00390   0.00000  -0.00390  -0.03297
  32        3PX         0.00038   0.00020  -0.00000   0.00038   0.00566
  33        3PY         0.00020   0.00038   0.00000  -0.00038   0.00772
  34        3PZ        -0.00038   0.00038  -0.00000   0.00020   0.00772
                          16        17        18        19        20
  16        2S          0.06328
  17        3PX        -0.00379   0.00086
  18        3PY        -0.00379   0.00041   0.00086
  19        3PZ        -0.00379   0.00041   0.00041   0.00086
  20 3   H  1S         -0.03297  -0.00772  -0.00772   0.00566   0.36569
  21        2S         -0.01825  -0.00201  -0.00201   0.00405   0.14691
  22        3PX         0.00201  -0.00037  -0.00082  -0.00024   0.01166
  23        3PY         0.00201  -0.00082  -0.00037  -0.00024   0.01166
  24        3PZ         0.00405   0.00024   0.00024   0.00010  -0.01166
  25 4   H  1S         -0.03297  -0.00772   0.00566  -0.00772  -0.03120
  26        2S         -0.01825  -0.00201   0.00405  -0.00201  -0.03297
  27        3PX         0.00201  -0.00037  -0.00024  -0.00082  -0.00566
  28        3PY         0.00405   0.00024   0.00010   0.00024  -0.00772
  29        3PZ         0.00201  -0.00082  -0.00024  -0.00037   0.00772
  30 5   H  1S         -0.03297   0.00566  -0.00772  -0.00772  -0.03120
  31        2S         -0.01825   0.00405  -0.00201  -0.00201  -0.03297
  32        3PX         0.00405   0.00010   0.00024   0.00024  -0.00772
  33        3PY         0.00201  -0.00024  -0.00037  -0.00082  -0.00566
  34        3PZ         0.00201  -0.00024  -0.00082  -0.00037   0.00772
                          21        22        23        24        25
  21        2S          0.06328
  22        3PX         0.00379   0.00086
  23        3PY         0.00379   0.00041   0.00086
  24        3PZ        -0.00379  -0.00041  -0.00041   0.00086
  25 4   H  1S         -0.03297  -0.00566   0.00772  -0.00772   0.36569
  26        2S         -0.01825  -0.00405   0.00201  -0.00201   0.14691
  27        3PX        -0.00405   0.00010   0.00024  -0.00024   0.01166
  28        3PY        -0.00201  -0.00024  -0.00037   0.00082  -0.01166
  29        3PZ         0.00201   0.00024   0.00082  -0.00037   0.01166
  30 5   H  1S         -0.03297   0.00772  -0.00566  -0.00772  -0.03120
  31        2S         -0.01825   0.00201  -0.00405  -0.00201  -0.03297
  32        3PX        -0.00201  -0.00037  -0.00024   0.00082  -0.00772
  33        3PY        -0.00405   0.00024   0.00010  -0.00024   0.00772
  34        3PZ         0.00201   0.00082   0.00024  -0.00037  -0.00566
                          26        27        28        29        30
  26        2S          0.06328
  27        3PX         0.00379   0.00086
  28        3PY        -0.00379  -0.00041   0.00086
  29        3PZ         0.00379   0.00041  -0.00041   0.00086
  30 5   H  1S         -0.03297   0.00772  -0.00772  -0.00566   0.36569
  31        2S         -0.01825   0.00201  -0.00201  -0.00405   0.14691
  32        3PX        -0.00201  -0.00037   0.00082  -0.00024  -0.01166
  33        3PY         0.00201   0.00082  -0.00037   0.00024   0.01166
  34        3PZ        -0.00405   0.00024  -0.00024   0.00010   0.01166
                          31        32        33        34
  31        2S          0.06328
  32        3PX        -0.00379   0.00086
  33        3PY         0.00379  -0.00041   0.00086
  34        3PZ         0.00379  -0.00041   0.00041   0.00086
    Full Mulliken population analysis:
                           1         2         3         4         5
   1 1   C  1S          2.05820
   2        2S         -0.01677   0.28479
   3        3S         -0.02010   0.12974   0.09437
   4        4PX         0.00000   0.00000   0.00000   0.38825
   5        4PY         0.00000   0.00000   0.00000   0.00000   0.38825
   6        4PZ         0.00000   0.00000   0.00000   0.00000   0.00000
   7        5PX         0.00000   0.00000   0.00000   0.08367   0.00000
   8        5PY         0.00000   0.00000   0.00000   0.00000   0.08367
   9        5PZ         0.00000   0.00000   0.00000   0.00000   0.00000
  10        6D 0        0.00000   0.00000   0.00000   0.00000   0.00000
  11        6D+1       -0.00000  -0.00000  -0.00000   0.00000   0.00000
  12        6D-1        0.00000   0.00000   0.00000   0.00000   0.00000
  13        6D+2        0.00000   0.00000   0.00000   0.00000   0.00000
  14        6D-2       -0.00000  -0.00000  -0.00000   0.00000   0.00000
  15 2   H  1S         -0.00385   0.04695   0.03673   0.04466   0.04466
  16        2S         -0.00072   0.01165   0.01034   0.01075   0.01075
  17        3PX        -0.00045   0.00253   0.00089   0.00005   0.00181
  18        3PY        -0.00045   0.00253   0.00089   0.00181   0.00005
  19        3PZ        -0.00045   0.00253   0.00089   0.00181   0.00181
  20 3   H  1S         -0.00385   0.04695   0.03673   0.04466   0.04466
  21        2S         -0.00072   0.01165   0.01034   0.01075   0.01075
  22        3PX        -0.00045   0.00253   0.00089   0.00005   0.00181
  23        3PY        -0.00045   0.00253   0.00089   0.00181   0.00005
  24        3PZ        -0.00045   0.00253   0.00089   0.00181   0.00181
  25 4   H  1S         -0.00385   0.04695   0.03673   0.04466   0.04466
  26        2S         -0.00072   0.01165   0.01034   0.01075   0.01075
  27        3PX        -0.00045   0.00253   0.00089   0.00005   0.00181
  28        3PY        -0.00045   0.00253   0.00089   0.00181   0.00005
  29        3PZ        -0.00045   0.00253   0.00089   0.00181   0.00181
  30 5   H  1S         -0.00385   0.04695   0.03673   0.04466   0.04466
  31        2S         -0.00072   0.01165   0.01034   0.01075   0.01075
  32        3PX        -0.00045   0.00253   0.00089   0.00005   0.00181
  33        3PY        -0.00045   0.00253   0.00089   0.00181   0.00005
  34        3PZ        -0.00045   0.00253   0.00089   0.00181   0.00181
                           6         7         8         9        10
   6        4PZ         0.38825
   7        5PX         0.00000   0.06401
   8        5PY         0.00000   0.00000   0.06401
   9        5PZ         0.08367   0.00000   0.00000   0.06401
  10        6D 0        0.00000   0.00000   0.00000   0.00000   0.00000
  11        6D+1        0.00000   0.00000   0.00000   0.00000   0.00000
  12        6D-1        0.00000   0.00000   0.00000   0.00000   0.00000
  13        6D+2        0.00000   0.00000   0.00000   0.00000   0.00000
  14        6D-2        0.00000   0.00000   0.00000   0.00000   0.00000
  15 2   H  1S          0.04466   0.02594   0.02594   0.02594   0.00000
  16        2S          0.01075   0.01110   0.01110   0.01110   0.00000
  17        3PX         0.00181   0.00036   0.00036   0.00036  -0.00000
  18        3PY         0.00181   0.00036   0.00036   0.00036  -0.00000
  19        3PZ         0.00005   0.00036   0.00036   0.00036  -0.00000
  20 3   H  1S          0.04466   0.02594   0.02594   0.02594  -0.00000
  21        2S          0.01075   0.01110   0.01110   0.01110  -0.00000
  22        3PX         0.00181   0.00036   0.00036   0.00036  -0.00000
  23        3PY         0.00181   0.00036   0.00036   0.00036  -0.00000
  24        3PZ         0.00005   0.00036   0.00036   0.00036   0.00000
  25 4   H  1S          0.04466   0.02594   0.02594   0.02594   0.00000
  26        2S          0.01075   0.01110   0.01110   0.01110   0.00000
  27        3PX         0.00181   0.00036   0.00036   0.00036   0.00000
  28        3PY         0.00181   0.00036   0.00036   0.00036  -0.00000
  29        3PZ         0.00005   0.00036   0.00036   0.00036   0.00000
  30 5   H  1S          0.04466   0.02594   0.02594   0.02594   0.00000
  31        2S          0.01075   0.01110   0.01110   0.01110   0.00000
  32        3PX         0.00181   0.00036   0.00036   0.00036  -0.00000
  33        3PY         0.00181   0.00036   0.00036   0.00036   0.00000
  34        3PZ         0.00005   0.00036   0.00036   0.00036   0.00000
                          11        12        13        14        15
  11        6D+1        0.00075
  12        6D-1        0.00000   0.00075
  13        6D+2        0.00000   0.00000   0.00000
  14        6D-2        0.00000   0.00000   0.00000   0.00075
  15 2   H  1S          0.00201   0.00201   0.00000   0.00201   0.36569
  16        2S          0.00018   0.00018   0.00000   0.00018   0.10062
  17        3PX        -0.00001  -0.00005   0.00000  -0.00001   0.00000
  18        3PY        -0.00005  -0.00001  -0.00000  -0.00001   0.00000
  19        3PZ        -0.00001  -0.00001  -0.00000  -0.00005   0.00000
  20 3   H  1S          0.00201   0.00201   0.00000   0.00201  -0.00181
  21        2S          0.00018   0.00018   0.00000   0.00018  -0.00747
  22        3PX        -0.00001  -0.00005   0.00000  -0.00001   0.00042
  23        3PY        -0.00005  -0.00001  -0.00000  -0.00001   0.00042
  24        3PZ        -0.00001  -0.00001  -0.00000  -0.00005   0.00000
  25 4   H  1S          0.00201   0.00201   0.00000   0.00201  -0.00181
  26        2S          0.00018   0.00018   0.00000   0.00018  -0.00747
  27        3PX        -0.00001  -0.00005  -0.00000  -0.00001   0.00042
  28        3PY        -0.00005  -0.00001   0.00000  -0.00001   0.00000
  29        3PZ        -0.00001  -0.00001   0.00000  -0.00005   0.00042
  30 5   H  1S          0.00201   0.00201  -0.00000   0.00201  -0.00181
  31        2S          0.00018   0.00018   0.00000   0.00018  -0.00747
  32        3PX        -0.00001  -0.00005  -0.00000  -0.00001  -0.00000
  33        3PY        -0.00005  -0.00001   0.00000  -0.00001   0.00042
  34        3PZ        -0.00001  -0.00001  -0.00000  -0.00005   0.00042
                          16        17        18        19        20
  16        2S          0.06328
  17        3PX         0.00000   0.00086
  18        3PY         0.00000   0.00000   0.00086
  19        3PZ         0.00000   0.00000   0.00000   0.00086
  20 3   H  1S         -0.00747   0.00042   0.00042  -0.00000   0.36569
  21        2S         -0.00915   0.00021   0.00021  -0.00000   0.10062
  22        3PX         0.00021   0.00002   0.00006   0.00000   0.00000
  23        3PY         0.00021   0.00006   0.00002   0.00000   0.00000
  24        3PZ         0.00000  -0.00000  -0.00000   0.00000   0.00000
  25 4   H  1S         -0.00747   0.00042  -0.00000   0.00042  -0.00181
  26        2S         -0.00915   0.00021  -0.00000   0.00021  -0.00747
  27        3PX         0.00021   0.00002   0.00000   0.00006  -0.00000
  28        3PY         0.00000  -0.00000   0.00000  -0.00000   0.00042
  29        3PZ         0.00021   0.00006   0.00000   0.00002   0.00042
  30 5   H  1S         -0.00747   0.00000   0.00042   0.00042  -0.00181
  31        2S         -0.00915   0.00000   0.00021   0.00021  -0.00747
  32        3PX        -0.00000   0.00000   0.00000   0.00000   0.00042
  33        3PY         0.00021  -0.00000   0.00002   0.00006  -0.00000
  34        3PZ         0.00021  -0.00000   0.00006   0.00002   0.00042
                          21        22        23        24        25
  21        2S          0.06328
  22        3PX         0.00000   0.00086
  23        3PY         0.00000   0.00000   0.00086
  24        3PZ         0.00000  -0.00000  -0.00000   0.00086
  25 4   H  1S         -0.00747   0.00000   0.00042   0.00042   0.36569
  26        2S         -0.00915   0.00000   0.00021   0.00021   0.10062
  27        3PX        -0.00000   0.00000   0.00000   0.00000   0.00000
  28        3PY         0.00021  -0.00000   0.00002   0.00006   0.00000
  29        3PZ         0.00021  -0.00000   0.00006   0.00002   0.00000
  30 5   H  1S         -0.00747   0.00042  -0.00000   0.00042  -0.00181
  31        2S         -0.00915   0.00021  -0.00000   0.00021  -0.00747
  32        3PX         0.00021   0.00002  -0.00000   0.00006   0.00042
  33        3PY        -0.00000   0.00000   0.00000  -0.00000   0.00042
  34        3PZ         0.00021   0.00006   0.00000   0.00002   0.00000
                          26        27        28        29        30
  26        2S          0.06328
  27        3PX         0.00000   0.00086
  28        3PY         0.00000  -0.00000   0.00086
  29        3PZ         0.00000   0.00000  -0.00000   0.00086
  30 5   H  1S         -0.00747   0.00042   0.00042   0.00000   0.36569
  31        2S         -0.00915   0.00021   0.00021   0.00000   0.10062
  32        3PX         0.00021   0.00002   0.00006  -0.00000   0.00000
  33        3PY         0.00021   0.00006   0.00002   0.00000   0.00000
  34        3PZ         0.00000   0.00000  -0.00000   0.00000   0.00000
                          31        32        33        34
  31        2S          0.06328
  32        3PX         0.00000   0.00086
  33        3PY         0.00000  -0.00000   0.00086
  34        3PZ         0.00000  -0.00000   0.00000   0.00086
     Gross orbital populations:
                           1
   1 1   C  1S          1.99765
   2        2S          0.66250
   3        3S          0.40298
   4        4PX         0.70824
   5        4PY         0.70824
   6        4PZ         0.70824
   7        5PX         0.30014
   8        5PY         0.30014
   9        5PZ         0.30014
  10        6D 0        0.00000
  11        6D+1        0.00922
  12        6D-1        0.00922
  13        6D+2        0.00000
  14        6D-2        0.00922
  15 2   H  1S          0.73866
  16        2S          0.20260
  17        3PX         0.00992
  18        3PY         0.00992
  19        3PZ         0.00992
  20 3   H  1S          0.73866
  21        2S          0.20260
  22        3PX         0.00992
  23        3PY         0.00992
  24        3PZ         0.00992
  25 4   H  1S          0.73866
  26        2S          0.20260
  27        3PX         0.00992
  28        3PY         0.00992
  29        3PZ         0.00992
  30 5   H  1S          0.73866
  31        2S          0.20260
  32        3PX         0.00992
  33        3PY         0.00992
  34        3PZ         0.00992
          Condensed to atoms (all electrons):
              1          2          3          4          5
     1  C    4.484150   0.407947   0.407947   0.407947   0.407947
     2  H    0.407947   0.632776  -0.023236  -0.023236  -0.023236
     3  H    0.407947  -0.023236   0.632776  -0.023236  -0.023236
     4  H    0.407947  -0.023236  -0.023236   0.632776  -0.023236
     5  H    0.407947  -0.023236  -0.023236  -0.023236   0.632776
 Mulliken atomic charges:
              1
     1  C   -0.115937
     2  H    0.028984
     3  H    0.028984
     4  H    0.028984
     5  H    0.028984
 Sum of Mulliken atomic charges =   0.00000
 Mulliken charges with hydrogens summed into heavy atoms:
              1
     1  C    0.000000
 Sum of Mulliken charges with hydrogens summed into heavy atoms =   0.00000
 Electronic spatial extent (au):  <R**2>=             35.4839
 Charge=              0.0000 electrons
 Dipole moment (field-independent basis, Debye):
    X=              0.0000    Y=             -0.0000    Z=             -0.0000  Tot=              0.0000
 Quadrupole moment (field-independent basis, Debye-Ang):
   XX=             -8.3001   YY=             -8.3001   ZZ=             -8.3001
   XY=             -0.0000   XZ=             -0.0000   YZ=             -0.0000
 Traceless Quadrupole moment (field-independent basis, Debye-Ang):
   XX=              0.0000   YY=             -0.0000   ZZ=              0.0000
   XY=             -0.0000   XZ=             -0.0000   YZ=             -0.0000
 Octapole moment (field-independent basis, Debye-Ang**2):
  XXX=              0.0000  YYY=              0.0000  ZZZ=              0.0000  XYY=              0.0000
  XXY=              0.0000  XXZ=              0.0000  XZZ=              0.0000  YZZ=             -0.0000
  YYZ=             -0.0000  XYZ=              0.5625
 Hexadecapole moment (field-independent basis, Debye-Ang**3):
 XXXX=            -16.1219 YYYY=            -16.1219 ZZZZ=            -16.1219 XXXY=              0.0000
 XXXZ=             -0.0000 YYYX=             -0.0000 YYYZ=             -0.0000 ZZZX=             -0.0000
 ZZZY=             -0.0000 XXYY=             -4.9300 XXZZ=             -4.9300 YYZZ=             -4.9300
 XXYZ=             -0.0000 YYXZ=             -0.0000 ZZXY=             -0.0000
 N-N= 1.343538919541D+01 E-N=-1.199269035626D+02  KE= 4.011293032899D+01
 Symmetry A    KE= 3.441775388204D+01
 Symmetry B1   KE= 1.898392148984D+00
 Symmetry B2   KE= 1.898392148984D+00
 Symmetry B3   KE= 1.898392148984D+00
 Orbital energies and kinetic energies (alpha):
                                 1                 2
   1         (A1)--O         -10.170703         15.960434
   2         (A1)--O          -0.693348          1.248443
   3         (T2)--O          -0.390088          0.949196
   4         (T2)--O          -0.390088          0.949196
   5         (T2)--O          -0.390088          0.949196
   6         (A1)--V           0.074720          0.710473
   7         (T2)--V           0.145070          0.699035
   8         (T2)--V           0.145070          0.699035
   9         (T2)--V           0.145070          0.699035
  10         (T2)--V           0.413199          1.114875
  11         (T2)--V           0.413199          1.114875
  12         (T2)--V           0.413199          1.114875
  13         (T2)--V           0.654673          2.062849
  14         (T2)--V           0.654673          2.062849
  15         (T2)--V           0.654673          2.062849
  16         (A1)--V           0.688327          2.173925
  17         (E)--V            0.901841          1.628675
  18         (E)--V            0.901841          1.628675
  19         (A1)--V           1.042642          1.862275
  20         (T1)--V           1.422066          2.037092
  21         (T1)--V           1.422066          2.037092
  22         (T1)--V           1.422066          2.037092
  23         (T2)--V           1.619541          2.439098
  24         (T2)--V           1.619541          2.439098
  25         (T2)--V           1.619541          2.439098
  26         (T2)--V           1.929458          2.659394
  27         (T2)--V           1.929458          2.659394
  28         (T2)--V           1.929458          2.659394
  29         (E)--V            2.248813          2.989516
  30         (E)--V            2.248813          2.989516
  31         (A1)--V           2.418661          4.012557
  32         (T2)--V           2.445900          4.326560
  33         (T2)--V           2.445900          4.326560
  34         (T2)--V           2.445900          4.326560
 Total kinetic energy from orbitals= 4.011293032899D+01
 No NMR shielding tensors so no spin-rotation constants.
 Leave Link  601 at Sun Aug 18 00:30:28 2024, MaxMem=   13107200 cpu:       0.1
 (Enter /programs/64bit/g09/g09-gfortran/bin/l701.exe)
 Compute integral first derivatives.
 ... and contract with generalized density number  0.
 Leave Link  701 at Sun Aug 18 00:30:28 2024, MaxMem=   13107200 cpu:       0.1
 (Enter /programs/64bit/g09/g09-gfortran/bin/l702.exe)
 L702 exits ... SP integral derivatives will be done elsewhere.
 Leave Link  702 at Sun Aug 18 00:30:28 2024, MaxMem=   13107200 cpu:       0.0
 (Enter /programs/64bit/g09/g09-gfortran/bin/l703.exe)
 Compute integral first derivatives, UseDBF=F ICtDFT=           0.
 Integral derivatives from FoFDir, PRISM(SPDF).
 Calling FoFJK, ICntrl=      2127 FMM=F ISym2X=1 I1Cent= 0 IOpClX= 0 NMat=1 NMatS=1 NMatT=0.
 FoFCou: FMM=F IPFlag=           0 FMFlag=      100000 FMFlg1=         800
         NFxFlg=           0 DoJE=F BraDBF=F KetDBF=F FulRan=T
         Omega=  0.000000  0.000000  1.000000  0.000000  0.000000 ICntrl=    2127 IOpCl=  0
         NMat0=    1 NMatS0=    1 NMatT0=    0 NMatD0=    1 NMtDS0=    0 NMtDT0=    0
         I1Cent=           0 NGrid=           0.
 Petite list used in FoFCou.
 Leave Link  703 at Sun Aug 18 00:30:29 2024, MaxMem=   13107200 cpu:       0.7
 (Enter /programs/64bit/g09/g09-gfortran/bin/l716.exe)
 Dipole        = 0.00000000D+00-4.44089210D-16-2.22044605D-16
 ***** Axes restored to original set *****
 -------------------------------------------------------------------
 Center     Atomic                   Forces (Hartrees/Bohr)
 Number     Number              X              Y              Z
 -------------------------------------------------------------------
      1        6          -0.000000000    0.000000000   -0.000000000
      2        1          -0.000000000   -0.000000000    0.006741465
      3        1           0.006355914    0.000000000   -0.002247155
      4        1          -0.003177957   -0.005504383   -0.002247155
      5        1          -0.003177957    0.005504383   -0.002247155
 -------------------------------------------------------------------
 Cartesian Forces:  Max     0.006741465 RMS     0.003481278
 Leave Link  716 at Sun Aug 18 00:30:29 2024, MaxMem=   13107200 cpu:       0.0
 (Enter /programs/64bit/g09/g09-gfortran/bin/l103.exe)

 GradGradGradGradGradGradGradGradGradGradGradGradGradGradGradGradGradGrad
 Berny optimization.
 Internal  Forces:  Max     0.006741465 RMS     0.003603465
 Search for a local minimum.
 Step number   1 out of a maximum of   24
 All quantities printed in internal units (Hartrees-Bohrs-Radians)
 RMS Force = .36035D-02 SwitMx=.10000D-02 MixMth= 1
 Mixed Optimization -- RFO/linear search
 Second derivative matrix not updated -- first step.
 The second derivative matrix:
                          R1        R2        R3        R4        A1
           R1           0.34813
           R2           0.00000   0.34813
           R3           0.00000   0.00000   0.34813
           R4           0.00000   0.00000   0.00000   0.34813
           A1           0.00000   0.00000   0.00000   0.00000   0.16000
           A2           0.00000   0.00000   0.00000   0.00000   0.00000
           A3           0.00000   0.00000   0.00000   0.00000   0.00000
           A4           0.00000   0.00000   0.00000   0.00000   0.00000
           A5           0.00000   0.00000   0.00000   0.00000   0.00000
           A6           0.00000   0.00000   0.00000   0.00000   0.00000
           D1           0.00000   0.00000   0.00000   0.00000   0.00000
           D2           0.00000   0.00000   0.00000   0.00000   0.00000
           D3           0.00000   0.00000   0.00000   0.00000   0.00000
           D4           0.00000   0.00000   0.00000   0.00000   0.00000
                          A2        A3        A4        A5        A6
           A2           0.16000
           A3           0.00000   0.16000
           A4           0.00000   0.00000   0.16000
           A5           0.00000   0.00000   0.00000   0.16000
           A6           0.00000   0.00000   0.00000   0.00000   0.16000
           D1           0.00000   0.00000   0.00000   0.00000   0.00000
           D2           0.00000   0.00000   0.00000   0.00000   0.00000
           D3           0.00000   0.00000   0.00000   0.00000   0.00000
           D4           0.00000   0.00000   0.00000   0.00000   0.00000
                          D1        D2        D3        D4
           D1           0.00235
           D2           0.00000   0.00235
           D3           0.00000   0.00000   0.00235
           D4           0.00000   0.00000   0.00000   0.00235
     Eigenvalues ---    0.05086   0.05718   0.08643   0.16000   0.16000
     Eigenvalues ---    0.34813   0.34813   0.34813   0.348131000.00000
     Eigenvalues --- 1000.000001000.000001000.000001000.00000
 RFO step:  Lambda=-5.21411578D-04 EMin= 5.08565158D-02
 Linear search not attempted -- first point.
 Iteration  1 RMS(Cart)=  0.01033554 RMS(Int)=  0.00000000
 Iteration  2 RMS(Cart)=  0.00000000 RMS(Int)=  0.00000000
 ClnCor:  largest displacement from symmetrization is 1.49D-14 for atom     2.
 Variable       Old X    -DE/DX   Delta X   Delta X   Delta X     New X
                                 (Linear)    (Quad)   (Total)
    R1        2.05980   0.00674   0.00000   0.01934   0.01934   2.07914
    R2        2.05980   0.00674   0.00000   0.01934   0.01934   2.07914
    R3        2.05980   0.00674   0.00000   0.01934   0.01934   2.07914
    R4        2.05980   0.00674   0.00000   0.01934   0.01934   2.07914
    A1        1.91063   0.00000   0.00000   0.00000   0.00000   1.91063
    A2        1.91063  -0.00000   0.00000  -0.00000  -0.00000   1.91063
    A3        1.91063  -0.00000   0.00000  -0.00000   0.00000   1.91063
    A4        1.91063  -0.00000   0.00000   0.00000  -0.00000   1.91063
    A5        1.91063  -0.00000   0.00000  -0.00000   0.00000   1.91063
    A6        1.91063   0.00000   0.00000   0.00000   0.00000   1.91063
    D1       -2.09440  -0.00000   0.00000  -0.00000  -0.00000  -2.09440
    D2        2.09440   0.00000   0.00000   0.00000   0.00000   2.09440
    D3       -2.09440   0.00000   0.00000   0.00000   0.00000  -2.09440
    D4        2.09440   0.00000   0.00000   0.00000  -0.00000   2.09440
         Item               Value     Threshold  Converged?
 Maximum Force            0.006741     0.000450     NO 
 RMS     Force            0.003603     0.000300     NO 
 Maximum Displacement     0.019336     0.001800     NO 
 RMS     Displacement     0.010336     0.001200     NO 
 Predicted change in Energy=-2.610963D-04
 GradGradGradGradGradGradGradGradGradGradGradGradGradGradGradGradGradGrad

 Leave Link  103 at Sun Aug 18 00:30:29 2024, MaxMem=   13107200 cpu:       0.0
 (Enter /programs/64bit/g09/g09-gfortran/bin/l202.exe)
                          Input orientation:                          
 ---------------------------------------------------------------------
 Center     Atomic      Atomic             Coordinates (Angstroms)
 Number     Number       Type             X           Y           Z
 ---------------------------------------------------------------------
      1          6           0        0.000000    0.000000   -0.000000
      2          1           0        0.000000    0.000000    1.100232
      3          1           0        1.037309   -0.000000   -0.366744
      4          1           0       -0.518654   -0.898336   -0.366744
      5          1           0       -0.518654    0.898336   -0.366744
 ---------------------------------------------------------------------
                    Distance matrix (angstroms):
                    1          2          3          4          5
     1  C    0.000000
     2  H    1.100232   0.000000
     3  H    1.100232   1.796672   0.000000
     4  H    1.100232   1.796672   1.796672   0.000000
     5  H    1.100232   1.796672   1.796672   1.796672   0.000000
 Stoichiometry    CH4
 Framework group  TD[O(C),4C3(H)]
 Deg. of freedom     1
 Prev. full point group           TD      NOp  24
 Prev. largest Abelian subgroup   D2      NOp   4
       concise Abelian subgroup   D2      NOp   4
                   Standard orientation:
 ---------------------------------------------------------------------
 Center     Atomic                     Coordinates (Angstroms)
 Number     Number                        X           Y           Z
 ---------------------------------------------------------------------
      1          6                    0.000000    0.000000    0.000000
      2          1                    0.394452    0.670569    0.777982
      3          1                   -0.503377   -0.855742    0.474161
      4          1                   -0.719844    0.548061   -0.626071
      5          1                    0.828769   -0.362888   -0.626071
 ---------------------------------------------------------------------
 TstSym:  Max error for IOp=  3 IAt=    3 Err= 9.31D-01
 TstSym:  IOp= 25 I=    6 IP=    4 Err= 9.31D-01
  CI=  0.000000000000D+00  0.000000000000D+00  0.000000000000D+00
   T=  9.512453494545D-01 -1.617117094073D+00 -8.960342657328D-01
 CIP= -1.360307782508D+00  1.035684435030D+00 -1.183103251645D+00
 Unable to use previous symmetry information.  Redetermining point group.
 No symmetry information on checkpoint file.  Reassigning symmetry.
 Symm:  InNGrp=TD   InAxis=0.
 Stoichiometry    CH4
 Framework group  TD[O(C),4C3(H)]
 Deg. of freedom     1
 Full point group                 TD      NOp  24
 Largest Abelian subgroup         D2      NOp   4
 Largest concise Abelian subgroup D2      NOp   4
                         Standard orientation:                         
 ---------------------------------------------------------------------
 Center     Atomic      Atomic             Coordinates (Angstroms)
 Number     Number       Type             X           Y           Z
 ---------------------------------------------------------------------
      1          6           0        0.000000    0.000000    0.000000
      2          1           0        0.635219    0.635219    0.635219
      3          1           0       -0.635219   -0.635219    0.635219
      4          1           0       -0.635219    0.635219   -0.635219
      5          1           0        0.635219   -0.635219   -0.635219
 ---------------------------------------------------------------------
 Rotational constants (GHZ):    155.3440516    155.3440516    155.3440516
 Leave Link  202 at Sun Aug 18 00:30:29 2024, MaxMem=   13107200 cpu:       0.0
 (Enter /programs/64bit/g09/g09-gfortran/bin/l301.exe)
 Standard basis: CC-pVDZ (5D, 7F)
 Ernie: Thresh=  0.10000D-02 Tol=  0.10000D-05 Strict=F.
 Ernie:  2 primitive shells out of 42 were deleted.
 There are    10 symmetry adapted basis functions of A   symmetry.
 There are     8 symmetry adapted basis functions of B1  symmetry.
 There are     8 symmetry adapted basis functions of B2  symmetry.
 There are     8 symmetry adapted basis functions of B3  symmetry.
 Integral buffers will be    131072 words long.
 Raffenetti 2 integral format.
 Two-electron integral symmetry is turned on.
    34 basis functions,    61 primitive gaussians,    35 cartesian basis functions
     5 alpha electrons        5 beta electrons
       nuclear repulsion energy        13.3104397294 Hartrees.
 IExCor=  402 DFT=T Ex+Corr=B3LYP ExCW=0 ScaHFX=  0.200000
 ScaDFX=  0.800000  0.720000  1.000000  0.810000 ScalE2=  1.000000  1.000000
 IRadAn=      0 IRanWt=     -1 IRanGd=            0 ICorTp=0
 NAtoms=    5 NActive=    5 NUniq=    2 SFac= 3.00D+00 NAtFMM=   80 NAOKFM=F Big=F
 Leave Link  301 at Sun Aug 18 00:30:30 2024, MaxMem=   13107200 cpu:       0.1
 (Enter /programs/64bit/g09/g09-gfortran/bin/l302.exe)
 NPDir=0 NMtPBC=     1 NCelOv=     1 NCel=       1 NClECP=     1 NCelD=      1
         NCelK=      1 NCelE2=     1 NClLst=     1 CellRange=     0.0.
 One-electron integrals computed using PRISM.
 One-electron integral symmetry used in STVInt
 NBasis=    34 RedAO= T  NBF=    10     8     8     8
 NBsUse=    34 1.00D-06 NBFU=    10     8     8     8
 Precomputing XC quadrature grid using
 IXCGrd= 2 IRadAn=           0 IRanWt=          -1 IRanGd=           0 AccXCQ= 1.00D-10.
 NRdTot=     308 NPtTot=       38528 NUsed=       40762 NTot=       40794
 NSgBfM=    35    35    35    35    35 NAtAll=     5     5.
 Leave Link  302 at Sun Aug 18 00:30:30 2024, MaxMem=   13107200 cpu:       0.2
 (Enter /programs/64bit/g09/g09-gfortran/bin/l303.exe)
 DipDrv:  MaxL=1.
 Leave Link  303 at Sun Aug 18 00:30:30 2024, MaxMem=   13107200 cpu:       0.0
 (Enter /programs/64bit/g09/g09-gfortran/bin/l401.exe)
 Initial guess read from the read-write file.
 B after Tr=     0.000000    0.000000    0.000000
         Rot=    1.000000    0.000000    0.000000    0.000000 Ang=   0.00 deg.
 Guess basis will be translated and rotated to current coordinates.
 Initial guess orbital symmetries:
       Occupied  (A1) (A1) (T2) (T2) (T2)
       Virtual   (A1) (T2) (T2) (T2) (T2) (T2) (T2) (T2) (T2) (T2)
                 (A1) (E) (E) (A1) (T1) (T1) (T1) (T2) (T2) (T2)
                 (T2) (T2) (T2) (E) (E) (A1) (T2) (T2) (T2)
 The electronic state of the initial guess is 1-A1.
 Leave Link  401 at Sun Aug 18 00:30:30 2024, MaxMem=   13107200 cpu:       0.2
 (Enter /programs/64bit/g09/g09-gfortran/bin/l502.exe)
 Closed shell SCF:
 Requested convergence on RMS density matrix=1.00D-08 within 128 cycles.
 Requested convergence on MAX density matrix=1.00D-06.
 Requested convergence on             energy=1.00D-06.
 No special actions if energy rises.
 Using DIIS extrapolation, IDIIS=  1040.
 Integral symmetry usage will be decided dynamically.
        40704 words used for storage of precomputed grid.
 Keep R1 ints in memory in canonical form, NReq=1121336.
[...]

 -------------------
 - Thermochemistry -
 -------------------
 Temperature   298.150 Kelvin.  Pressure   1.00000 Atm.
 Atom     1 has atomic number  6 and mass  12.00000
 Atom     2 has atomic number  1 and mass   1.00783
 Atom     3 has atomic number  1 and mass   1.00783
 Atom     4 has atomic number  1 and mass   1.00783
 Atom     5 has atomic number  1 and mass   1.00783
 Molecular mass:    16.03130 amu.
 Principal axes and moments of inertia in atomic units:
                           1         2         3
     Eigenvalues --    11.61770  11.61770  11.61770
           X            0.16864   0.78762   0.59263
           Y            0.43600  -0.59883   0.67179
           Z            0.88400   0.14510  -0.44439
 This molecule is a spherical top.
 Rotational symmetry number 12.
 Rotational temperatures (Kelvin)      7.45533     7.45533     7.45533
 Rotational constants (GHZ):         155.34405   155.34405   155.34405
 Zero-point vibrational energy     116410.2 (Joules/Mol)
                                   27.82269 (Kcal/Mol)
 Vibrational temperatures:   1886.17  1886.17  1886.17  2204.16  2204.16
          (Kelvin)           4352.27  4527.57  4527.57  4527.57
 
 Zero-point correction=                           0.044338 (Hartree/Particle)
 Thermal correction to Energy=                    0.047212
 Thermal correction to Enthalpy=                  0.048156
 Thermal correction to Gibbs Free Energy=         0.026995
 Sum of electronic and zero-point Energies=            -40.472015
 Sum of electronic and thermal Energies=               -40.469142
 Sum of electronic and thermal Enthalpies=             -40.468198
 Sum of electronic and thermal Free Energies=          -40.489358
 
                     E (Thermal)             CV                S
                      KCal/Mol        Cal/Mol-Kelvin    Cal/Mol-Kelvin
 Total                   29.626              6.524             44.536
 Electronic               0.000              0.000              0.000
 Translational            0.889              2.981             34.261
 Rotational               0.889              2.981             10.175
 Vibrational             27.848              0.563              0.099
                       Q            Log10(Q)             Ln(Q)
 Total Bot       0.382798D-12        -12.417030        -28.591268
 Total V=0       0.948685D+08          7.977122         18.368002
 Vib (Bot)       0.406178D-20        -20.391284        -46.952666
 Vib (V=0)       0.100663D+01          0.002868          0.006604
 Electronic      0.100000D+01          0.000000          0.000000
 Translational   0.252295D+07          6.401908         14.740939
 Rotational      0.373547D+02          1.572346          3.620460
 
                                        methane with imposed symmetry Td and cc-p
 VDZ basis set
                                                             IR Spectrum
 
      3   3                                                            1        1                                                    
      1   0                                                            5        3                                                    
      4   2                                                            3        1                                                    
      7   5                                                            2        1                                                    
 
      X                                                                         X                                                    
      X                                                                         X                                                    
      X                                                                         X                                                    
      X                                                                         X                                                    
      X                                                                         X                                                    
      X                                                                         X                                                    
      X                                                                         X                                                    
      X                                                                         X                                                    
      X                                                                         X                                                    
      X                                                                         X                                                    
      X                                                                         X                                                    
      X                                                                                                                              
      X                                                                                                                              
      X                                                                                                                              
      X                                                                                                                              
      X                                                                                                                              
      X                                                                                                                              
      X                                                                                                                              
      X                                                                                                                              
      X                                                                                                                              
 
 ***** Axes restored to original set *****
 -------------------------------------------------------------------
 Center     Atomic                   Forces (Hartrees/Bohr)
 Number     Number              X              Y              Z
 -------------------------------------------------------------------
      1        6          -0.000000000    0.000000000    0.000000000
      2        1           0.000000000    0.000000000   -0.000203773
      3        1          -0.000192119   -0.000000000    0.000067924
      4        1           0.000096060    0.000166380    0.000067924
      5        1           0.000096060   -0.000166380    0.000067924
 -------------------------------------------------------------------
 Cartesian Forces:  Max     0.000203773 RMS     0.000105228
 Force constants in Cartesian coordinates: 
                1             2             3             4             5 
      1  0.541710D+00
      2  0.000000D+00  0.541710D+00
      3  0.000000D+00  0.000000D+00  0.541710D+00
      4 -0.432527D-01  0.000000D+00  0.000000D+00  0.430142D-01
      5  0.000000D+00 -0.432527D-01  0.000000D+00  0.000000D+00  0.430142D-01
      6  0.000000D+00  0.000000D+00 -0.319777D+00  0.000000D+00  0.000000D+00
      7 -0.289052D+00  0.000000D+00  0.869032D-01  0.200595D-02  0.000000D+00
      8  0.000000D+00 -0.432527D-01  0.000000D+00  0.000000D+00 -0.184693D-02
      9  0.869032D-01  0.000000D+00 -0.739776D-01  0.302099D-01  0.000000D+00
     10 -0.104703D+00 -0.106434D+00 -0.434516D-01 -0.883712D-03  0.166835D-02
     11 -0.106434D+00 -0.227602D+00 -0.752604D-01  0.166835D-02  0.104273D-02
     12 -0.434516D-01 -0.752604D-01 -0.739776D-01 -0.151049D-01 -0.261625D-01
     13 -0.104703D+00  0.106434D+00 -0.434516D-01 -0.883712D-03 -0.166835D-02
     14  0.106434D+00 -0.227602D+00  0.752604D-01 -0.166835D-02  0.104273D-02
     15 -0.434516D-01  0.752604D-01 -0.739776D-01 -0.151049D-01  0.261625D-01
                6             7             8             9            10 
      6  0.344432D+00
      7 -0.129126D-02  0.310941D+00
      8  0.000000D+00  0.000000D+00  0.430142D-01
      9 -0.821831D-02 -0.947265D-01  0.000000D+00  0.765051D-01
     10  0.645631D-03 -0.119475D-01 -0.241101D-01 -0.111933D-01  0.109996D+00
     11  0.111827D-02  0.161043D-02  0.104273D-02  0.120018D-02  0.116016D+00
     12 -0.821831D-02  0.455726D-02  0.102938D-01  0.284545D-02  0.473632D-01
     13  0.645631D-03 -0.119475D-01  0.241101D-01 -0.111933D-01  0.753783D-02
     14 -0.111827D-02 -0.161043D-02  0.104273D-02 -0.120018D-02  0.128603D-01
     15 -0.821832D-02  0.455726D-02 -0.102938D-01  0.284545D-02  0.663603D-02
               11            12            13            14            15 
     11  0.243959D+00
     12  0.820355D-01  0.765051D-01
     13 -0.128603D-01  0.663603D-02  0.109996D+00
     14 -0.184426D-01  0.909359D-02 -0.116016D+00  0.243959D+00
     15 -0.909359D-02  0.284545D-02  0.473632D-01 -0.820355D-01  0.765051D-01
 Force constants in internal coordinates: 
                1             2             3             4             5 
      1  0.344432D+00
      2  0.152202D-02  0.344432D+00
      3  0.152202D-02  0.152202D-02  0.344432D+00
      4  0.152202D-02  0.152202D-02  0.152202D-02  0.344432D+00
      5  0.187488D-02  0.187488D-02 -0.117725D-02 -0.257250D-02  0.190683D-01
      6  0.293838D-02 -0.758292D-03  0.327013D-02 -0.545022D-02 -0.850800D-02
      7  0.574216D-02 -0.460852D-02 -0.510141D-02  0.396776D-02 -0.126550D-01
      8 -0.758291D-03  0.293838D-02  0.327013D-02 -0.545022D-02 -0.850800D-02
      9 -0.460852D-02  0.574216D-02 -0.510141D-02  0.396776D-02 -0.126550D-01
     10 -0.518861D-02 -0.518861D-02  0.483980D-02  0.553742D-02  0.232577D-01
     11 -0.363127D-02 -0.363127D-02 -0.256325D-02  0.982579D-02 -0.129337D-01
     12  0.299046D-02  0.299046D-02 -0.768975D-02  0.170883D-02  0.785467D-02
     13 -0.393775D-02  0.692820D-02 -0.384487D-02  0.854417D-03  0.392734D-02
     14 -0.692820D-02  0.393775D-02  0.384487D-02 -0.854417D-03 -0.392734D-02
                6             7             8             9            10 
      6  0.359021D-01
      7 -0.218453D-01  0.701417D-01
      8 -0.208574D-02  0.241540D-01  0.359021D-01
      9  0.241540D-01 -0.340893D-01 -0.218453D-01  0.701417D-01
     10 -0.276170D-01 -0.257060D-01 -0.276170D-01 -0.257060D-01  0.833882D-01
     11 -0.102880D-01  0.140854D-01 -0.102880D-01  0.140854D-01  0.533897D-02
     12 -0.900638D-02  0.657829D-02 -0.900638D-02  0.657829D-02 -0.299849D-02
     13 -0.136815D-01 -0.456271D-03  0.467515D-02  0.703456D-02 -0.149924D-02
     14 -0.467515D-02 -0.703456D-02  0.136815D-01  0.456271D-03  0.149924D-02
               11            12            13            14 
     11  0.284407D-01
     12  0.141055D-02  0.176767D-01
     13  0.705273D-03  0.883835D-02  0.179539D-01
     14 -0.705273D-03 -0.883835D-02  0.911554D-02  0.179539D-01
 Leave Link  716 at Sun Aug 18 00:30:58 2024, MaxMem=   13107200 cpu:       0.0
 (Enter /programs/64bit/g09/g09-gfortran/bin/l103.exe)

 GradGradGradGradGradGradGradGradGradGradGradGradGradGradGradGradGradGrad
 Berny optimization.
 Internal  Forces:  Max     0.000203773 RMS     0.000108921
 Search for a local minimum.
 Step number   1 out of a maximum of    2
 All quantities printed in internal units (Hartrees-Bohrs-Radians)
 Second derivative matrix not updated -- analytic derivatives used.
 The second derivative matrix:
                          R1        R2        R3        R4        A1
           R1           0.34443
           R2           0.00152   0.34443
           R3           0.00152   0.00152   0.34443
           R4           0.00152   0.00152   0.00152   0.34443
           A1           0.00187   0.00187  -0.00118  -0.00257   0.01907
           A2           0.00294  -0.00076   0.00327  -0.00545  -0.00851
           A3           0.00574  -0.00461  -0.00510   0.00397  -0.01266
           A4          -0.00076   0.00294   0.00327  -0.00545  -0.00851
           A5          -0.00461   0.00574  -0.00510   0.00397  -0.01266
           A6          -0.00519  -0.00519   0.00484   0.00554   0.02326
           D1          -0.00363  -0.00363  -0.00256   0.00983  -0.01293
           D2           0.00299   0.00299  -0.00769   0.00171   0.00785
           D3          -0.00394   0.00693  -0.00384   0.00085   0.00393
           D4          -0.00693   0.00394   0.00384  -0.00085  -0.00393
                          A2        A3        A4        A5        A6
           A2           0.03590
           A3          -0.02185   0.07014
           A4          -0.00209   0.02415   0.03590
           A5           0.02415  -0.03409  -0.02185   0.07014
           A6          -0.02762  -0.02571  -0.02762  -0.02571   0.08339
           D1          -0.01029   0.01409  -0.01029   0.01409   0.00534
           D2          -0.00901   0.00658  -0.00901   0.00658  -0.00300
           D3          -0.01368  -0.00046   0.00468   0.00703  -0.00150
           D4          -0.00468  -0.00703   0.01368   0.00046   0.00150
                          D1        D2        D3        D4
           D1           0.02844
           D2           0.00141   0.01768
           D3           0.00071   0.00884   0.01795
           D4          -0.00071  -0.00884   0.00912   0.01795
     Eigenvalues ---    0.03627   0.04085   0.06202   0.12702   0.12758
     Eigenvalues ---    0.34376   0.34377   0.34403   0.349001000.00000
     Eigenvalues --- 1000.000001000.000001000.000001000.00000
 Angle between quadratic step and forces=   0.00 degrees.
 Linear search not attempted -- first point.
 Iteration  1 RMS(Cart)=  0.00031210 RMS(Int)=  0.00000000
 Iteration  2 RMS(Cart)=  0.00000000 RMS(Int)=  0.00000000
 ClnCor:  largest displacement from symmetrization is 3.09D-12 for atom     3.
 Variable       Old X    -DE/DX   Delta X   Delta X   Delta X     New X
                                 (Linear)    (Quad)   (Total)
    R1        2.07914  -0.00020   0.00000  -0.00058  -0.00058   2.07855
    R2        2.07914  -0.00020   0.00000  -0.00058  -0.00058   2.07855
    R3        2.07914  -0.00020   0.00000  -0.00058  -0.00058   2.07855
    R4        2.07914  -0.00020   0.00000  -0.00058  -0.00058   2.07855
    A1        1.91063   0.00000   0.00000  -0.00000  -0.00000   1.91063
    A2        1.91063  -0.00000   0.00000  -0.00000  -0.00000   1.91063
    A3        1.91063   0.00000   0.00000   0.00000   0.00000   1.91063
    A4        1.91063  -0.00000   0.00000   0.00000   0.00000   1.91063
    A5        1.91063  -0.00000   0.00000  -0.00000  -0.00000   1.91063
    A6        1.91063   0.00000   0.00000  -0.00000  -0.00000   1.91063
    D1       -2.09440  -0.00000   0.00000   0.00000   0.00000  -2.09440
    D2        2.09440   0.00000   0.00000  -0.00000   0.00000   2.09440
    D3       -2.09440  -0.00000   0.00000   0.00000   0.00000  -2.09440
    D4        2.09440  -0.00000   0.00000   0.00000   0.00000   2.09440
         Item               Value     Threshold  Converged?
 Maximum Force            0.000204     0.000450     YES
 RMS     Force            0.000109     0.000300     YES
 Maximum Displacement     0.000584     0.001800     YES
 RMS     Displacement     0.000312     0.001200     YES
 Predicted change in Energy=-2.379580D-07
 Optimization completed.
    -- Stationary point found.
                           ----------------------------
                           !   Optimized Parameters   !
                           ! (Angstroms and Degrees)  !
 --------------------------                            --------------------------
 ! Name  Definition              Value          Derivative Info.                !
 --------------------------------------------------------------------------------
 ! R1    R(1,2)                  1.1002         -DE/DX =   -0.0002              !
 ! R2    R(1,3)                  1.1002         -DE/DX =   -0.0002              !
 ! R3    R(1,4)                  1.1002         -DE/DX =   -0.0002              !
 ! R4    R(1,5)                  1.1002         -DE/DX =   -0.0002              !
 ! A1    A(2,1,3)              109.4712         -DE/DX =    0.0                 !
 ! A2    A(2,1,4)              109.4712         -DE/DX =    0.0                 !
 ! A3    A(2,1,5)              109.4712         -DE/DX =    0.0                 !
 ! A4    A(3,1,4)              109.4712         -DE/DX =    0.0                 !
 ! A5    A(3,1,5)              109.4712         -DE/DX =    0.0                 !
 ! A6    A(4,1,5)              109.4712         -DE/DX =    0.0                 !
 ! D1    D(2,1,4,3)           -120.0            -DE/DX =    0.0                 !
 ! D2    D(2,1,5,3)            120.0            -DE/DX =    0.0                 !
 ! D3    D(2,1,5,4)           -120.0            -DE/DX =    0.0                 !
 ! D4    D(3,1,5,4)            120.0            -DE/DX =    0.0                 !
 --------------------------------------------------------------------------------
 GradGradGradGradGradGradGradGradGradGradGradGradGradGradGradGradGradGrad

 Leave Link  103 at Sun Aug 18 00:30:58 2024, MaxMem=   13107200 cpu:       0.0
 (Enter /programs/64bit/g09/g09-gfortran/bin/l9999.exe)
 1\1\GINC-MOLMOD\Freq\RB3LYP\CC-pVDZ\C1H4\OSPITE\18-Aug-2024\0\\#P Geom
 =AllCheck Guess=TCheck SCRF=Check GenChk RB3LYP/CC-pVDZ Freq\\methane 
 with imposed symmetry Td and cc-pVDZ basis set\\0,1\C,0.,0.,0.\H,0.,0.
 ,1.1002321877\H,1.0373088544,0.,-0.3667440626\H,-0.5186544272,-0.89833
 58195,-0.3667440626\H,-0.5186544272,0.8983358195,-0.3667440626\\Versio
 n=EM64L-G09RevA.02\State=1-A1\HF=-40.5163534\RMSD=8.427e-11\RMSF=1.052
 e-04\ZeroPoint=0.0443383\Thermal=0.0472116\Dipole=0.,0.,0.\DipoleDeriv
 =0.0020738,0.,0.,0.,0.0020738,0.,0.,0.,0.0020738,0.064759,0.,0.,0.,0.0
 64759,0.,0.,0.,-0.1310734,-0.1093142,0.,0.0615442,0.,0.064759,0.,0.061
 5442,0.,0.0429999,0.0212407,-0.0753759,-0.0307721,-0.0753759,-0.065795
 9,-0.0532988,-0.0307721,-0.0532988,0.0429999,0.0212407,0.0753759,-0.03
 07721,0.0753759,-0.0657959,0.0532988,-0.0307721,0.0532988,0.0429999\Po
 lar=13.4165681,0.,13.4165681,0.,0.,13.4165681\PG=TD [O(C1),4C3(H1)]\NI
 mag=0\\0.54170995,0.,0.54170995,0.,0.,0.54170996,-0.04325272,0.,0.,0.0
 4301419,0.,-0.04325272,0.,0.,0.04301419,0.,0.,-0.31977704,0.,0.,0.3444
 3198,-0.28905211,0.,0.08690321,0.00200595,0.,-0.00129126,0.31094112,0.
 ,-0.04325272,0.,0.,-0.00184693,0.,0.,0.04301419,0.08690321,0.,-0.07397
 764,0.03020985,0.,-0.00821831,-0.09472647,0.,0.07650505,-0.10470256,-0
 .10643426,-0.04345160,-0.00088371,0.00166835,0.00064563,-0.01194748,-0
 .02411013,-0.01119329,0.10999592,-0.10643426,-0.22760226,-0.07526039,0
 .00166835,0.00104273,0.00111827,0.00161043,0.00104273,0.00120018,0.116
 01576,0.24395938,-0.04345160,-0.07526039,-0.07397764,-0.01510493,-0.02
 616250,-0.00821831,0.00455726,0.01029377,0.00284545,0.04736324,0.08203
 553,0.07650505,-0.10470256,0.10643426,-0.04345160,-0.00088371,-0.00166
 835,0.00064563,-0.01194748,0.02411013,-0.01119329,0.00753783,-0.012860
 28,0.00663603,0.10999592,0.10643426,-0.22760226,0.07526039,-0.00166835
 ,0.00104273,-0.00111827,-0.00161043,0.00104273,-0.00120018,0.01286028,
 -0.01844258,0.00909359,-0.11601576,0.24395938,-0.04345160,0.07526039,-
 0.07397764,-0.01510493,0.02616250,-0.00821832,0.00455726,-0.01029377,0
 .00284545,0.00663603,-0.00909359,0.00284545,0.04736324,-0.08203553,0.0
 7650505\\0.,0.,0.,0.,0.,0.00020377,0.00019212,0.,-0.00006792,-0.000096
 06,-0.00016638,-0.00006792,-0.00009606,0.00016638,-0.00006792\\\@


 SLITHERY-DITHERY
 FRIEDRICH A. KEKULE
 DREAMT ON A BUS OF THINGS
 FREUD WOULD THINK KEEN.
 MOST OF THE TIME THEY WERE
 HERPETOLOGICAL
 BITING THEIR TAILS IN THE
 SHAPE OF BENZENE.
 Job cpu time:  0 days  0 hours  0 minutes 15.5 seconds.
 File lengths (MBytes):  RWF=      5 Int=      0 D2E=      0 Chk=      1 Scr=      1
 Normal termination of Gaussian 09 at Sun Aug 18 00:30:58 2024.
