 Entering Gaussian System, Link 0=/programs/64bit/g09/g09-gfortran/bin/g09
 Input=ch4_+.com
 Output=ch4_+.log
 Initial command:
 /programs/64bit/g09/g09-gfortran/bin/l1.exe /home/ospite/Desktop/MMfP/Project6/CH4/g09/DFT/Gau-4428.inp -scrdir=/home/ospite/Desktop/MMfP/Project6/CH4/g09/DFT/
 Entering Link 1 = /programs/64bit/g09/g09-gfortran/bin/l1.exe PID=      4429.
  
 Copyright (c) 1988,1990,1992,1993,1995,1998,2003,2009, Gaussian, Inc.
                  All Rights Reserved.
  
 This is part of the Gaussian(R) 09 program.  It is based on
 the Gaussian(R) 03 system (copyright 2003, Gaussian, Inc.),
 the Gaussian(R) 98 system (copyright 1998, Gaussian, Inc.),
 the Gaussian(R) 94 system (copyright 1995, Gaussian, Inc.),
 the Gaussian 92(TM) system (copyright 1992, Gaussian, Inc.),
 the Gaussian 90(TM) system (copyright 1990, Gaussian, Inc.),
 the Gaussian 88(TM) system (copyright 1988, Gaussian, Inc.),
 the Gaussian 86(TM) system (copyright 1986, Carnegie Mellon
 University), and the Gaussian 82(TM) system (copyright 1983,
 Carnegie Mellon University). Gaussian is a federally registered
 trademark of Gaussian, Inc.
  
 This software contains proprietary and confidential information,
 including trade secrets, belonging to Gaussian, Inc.
  
 This software is provided under written license and may be
 used, copied, transmitted, or stored only in accord with that
 written license.
  
 The following legend is applicable only to US Government
 contracts under FAR:
  
                    RESTRICTED RIGHTS LEGEND
  
 Use, reproduction and disclosure by the US Government is
 subject to restrictions as set forth in subparagraphs (a)
 and (c) of the Commercial Computer Software - Restricted
 Rights clause in FAR 52.227-19.
  
 Gaussian, Inc.
 340 Quinnipiac St., Bldg. 40, Wallingford CT 06492
  
  
 ---------------------------------------------------------------
 Warning -- This program may not be used in any manner that
 competes with the business of Gaussian, Inc. or will provide
 assistance to any competitor of Gaussian, Inc.  The licensee
 of this program is prohibited from giving any competitor of
 Gaussian, Inc. access to this program.  By using this program,
 the user acknowledges that Gaussian, Inc. is engaged in the
 business of creating and licensing software in the field of
 computational chemistry and represents and warrants to the
 licensee that it is not a competitor of Gaussian, Inc. and that
 it will not use this program in any manner prohibited above.
 ---------------------------------------------------------------
  

 Cite this work as:
 Gaussian 09, Revision A.02,
 M. J. Frisch, G. W. Trucks, H. B. Schlegel, G. E. Scuseria, 
 M. A. Robb, J. R. Cheeseman, G. Scalmani, V. Barone, B. Mennucci, 
 G. A. Petersson, H. Nakatsuji, M. Caricato, X. Li, H. P. Hratchian, 
 A. F. Izmaylov, J. Bloino, G. Zheng, J. L. Sonnenberg, M. Hada, 
 M. Ehara, K. Toyota, R. Fukuda, J. Hasegawa, M. Ishida, T. Nakajima, 
 Y. Honda, O. Kitao, H. Nakai, T. Vreven, J. A. Montgomery, Jr., 
 J. E. Peralta, F. Ogliaro, M. Bearpark, J. J. Heyd, E. Brothers, 
 K. N. Kudin, V. N. Staroverov, R. Kobayashi, J. Normand, 
 K. Raghavachari, A. Rendell, J. C. Burant, S. S. Iyengar, J. Tomasi, 
 M. Cossi, N. Rega, J. M. Millam, M. Klene, J. E. Knox, J. B. Cross, 
 V. Bakken, C. Adamo, J. Jaramillo, R. Gomperts, R. E. Stratmann, 
 O. Yazyev, A. J. Austin, R. Cammi, C. Pomelli, J. W. Ochterski, 
 R. L. Martin, K. Morokuma, V. G. Zakrzewski, G. A. Voth, 
 P. Salvador, J. J. Dannenberg, S. Dapprich, A. D. Daniels, 
 O. Farkas, J. B. Foresman, J. V. Ortiz, J. Cioslowski, 
 and D. J. Fox, Gaussian, Inc., Wallingford CT, 2009.
 
 ******************************************
 Gaussian 09:  EM64L-G09RevA.02 11-Jun-2009
                17-Aug-2024 
 ******************************************
 %mem=100MB
 -----------------------------------------------------------------
 #p b3lyp/6-31+G opt freq symmetry=(follow,pg=Td) pop=full gfinput
 -----------------------------------------------------------------
 1/14=-1,18=20,19=15,26=3,38=1/1,3;
 2/9=110,12=2,17=6,18=5,19=2314885530818462804,40=1/2;
 3/5=1,6=6,7=10,11=2,16=1,24=10,25=1,30=1,71=1,74=-5/1,2,3;
 4//1;
 5/5=2,38=5/2;
 6/7=3,28=1/1;
 7//1,2,3,16;
 1/14=-1,18=20,19=15/3(2);
 2/9=110,15=5,19=2314885530818462804/2;
 99//99;
 2/9=110,15=5,19=2314885530818462804/2;
 3/5=1,6=6,7=10,11=2,16=1,25=1,30=1,71=1,74=-5/1,2,3;
 4/5=5,16=3/1;
 5/5=2,38=5/2;
 7//1,2,3,16;
 1/14=-1,18=20,19=15/3(-5);
 2/9=110,15=5,19=2314885530818462804/2;
 6/7=3,19=2,28=1/1;
 99/9=1/99;
 Leave Link    1 at Sat Aug 17 14:54:27 2024, MaxMem=   13107200 cpu:       0.1
 (Enter /programs/64bit/g09/g09-gfortran/bin/l101.exe)
 ----------------------------------------------------------
 methane with imposed symmetry and hf/6-31+G basis function
 ----------------------------------------------------------
 Symbolic Z-matrix:
 Charge =  0 Multiplicity = 1
 C1
 H2                   1    d
 H3                   1    d        2    a
 H4                   1    d        2    a        3    t        0
 H5                   1    d        2    a        3    -t       0
       Variables:
  d                     1.09                     
  a                   109.471                    
  t                   120.                       
 
     3 tetrahedral angles replaced.
 NAtoms=      5 NQM=      5 NQMF=      0 NMic=      0 NMicF=      0 NTot=      5.
                    Isotopes and Nuclear Properties:
 (Nuclear quadrupole moments (NQMom) in fm**2, nuclear magnetic moments (NMagM)
  in nuclear magnetons)

  Atom         1           2           3           4           5
 IAtWgt=          12           1           1           1           1
 AtmWgt=  12.0000000   1.0078250   1.0078250   1.0078250   1.0078250
 NucSpn=           0           1           1           1           1
 AtZEff=   0.0000000   0.0000000   0.0000000   0.0000000   0.0000000
 NQMom=    0.0000000   0.0000000   0.0000000   0.0000000   0.0000000
 NMagM=    0.0000000   2.7928460   2.7928460   2.7928460   2.7928460
 Leave Link  101 at Sat Aug 17 14:54:27 2024, MaxMem=   13107200 cpu:       0.1
 (Enter /programs/64bit/g09/g09-gfortran/bin/l103.exe)

 GradGradGradGradGradGradGradGradGradGradGradGradGradGradGradGradGradGrad
 Berny optimization.
 Initialization pass.
                           ----------------------------
                           !    Initial Parameters    !
                           ! (Angstroms and Degrees)  !
 --------------------------                            --------------------------
 ! Name  Definition              Value          Derivative Info.                !
 --------------------------------------------------------------------------------
 ! R1    R(1,2)                  1.09           estimate D2E/DX2                !
 ! R2    R(1,3)                  1.09           estimate D2E/DX2                !
 ! R3    R(1,4)                  1.09           estimate D2E/DX2                !
 ! R4    R(1,5)                  1.09           estimate D2E/DX2                !
 ! A1    A(2,1,3)              109.4712         estimate D2E/DX2                !
 ! A2    A(2,1,4)              109.4712         estimate D2E/DX2                !
 ! A3    A(2,1,5)              109.4712         estimate D2E/DX2                !
 ! A4    A(3,1,4)              109.4712         estimate D2E/DX2                !
 ! A5    A(3,1,5)              109.4712         estimate D2E/DX2                !
 ! A6    A(4,1,5)              109.4712         estimate D2E/DX2                !
 ! D1    D(2,1,4,3)           -120.0            estimate D2E/DX2                !
 ! D2    D(2,1,5,3)            120.0            estimate D2E/DX2                !
 ! D3    D(2,1,5,4)           -120.0            estimate D2E/DX2                !
 ! D4    D(3,1,5,4)            120.0            estimate D2E/DX2                !
 --------------------------------------------------------------------------------
 Trust Radius=3.00D-01 FncErr=1.00D-07 GrdErr=1.00D-06
 Number of steps in this run=  24 maximum allowed number of steps= 100.
 GradGradGradGradGradGradGradGradGradGradGradGradGradGradGradGradGradGrad

 Leave Link  103 at Sat Aug 17 14:54:27 2024, MaxMem=   13107200 cpu:       0.0
 (Enter /programs/64bit/g09/g09-gfortran/bin/l202.exe)
                          Input orientation:                          
 ---------------------------------------------------------------------
 Center     Atomic      Atomic             Coordinates (Angstroms)
 Number     Number       Type             X           Y           Z
 ---------------------------------------------------------------------
      1          6           0        0.000000    0.000000    0.000000
      2          1           0        0.000000    0.000000    1.090000
      3          1           0        1.027662    0.000000   -0.363333
      4          1           0       -0.513831   -0.889981   -0.363333
      5          1           0       -0.513831    0.889981   -0.363333
 ---------------------------------------------------------------------
                    Distance matrix (angstroms):
                    1          2          3          4          5
     1  C    0.000000
     2  H    1.090000   0.000000
     3  H    1.090000   1.779963   0.000000
     4  H    1.090000   1.779963   1.779963   0.000000
     5  H    1.090000   1.779963   1.779963   1.779963   0.000000
 Symm:  InNGrp=TD   InAxis=0.
 Stoichiometry    CH4
 Framework group  TD[O(C),4C3(H)]
 Deg. of freedom     1
 Full point group                 TD      NOp  24
 Largest Abelian subgroup         D2      NOp   4
 Largest concise Abelian subgroup D2      NOp   4
                         Standard orientation:                         
 ---------------------------------------------------------------------
 Center     Atomic      Atomic             Coordinates (Angstroms)
 Number     Number       Type             X           Y           Z
 ---------------------------------------------------------------------
      1          6           0        0.000000    0.000000    0.000000
      2          1           0        0.629312    0.629312    0.629312
      3          1           0       -0.629312   -0.629312    0.629312
      4          1           0       -0.629312    0.629312   -0.629312
      5          1           0        0.629312   -0.629312   -0.629312
 ---------------------------------------------------------------------
 Rotational constants (GHZ):    158.2742720    158.2742720    158.2742720
 Leave Link  202 at Sat Aug 17 14:54:27 2024, MaxMem=   13107200 cpu:       0.0
 (Enter /programs/64bit/g09/g09-gfortran/bin/l301.exe)
 Standard basis: 6-31+G (6D, 7F)
 Ernie: Thresh=  0.10000D-02 Tol=  0.10000D-05 Strict=F.
 AO basis set in the form of general basis input (Overlap normalization):
      1 0
 S   6 1.00       0.000000000000
      0.3047524880D+04  0.1834737132D-02
      0.4573695180D+03  0.1403732281D-01
      0.1039486850D+03  0.6884262226D-01
      0.2921015530D+02  0.2321844432D+00
      0.9286662960D+01  0.4679413484D+00
      0.3163926960D+01  0.3623119853D+00
 SP   3 1.00       0.000000000000
      0.7868272350D+01 -0.1193324198D+00  0.6899906659D-01
      0.1881288540D+01 -0.1608541517D+00  0.3164239610D+00
      0.5442492580D+00  0.1143456438D+01  0.7443082909D+00
 SP   1 1.00       0.000000000000
      0.1687144782D+00  0.1000000000D+01  0.1000000000D+01
 SP   1 1.00       0.000000000000
      0.4380000000D-01  0.1000000000D+01  0.1000000000D+01
 ****
      2 0
 S   3 1.00       0.000000000000
      0.1873113696D+02  0.3349460434D-01
      0.2825394365D+01  0.2347269535D+00
      0.6401216923D+00  0.8137573261D+00
 S   1 1.00       0.000000000000
      0.1612777588D+00  0.1000000000D+01
 ****
      3 0
 S   3 1.00       0.000000000000
      0.1873113696D+02  0.3349460434D-01
      0.2825394365D+01  0.2347269535D+00
      0.6401216923D+00  0.8137573261D+00
 S   1 1.00       0.000000000000
      0.1612777588D+00  0.1000000000D+01
 ****
      4 0
 S   3 1.00       0.000000000000
      0.1873113696D+02  0.3349460434D-01
      0.2825394365D+01  0.2347269535D+00
      0.6401216923D+00  0.8137573261D+00
 S   1 1.00       0.000000000000
      0.1612777588D+00  0.1000000000D+01
 ****
      5 0
 S   3 1.00       0.000000000000
      0.1873113696D+02  0.3349460434D-01
      0.2825394365D+01  0.2347269535D+00
      0.6401216923D+00  0.8137573261D+00
 S   1 1.00       0.000000000000
      0.1612777588D+00  0.1000000000D+01
 ****

 There are     6 symmetry adapted basis functions of A   symmetry.
 There are     5 symmetry adapted basis functions of B1  symmetry.
 There are     5 symmetry adapted basis functions of B2  symmetry.
 There are     5 symmetry adapted basis functions of B3  symmetry.
 Integral buffers will be    131072 words long.
 Raffenetti 2 integral format.
 Two-electron integral symmetry is turned on.
    21 basis functions,    42 primitive gaussians,    21 cartesian basis functions
     5 alpha electrons        5 beta electrons
       nuclear repulsion energy        13.4353891954 Hartrees.
 IExCor=  402 DFT=T Ex+Corr=B3LYP ExCW=0 ScaHFX=  0.200000
 ScaDFX=  0.800000  0.720000  1.000000  0.810000 ScalE2=  1.000000  1.000000
 IRadAn=      0 IRanWt=     -1 IRanGd=            0 ICorTp=0
 NAtoms=    5 NActive=    5 NUniq=    2 SFac= 3.00D+00 NAtFMM=   80 NAOKFM=F Big=F
 Leave Link  301 at Sat Aug 17 14:54:27 2024, MaxMem=   13107200 cpu:       0.1
 (Enter /programs/64bit/g09/g09-gfortran/bin/l302.exe)
 NPDir=0 NMtPBC=     1 NCelOv=     1 NCel=       1 NClECP=     1 NCelD=      1
         NCelK=      1 NCelE2=     1 NClLst=     1 CellRange=     0.0.
 One-electron integrals computed using PRISM.
 One-electron integral symmetry used in STVInt
 NBasis=    21 RedAO= T  NBF=     6     5     5     5
 NBsUse=    21 1.00D-06 NBFU=     6     5     5     5
 Precomputing XC quadrature grid using
 IXCGrd= 2 IRadAn=           0 IRanWt=          -1 IRanGd=           0 AccXCQ= 1.00D-10.
 NRdTot=     319 NPtTot=       40572 NUsed=       42883 NTot=       42915
 NSgBfM=    21    21    21    21    21 NAtAll=     5     5.
 Leave Link  302 at Sat Aug 17 14:54:27 2024, MaxMem=   13107200 cpu:       0.1
 (Enter /programs/64bit/g09/g09-gfortran/bin/l303.exe)
 DipDrv:  MaxL=1.
 Leave Link  303 at Sat Aug 17 14:54:27 2024, MaxMem=   13107200 cpu:       0.0
 (Enter /programs/64bit/g09/g09-gfortran/bin/l401.exe)
 Harris functional with IExCor=  402 diagonalized for initial guess.
 ExpMin= 4.38D-02 ExpMax= 3.05D+03 ExpMxC= 4.57D+02 IAcc=2 IRadAn=         0 AccDes= 0.00D+00
 HarFok:  IExCor=  402 AccDes= 0.00D+00 IRadAn=         0 IDoV= 1
 ScaDFX=  1.000000  1.000000  1.000000  1.000000
 FoFCou: FMM=F IPFlag=           0 FMFlag=      100000 FMFlg1=           0
         NFxFlg=           0 DoJE=T BraDBF=F KetDBF=T FulRan=T
         Omega=  0.000000  0.000000  1.000000  0.000000  0.000000 ICntrl=     500 IOpCl=  0
         NMat0=    1 NMatS0=    1 NMatT0=    0 NMatD0=    1 NMtDS0=    0 NMtDT0=    0
         I1Cent=           4 NGrid=           0.
 Petite list used in FoFCou.
 Harris En= -40.5572416579995    
 Initial guess orbital symmetries:
       Occupied  (A1) (A1) (T2) (T2) (T2)
       Virtual   (A1) (T2) (T2) (T2) (T2) (T2) (T2) (A1) (T2) (T2)
                 (T2) (T2) (T2) (T2) (A1) (A1)
 The electronic state of the initial guess is 1-A1.
 Leave Link  401 at Sat Aug 17 14:54:28 2024, MaxMem=   13107200 cpu:       0.3
 (Enter /programs/64bit/g09/g09-gfortran/bin/l502.exe)
 Closed shell SCF:
 Requested convergence on RMS density matrix=1.00D-08 within 128 cycles.
 Requested convergence on MAX density matrix=1.00D-06.
 Requested convergence on             energy=1.00D-06.
 No special actions if energy rises.
 Using DIIS extrapolation, IDIIS=  1040.
 Integral symmetry usage will be decided dynamically.
        42825 words used for storage of precomputed grid.
 Keep R1 ints in memory in canonical form, NReq=947876.
 IEnd=       62928 IEndB=       62928 NGot=    13107200 MDV=    13034551
 LenX=    13034551 LenY=    13033669
 Symmetry not used in FoFDir.
 MinBra= 0 MaxBra= 1 Meth= 1.
 IRaf=       0 NMat=   1 IRICut=       1 DoRegI=T DoRafI=F ISym2E= 0 JSym2E=0.

 Cycle   1  Pass 1  IDiag  1:
 E= -40.4221983232588    
 DIIS: error= 4.94D-02 at cycle   1 NSaved=   1.
 NSaved= 1 IEnMin= 1 EnMin= -40.4221983232588     IErMin= 1 ErrMin= 4.94D-02
 ErrMax= 4.94D-02 EMaxC= 1.00D-01 BMatC= 8.11D-02 BMatP= 8.11D-02
 IDIUse=3 WtCom= 5.06D-01 WtEn= 4.94D-01
 Coeff-Com:  0.100D+01
 Coeff-En:   0.100D+01
 Coeff:      0.100D+01
 Gap=     0.314 Goal=   None    Shift=    0.000
 GapD=    0.314 DampG=1.000 DampE=0.500 DampFc=0.5000 IDamp=-1.
 Damping current iteration by 5.00D-01
 RMSDP=2.24D-02 MaxDP=1.56D-01              OVMax= 2.02D-01

 Cycle   2  Pass 1  IDiag  1:
 E= -40.4631639645179     Delta-E=       -0.040965641259 Rises=F Damp=T
 DIIS: error= 6.69D-03 at cycle   2 NSaved=   2.
 NSaved= 2 IEnMin= 2 EnMin= -40.4631639645179     IErMin= 2 ErrMin= 6.69D-03
 ErrMax= 6.69D-03 EMaxC= 1.00D-01 BMatC= 1.15D-03 BMatP= 8.11D-02
 IDIUse=3 WtCom= 9.33D-01 WtEn= 6.69D-02
 Coeff-Com:  0.772D-01 0.923D+00
 Coeff-En:   0.136D+00 0.864D+00
 Coeff:      0.812D-01 0.919D+00
 Gap=     0.406 Goal=   None    Shift=    0.000
 RMSDP=1.93D-03 MaxDP=8.40D-03 DE=-4.10D-02 OVMax= 1.05D-01

 Cycle   3  Pass 1  IDiag  1:
 E= -40.5129364433452     Delta-E=       -0.049772478827 Rises=F Damp=F
 DIIS: error= 2.75D-04 at cycle   3 NSaved=   3.
 NSaved= 3 IEnMin= 3 EnMin= -40.5129364433452     IErMin= 3 ErrMin= 2.75D-04
 ErrMax= 2.75D-04 EMaxC= 1.00D-01 BMatC= 1.27D-06 BMatP= 1.15D-03
 IDIUse=3 WtCom= 9.97D-01 WtEn= 2.75D-03
 Coeff-Com: -0.605D-03-0.342D-01 0.103D+01
 Coeff-En:   0.000D+00 0.000D+00 0.100D+01
 Coeff:     -0.604D-03-0.341D-01 0.103D+01
 Gap=     0.413 Goal=   None    Shift=    0.000
 RMSDP=6.67D-05 MaxDP=6.72D-04 DE=-4.98D-02 OVMax= 1.78D-04

 Cycle   4  Pass 1  IDiag  1:
 E= -40.5129372338070     Delta-E=       -0.000000790462 Rises=F Damp=F
 DIIS: error= 4.20D-05 at cycle   4 NSaved=   4.
 NSaved= 4 IEnMin= 4 EnMin= -40.5129372338070     IErMin= 4 ErrMin= 4.20D-05
 ErrMax= 4.20D-05 EMaxC= 1.00D-01 BMatC= 4.40D-08 BMatP= 1.27D-06
 IDIUse=1 WtCom= 1.00D+00 WtEn= 0.00D+00
 Coeff-Com:  0.749D-03 0.767D-04 0.196D-01 0.980D+00
 Coeff:      0.749D-03 0.767D-04 0.196D-01 0.980D+00
 Gap=     0.413 Goal=   None    Shift=    0.000
 RMSDP=8.22D-06 MaxDP=4.79D-05 DE=-7.90D-07 OVMax= 7.45D-05

 Cycle   5  Pass 1  IDiag  1:
 E= -40.5129372864582     Delta-E=       -0.000000052651 Rises=F Damp=F
 DIIS: error= 7.41D-07 at cycle   5 NSaved=   5.
 NSaved= 5 IEnMin= 5 EnMin= -40.5129372864582     IErMin= 5 ErrMin= 7.41D-07
 ErrMax= 7.41D-07 EMaxC= 1.00D-01 BMatC= 1.77D-11 BMatP= 4.40D-08
 IDIUse=1 WtCom= 1.00D+00 WtEn= 0.00D+00
 Coeff-Com:  0.557D-05-0.289D-05-0.253D-02 0.189D-01 0.984D+00
 Coeff:      0.557D-05-0.289D-05-0.253D-02 0.189D-01 0.984D+00
 Gap=     0.413 Goal=   None    Shift=    0.000
 RMSDP=4.49D-07 MaxDP=1.94D-06 DE=-5.27D-08 OVMax= 1.94D-06

 Cycle   6  Pass 1  IDiag  1:
 E= -40.5129372864890     Delta-E=       -0.000000000031 Rises=F Damp=F
 DIIS: error= 1.40D-07 at cycle   6 NSaved=   6.
 NSaved= 6 IEnMin= 6 EnMin= -40.5129372864890     IErMin= 6 ErrMin= 1.40D-07
 ErrMax= 1.40D-07 EMaxC= 1.00D-01 BMatC= 3.46D-13 BMatP= 1.77D-11
 IDIUse=1 WtCom= 1.00D+00 WtEn= 0.00D+00
 Coeff-Com: -0.571D-06 0.216D-05-0.896D-04-0.375D-02-0.325D-01 0.104D+01
 Coeff:     -0.571D-06 0.216D-05-0.896D-04-0.375D-02-0.325D-01 0.104D+01
 Gap=     0.413 Goal=   None    Shift=    0.000
 RMSDP=2.70D-08 MaxDP=2.09D-07 DE=-3.07D-11 OVMax= 2.45D-07

 Cycle   7  Pass 1  IDiag  1:
 E= -40.5129372864895     Delta-E=       -0.000000000000 Rises=F Damp=F
 DIIS: error= 1.28D-09 at cycle   7 NSaved=   7.
 NSaved= 7 IEnMin= 7 EnMin= -40.5129372864895     IErMin= 7 ErrMin= 1.28D-09
 ErrMax= 1.28D-09 EMaxC= 1.00D-01 BMatC= 4.60D-17 BMatP= 3.46D-13
 IDIUse=1 WtCom= 1.00D+00 WtEn= 0.00D+00
 Coeff-Com:  0.657D-07-0.169D-06 0.654D-05 0.202D-03 0.836D-04-0.452D-01
 Coeff-Com:  0.104D+01
 Coeff:      0.657D-07-0.169D-06 0.654D-05 0.202D-03 0.836D-04-0.452D-01
 Coeff:      0.104D+01
 Gap=     0.413 Goal=   None    Shift=    0.000
 RMSDP=8.88D-10 MaxDP=4.24D-09 DE=-4.97D-13 OVMax= 2.20D-09

 SCF Done:  E(RB3LYP) =  -40.5129372865     A.U. after    7 cycles
             Convg  =    0.8881D-09             -V/T =  2.0067
 KE= 4.024452388182D+01 PE=-1.200181776635D+02 EE= 2.582532729977D+01
 Leave Link  502 at Sat Aug 17 14:54:29 2024, MaxMem=   13107200 cpu:       0.9
 (Enter /programs/64bit/g09/g09-gfortran/bin/l601.exe)
 Copying SCF densities to generalized density rwf, IOpCl= 0 IROHF=0.

 **********************************************************************

            Population analysis using the SCF density.

 **********************************************************************

 Orbital symmetries:
       Occupied  (A1) (A1) (T2) (T2) (T2)
       Virtual   (A1) (T2) (T2) (T2) (T2) (T2) (T2) (A1) (T2) (T2)
                 (T2) (T2) (T2) (T2) (A1) (A1)
 The electronic state is 1-A1.
 Alpha  occ. eigenvalues --  -10.16407  -0.69966  -0.39608  -0.39608  -0.39608
 Alpha virt. eigenvalues --    0.01690   0.06168   0.06168   0.06168   0.18208
 Alpha virt. eigenvalues --    0.18208   0.18208   0.27719   0.65126   0.65126
 Alpha virt. eigenvalues --    0.65126   0.99445   0.99445   0.99445   1.06447
 Alpha virt. eigenvalues --    1.13146
     Molecular Orbital Coefficients:
                           1         2         3         4         5
                        (A1)--O   (A1)--O   (T2)--O   (T2)--O   (T2)--O
     Eigenvalues --   -10.16407  -0.69966  -0.39608  -0.39608  -0.39608
   1 1   C  1S          0.99522  -0.19967   0.00000   0.00000   0.00000
   2        2S          0.03679   0.38149   0.00000   0.00000   0.00000
   3        2PX         0.00000   0.00000   0.00000   0.44958   0.00000
   4        2PY         0.00000   0.00000   0.44958   0.00000   0.00000
   5        2PZ         0.00000   0.00000   0.00000   0.00000   0.44958
   6        3S         -0.03176   0.38928   0.00000   0.00000   0.00000
   7        3PX         0.00000   0.00000   0.00000   0.20403   0.00000
   8        3PY         0.00000   0.00000   0.20403   0.00000   0.00000
   9        3PZ         0.00000   0.00000   0.00000   0.00000   0.20403
  10        4S         -0.00199   0.02715   0.00000   0.00000   0.00000
  11        4PX         0.00000   0.00000   0.00000   0.03687   0.00000
  12        4PY         0.00000   0.00000   0.03687   0.00000   0.00000
  13        4PZ         0.00000   0.00000   0.00000   0.00000   0.03687
  14 2   H  1S         -0.00090   0.13623   0.17560   0.17560   0.17560
  15        2S          0.00694   0.02136   0.13104   0.13104   0.13104
  16 3   H  1S         -0.00090   0.13623  -0.17560  -0.17560   0.17560
  17        2S          0.00694   0.02136  -0.13104  -0.13104   0.13104
  18 4   H  1S         -0.00090   0.13623   0.17560  -0.17560  -0.17560
  19        2S          0.00694   0.02136   0.13104  -0.13104  -0.13104
  20 5   H  1S         -0.00090   0.13623  -0.17560   0.17560  -0.17560
  21        2S          0.00694   0.02136  -0.13104   0.13104  -0.13104
                           6         7         8         9        10
                        (A1)--V   (T2)--V   (T2)--V   (T2)--V   (T2)--V
     Eigenvalues --     0.01690   0.06168   0.06168   0.06168   0.18208
   1 1   C  1S          0.08855   0.00000   0.00000   0.00000   0.00000
   2        2S         -0.17397   0.00000   0.00000   0.00000   0.00000
   3        2PX         0.00000   0.00000   0.00000  -0.18711   0.00000
   4        2PY         0.00000  -0.18711   0.00000   0.00000   0.00000
   5        2PZ         0.00000   0.00000  -0.18711   0.00000   0.32344
   6        3S         -0.64797   0.00000   0.00000   0.00000   0.00000
   7        3PX         0.00000   0.00000   0.00000  -0.18558   0.00000
   8        3PY         0.00000  -0.18558   0.00000   0.00000   0.00000
   9        3PZ         0.00000   0.00000  -0.18558   0.00000   1.41889
  10        4S          1.47493   0.00000   0.00000   0.00000   0.00000
  11        4PX         0.00000   0.00000   0.00000   1.17627   0.00000
  12        4PY         0.00000   1.17627   0.00000   0.00000   0.00000
  13        4PZ         0.00000   0.00000   1.17627   0.00000   0.32933
  14 2   H  1S          0.01398  -0.03229  -0.03229  -0.03229  -0.10504
  15        2S         -0.08103  -0.13026  -0.13026  -0.13026  -1.16707
  16 3   H  1S          0.01398   0.03229  -0.03229   0.03229  -0.10504
  17        2S         -0.08103   0.13026  -0.13026   0.13026  -1.16707
  18 4   H  1S          0.01398  -0.03229   0.03229   0.03229   0.10504
  19        2S         -0.08103  -0.13026   0.13026   0.13026   1.16707
  20 5   H  1S          0.01398   0.03229   0.03229  -0.03229   0.10504
  21        2S         -0.08103   0.13026   0.13026  -0.13026   1.16707
                          11        12        13        14        15
                        (T2)--V   (T2)--V   (A1)--V   (T2)--V   (T2)--V
     Eigenvalues --     0.18208   0.18208   0.27719   0.65126   0.65126
   1 1   C  1S          0.00000   0.00000  -0.15382   0.00000   0.00000
   2        2S          0.00000   0.00000   0.18943   0.00000   0.00000
   3        2PX         0.32344   0.00000   0.00000   0.00000  -0.99466
   4        2PY         0.00000   0.32344   0.00000   0.00000   0.00000
   5        2PZ         0.00000   0.00000   0.00000  -0.99466   0.00000
   6        3S          0.00000   0.00000   3.15826   0.00000   0.00000
   7        3PX         1.41889   0.00000   0.00000   0.00000   1.74290
   8        3PY         0.00000   1.41889   0.00000   0.00000   0.00000
   9        3PZ         0.00000   0.00000   0.00000   1.74290   0.00000
  10        4S          0.00000   0.00000   1.85613   0.00000   0.00000
  11        4PX         0.32933   0.00000   0.00000   0.00000  -0.56504
  12        4PY         0.00000   0.32933   0.00000   0.00000   0.00000
  13        4PZ         0.00000   0.00000   0.00000  -0.56504   0.00000
  14 2   H  1S         -0.10504  -0.10504  -0.07405  -0.17438  -0.17438
  15        2S         -1.16707  -1.16707  -1.62120  -0.14406  -0.14406
  16 3   H  1S          0.10504   0.10504  -0.07405  -0.17438   0.17438
  17        2S          1.16707   1.16707  -1.62120  -0.14406   0.14406
  18 4   H  1S          0.10504  -0.10504  -0.07405   0.17438   0.17438
  19        2S          1.16707  -1.16707  -1.62120   0.14406   0.14406
  20 5   H  1S         -0.10504   0.10504  -0.07405   0.17438  -0.17438
  21        2S         -1.16707   1.16707  -1.62120   0.14406  -0.14406
                          16        17        18        19        20
                        (T2)--V   (T2)--V   (T2)--V   (T2)--V   (A1)--V
     Eigenvalues --     0.65126   0.99445   0.99445   0.99445   1.06447
   1 1   C  1S          0.00000   0.00000   0.00000   0.00000  -0.10407
   2        2S          0.00000   0.00000   0.00000   0.00000  -0.43630
   3        2PX         0.00000   0.00000   0.60677   0.00000   0.00000
   4        2PY        -0.99466   0.60677   0.00000   0.00000   0.00000
   5        2PZ         0.00000   0.00000   0.00000   0.60677   0.00000
   6        3S          0.00000   0.00000   0.00000   0.00000   1.03141
   7        3PX         0.00000   0.00000  -0.67031   0.00000   0.00000
   8        3PY         1.74290  -0.67031   0.00000   0.00000   0.00000
   9        3PZ         0.00000   0.00000   0.00000  -0.67031   0.00000
  10        4S          0.00000   0.00000   0.00000   0.00000  -0.76448
  11        4PX         0.00000   0.00000  -0.40775   0.00000   0.00000
  12        4PY        -0.56504  -0.40775   0.00000   0.00000   0.00000
  13        4PZ         0.00000   0.00000   0.00000  -0.40775   0.00000
  14 2   H  1S         -0.17438  -0.67979  -0.67979  -0.67979  -0.73148
  15        2S         -0.14406   1.08438   1.08438   1.08438   0.42650
  16 3   H  1S          0.17438   0.67979   0.67979  -0.67979  -0.73148
  17        2S          0.14406  -1.08438  -1.08438   1.08438   0.42650
  18 4   H  1S         -0.17438  -0.67979   0.67979   0.67979  -0.73148
  19        2S         -0.14406   1.08438  -1.08438  -1.08438   0.42650
  20 5   H  1S          0.17438   0.67979  -0.67979   0.67979  -0.73148
  21        2S          0.14406  -1.08438   1.08438  -1.08438   0.42650
                          21
                        (A1)--V
     Eigenvalues --     1.13146
   1 1   C  1S         -0.02373
   2        2S         -2.38944
   3        2PX         0.00000
   4        2PY         0.00000
   5        2PZ         0.00000
   6        3S          5.92580
   7        3PX         0.00000
   8        3PY         0.00000
   9        3PZ         0.00000
  10        4S          0.70756
  11        4PX         0.00000
  12        4PY         0.00000
  13        4PZ         0.00000
  14 2   H  1S          0.11985
  15        2S         -1.62122
  16 3   H  1S          0.11985
  17        2S         -1.62122
  18 4   H  1S          0.11985
  19        2S         -1.62122
  20 5   H  1S          0.11985
  21        2S         -1.62122
     Density Matrix:
                           1         2         3         4         5
   1 1   C  1S          2.06067
   2        2S         -0.07911   0.29378
   3        2PX         0.00000   0.00000   0.40424
   4        2PY         0.00000   0.00000   0.00000   0.40424
   5        2PZ         0.00000   0.00000   0.00000   0.00000   0.40424
   6        3S         -0.21867   0.29468   0.00000   0.00000   0.00000
   7        3PX         0.00000   0.00000   0.18346   0.00000   0.00000
   8        3PY         0.00000   0.00000   0.00000   0.18346   0.00000
   9        3PZ         0.00000   0.00000   0.00000   0.00000   0.18346
  10        4S         -0.01481   0.02057   0.00000   0.00000   0.00000
  11        4PX         0.00000   0.00000   0.03315   0.00000   0.00000
  12        4PY         0.00000   0.00000   0.00000   0.03315   0.00000
  13        4PZ         0.00000   0.00000   0.00000   0.00000   0.03315
  14 2   H  1S         -0.05619   0.10387   0.15789   0.15789   0.15789
  15        2S          0.00529   0.01681   0.11782   0.11782   0.11782
  16 3   H  1S         -0.05619   0.10387  -0.15789  -0.15789   0.15789
  17        2S          0.00529   0.01681  -0.11782  -0.11782   0.11782
  18 4   H  1S         -0.05619   0.10387  -0.15789   0.15789  -0.15789
  19        2S          0.00529   0.01681  -0.11782   0.11782  -0.11782
  20 5   H  1S         -0.05619   0.10387   0.15789  -0.15789  -0.15789
  21        2S          0.00529   0.01681   0.11782  -0.11782  -0.11782
                           6         7         8         9        10
   6        3S          0.30509
   7        3PX         0.00000   0.08326
   8        3PY         0.00000   0.00000   0.08326
   9        3PZ         0.00000   0.00000   0.00000   0.08326
  10        4S          0.02126   0.00000   0.00000   0.00000   0.00148
  11        4PX         0.00000   0.01504   0.00000   0.00000   0.00000
  12        4PY         0.00000   0.00000   0.01504   0.00000   0.00000
  13        4PZ         0.00000   0.00000   0.00000   0.01504   0.00000
  14 2   H  1S          0.10612   0.07166   0.07166   0.07166   0.00740
  15        2S          0.01619   0.05347   0.05347   0.05347   0.00113
  16 3   H  1S          0.10612  -0.07166  -0.07166   0.07166   0.00740
  17        2S          0.01619  -0.05347  -0.05347   0.05347   0.00113
  18 4   H  1S          0.10612  -0.07166   0.07166  -0.07166   0.00740
  19        2S          0.01619  -0.05347   0.05347  -0.05347   0.00113
  20 5   H  1S          0.10612   0.07166  -0.07166  -0.07166   0.00740
  21        2S          0.01619   0.05347  -0.05347  -0.05347   0.00113
                          11        12        13        14        15
  11        4PX         0.00272
  12        4PY         0.00000   0.00272
  13        4PZ         0.00000   0.00000   0.00272
  14 2   H  1S          0.01295   0.01295   0.01295   0.22213
  15        2S          0.00966   0.00966   0.00966   0.14387   0.10404
  16 3   H  1S         -0.01295  -0.01295   0.01295  -0.02456  -0.04021
  17        2S         -0.00966  -0.00966   0.00966  -0.04021  -0.03333
  18 4   H  1S         -0.01295   0.01295  -0.01295  -0.02456  -0.04021
  19        2S         -0.00966   0.00966  -0.00966  -0.04021  -0.03333
  20 5   H  1S          0.01295  -0.01295  -0.01295  -0.02456  -0.04021
  21        2S          0.00966  -0.00966  -0.00966  -0.04021  -0.03333
                          16        17        18        19        20
  16 3   H  1S          0.22213
  17        2S          0.14387   0.10404
  18 4   H  1S         -0.02456  -0.04021   0.22213
  19        2S         -0.04021  -0.03333   0.14387   0.10404
  20 5   H  1S         -0.02456  -0.04021  -0.02456  -0.04021   0.22213
  21        2S         -0.04021  -0.03333  -0.04021  -0.03333   0.14387
                          21
  21        2S          0.10404
    Full Mulliken population analysis:
                           1         2         3         4         5
   1 1   C  1S          2.06067
   2        2S         -0.01733   0.29378
   3        2PX         0.00000   0.00000   0.40424
   4        2PY         0.00000   0.00000   0.00000   0.40424
   5        2PZ         0.00000   0.00000   0.00000   0.00000   0.40424
   6        3S         -0.04029   0.23936   0.00000   0.00000   0.00000
   7        3PX         0.00000   0.00000   0.10453   0.00000   0.00000
   8        3PY         0.00000   0.00000   0.00000   0.10453   0.00000
   9        3PZ         0.00000   0.00000   0.00000   0.00000   0.10453
  10        4S         -0.00103   0.00827   0.00000   0.00000   0.00000
  11        4PX         0.00000   0.00000   0.00546   0.00000   0.00000
  12        4PY         0.00000   0.00000   0.00000   0.00546   0.00000
  13        4PZ         0.00000   0.00000   0.00000   0.00000   0.00546
  14 2   H  1S         -0.00184   0.02843   0.03367   0.03367   0.03367
  15        2S          0.00049   0.00800   0.01808   0.01808   0.01808
  16 3   H  1S         -0.00184   0.02843   0.03367   0.03367   0.03367
  17        2S          0.00049   0.00800   0.01808   0.01808   0.01808
  18 4   H  1S         -0.00184   0.02843   0.03367   0.03367   0.03367
  19        2S          0.00049   0.00800   0.01808   0.01808   0.01808
  20 5   H  1S         -0.00184   0.02843   0.03367   0.03367   0.03367
  21        2S          0.00049   0.00800   0.01808   0.01808   0.01808
                           6         7         8         9        10
   6        3S          0.30509
   7        3PX         0.00000   0.08326
   8        3PY         0.00000   0.00000   0.08326
   9        3PZ         0.00000   0.00000   0.00000   0.08326
  10        4S          0.01547   0.00000   0.00000   0.00000   0.00148
  11        4PX         0.00000   0.00886   0.00000   0.00000   0.00000
  12        4PY         0.00000   0.00000   0.00886   0.00000   0.00000
  13        4PZ         0.00000   0.00000   0.00000   0.00886   0.00000
  14 2   H  1S          0.04001   0.02131   0.02131   0.02131   0.00192
  15        2S          0.01141   0.01799   0.01799   0.01799   0.00073
  16 3   H  1S          0.04001   0.02131   0.02131   0.02131   0.00192
  17        2S          0.01141   0.01799   0.01799   0.01799   0.00073
  18 4   H  1S          0.04001   0.02131   0.02131   0.02131   0.00192
  19        2S          0.01141   0.01799   0.01799   0.01799   0.00073
  20 5   H  1S          0.04001   0.02131   0.02131   0.02131   0.00192
  21        2S          0.01141   0.01799   0.01799   0.01799   0.00073
                          11        12        13        14        15
  11        4PX         0.00272
  12        4PY         0.00000   0.00272
  13        4PZ         0.00000   0.00000   0.00272
  14 2   H  1S          0.00157   0.00157   0.00157   0.22213
  15        2S          0.00243   0.00243   0.00243   0.09471   0.10404
  16 3   H  1S          0.00157   0.00157   0.00157  -0.00045  -0.00600
  17        2S          0.00243   0.00243   0.00243  -0.00600  -0.01339
  18 4   H  1S          0.00157   0.00157   0.00157  -0.00045  -0.00600
  19        2S          0.00243   0.00243   0.00243  -0.00600  -0.01339
  20 5   H  1S          0.00157   0.00157   0.00157  -0.00045  -0.00600
  21        2S          0.00243   0.00243   0.00243  -0.00600  -0.01339
                          16        17        18        19        20
  16 3   H  1S          0.22213
  17        2S          0.09471   0.10404
  18 4   H  1S         -0.00045  -0.00600   0.22213
  19        2S         -0.00600  -0.01339   0.09471   0.10404
  20 5   H  1S         -0.00045  -0.00600  -0.00045  -0.00600   0.22213
  21        2S         -0.00600  -0.01339  -0.00600  -0.01339   0.09471
                          21
  21        2S          0.10404
     Gross orbital populations:
                           1
   1 1   C  1S          1.99661
   2        2S          0.66981
   3        2PX         0.72122
   4        2PY         0.72122
   5        2PZ         0.72122
   6        3S          0.72530
   7        3PX         0.35382
   8        3PY         0.35382
   9        3PZ         0.35382
  10        4S          0.03476
  11        4PX         0.03301
  12        4PY         0.03301
  13        4PZ         0.03301
  14 2   H  1S          0.53565
  15        2S          0.27669
  16 3   H  1S          0.53565
  17        2S          0.27669
  18 4   H  1S          0.53565
  19        2S          0.27669
  20 5   H  1S          0.53565
  21        2S          0.27669
          Condensed to atoms (all electrons):
              1          2          3          4          5
     1  C    5.253642   0.374253   0.374253   0.374253   0.374253
     2  H    0.374253   0.515590  -0.025836  -0.025836  -0.025836
     3  H    0.374253  -0.025836   0.515590  -0.025836  -0.025836
     4  H    0.374253  -0.025836  -0.025836   0.515590  -0.025836
     5  H    0.374253  -0.025836  -0.025836  -0.025836   0.515590
 Mulliken atomic charges:
              1
     1  C   -0.750654
     2  H    0.187664
     3  H    0.187664
     4  H    0.187664
     5  H    0.187664
 Sum of Mulliken atomic charges =   0.00000
 Mulliken charges with hydrogens summed into heavy atoms:
              1
     1  C    0.000000
 Sum of Mulliken charges with hydrogens summed into heavy atoms =   0.00000
 Electronic spatial extent (au):  <R**2>=             36.0236
 Charge=              0.0000 electrons
 Dipole moment (field-independent basis, Debye):
    X=             -0.0000    Y=             -0.0000    Z=             -0.0000  Tot=              0.0000
 Quadrupole moment (field-independent basis, Debye-Ang):
   XX=             -8.5421   YY=             -8.5421   ZZ=             -8.5421
   XY=             -0.0000   XZ=             -0.0000   YZ=             -0.0000
 Traceless Quadrupole moment (field-independent basis, Debye-Ang):
   XX=             -0.0000   YY=              0.0000   ZZ=              0.0000
   XY=             -0.0000   XZ=             -0.0000   YZ=             -0.0000
 Octapole moment (field-independent basis, Debye-Ang**2):
  XXX=             -0.0000  YYY=              0.0000  ZZZ=             -0.0000  XYY=              0.0000
  XXY=              0.0000  XXZ=              0.0000  XZZ=              0.0000  YZZ=             -0.0000
  YYZ=             -0.0000  XYZ=              0.6760
 Hexadecapole moment (field-independent basis, Debye-Ang**3):
 XXXX=            -17.4687 YYYY=            -17.4687 ZZZZ=            -17.4687 XXXY=             -0.0000
 XXXZ=             -0.0000 YYYX=             -0.0000 YYYZ=             -0.0000 ZZZX=             -0.0000
 ZZZY=             -0.0000 XXYY=             -5.4031 XXZZ=             -5.4031 YYZZ=             -5.4031
 XXYZ=             -0.0000 YYXZ=             -0.0000 ZZXY=             -0.0000
 N-N= 1.343538919541D+01 E-N=-1.200181776663D+02  KE= 4.024452388182D+01
 Symmetry A    KE= 3.446885025011D+01
 Symmetry B1   KE= 1.925224543903D+00
 Symmetry B2   KE= 1.925224543903D+00
 Symmetry B3   KE= 1.925224543903D+00
 Orbital energies and kinetic energies (alpha):
                                 1                 2
   1         (A1)--O         -10.164074         15.958459
   2         (A1)--O          -0.699660          1.275966
   3         (T2)--O          -0.396077          0.962612
   4         (T2)--O          -0.396077          0.962612
   5         (T2)--O          -0.396077          0.962612
   6         (A1)--V           0.016900          0.349193
   7         (T2)--V           0.061675          0.232622
   8         (T2)--V           0.061675          0.232622
   9         (T2)--V           0.061675          0.232622
  10         (T2)--V           0.182078          0.799308
  11         (T2)--V           0.182078          0.799308
  12         (T2)--V           0.182078          0.799308
  13         (A1)--V           0.277187          1.100251
  14         (T2)--V           0.651261          1.947787
  15         (T2)--V           0.651261          1.947787
  16         (T2)--V           0.651261          1.947787
  17         (T2)--V           0.994447          2.535758
  18         (T2)--V           0.994447          2.535758
  19         (T2)--V           0.994447          2.535758
  20         (A1)--V           1.064465          2.361669
  21         (A1)--V           1.131455          2.478037
 Total kinetic energy from orbitals= 4.024452388182D+01
 No NMR shielding tensors so no spin-rotation constants.
 Leave Link  601 at Sat Aug 17 14:54:29 2024, MaxMem=   13107200 cpu:       0.1
 (Enter /programs/64bit/g09/g09-gfortran/bin/l701.exe)
 Compute integral first derivatives.
 ... and contract with generalized density number  0.
 Leave Link  701 at Sat Aug 17 14:54:29 2024, MaxMem=   13107200 cpu:       0.1
 (Enter /programs/64bit/g09/g09-gfortran/bin/l702.exe)
 L702 exits ... SP integral derivatives will be done elsewhere.
 Leave Link  702 at Sat Aug 17 14:54:29 2024, MaxMem=   13107200 cpu:       0.0
 (Enter /programs/64bit/g09/g09-gfortran/bin/l703.exe)
 Compute integral first derivatives, UseDBF=F ICtDFT=           0.
 Integral derivatives from FoFDir, PRISM(SPDF).
 Calling FoFJK, ICntrl=      2127 FMM=F ISym2X=1 I1Cent= 0 IOpClX= 0 NMat=1 NMatS=1 NMatT=0.
 FoFCou: FMM=F IPFlag=           0 FMFlag=      100000 FMFlg1=         800
         NFxFlg=           0 DoJE=F BraDBF=F KetDBF=F FulRan=T
         Omega=  0.000000  0.000000  1.000000  0.000000  0.000000 ICntrl=    2127 IOpCl=  0
         NMat0=    1 NMatS0=    1 NMatT0=    0 NMatD0=    1 NMtDS0=    0 NMtDT0=    0
         I1Cent=           0 NGrid=           0.
 Petite list used in FoFCou.
 Leave Link  703 at Sat Aug 17 14:54:29 2024, MaxMem=   13107200 cpu:       0.4
 (Enter /programs/64bit/g09/g09-gfortran/bin/l716.exe)
 Dipole        =-2.22044605D-16-2.22044605D-16-2.22044605D-16
 ***** Axes restored to original set *****
 -------------------------------------------------------------------
 Center     Atomic                   Forces (Hartrees/Bohr)
 Number     Number              X              Y              Z
 -------------------------------------------------------------------
      1        6           0.000000000   -0.000000000    0.000000000
      2        1          -0.000000000   -0.000000000    0.002541838
      3        1           0.002396468    0.000000000   -0.000847279
      4        1          -0.001198234   -0.002075402   -0.000847279
      5        1          -0.001198234    0.002075402   -0.000847279
 -------------------------------------------------------------------
 Cartesian Forces:  Max     0.002541838 RMS     0.001312600
 Leave Link  716 at Sat Aug 17 14:54:29 2024, MaxMem=   13107200 cpu:       0.0
 (Enter /programs/64bit/g09/g09-gfortran/bin/l103.exe)

 GradGradGradGradGradGradGradGradGradGradGradGradGradGradGradGradGradGrad
 Berny optimization.
 Internal  Forces:  Max     0.002541838 RMS     0.001358670
 Search for a local minimum.
 Step number   1 out of a maximum of   24
 All quantities printed in internal units (Hartrees-Bohrs-Radians)
 RMS Force = .13587D-02 SwitMx=.10000D-02 MixMth= 1
 Mixed Optimization -- RFO/linear search
 Second derivative matrix not updated -- first step.
 The second derivative matrix:
                          R1        R2        R3        R4        A1
           R1           0.34813
           R2           0.00000   0.34813
           R3           0.00000   0.00000   0.34813
           R4           0.00000   0.00000   0.00000   0.34813
           A1           0.00000   0.00000   0.00000   0.00000   0.16000
           A2           0.00000   0.00000   0.00000   0.00000   0.00000
           A3           0.00000   0.00000   0.00000   0.00000   0.00000
           A4           0.00000   0.00000   0.00000   0.00000   0.00000
           A5           0.00000   0.00000   0.00000   0.00000   0.00000
           A6           0.00000   0.00000   0.00000   0.00000   0.00000
           D1           0.00000   0.00000   0.00000   0.00000   0.00000
           D2           0.00000   0.00000   0.00000   0.00000   0.00000
           D3           0.00000   0.00000   0.00000   0.00000   0.00000
           D4           0.00000   0.00000   0.00000   0.00000   0.00000
                          A2        A3        A4        A5        A6
           A2           0.16000
           A3           0.00000   0.16000
           A4           0.00000   0.00000   0.16000
           A5           0.00000   0.00000   0.00000   0.16000
           A6           0.00000   0.00000   0.00000   0.00000   0.16000
           D1           0.00000   0.00000   0.00000   0.00000   0.00000
           D2           0.00000   0.00000   0.00000   0.00000   0.00000
           D3           0.00000   0.00000   0.00000   0.00000   0.00000
           D4           0.00000   0.00000   0.00000   0.00000   0.00000
                          D1        D2        D3        D4
           D1           0.00235
           D2           0.00000   0.00235
           D3           0.00000   0.00000   0.00235
           D4           0.00000   0.00000   0.00000   0.00235
     Eigenvalues ---    0.05086   0.05718   0.08643   0.16000   0.16000
     Eigenvalues ---    0.34813   0.34813   0.34813   0.348131000.00000
     Eigenvalues --- 1000.000001000.000001000.000001000.00000
 RFO step:  Lambda=-7.42209247D-05 EMin= 5.08565158D-02
 Linear search not attempted -- first point.
 Iteration  1 RMS(Cart)=  0.00390197 RMS(Int)=  0.00000000
 Iteration  2 RMS(Cart)=  0.00000000 RMS(Int)=  0.00000000
 ClnCor:  largest displacement from symmetrization is 1.20D-14 for atom     5.
 Variable       Old X    -DE/DX   Delta X   Delta X   Delta X     New X
                                 (Linear)    (Quad)   (Total)
    R1        2.05980   0.00254   0.00000   0.00730   0.00730   2.06710
    R2        2.05980   0.00254   0.00000   0.00730   0.00730   2.06710
    R3        2.05980   0.00254   0.00000   0.00730   0.00730   2.06710
    R4        2.05980   0.00254   0.00000   0.00730   0.00730   2.06710
    A1        1.91063   0.00000   0.00000   0.00000   0.00000   1.91063
    A2        1.91063  -0.00000   0.00000  -0.00000  -0.00000   1.91063
    A3        1.91063  -0.00000   0.00000  -0.00000   0.00000   1.91063
    A4        1.91063  -0.00000   0.00000  -0.00000  -0.00000   1.91063
    A5        1.91063   0.00000   0.00000   0.00000   0.00000   1.91063
    A6        1.91063   0.00000   0.00000   0.00000   0.00000   1.91063
    D1       -2.09440  -0.00000   0.00000  -0.00000   0.00000  -2.09440
    D2        2.09440   0.00000   0.00000   0.00000   0.00000   2.09440
    D3       -2.09440   0.00000   0.00000   0.00000   0.00000  -2.09440
    D4        2.09440   0.00000   0.00000   0.00000  -0.00000   2.09440
         Item               Value     Threshold  Converged?
 Maximum Force            0.002542     0.000450     NO 
 RMS     Force            0.001359     0.000300     NO 
 Maximum Displacement     0.007300     0.001800     NO 
 RMS     Displacement     0.003902     0.001200     NO 
 Predicted change in Energy=-3.711837D-05
 GradGradGradGradGradGradGradGradGradGradGradGradGradGradGradGradGradGrad

 Leave Link  103 at Sat Aug 17 14:54:29 2024, MaxMem=   13107200 cpu:       0.0
 (Enter /programs/64bit/g09/g09-gfortran/bin/l202.exe)
                          Input orientation:                          
 ---------------------------------------------------------------------
 Center     Atomic      Atomic             Coordinates (Angstroms)
 Number     Number       Type             X           Y           Z
 ---------------------------------------------------------------------
      1          6           0        0.000000    0.000000   -0.000000
      2          1           0        0.000000    0.000000    1.093863
      3          1           0        1.031304   -0.000000   -0.364621
      4          1           0       -0.515652   -0.893135   -0.364621
      5          1           0       -0.515652    0.893135   -0.364621
 ---------------------------------------------------------------------
                    Distance matrix (angstroms):
                    1          2          3          4          5
     1  C    0.000000
     2  H    1.093863   0.000000
     3  H    1.093863   1.786271   0.000000
     4  H    1.093863   1.786271   1.786271   0.000000
     5  H    1.093863   1.786271   1.786271   1.786271   0.000000
 Stoichiometry    CH4
 Framework group  TD[O(C),4C3(H)]
 Deg. of freedom     1
 Prev. full point group           TD      NOp  24
 Prev. largest Abelian subgroup   D2      NOp   4
       concise Abelian subgroup   D2      NOp   4
                   Standard orientation:
 ---------------------------------------------------------------------
 Center     Atomic                     Coordinates (Angstroms)
 Number     Number                        X           Y           Z
 ---------------------------------------------------------------------
      1          6                    0.000000    0.000000    0.000000
      2          1                    0.413032    0.653967    0.773478
      3          1                   -0.527087   -0.834555    0.471416
      4          1                   -0.698108    0.567222   -0.622447
      5          1                    0.812164   -0.386634   -0.622447
 ---------------------------------------------------------------------
 TstSym:  Max error for IOp=  3 IAt=    3 Err= 8.46D-01
 TstSym:  IOp= 25 I=    6 IP=    4 Err= 8.46D-01
  CI=  0.000000000000D+00  0.000000000000D+00  0.000000000000D+00
   T=  9.960507626666D-01 -1.577080374222D+00 -8.908471320792D-01
 CIP= -1.319233401151D+00  1.071894279806D+00 -1.176254278423D+00
 Unable to use previous symmetry information.  Redetermining point group.
 No symmetry information on checkpoint file.  Reassigning symmetry.
 Symm:  InNGrp=TD   InAxis=0.
 Stoichiometry    CH4
 Framework group  TD[O(C),4C3(H)]
 Deg. of freedom     1
 Full point group                 TD      NOp  24
 Largest Abelian subgroup         D2      NOp   4
 Largest concise Abelian subgroup D2      NOp   4
                         Standard orientation:                         
 ---------------------------------------------------------------------
 Center     Atomic      Atomic             Coordinates (Angstroms)
 Number     Number       Type             X           Y           Z
 ---------------------------------------------------------------------
      1          6           0        0.000000    0.000000    0.000000
      2          1           0        0.631542    0.631542    0.631542
      3          1           0       -0.631542   -0.631542    0.631542
      4          1           0       -0.631542    0.631542   -0.631542
      5          1           0        0.631542   -0.631542   -0.631542
 ---------------------------------------------------------------------
 Rotational constants (GHZ):    157.1583613    157.1583613    157.1583613
 Leave Link  202 at Sat Aug 17 14:54:29 2024, MaxMem=   13107200 cpu:       0.0
 (Enter /programs/64bit/g09/g09-gfortran/bin/l301.exe)
 Standard basis: 6-31+G (6D, 7F)
 Ernie: Thresh=  0.10000D-02 Tol=  0.10000D-05 Strict=F.
 There are     6 symmetry adapted basis functions of A   symmetry.
 There are     5 symmetry adapted basis functions of B1  symmetry.
 There are     5 symmetry adapted basis functions of B2  symmetry.
 There are     5 symmetry adapted basis functions of B3  symmetry.
 Integral buffers will be    131072 words long.
 Raffenetti 2 integral format.
 Two-electron integral symmetry is turned on.
    21 basis functions,    42 primitive gaussians,    21 cartesian basis functions
     5 alpha electrons        5 beta electrons
       nuclear repulsion energy        13.3879423978 Hartrees.
 IExCor=  402 DFT=T Ex+Corr=B3LYP ExCW=0 ScaHFX=  0.200000
 ScaDFX=  0.800000  0.720000  1.000000  0.810000 ScalE2=  1.000000  1.000000
 IRadAn=      0 IRanWt=     -1 IRanGd=            0 ICorTp=0
 NAtoms=    5 NActive=    5 NUniq=    2 SFac= 3.00D+00 NAtFMM=   80 NAOKFM=F Big=F
 Leave Link  301 at Sat Aug 17 14:54:30 2024, MaxMem=   13107200 cpu:       0.1
 (Enter /programs/64bit/g09/g09-gfortran/bin/l302.exe)
 NPDir=0 NMtPBC=     1 NCelOv=     1 NCel=       1 NClECP=     1 NCelD=      1
         NCelK=      1 NCelE2=     1 NClLst=     1 CellRange=     0.0.
 One-electron integrals computed using PRISM.
 One-electron integral symmetry used in STVInt
 NBasis=    21 RedAO= T  NBF=     6     5     5     5
 NBsUse=    21 1.00D-06 NBFU=     6     5     5     5
 Precomputing XC quadrature grid using
 IXCGrd= 2 IRadAn=           0 IRanWt=          -1 IRanGd=           0 AccXCQ= 1.00D-10.
 NRdTot=     319 NPtTot=       40572 NUsed=       42883 NTot=       42915
 NSgBfM=    21    21    21    21    21 NAtAll=     5     5.
 Leave Link  302 at Sat Aug 17 14:54:30 2024, MaxMem=   13107200 cpu:       0.1
 (Enter /programs/64bit/g09/g09-gfortran/bin/l303.exe)
 DipDrv:  MaxL=1.
 Leave Link  303 at Sat Aug 17 14:54:30 2024, MaxMem=   13107200 cpu:       0.0
 (Enter /programs/64bit/g09/g09-gfortran/bin/l401.exe)
 Initial guess read from the read-write file.
 B after Tr=     0.000000    0.000000    0.000000
         Rot=    1.000000    0.000000    0.000000    0.000000 Ang=   0.00 deg.
 Guess basis will be translated and rotated to current coordinates.
 Initial guess orbital symmetries:
       Occupied  (A1) (A1) (T2) (T2) (T2)
       Virtual   (A1) (T2) (T2) (T2) (T2) (T2) (T2) (A1) (T2) (T2)
                 (T2) (T2) (T2) (T2) (A1) (A1)
 The electronic state of the initial guess is 1-A1.
 Leave Link  401 at Sat Aug 17 14:54:30 2024, MaxMem=   13107200 cpu:       0.1
 (Enter /programs/64bit/g09/g09-gfortran/bin/l502.exe)
 Closed shell SCF:
 Requested convergence on RMS density matrix=1.00D-08 within 128 cycles.
 Requested convergence on MAX density matrix=1.00D-06.
 Requested convergence on             energy=1.00D-06.
 No special actions if energy rises.
 Using DIIS extrapolation, IDIIS=  1040.
 Integral symmetry usage will be decided dynamically.
        42825 words used for storage of precomputed grid.
 Keep R1 ints in memory in canonical form, NReq=947876.
 IEnd=       62928 IEndB=       62928 NGot=    13107200 MDV=    13034551
 LenX=    13034551 LenY=    13033669
 Symmetry not used in FoFDir.
 MinBra= 0 MaxBra= 1 Meth= 1.
 IRaf=       0 NMat=   1 IRICut=       1 DoRegI=T DoRafI=F ISym2E= 0 JSym2E=0.

 Cycle   1  Pass 1  IDiag  1:
 E= -40.5129653444190    
 DIIS: error= 5.52D-04 at cycle   1 NSaved=   1.
 NSaved= 1 IEnMin= 1 EnMin= -40.5129653444190     IErMin= 1 ErrMin= 5.52D-04
 ErrMax= 5.52D-04 EMaxC= 1.00D-01 BMatC= 6.55D-06 BMatP= 6.55D-06
 IDIUse=3 WtCom= 9.94D-01 WtEn= 5.52D-03
 Coeff-Com:  0.100D+01
 Coeff-En:   0.100D+01
 Coeff:      0.100D+01
 Gap=     0.411 Goal=   None    Shift=    0.000
 RMSDP=1.82D-04 MaxDP=1.24D-03              OVMax= 1.62D-03

 Cycle   2  Pass 1  IDiag  1:
 E= -40.5129668582556     Delta-E=       -0.000001513837 Rises=F Damp=F
 DIIS: error= 4.29D-04 at cycle   2 NSaved=   2.
 NSaved= 2 IEnMin= 2 EnMin= -40.5129668582556     IErMin= 2 ErrMin= 4.29D-04
 ErrMax= 4.29D-04 EMaxC= 1.00D-01 BMatC= 6.06D-06 BMatP= 6.55D-06
 IDIUse=3 WtCom= 9.96D-01 WtEn= 4.29D-03
 Coeff-Com:  0.489D+00 0.511D+00
 Coeff-En:   0.438D+00 0.562D+00
 Coeff:      0.489D+00 0.511D+00
 Gap=     0.412 Goal=   None    Shift=    0.000
 RMSDP=9.55D-05 MaxDP=7.09D-04 DE=-1.51D-06 OVMax= 8.65D-04

 Cycle   3  Pass 1  IDiag  1:
 E= -40.5129733545449     Delta-E=       -0.000006496289 Rises=F Damp=F
 DIIS: error= 5.38D-05 at cycle   3 NSaved=   3.
 NSaved= 3 IEnMin= 3 EnMin= -40.5129733545449     IErMin= 3 ErrMin= 5.38D-05
 ErrMax= 5.38D-05 EMaxC= 1.00D-01 BMatC= 9.68D-08 BMatP= 6.06D-06
 IDIUse=1 WtCom= 1.00D+00 WtEn= 0.00D+00
 Coeff-Com:  0.178D-01 0.121D+00 0.861D+00
 Coeff:      0.178D-01 0.121D+00 0.861D+00
 Gap=     0.412 Goal=   None    Shift=    0.000
 RMSDP=9.68D-06 MaxDP=8.27D-05 DE=-6.50D-06 OVMax= 8.48D-05

 Cycle   4  Pass 1  IDiag  1:
 E= -40.5129734539988     Delta-E=       -0.000000099454 Rises=F Damp=F
 DIIS: error= 1.41D-06 at cycle   4 NSaved=   4.
 NSaved= 4 IEnMin= 4 EnMin= -40.5129734539988     IErMin= 4 ErrMin= 1.41D-06
 ErrMax= 1.41D-06 EMaxC= 1.00D-01 BMatC= 5.64D-11 BMatP= 9.68D-08
 IDIUse=1 WtCom= 1.00D+00 WtEn= 0.00D+00
 Coeff-Com: -0.190D-02 0.192D-02 0.613D-02 0.994D+00
 Coeff:     -0.190D-02 0.192D-02 0.613D-02 0.994D+00
 Gap=     0.412 Goal=   None    Shift=    0.000
 RMSDP=3.68D-07 MaxDP=2.12D-06 DE=-9.95D-08 OVMax= 3.00D-06

 Cycle   5  Pass 1  IDiag  1:
 E= -40.5129734540720     Delta-E=       -0.000000000073 Rises=F Damp=F
 DIIS: error= 6.66D-08 at cycle   5 NSaved=   5.
 NSaved= 5 IEnMin= 5 EnMin= -40.5129734540720     IErMin= 5 ErrMin= 6.66D-08
 ErrMax= 6.66D-08 EMaxC= 1.00D-01 BMatC= 8.09D-14 BMatP= 5.64D-11
 IDIUse=1 WtCom= 1.00D+00 WtEn= 0.00D+00
 Coeff-Com:  0.114D-03-0.270D-03-0.528D-03-0.658D-01 0.107D+01
 Coeff:      0.114D-03-0.270D-03-0.528D-03-0.658D-01 0.107D+01
 Gap=     0.412 Goal=   None    Shift=    0.000
 RMSDP=1.21D-08 MaxDP=1.07D-07 DE=-7.32D-11 OVMax= 1.19D-07

 Cycle   6  Pass 1  IDiag  1:
 E= -40.5129734540721     Delta-E=       -0.000000000000 Rises=F Damp=F
 DIIS: error= 1.46D-09 at cycle   6 NSaved=   6.
 NSaved= 6 IEnMin= 6 EnMin= -40.5129734540721     IErMin= 6 ErrMin= 1.46D-09
 ErrMax= 1.46D-09 EMaxC= 1.00D-01 BMatC= 3.31D-17 BMatP= 8.09D-14
 IDIUse=1 WtCom= 1.00D+00 WtEn= 0.00D+00
 Coeff-Com: -0.129D-05 0.429D-05 0.114D-04 0.811D-03-0.358D-01 0.103D+01
 Coeff:     -0.129D-05 0.429D-05 0.114D-04 0.811D-03-0.358D-01 0.103D+01
 Gap=     0.412 Goal=   None    Shift=    0.000
 RMSDP=3.71D-10 MaxDP=2.18D-09 DE=-9.24D-14 OVMax= 2.75D-09

 SCF Done:  E(RB3LYP) =  -40.5129734541     A.U. after    6 cycles
             Convg  =    0.3711D-09             -V/T =  2.0072
 KE= 4.022439962821D+01 PE=-1.199090305057D+02 EE= 2.578371502567D+01
 Leave Link  502 at Sat Aug 17 14:54:31 2024, MaxMem=   13107200 cpu:       0.8
 (Enter /programs/64bit/g09/g09-gfortran/bin/l701.exe)
 Compute integral first derivatives.
 ... and contract with generalized density number  0.
 Leave Link  701 at Sat Aug 17 14:54:31 2024, MaxMem=   13107200 cpu:       0.1
 (Enter /programs/64bit/g09/g09-gfortran/bin/l702.exe)
 L702 exits ... SP integral derivatives will be done elsewhere.
 Leave Link  702 at Sat Aug 17 14:54:31 2024, MaxMem=   13107200 cpu:       0.0
 (Enter /programs/64bit/g09/g09-gfortran/bin/l703.exe)
 Compute integral first derivatives, UseDBF=F ICtDFT=           0.
 Integral derivatives from FoFDir, PRISM(SPDF).
 Calling FoFJK, ICntrl=      2127 FMM=F ISym2X=1 I1Cent= 0 IOpClX= 0 NMat=1 NMatS=1 NMatT=0.
 FoFCou: FMM=F IPFlag=           0 FMFlag=      100000 FMFlg1=         800
         NFxFlg=           0 DoJE=F BraDBF=F KetDBF=F FulRan=T
         Omega=  0.000000  0.000000  1.000000  0.000000  0.000000 ICntrl=    2127 IOpCl=  0
         NMat0=    1 NMatS0=    1 NMatT0=    0 NMatD0=    1 NMtDS0=    0 NMtDT0=    0
         I1Cent=           0 NGrid=           0.
 Petite list used in FoFCou.
 Leave Link  703 at Sat Aug 17 14:54:31 2024, MaxMem=   13107200 cpu:       0.3
 (Enter /programs/64bit/g09/g09-gfortran/bin/l716.exe)
 Dipole        = 4.44089210D-16 4.44089210D-16 4.44089210D-16
 ***** Axes restored to original set *****
 -------------------------------------------------------------------
 Center     Atomic                   Forces (Hartrees/Bohr)
 Number     Number              X              Y              Z
 -------------------------------------------------------------------
      1        6           0.000000000   -0.000000000    0.000000000
      2        1           0.000000000    0.000000000   -0.000055355
      3        1          -0.000052189   -0.000000000    0.000018452
      4        1           0.000026095    0.000045197    0.000018452
      5        1           0.000026095   -0.000045197    0.000018452
 -------------------------------------------------------------------
 Cartesian Forces:  Max     0.000055355 RMS     0.000028585
 Leave Link  716 at Sat Aug 17 14:54:31 2024, MaxMem=   13107200 cpu:       0.0
 (Enter /programs/64bit/g09/g09-gfortran/bin/l103.exe)

 GradGradGradGradGradGradGradGradGradGradGradGradGradGradGradGradGradGrad
 Berny optimization.
 Using GEDIIS/GDIIS optimizer.
 Internal  Forces:  Max     0.000055355 RMS     0.000029588
 Search for a local minimum.
 Step number   2 out of a maximum of   24
 All quantities printed in internal units (Hartrees-Bohrs-Radians)
 RMS Force = .29588D-04 SwitMx=.10000D-02 MixMth= 2
 Mixed Optimization -- En-DIIS/RFO-DIIS
 Update second derivatives using D2CorX and points    1    2
 DE= -3.62D-05 DEPred=-3.71D-05 R= 9.74D-01
 SS=  1.41D+00  RLast= 1.46D-02 DXNew= 5.0454D-01 4.3800D-02
 Trust test= 9.74D-01 RLast= 1.46D-02 DXMaxT set to 3.00D-01
 The second derivative matrix:
                          R1        R2        R3        R4        A1
           R1           0.35004
           R2           0.00191   0.35004
           R3           0.00191   0.00191   0.35004
           R4           0.00191   0.00191   0.00191   0.35004
           A1           0.00000   0.00000   0.00000   0.00000   0.16000
           A2          -0.00000  -0.00000  -0.00000  -0.00000  -0.00000
           A3          -0.00000  -0.00000  -0.00000  -0.00000  -0.00000
           A4          -0.00000  -0.00000  -0.00000  -0.00000  -0.00000
           A5          -0.00000  -0.00000  -0.00000  -0.00000  -0.00000
           A6           0.00000   0.00000   0.00000   0.00000   0.00000
           D1          -0.00000  -0.00000  -0.00000  -0.00000  -0.00000
           D2           0.00000   0.00000   0.00000   0.00000   0.00000
           D3           0.00000   0.00000   0.00000   0.00000   0.00000
           D4          -0.00000  -0.00000  -0.00000  -0.00000  -0.00000
                          A2        A3        A4        A5        A6
           A2           0.16000
           A3           0.00000   0.16000
           A4           0.00000   0.00000   0.16000
           A5           0.00000   0.00000   0.00000   0.16000
           A6          -0.00000  -0.00000  -0.00000  -0.00000   0.16000
           D1           0.00000   0.00000   0.00000   0.00000  -0.00000
           D2          -0.00000  -0.00000  -0.00000  -0.00000   0.00000
           D3          -0.00000  -0.00000  -0.00000  -0.00000   0.00000
           D4           0.00000   0.00000   0.00000   0.00000  -0.00000
                          D1        D2        D3        D4
           D1           0.00235
           D2          -0.00000   0.00235
           D3          -0.00000   0.00000   0.00235
           D4           0.00000  -0.00000  -0.00000   0.00235
 Use linear search instead of GDIIS.
     Eigenvalues ---    0.05086   0.05718   0.08643   0.16000   0.16000
     Eigenvalues ---    0.34813   0.34813   0.34813   0.355781000.00000
     Eigenvalues --- 1000.000001000.000001000.000001000.00000
 RFO step:  Lambda= 0.00000000D+00 EMin= 5.08565158D-02
 Quartic linear search produced a step of -0.02154.
 Iteration  1 RMS(Cart)=  0.00008404 RMS(Int)=  0.00000000
 Iteration  2 RMS(Cart)=  0.00000000 RMS(Int)=  0.00000000
 ClnCor:  largest displacement from symmetrization is 1.79D-14 for atom     3.
 Variable       Old X    -DE/DX   Delta X   Delta X   Delta X     New X
                                 (Linear)    (Quad)   (Total)
    R1        2.06710  -0.00006  -0.00016  -0.00000  -0.00016   2.06694
    R2        2.06710  -0.00006  -0.00016   0.00000  -0.00016   2.06694
    R3        2.06710  -0.00006  -0.00016   0.00000  -0.00016   2.06694
    R4        2.06710  -0.00006  -0.00016   0.00000  -0.00016   2.06694
    A1        1.91063  -0.00000  -0.00000  -0.00000   0.00000   1.91063
    A2        1.91063   0.00000   0.00000   0.00000   0.00000   1.91063
    A3        1.91063   0.00000   0.00000   0.00000  -0.00000   1.91063
    A4        1.91063   0.00000   0.00000   0.00000  -0.00000   1.91063
    A5        1.91063   0.00000   0.00000   0.00000   0.00000   1.91063
    A6        1.91063  -0.00000  -0.00000  -0.00000   0.00000   1.91063
    D1       -2.09440   0.00000   0.00000   0.00000   0.00000  -2.09440
    D2        2.09440  -0.00000  -0.00000  -0.00000   0.00000   2.09440
    D3       -2.09440  -0.00000  -0.00000  -0.00000  -0.00000  -2.09440
    D4        2.09440   0.00000   0.00000   0.00000   0.00000   2.09440
         Item               Value     Threshold  Converged?
 Maximum Force            0.000055     0.000450     YES
 RMS     Force            0.000030     0.000300     YES
 Maximum Displacement     0.000157     0.001800     YES
 RMS     Displacement     0.000084     0.001200     YES
 Predicted change in Energy=-1.722291D-08
 Optimization completed.
    -- Stationary point found.
                           ----------------------------
                           !   Optimized Parameters   !
                           ! (Angstroms and Degrees)  !
 --------------------------                            --------------------------
 ! Name  Definition              Value          Derivative Info.                !
 --------------------------------------------------------------------------------
 ! R1    R(1,2)                  1.0939         -DE/DX =   -0.0001              !
 ! R2    R(1,3)                  1.0939         -DE/DX =   -0.0001              !
 ! R3    R(1,4)                  1.0939         -DE/DX =   -0.0001              !
 ! R4    R(1,5)                  1.0939         -DE/DX =   -0.0001              !
 ! A1    A(2,1,3)              109.4712         -DE/DX =    0.0                 !
 ! A2    A(2,1,4)              109.4712         -DE/DX =    0.0                 !
 ! A3    A(2,1,5)              109.4712         -DE/DX =    0.0                 !
 ! A4    A(3,1,4)              109.4712         -DE/DX =    0.0                 !
 ! A5    A(3,1,5)              109.4712         -DE/DX =    0.0                 !
 ! A6    A(4,1,5)              109.4712         -DE/DX =    0.0                 !
 ! D1    D(2,1,4,3)           -120.0            -DE/DX =    0.0                 !
 ! D2    D(2,1,5,3)            120.0            -DE/DX =    0.0                 !
 ! D3    D(2,1,5,4)           -120.0            -DE/DX =    0.0                 !
 ! D4    D(3,1,5,4)            120.0            -DE/DX =    0.0                 !
 --------------------------------------------------------------------------------
 GradGradGradGradGradGradGradGradGradGradGradGradGradGradGradGradGradGrad

 Largest change from initial coordinates is atom    2       0.004 Angstoms.
 Leave Link  103 at Sat Aug 17 14:54:31 2024, MaxMem=   13107200 cpu:       0.0
 (Enter /programs/64bit/g09/g09-gfortran/bin/l202.exe)
                          Input orientation:                          
 ---------------------------------------------------------------------
 Center     Atomic      Atomic             Coordinates (Angstroms)
 Number     Number       Type             X           Y           Z
 ---------------------------------------------------------------------
      1          6           0        0.000000    0.000000   -0.000000
      2          1           0       -0.000000    0.000000    1.093863
      3          1           0        1.031304   -0.000000   -0.364621
      4          1           0       -0.515652   -0.893135   -0.364621
      5          1           0       -0.515652    0.893135   -0.364621
 ---------------------------------------------------------------------
                    Distance matrix (angstroms):
                    1          2          3          4          5
     1  C    0.000000
     2  H    1.093863   0.000000
     3  H    1.093863   1.786271   0.000000
     4  H    1.093863   1.786271   1.786271   0.000000
     5  H    1.093863   1.786271   1.786271   1.786271   0.000000
 Stoichiometry    CH4
 Framework group  TD[O(C),4C3(H)]
 Deg. of freedom     1
 Prev. full point group           TD      NOp  24
 Prev. largest Abelian subgroup   D2      NOp   4
       concise Abelian subgroup   D2      NOp   4
                   Standard orientation:
 ---------------------------------------------------------------------
 Center     Atomic                     Coordinates (Angstroms)
 Number     Number                        X           Y           Z
 ---------------------------------------------------------------------
      1          6                    0.000000    0.000000    0.000000
      2          1                    0.608204    0.475385    0.775005
      3          1                   -1.028189   -0.106734    0.357731
      4          1                    0.009864    0.618808   -0.901951
      5          1                    0.410121   -0.987459   -0.230785
 ---------------------------------------------------------------------
 TstSym:  Max error for IOp=  2 IAt=    3 Err= 1.96D+00
 TstSym:  IOp= 25 I=    6 IP=    4 Err= 1.96D+00
  CI=  0.000000000000D+00  0.000000000000D+00  0.000000000000D+00
   T= -1.942995846882D+00  2.016973065046D-01 -6.760130005010D-01
 CIP=  1.864052019332D-02  1.169376961414D+00 -1.704440757087D+00
 Unable to use previous symmetry information.  Redetermining point group.
 No symmetry information on checkpoint file.  Reassigning symmetry.
 Symm:  InNGrp=TD   InAxis=0.
 Stoichiometry    CH4
 Framework group  TD[O(C),4C3(H)]
 Deg. of freedom     1
 Full point group                 TD      NOp  24
 Largest Abelian subgroup         D2      NOp   4
 Largest concise Abelian subgroup D2      NOp   4
                         Standard orientation:                         
 ---------------------------------------------------------------------
 Center     Atomic      Atomic             Coordinates (Angstroms)
 Number     Number       Type             X           Y           Z
 ---------------------------------------------------------------------
      1          6           0        0.000000    0.000000    0.000000
      2          1           0        0.631542    0.631542    0.631542
      3          1           0       -0.631542   -0.631542    0.631542
      4          1           0       -0.631542    0.631542   -0.631542
      5          1           0        0.631542   -0.631542   -0.631542
 ---------------------------------------------------------------------
 Rotational constants (GHZ):    157.1583613    157.1583613    157.1583613
 Leave Link  202 at Sat Aug 17 14:54:31 2024, MaxMem=   13107200 cpu:       0.0
 (Enter /programs/64bit/g09/g09-gfortran/bin/l601.exe)
 Copying SCF densities to generalized density rwf, IOpCl= 0 IROHF=0.

 **********************************************************************

            Population analysis using the SCF density.

 **********************************************************************

 Orbital symmetries:
       Occupied  (A1) (A1) (T2) (T2) (T2)
       Virtual   (A1) (T2) (T2) (T2) (T2) (T2) (T2) (A1) (T2) (T2)
                 (T2) (T2) (T2) (T2) (A1) (A1)
 The electronic state is 1-A1.
 Alpha  occ. eigenvalues --  -10.16570  -0.69852  -0.39547  -0.39547  -0.39547
 Alpha virt. eigenvalues --    0.01668   0.06166   0.06166   0.06166   0.18079
 Alpha virt. eigenvalues --    0.18079   0.18079   0.27569   0.65200   0.65200
 Alpha virt. eigenvalues --    0.65200   0.99212   0.99212   0.99212   1.06123
 Alpha virt. eigenvalues --    1.12849
     Molecular Orbital Coefficients:
                           1         2         3         4         5
                        (A1)--O   (A1)--O   (T2)--O   (T2)--O   (T2)--O
     Eigenvalues --   -10.16570  -0.69852  -0.39547  -0.39547  -0.39547
   1 1   C  1S          0.99523  -0.19953   0.00000   0.00000   0.00000
   2        2S          0.03672   0.38134   0.00000   0.00000   0.00000
   3        2PX         0.00000   0.00000   0.00000   0.44896   0.00000
   4        2PY         0.00000   0.00000   0.00000   0.00000   0.44896
   5        2PZ         0.00000   0.00000   0.44896   0.00000   0.00000
   6        3S         -0.03153   0.39065   0.00000   0.00000   0.00000
   7        3PX         0.00000   0.00000   0.00000   0.20442   0.00000
   8        3PY         0.00000   0.00000   0.00000   0.00000   0.20442
   9        3PZ         0.00000   0.00000   0.20442   0.00000   0.00000
  10        4S         -0.00197   0.02721   0.00000   0.00000   0.00000
  11        4PX         0.00000   0.00000   0.00000   0.03701   0.00000
  12        4PY         0.00000   0.00000   0.00000   0.00000   0.03701
  13        4PZ         0.00000   0.00000   0.03701   0.00000   0.00000
  14 2   H  1S         -0.00089   0.13586   0.17544   0.17544   0.17544
  15        2S          0.00688   0.02151   0.13145   0.13145   0.13145
  16 3   H  1S         -0.00089   0.13586   0.17544  -0.17544  -0.17544
  17        2S          0.00688   0.02151   0.13145  -0.13145  -0.13145
  18 4   H  1S         -0.00089   0.13586  -0.17544  -0.17544   0.17544
  19        2S          0.00688   0.02151  -0.13145  -0.13145   0.13145
  20 5   H  1S         -0.00089   0.13586  -0.17544   0.17544  -0.17544
  21        2S          0.00688   0.02151  -0.13145   0.13145  -0.13145
                           6         7         8         9        10
                        (A1)--V   (T2)--V   (T2)--V   (T2)--V   (T2)--V
     Eigenvalues --     0.01668   0.06166   0.06166   0.06166   0.18079
   1 1   C  1S          0.08916   0.00000   0.00000   0.00000   0.00000
   2        2S         -0.17409   0.00000   0.00000   0.00000   0.00000
   3        2PX         0.00000  -0.18781   0.00000   0.00000   0.00000
   4        2PY         0.00000   0.00000  -0.18781   0.00000   0.32483
   5        2PZ         0.00000   0.00000   0.00000  -0.18781   0.00000
   6        3S         -0.65706   0.00000   0.00000   0.00000   0.00000
   7        3PX         0.00000  -0.18775   0.00000   0.00000   0.00000
   8        3PY         0.00000   0.00000  -0.18775   0.00000   1.40965
   9        3PZ         0.00000   0.00000   0.00000  -0.18775   0.00000
  10        4S          1.47205   0.00000   0.00000   0.00000   0.00000
  11        4PX         0.00000   1.17661   0.00000   0.00000   0.00000
  12        4PY         0.00000   0.00000   1.17661   0.00000   0.33076
  13        4PZ         0.00000   0.00000   0.00000   1.17661   0.00000
  14 2   H  1S          0.01470  -0.03208  -0.03208  -0.03208  -0.10535
  15        2S         -0.07799  -0.12953  -0.12953  -0.12953  -1.15898
  16 3   H  1S          0.01470   0.03208   0.03208  -0.03208   0.10535
  17        2S         -0.07799   0.12953   0.12953  -0.12953   1.15898
  18 4   H  1S          0.01470   0.03208  -0.03208   0.03208  -0.10535
  19        2S         -0.07799   0.12953  -0.12953   0.12953  -1.15898
  20 5   H  1S          0.01470  -0.03208   0.03208   0.03208   0.10535
  21        2S         -0.07799  -0.12953   0.12953   0.12953   1.15898
                          11        12        13        14        15
                        (T2)--V   (T2)--V   (A1)--V   (T2)--V   (T2)--V
     Eigenvalues --     0.18079   0.18079   0.27569   0.65200   0.65200
   1 1   C  1S          0.00000   0.00000  -0.15366   0.00000   0.00000
   2        2S          0.00000   0.00000   0.19032   0.00000   0.00000
   3        2PX         0.32483   0.00000   0.00000   0.00000  -0.99927
   4        2PY         0.00000   0.00000   0.00000  -0.99927   0.00000
   5        2PZ         0.00000   0.32483   0.00000   0.00000   0.00000
   6        3S          0.00000   0.00000   3.12037   0.00000   0.00000
   7        3PX         1.40965   0.00000   0.00000   0.00000   1.74586
   8        3PY         0.00000   0.00000   0.00000   1.74586   0.00000
   9        3PZ         0.00000   1.40965   0.00000   0.00000   0.00000
  10        4S          0.00000   0.00000   1.85629   0.00000   0.00000
  11        4PX         0.33076   0.00000   0.00000   0.00000  -0.56219
  12        4PY         0.00000   0.00000   0.00000  -0.56219   0.00000
  13        4PZ         0.00000   0.33076   0.00000   0.00000   0.00000
  14 2   H  1S         -0.10535  -0.10535  -0.07556  -0.17117  -0.17117
  15        2S         -1.15898  -1.15898  -1.61072  -0.14925  -0.14925
  16 3   H  1S          0.10535  -0.10535  -0.07556   0.17117   0.17117
  17        2S          1.15898  -1.15898  -1.61072   0.14925   0.14925
  18 4   H  1S          0.10535   0.10535  -0.07556  -0.17117   0.17117
  19        2S          1.15898   1.15898  -1.61072  -0.14925   0.14925
  20 5   H  1S         -0.10535   0.10535  -0.07556   0.17117  -0.17117
  21        2S         -1.15898   1.15898  -1.61072   0.14925  -0.14925
                          16        17        18        19        20
                        (T2)--V   (T2)--V   (T2)--V   (T2)--V   (A1)--V
     Eigenvalues --     0.65200   0.99212   0.99212   0.99212   1.06123
   1 1   C  1S          0.00000   0.00000   0.00000   0.00000  -0.10236
   2        2S          0.00000   0.00000   0.00000   0.00000  -0.37737
   3        2PX         0.00000   0.00000   0.00000   0.59642   0.00000
   4        2PY         0.00000   0.00000   0.59642   0.00000   0.00000
   5        2PZ        -0.99927   0.59642   0.00000   0.00000   0.00000
   6        3S          0.00000   0.00000   0.00000   0.00000   0.85106
   7        3PX         0.00000   0.00000   0.00000  -0.65785   0.00000
   8        3PY         0.00000   0.00000  -0.65785   0.00000   0.00000
   9        3PZ         1.74586  -0.65785   0.00000   0.00000   0.00000
  10        4S          0.00000   0.00000   0.00000   0.00000  -0.79206
  11        4PX         0.00000   0.00000   0.00000  -0.41178   0.00000
  12        4PY         0.00000   0.00000  -0.41178   0.00000   0.00000
  13        4PZ        -0.56219  -0.41178   0.00000   0.00000   0.00000
  14 2   H  1S         -0.17117  -0.68021  -0.68021  -0.68021  -0.73298
  15        2S         -0.14925   1.08174   1.08174   1.08174   0.47983
  16 3   H  1S         -0.17117  -0.68021   0.68021   0.68021  -0.73298
  17        2S         -0.14925   1.08174  -1.08174  -1.08174   0.47983
  18 4   H  1S          0.17117   0.68021  -0.68021   0.68021  -0.73298
  19        2S          0.14925  -1.08174   1.08174  -1.08174   0.47983
  20 5   H  1S          0.17117   0.68021   0.68021  -0.68021  -0.73298
  21        2S          0.14925  -1.08174  -1.08174   1.08174   0.47983
                          21
                        (A1)--V
     Eigenvalues --     1.12849
   1 1   C  1S         -0.02596
   2        2S         -2.39532
   3        2PX         0.00000
   4        2PY         0.00000
   5        2PZ         0.00000
   6        3S          5.90791
   7        3PX         0.00000
   8        3PY         0.00000
   9        3PZ         0.00000
  10        4S          0.68468
  11        4PX         0.00000
  12        4PY         0.00000
  13        4PZ         0.00000
  14 2   H  1S          0.10024
  15        2S         -1.59849
  16 3   H  1S          0.10024
  17        2S         -1.59849
  18 4   H  1S          0.10024
  19        2S         -1.59849
  20 5   H  1S          0.10024
  21        2S         -1.59849
     Density Matrix:
                           1         2         3         4         5
   1 1   C  1S          2.06058
   2        2S         -0.07909   0.29354
[...]
     5   1    -0.28   0.30   0.30    -0.28   0.26   0.28     0.30  -0.30  -0.28

 -------------------
 - Thermochemistry -
 -------------------
 Temperature   298.150 Kelvin.  Pressure   1.00000 Atm.
 Atom     1 has atomic number  6 and mass  12.00000
 Atom     2 has atomic number  1 and mass   1.00783
 Atom     3 has atomic number  1 and mass   1.00783
 Atom     4 has atomic number  1 and mass   1.00783
 Atom     5 has atomic number  1 and mass   1.00783
 Molecular mass:    16.03130 amu.
 Principal axes and moments of inertia in atomic units:
                           1         2         3
     Eigenvalues --    11.48358  11.48358  11.48358
           X           -0.36405   0.93077  -0.03376
           Y            0.91827   0.35263  -0.18007
           Z            0.15570   0.09656   0.98307
 This molecule is a spherical top.
 Rotational symmetry number 12.
 Rotational temperatures (Kelvin)      7.54240     7.54240     7.54240
 Rotational constants (GHZ):         157.15836   157.15836   157.15836
 Zero-point vibrational energy     118945.9 (Joules/Mol)
                                   28.42875 (Kcal/Mol)
 Vibrational temperatures:   2010.63  2010.63  2010.63  2292.17  2292.17
          (Kelvin)           4370.89  4541.54  4541.54  4541.54
 
 Zero-point correction=                           0.045304 (Hartree/Particle)
 Thermal correction to Energy=                    0.048166
 Thermal correction to Enthalpy=                  0.049110
 Thermal correction to Gibbs Free Energy=         0.027980
 Sum of electronic and zero-point Energies=            -40.467669
 Sum of electronic and thermal Energies=               -40.464808
 Sum of electronic and thermal Enthalpies=             -40.463863
 Sum of electronic and thermal Free Energies=          -40.484994
 
                     E (Thermal)             CV                S
                      KCal/Mol        Cal/Mol-Kelvin    Cal/Mol-Kelvin
 Total                   30.225              6.390             44.472
 Electronic               0.000              0.000              0.000
 Translational            0.889              2.981             34.261
 Rotational               0.889              2.981             10.141
 Vibrational             28.447              0.428              0.070
                       Q            Log10(Q)             Ln(Q)
 Total Bot       0.134968D-12        -12.869768        -29.633736
 Total V=0       0.930303D+08          7.968624         18.348436
 Vib (Bot)       0.145728D-20        -20.836458        -47.977717
 Vib (V=0)       0.100446D+01          0.001935          0.004455
 Electronic      0.100000D+01          0.000000          0.000000
 Translational   0.252295D+07          6.401908         14.740939
 Rotational      0.367097D+02          1.564781          3.603042
 
                                      methane with imposed symmetry and hf/6-31+G
  basis function
                                                             IR Spectrum
 
      3   3                                                         1       1                                                        
      1   0                                                         5       3                                                        
      5   3                                                         9       9                                                        
      7   8                                                         3       7                                                        
 
      X                                                                     X                                                        
      X                                                                     X                                                        
      X                                                                     X                                                        
      X                                                                     X                                                        
      X                                                                     X                                                        
      X                                                                     X                                                        
      X                                                                     X                                                        
      X                                                                     X                                                        
      X                                                                     X                                                        
      X                                                                     X                                                        
      X                                                                     X                                                        
      X                                                                     X                                                        
      X                                                                     X                                                        
      X                                                                     X                                                        
      X                                                                     X                                                        
      X                                                                     X                                                        
      X                                                                     X                                                        
      X                                                                     X                                                        
      X                                                                     X                                                        
      X                                                                     X                                                        
 
 ***** Axes restored to original set *****
 -------------------------------------------------------------------
 Center     Atomic                   Forces (Hartrees/Bohr)
 Number     Number              X              Y              Z
 -------------------------------------------------------------------
      1        6           0.000000000   -0.000000000    0.000000000
      2        1          -0.000000000   -0.000000000   -0.000055355
      3        1          -0.000052189    0.000000000    0.000018452
      4        1           0.000026095    0.000045197    0.000018452
      5        1           0.000026095   -0.000045197    0.000018452
 -------------------------------------------------------------------
 Cartesian Forces:  Max     0.000055355 RMS     0.000028585
 Force constants in Cartesian coordinates: 
                1             2             3             4             5 
      1  0.550575D+00
      2  0.000000D+00  0.550575D+00
      3  0.000000D+00  0.000000D+00  0.550575D+00
      4 -0.480305D-01  0.000000D+00  0.000000D+00  0.477053D-01
      5  0.000000D+00 -0.480305D-01  0.000000D+00  0.000000D+00  0.477053D-01
      6  0.000000D+00  0.000000D+00 -0.316870D+00  0.000000D+00  0.000000D+00
      7 -0.286999D+00  0.000000D+00  0.844881D-01  0.101127D-02  0.000000D+00
      8  0.000000D+00 -0.480305D-01  0.000000D+00  0.000000D+00 -0.794497D-03
      9  0.844881D-01  0.000000D+00 -0.779015D-01  0.335166D-01  0.000000D+00
     10 -0.107773D+00 -0.103476D+00 -0.422441D-01 -0.343056D-03  0.781920D-03
     11 -0.103476D+00 -0.227257D+00 -0.731689D-01  0.781920D-03  0.559828D-03
     12 -0.422441D-01 -0.731689D-01 -0.779015D-01 -0.167583D-01 -0.290262D-01
     13 -0.107773D+00  0.103476D+00 -0.422441D-01 -0.343056D-03 -0.781920D-03
     14  0.103476D+00 -0.227257D+00  0.731689D-01 -0.781920D-03  0.559827D-03
     15 -0.422441D-01  0.731689D-01 -0.779015D-01 -0.167583D-01  0.290262D-01
                6             7             8             9            10 
      6  0.347327D+00
      7 -0.194095D-02  0.314036D+00
      8  0.000000D+00  0.000000D+00  0.477053D-01
      9 -0.101524D-01 -0.941621D-01  0.000000D+00  0.809966D-01
     10  0.970475D-03 -0.140241D-01 -0.271055D-01 -0.119213D-01  0.114288D+00
     11  0.168091D-02  0.184542D-02  0.559827D-03  0.176897D-03  0.115325D+00
     12 -0.101524D-01  0.580746D-02  0.104126D-01  0.352865D-02  0.470810D-01
     13  0.970475D-03 -0.140241D-01  0.271055D-01 -0.119213D-01  0.785180D-02
     14 -0.168091D-02 -0.184542D-02  0.559828D-03 -0.176897D-03  0.144755D-01
     15 -0.101524D-01  0.580746D-02 -0.104126D-01  0.352865D-02  0.611385D-02
               11            12            13            14            15 
     11  0.247453D+00
     12  0.815468D-01  0.809966D-01
     13 -0.144755D-01  0.611385D-02  0.114288D+00
     14 -0.213161D-01  0.102357D-01 -0.115325D+00  0.247453D+00
     15 -0.102357D-01  0.352865D-02  0.470810D-01 -0.815468D-01  0.809966D-01
 Force constants in internal coordinates: 
                1             2             3             4             5 
      1  0.347327D+00
      2  0.155419D-02  0.347327D+00
      3  0.155419D-02  0.155419D-02  0.347327D+00
      4  0.155419D-02  0.155419D-02  0.155419D-02  0.347327D+00
      5  0.232897D-02  0.232897D-02 -0.146238D-02 -0.319556D-02  0.205796D-01
      6  0.365006D-02 -0.941950D-03  0.406216D-02 -0.677026D-02 -0.893227D-02
      7  0.713291D-02 -0.572470D-02 -0.633697D-02  0.492875D-02 -0.135637D-01
      8 -0.941950D-03  0.365006D-02  0.406216D-02 -0.677026D-02 -0.893227D-02
      9 -0.572470D-02  0.713291D-02 -0.633697D-02  0.492875D-02 -0.135637D-01
     10 -0.644529D-02 -0.644529D-02  0.601199D-02  0.687859D-02  0.244125D-01
     11 -0.451076D-02 -0.451076D-02 -0.318407D-02  0.122056D-01 -0.142650D-01
     12  0.371475D-02  0.371475D-02 -0.955221D-02  0.212271D-02  0.859258D-02
     13 -0.489147D-02  0.860621D-02 -0.477610D-02  0.106136D-02  0.429629D-02
     14 -0.860621D-02  0.489147D-02  0.477610D-02 -0.106136D-02 -0.429629D-02
                6             7             8             9            10 
      6  0.390014D-01
      7 -0.235852D-01  0.761857D-01
      8 -0.180283D-02  0.251709D-01  0.390014D-01
      9  0.251709D-01 -0.366036D-01 -0.235852D-01  0.761857D-01
     10 -0.298521D-01 -0.276041D-01 -0.298521D-01 -0.276041D-01  0.905000D-01
     11 -0.118396D-01  0.156411D-01 -0.118396D-01  0.156411D-01  0.666215D-02
     12 -0.996867D-02  0.762686D-02 -0.996867D-02  0.762686D-02 -0.390896D-02
     13 -0.150433D-01 -0.864199D-03  0.507462D-02  0.849106D-02 -0.195448D-02
     14 -0.507462D-02 -0.849106D-02  0.150433D-01  0.864199D-03  0.195448D-02
               11            12            13            14 
     11  0.319715D-01
     12  0.168536D-02  0.198647D-01
     13  0.842680D-03  0.993234D-02  0.201503D-01
     14 -0.842680D-03 -0.993234D-02  0.102179D-01  0.201503D-01
 Leave Link  716 at Sat Aug 17 14:54:38 2024, MaxMem=   13107200 cpu:       0.0
 (Enter /programs/64bit/g09/g09-gfortran/bin/l103.exe)

 GradGradGradGradGradGradGradGradGradGradGradGradGradGradGradGradGradGrad
 Berny optimization.
 Internal  Forces:  Max     0.000055355 RMS     0.000029588
 Search for a local minimum.
 Step number   1 out of a maximum of    2
 All quantities printed in internal units (Hartrees-Bohrs-Radians)
 Second derivative matrix not updated -- analytic derivatives used.
 The second derivative matrix:
                          R1        R2        R3        R4        A1
           R1           0.34733
           R2           0.00155   0.34733
           R3           0.00155   0.00155   0.34733
           R4           0.00155   0.00155   0.00155   0.34733
           A1           0.00233   0.00233  -0.00146  -0.00320   0.02058
           A2           0.00365  -0.00094   0.00406  -0.00677  -0.00893
           A3           0.00713  -0.00572  -0.00634   0.00493  -0.01356
           A4          -0.00094   0.00365   0.00406  -0.00677  -0.00893
           A5          -0.00572   0.00713  -0.00634   0.00493  -0.01356
           A6          -0.00645  -0.00645   0.00601   0.00688   0.02441
           D1          -0.00451  -0.00451  -0.00318   0.01221  -0.01426
           D2           0.00371   0.00371  -0.00955   0.00212   0.00859
           D3          -0.00489   0.00861  -0.00478   0.00106   0.00430
           D4          -0.00861   0.00489   0.00478  -0.00106  -0.00430
                          A2        A3        A4        A5        A6
           A2           0.03900
           A3          -0.02359   0.07619
           A4          -0.00180   0.02517   0.03900
           A5           0.02517  -0.03660  -0.02359   0.07619
           A6          -0.02985  -0.02760  -0.02985  -0.02760   0.09050
           D1          -0.01184   0.01564  -0.01184   0.01564   0.00666
           D2          -0.00997   0.00763  -0.00997   0.00763  -0.00391
           D3          -0.01504  -0.00086   0.00507   0.00849  -0.00195
           D4          -0.00507  -0.00849   0.01504   0.00086   0.00195
                          D1        D2        D3        D4
           D1           0.03197
           D2           0.00169   0.01986
           D3           0.00084   0.00993   0.02015
           D4          -0.00084  -0.00993   0.01022   0.02015
     Eigenvalues ---    0.04044   0.04562   0.06947   0.13663   0.13700
     Eigenvalues ---    0.34711   0.34712   0.34753   0.351991000.00000
     Eigenvalues --- 1000.000001000.000001000.000001000.00000
 Angle between quadratic step and forces=   0.00 degrees.
 Linear search not attempted -- first point.
 Iteration  1 RMS(Cart)=  0.00008406 RMS(Int)=  0.00000000
 Iteration  2 RMS(Cart)=  0.00000000 RMS(Int)=  0.00000000
 ClnCor:  largest displacement from symmetrization is 1.11D-13 for atom     5.
 Variable       Old X    -DE/DX   Delta X   Delta X   Delta X     New X
                                 (Linear)    (Quad)   (Total)
    R1        2.06710  -0.00006   0.00000  -0.00016  -0.00016   2.06694
    R2        2.06710  -0.00006   0.00000  -0.00016  -0.00016   2.06694
    R3        2.06710  -0.00006   0.00000  -0.00016  -0.00016   2.06694
    R4        2.06710  -0.00006   0.00000  -0.00016  -0.00016   2.06694
    A1        1.91063  -0.00000   0.00000   0.00000  -0.00000   1.91063
    A2        1.91063  -0.00000   0.00000  -0.00000   0.00000   1.91063
    A3        1.91063   0.00000   0.00000   0.00000  -0.00000   1.91063
    A4        1.91063   0.00000   0.00000   0.00000  -0.00000   1.91063
    A5        1.91063  -0.00000   0.00000  -0.00000   0.00000   1.91063
    A6        1.91063  -0.00000   0.00000  -0.00000  -0.00000   1.91063
    D1       -2.09440  -0.00000   0.00000  -0.00000   0.00000  -2.09440
    D2        2.09440  -0.00000   0.00000   0.00000  -0.00000   2.09440
    D3       -2.09440   0.00000   0.00000   0.00000   0.00000  -2.09440
    D4        2.09440   0.00000   0.00000   0.00000   0.00000   2.09440
         Item               Value     Threshold  Converged?
 Maximum Force            0.000055     0.000450     YES
 RMS     Force            0.000030     0.000300     YES
 Maximum Displacement     0.000157     0.001800     YES
 RMS     Displacement     0.000084     0.001200     YES
 Predicted change in Energy=-1.741047D-08
 Optimization completed.
    -- Stationary point found.
                           ----------------------------
                           !   Optimized Parameters   !
                           ! (Angstroms and Degrees)  !
 --------------------------                            --------------------------
 ! Name  Definition              Value          Derivative Info.                !
 --------------------------------------------------------------------------------
 ! R1    R(1,2)                  1.0939         -DE/DX =   -0.0001              !
 ! R2    R(1,3)                  1.0939         -DE/DX =   -0.0001              !
 ! R3    R(1,4)                  1.0939         -DE/DX =   -0.0001              !
 ! R4    R(1,5)                  1.0939         -DE/DX =   -0.0001              !
 ! A1    A(2,1,3)              109.4712         -DE/DX =    0.0                 !
 ! A2    A(2,1,4)              109.4712         -DE/DX =    0.0                 !
 ! A3    A(2,1,5)              109.4712         -DE/DX =    0.0                 !
 ! A4    A(3,1,4)              109.4712         -DE/DX =    0.0                 !
 ! A5    A(3,1,5)              109.4712         -DE/DX =    0.0                 !
 ! A6    A(4,1,5)              109.4712         -DE/DX =    0.0                 !
 ! D1    D(2,1,4,3)           -120.0            -DE/DX =    0.0                 !
 ! D2    D(2,1,5,3)            120.0            -DE/DX =    0.0                 !
 ! D3    D(2,1,5,4)           -120.0            -DE/DX =    0.0                 !
 ! D4    D(3,1,5,4)            120.0            -DE/DX =    0.0                 !
 --------------------------------------------------------------------------------
 GradGradGradGradGradGradGradGradGradGradGradGradGradGradGradGradGradGrad

 Leave Link  103 at Sat Aug 17 14:54:39 2024, MaxMem=   13107200 cpu:       0.0
 (Enter /programs/64bit/g09/g09-gfortran/bin/l9999.exe)
 1\1\GINC-MOLMOD\Freq\RB3LYP\6-31+G\C1H4\OSPITE\17-Aug-2024\0\\#P Geom=
 AllCheck Guess=TCheck SCRF=Check GenChk RB3LYP/6-31+G Freq\\methane wi
 th imposed symmetry and hf/6-31+G basis function\\0,1\C,0.,0.,0.\H,0.,
 0.,1.0938629543\H,1.0313038835,0.,-0.3646209848\H,-0.5156519418,-0.893
 1353622,-0.3646209848\H,-0.5156519418,0.8931353622,-0.3646209848\\Vers
 ion=EM64L-G09RevA.02\State=1-A1\HF=-40.5129735\RMSD=7.930e-12\RMSF=2.8
 59e-05\ZeroPoint=0.0453041\Thermal=0.0481659\Dipole=0.,0.,0.\DipoleDer
 iv=-0.0654733,0.,0.,0.,-0.0654733,0.,0.,0.,-0.0654733,0.1051197,0.,0.,
 0.,0.1051197,0.,0.,0.,-0.1611344,-0.1315506,0.,0.0836756,0.,0.1051197,
 0.,0.0836756,0.,0.0755359,0.0459521,-0.1024812,-0.0418378,-0.1024812,-
 0.072383,-0.0724652,-0.0418378,-0.0724652,0.0755359,0.0459521,0.102481
 2,-0.0418378,0.1024812,-0.072383,0.0724652,-0.0418378,0.0724652,0.0755
 359\Polar=13.1552389,0.,13.1552389,0.,0.,13.1552389\PG=TD [O(C1),4C3(H
 1)]\NImag=0\\0.55057458,0.,0.55057458,0.,0.,0.55057458,-0.04803046,0.,
 0.,0.04770531,0.,-0.04803046,0.,0.,0.04770531,0.,0.,-0.31687001,0.,0.,
 0.34732723,-0.28699895,0.,0.08448812,0.00101127,0.,-0.00194095,0.31403
 591,0.,-0.04803046,0.,0.,-0.00079450,0.,0.,0.04770531,0.08448812,0.,-0
 .07790152,0.03351660,0.,-0.01015241,-0.09416209,0.,0.08099663,-0.10777
 258,-0.10347639,-0.04224406,-0.00034306,0.00078192,0.00097048,-0.01402
 411,-0.02710555,-0.01192131,0.11428796,-0.10347639,-0.22725683,-0.0731
 6886,0.00078192,0.00055983,0.00168091,0.00184542,0.00055983,0.00017690
 ,0.11532453,0.24745326,-0.04224406,-0.07316886,-0.07790152,-0.01675830
 ,-0.02902622,-0.01015241,0.00580746,0.01041261,0.00352865,0.04708104,0
 .08154676,0.08099663,-0.10777258,0.10347639,-0.04224406,-0.00034306,-0
 .00078192,0.00097048,-0.01402411,0.02710555,-0.01192131,0.00785180,-0.
 01447548,0.00611385,0.11428796,0.10347639,-0.22725683,0.07316886,-0.00
 078192,0.00055983,-0.00168091,-0.00184542,0.00055983,-0.00017690,0.014
 47548,-0.02131608,0.01023571,-0.11532453,0.24745326,-0.04224406,0.0731
 6886,-0.07790152,-0.01675830,0.02902622,-0.01015241,0.00580746,-0.0104
 1261,0.00352865,0.00611385,-0.01023571,0.00352865,0.04708104,-0.081546
 76,0.08099663\\0.,0.,0.,0.,0.,0.00005535,0.00005219,0.,-0.00001845,-0.
 00002609,-0.00004520,-0.00001845,-0.00002609,0.00004520,-0.00001845\\\
 @


 ABSOLUTISM, OBSOLETISM -- IF IT WORKS, IT'S OUT OF DATE

                          -- STAFFORD BEER
 Job cpu time:  0 days  0 hours  0 minutes  6.9 seconds.
 File lengths (MBytes):  RWF=      5 Int=      0 D2E=      0 Chk=      1 Scr=      1
 Normal termination of Gaussian 09 at Sat Aug 17 14:54:39 2024.
