 Entering Gaussian System, Link 0=/programs/64bit/g09/g09-gfortran/bin/g09
 Input=ch3.com
 Output=ch3.log
 Initial command:
 /programs/64bit/g09/g09-gfortran/bin/l1.exe /home/ospite/Desktop/MMfP/Project5/CH3/Gau-3544.inp -scrdir=/home/ospite/Desktop/MMfP/Project5/CH3/
 Entering Link 1 = /programs/64bit/g09/g09-gfortran/bin/l1.exe PID=      3545.
  
 Copyright (c) 1988,1990,1992,1993,1995,1998,2003,2009, Gaussian, Inc.
                  All Rights Reserved.
  
 This is part of the Gaussian(R) 09 program.  It is based on
 the Gaussian(R) 03 system (copyright 2003, Gaussian, Inc.),
 the Gaussian(R) 98 system (copyright 1998, Gaussian, Inc.),
 the Gaussian(R) 94 system (copyright 1995, Gaussian, Inc.),
 the Gaussian 92(TM) system (copyright 1992, Gaussian, Inc.),
 the Gaussian 90(TM) system (copyright 1990, Gaussian, Inc.),
 the Gaussian 88(TM) system (copyright 1988, Gaussian, Inc.),
 the Gaussian 86(TM) system (copyright 1986, Carnegie Mellon
 University), and the Gaussian 82(TM) system (copyright 1983,
 Carnegie Mellon University). Gaussian is a federally registered
 trademark of Gaussian, Inc.
  
 This software contains proprietary and confidential information,
 including trade secrets, belonging to Gaussian, Inc.
  
 This software is provided under written license and may be
 used, copied, transmitted, or stored only in accord with that
 written license.
  
 The following legend is applicable only to US Government
 contracts under FAR:
  
                    RESTRICTED RIGHTS LEGEND
  
 Use, reproduction and disclosure by the US Government is
 subject to restrictions as set forth in subparagraphs (a)
 and (c) of the Commercial Computer Software - Restricted
 Rights clause in FAR 52.227-19.
  
 Gaussian, Inc.
 340 Quinnipiac St., Bldg. 40, Wallingford CT 06492
  
  
 ---------------------------------------------------------------
 Warning -- This program may not be used in any manner that
 competes with the business of Gaussian, Inc. or will provide
 assistance to any competitor of Gaussian, Inc.  The licensee
 of this program is prohibited from giving any competitor of
 Gaussian, Inc. access to this program.  By using this program,
 the user acknowledges that Gaussian, Inc. is engaged in the
 business of creating and licensing software in the field of
 computational chemistry and represents and warrants to the
 licensee that it is not a competitor of Gaussian, Inc. and that
 it will not use this program in any manner prohibited above.
 ---------------------------------------------------------------
  

 Cite this work as:
 Gaussian 09, Revision A.02,
 M. J. Frisch, G. W. Trucks, H. B. Schlegel, G. E. Scuseria, 
 M. A. Robb, J. R. Cheeseman, G. Scalmani, V. Barone, B. Mennucci, 
 G. A. Petersson, H. Nakatsuji, M. Caricato, X. Li, H. P. Hratchian, 
 A. F. Izmaylov, J. Bloino, G. Zheng, J. L. Sonnenberg, M. Hada, 
 M. Ehara, K. Toyota, R. Fukuda, J. Hasegawa, M. Ishida, T. Nakajima, 
 Y. Honda, O. Kitao, H. Nakai, T. Vreven, J. A. Montgomery, Jr., 
 J. E. Peralta, F. Ogliaro, M. Bearpark, J. J. Heyd, E. Brothers, 
 K. N. Kudin, V. N. Staroverov, R. Kobayashi, J. Normand, 
 K. Raghavachari, A. Rendell, J. C. Burant, S. S. Iyengar, J. Tomasi, 
 M. Cossi, N. Rega, J. M. Millam, M. Klene, J. E. Knox, J. B. Cross, 
 V. Bakken, C. Adamo, J. Jaramillo, R. Gomperts, R. E. Stratmann, 
 O. Yazyev, A. J. Austin, R. Cammi, C. Pomelli, J. W. Ochterski, 
 R. L. Martin, K. Morokuma, V. G. Zakrzewski, G. A. Voth, 
 P. Salvador, J. J. Dannenberg, S. Dapprich, A. D. Daniels, 
 O. Farkas, J. B. Foresman, J. V. Ortiz, J. Cioslowski, 
 and D. J. Fox, Gaussian, Inc., Wallingford CT, 2009.
 
 ******************************************
 Gaussian 09:  EM64L-G09RevA.02 11-Jun-2009
                16-Aug-2024 
 ******************************************
 %NProcShared=2
 Will use up to    2 processors via shared memory.
 %mem=100MB
 ----------------------------------------------
 #p B3LYP/6-31+g(d,p) opt freq pop=full gfinput
 ----------------------------------------------
 1/14=-1,18=20,19=15,26=3,38=1/1,3;
 2/9=110,12=2,17=6,18=5,40=1/2;
 3/5=1,6=6,7=111,11=2,16=1,24=10,25=1,30=1,71=1,74=-5/1,2,3;
 4//1;
 5/5=2,38=5/2;
 6/7=3,28=1/1;
 7//1,2,3,16;
 1/14=-1,18=20,19=15/3(2);
 2/9=110/2;
 99//99;
 2/9=110/2;
 3/5=1,6=6,7=111,11=2,16=1,25=1,30=1,71=1,74=-5/1,2,3;
 4/5=5,16=3/1;
 5/5=2,38=5/2;
 7//1,2,3,16;
 1/14=-1,18=20,19=15/3(-5);
 2/9=110/2;
 6/7=3,19=2,28=1/1;
 99/9=1/99;
 Leave Link    1 at Fri Aug 16 12:59:29 2024, MaxMem=   13107200 cpu:       0.1
 (Enter /programs/64bit/g09/g09-gfortran/bin/l101.exe)
 --------------
 methil_radical
 --------------
 Symbolic Z-matrix:
 Charge =  0 Multiplicity = 2
 C1
 H2                   1    r
 H3                   1    r        2    a
 H4                   1    r        2    -a       3    t        0
       Variables:
  r                     1.09                     
  a                   120.                       
  t                     0.                       
 
 NAtoms=      4 NQM=      4 NQMF=      0 NMic=      0 NMicF=      0 NTot=      4.
                    Isotopes and Nuclear Properties:
 (Nuclear quadrupole moments (NQMom) in fm**2, nuclear magnetic moments (NMagM)
  in nuclear magnetons)

  Atom         1           2           3           4
 IAtWgt=          12           1           1           1
 AtmWgt=  12.0000000   1.0078250   1.0078250   1.0078250
 NucSpn=           0           1           1           1
 AtZEff=   0.0000000   0.0000000   0.0000000   0.0000000
 NQMom=    0.0000000   0.0000000   0.0000000   0.0000000
 NMagM=    0.0000000   2.7928460   2.7928460   2.7928460
 Leave Link  101 at Fri Aug 16 12:59:30 2024, MaxMem=   13107200 cpu:       0.1
 (Enter /programs/64bit/g09/g09-gfortran/bin/l103.exe)

 GradGradGradGradGradGradGradGradGradGradGradGradGradGradGradGradGradGrad
 Berny optimization.
 Initialization pass.
                           ----------------------------
                           !    Initial Parameters    !
                           ! (Angstroms and Degrees)  !
 --------------------------                            --------------------------
 ! Name  Definition              Value          Derivative Info.                !
 --------------------------------------------------------------------------------
 ! R1    R(1,2)                  1.09           estimate D2E/DX2                !
 ! R2    R(1,3)                  1.09           estimate D2E/DX2                !
 ! R3    R(1,4)                  1.09           estimate D2E/DX2                !
 ! A1    A(2,1,3)              120.0            estimate D2E/DX2                !
 ! A2    A(2,1,4)              120.0            estimate D2E/DX2                !
 ! A3    A(3,1,4)              120.0            estimate D2E/DX2                !
 ! D1    D(2,1,4,3)            180.0            estimate D2E/DX2                !
 --------------------------------------------------------------------------------
 Trust Radius=3.00D-01 FncErr=1.00D-07 GrdErr=1.00D-06
 Number of steps in this run=  20 maximum allowed number of steps= 100.
 GradGradGradGradGradGradGradGradGradGradGradGradGradGradGradGradGradGrad

 Leave Link  103 at Fri Aug 16 12:59:30 2024, MaxMem=   13107200 cpu:       0.0
 (Enter /programs/64bit/g09/g09-gfortran/bin/l202.exe)
                          Input orientation:                          
 ---------------------------------------------------------------------
 Center     Atomic      Atomic             Coordinates (Angstroms)
 Number     Number       Type             X           Y           Z
 ---------------------------------------------------------------------
      1          6           0        0.000000    0.000000    0.000000
      2          1           0        0.000000    0.000000    1.090000
      3          1           0        0.943968    0.000000   -0.545000
      4          1           0       -0.943968    0.000000   -0.545000
 ---------------------------------------------------------------------
                    Distance matrix (angstroms):
                    1          2          3          4
     1  C    0.000000
     2  H    1.090000   0.000000
     3  H    1.090000   1.887935   0.000000
     4  H    1.090000   1.887935   1.887935   0.000000
 Stoichiometry    CH3(2)
 Framework group  D3H[O(C),3C2(H)]
 Deg. of freedom     1
 Full point group                 D3H     NOp  12
 Largest Abelian subgroup         C2V     NOp   4
 Largest concise Abelian subgroup C2      NOp   2
                         Standard orientation:                         
 ---------------------------------------------------------------------
 Center     Atomic      Atomic             Coordinates (Angstroms)
 Number     Number       Type             X           Y           Z
 ---------------------------------------------------------------------
      1          6           0        0.000000    0.000000    0.000000
      2          1           0        0.000000    1.090000    0.000000
      3          1           0        0.943968   -0.545000    0.000000
      4          1           0       -0.943968   -0.545000    0.000000
 ---------------------------------------------------------------------
 Rotational constants (GHZ):    281.3764836    281.3764836    140.6882418
 Leave Link  202 at Fri Aug 16 12:59:30 2024, MaxMem=   13107200 cpu:       0.0
 (Enter /programs/64bit/g09/g09-gfortran/bin/l301.exe)
 Standard basis: 6-31+G(d,p) (6D, 7F)
 Ernie: Thresh=  0.10000D-02 Tol=  0.10000D-05 Strict=F.
 AO basis set in the form of general basis input (Overlap normalization):
      1 0
 S   6 1.00       0.000000000000
      0.3047524880D+04  0.1834737132D-02
      0.4573695180D+03  0.1403732281D-01
      0.1039486850D+03  0.6884262226D-01
      0.2921015530D+02  0.2321844432D+00
      0.9286662960D+01  0.4679413484D+00
      0.3163926960D+01  0.3623119853D+00
 SP   3 1.00       0.000000000000
      0.7868272350D+01 -0.1193324198D+00  0.6899906659D-01
      0.1881288540D+01 -0.1608541517D+00  0.3164239610D+00
      0.5442492580D+00  0.1143456438D+01  0.7443082909D+00
 SP   1 1.00       0.000000000000
      0.1687144782D+00  0.1000000000D+01  0.1000000000D+01
 SP   1 1.00       0.000000000000
      0.4380000000D-01  0.1000000000D+01  0.1000000000D+01
 D   1 1.00       0.000000000000
      0.8000000000D+00  0.1000000000D+01
 ****
      2 0
 S   3 1.00       0.000000000000
      0.1873113696D+02  0.3349460434D-01
      0.2825394365D+01  0.2347269535D+00
      0.6401216923D+00  0.8137573261D+00
 S   1 1.00       0.000000000000
      0.1612777588D+00  0.1000000000D+01
 P   1 1.00       0.000000000000
      0.1100000000D+01  0.1000000000D+01
 ****
      3 0
 S   3 1.00       0.000000000000
      0.1873113696D+02  0.3349460434D-01
      0.2825394365D+01  0.2347269535D+00
      0.6401216923D+00  0.8137573261D+00
 S   1 1.00       0.000000000000
      0.1612777588D+00  0.1000000000D+01
 P   1 1.00       0.000000000000
      0.1100000000D+01  0.1000000000D+01
 ****
      4 0
 S   3 1.00       0.000000000000
      0.1873113696D+02  0.3349460434D-01
      0.2825394365D+01  0.2347269535D+00
      0.6401216923D+00  0.8137573261D+00
 S   1 1.00       0.000000000000
      0.1612777588D+00  0.1000000000D+01
 P   1 1.00       0.000000000000
      0.1100000000D+01  0.1000000000D+01
 ****

 There are    17 symmetry adapted basis functions of A1  symmetry.
 There are     2 symmetry adapted basis functions of A2  symmetry.
 There are     9 symmetry adapted basis functions of B1  symmetry.
 There are     6 symmetry adapted basis functions of B2  symmetry.
 Integral buffers will be    131072 words long.
 Raffenetti 2 integral format.
 Two-electron integral symmetry is turned on.
    34 basis functions,    53 primitive gaussians,    34 cartesian basis functions
     5 alpha electrons        4 beta electrons
       nuclear repulsion energy         9.5795885928 Hartrees.
 IExCor=  402 DFT=T Ex+Corr=B3LYP ExCW=0 ScaHFX=  0.200000
 ScaDFX=  0.800000  0.720000  1.000000  0.810000 ScalE2=  1.000000  1.000000
 IRadAn=      0 IRanWt=     -1 IRanGd=            0 ICorTp=0
 NAtoms=    4 NActive=    4 NUniq=    2 SFac= 3.00D+00 NAtFMM=   80 NAOKFM=F Big=F
 Leave Link  301 at Fri Aug 16 12:59:30 2024, MaxMem=   13107200 cpu:       0.1
 (Enter /programs/64bit/g09/g09-gfortran/bin/l302.exe)
 NPDir=0 NMtPBC=     1 NCelOv=     1 NCel=       1 NClECP=     1 NCelD=      1
         NCelK=      1 NCelE2=     1 NClLst=     1 CellRange=     0.0.
 One-electron integrals computed using PRISM.
 One-electron integral symmetry used in STVInt
 NBasis=    34 RedAO= T  NBF=    17     2     9     6
 NBsUse=    34 1.00D-06 NBFU=    17     2     9     6
 Precomputing XC quadrature grid using
 IXCGrd= 2 IRadAn=           0 IRanWt=          -1 IRanGd=           0 AccXCQ= 1.00D-10.
 NRdTot=     255 NPtTot=       32404 NUsed=       34254 NTot=       34286
 NSgBfM=    34    34    34    34    34 NAtAll=     4     4.
 Leave Link  302 at Fri Aug 16 12:59:30 2024, MaxMem=   13107200 cpu:       0.2
 (Enter /programs/64bit/g09/g09-gfortran/bin/l303.exe)
 DipDrv:  MaxL=1.
 Leave Link  303 at Fri Aug 16 12:59:30 2024, MaxMem=   13107200 cpu:       0.0
 (Enter /programs/64bit/g09/g09-gfortran/bin/l401.exe)
 Harris functional with IExCor=  402 diagonalized for initial guess.
 ExpMin= 4.38D-02 ExpMax= 3.05D+03 ExpMxC= 4.57D+02 IAcc=2 IRadAn=         0 AccDes= 0.00D+00
 HarFok:  IExCor=  402 AccDes= 0.00D+00 IRadAn=         0 IDoV= 1
 ScaDFX=  1.000000  1.000000  1.000000  1.000000
 FoFCou: FMM=F IPFlag=           0 FMFlag=      100000 FMFlg1=           0
         NFxFlg=           0 DoJE=T BraDBF=F KetDBF=T FulRan=T
         Omega=  0.000000  0.000000  1.000000  0.000000  0.000000 ICntrl=     500 IOpCl=  0
         NMat0=    1 NMatS0=    1 NMatT0=    0 NMatD0=    1 NMtDS0=    0 NMtDT0=    0
         I1Cent=           4 NGrid=           0.
 Petite list used in FoFCou.
 Harris En= -39.8423564850815    
 Initial guess orbital symmetries:
 Alpha Orbitals:
       Occupied  (A1') (A1') (E') (E') (A2")
       Virtual   (A1') (E') (E') (A2") (E') (E') (A1') (E') (E')
                 (A2") (A1') (E') (E') (A1') (E") (E") (E') (E')
                 (A1') (A2') (A2") (E") (E") (E') (E') (A1') (E')
                 (E') (A1')
 Beta  Orbitals:
       Occupied  (A1') (A1') (E') (E')
       Virtual   (A2") (A1') (E') (E') (A2") (E') (E') (A1') (E')
                 (E') (A2") (A1') (E') (E') (A1') (E") (E") (E')
                 (E') (A1') (A2') (A2") (E") (E") (E') (E') (A1')
                 (E') (E') (A1')
 The electronic state of the initial guess is 2-A2".
 Initial guess <Sx>= 0.0000 <Sy>= 0.0000 <Sz>= 0.5000 <S**2>= 0.7500 S= 0.5000
 Leave Link  401 at Fri Aug 16 12:59:31 2024, MaxMem=   13107200 cpu:       0.4
 (Enter /programs/64bit/g09/g09-gfortran/bin/l502.exe)
 UHF open shell SCF:
 Requested convergence on RMS density matrix=1.00D-08 within 128 cycles.
 Requested convergence on MAX density matrix=1.00D-06.
 Requested convergence on             energy=1.00D-06.
 No special actions if energy rises.
 Using DIIS extrapolation, IDIIS=  1040.
 Integral symmetry usage will be decided dynamically.
        34205 words used for storage of precomputed grid.
 Keep R1 and R2 ints in memory in canonical form, NReq=1270006.
 IEnd=       56471 IEndB=       56471 NGot=    13107200 MDV=    12713912
 LenX=    12713912 LenY=    12712315
 Symmetry not used in FoFDir.
 MinBra= 0 MaxBra= 2 Meth= 1.
 IRaf=       0 NMat=   1 IRICut=       1 DoRegI=T DoRafI=F ISym2E= 0 JSym2E=0.

 Cycle   1  Pass 1  IDiag  1:
 E= -39.8034795872862    
 DIIS: error= 3.82D-02 at cycle   1 NSaved=   1.
 NSaved= 1 IEnMin= 1 EnMin= -39.8034795872862     IErMin= 1 ErrMin= 3.82D-02
 ErrMax= 3.82D-02 EMaxC= 1.00D-01 BMatC= 1.45D-01 BMatP= 1.45D-01
 IDIUse=3 WtCom= 6.18D-01 WtEn= 3.82D-01
 Coeff-Com:  0.100D+01
 Coeff-En:   0.100D+01
 Coeff:      0.100D+01
 Gap=     0.181 Goal=   None    Shift=    0.000
 Gap=     0.367 Goal=   None    Shift=    0.000
 GapD=    0.181 DampG=1.000 DampE=0.500 DampFc=0.5000 IDamp=-1.
 Damping current iteration by 5.00D-01
 RMSDP=9.47D-03 MaxDP=1.64D-01              OVMax= 1.87D-01

 Cycle   2  Pass 1  IDiag  1:
 E= -39.8239715390119     Delta-E=       -0.020491951726 Rises=F Damp=T
 DIIS: error= 9.83D-03 at cycle   2 NSaved=   2.
 NSaved= 2 IEnMin= 2 EnMin= -39.8239715390119     IErMin= 2 ErrMin= 9.83D-03
 ErrMax= 9.83D-03 EMaxC= 1.00D-01 BMatC= 5.46D-03 BMatP= 1.45D-01
 IDIUse=3 WtCom= 9.02D-01 WtEn= 9.83D-02
 Coeff-Com:  0.349D-01 0.965D+00
 Coeff-En:   0.435D-01 0.956D+00
 Coeff:      0.357D-01 0.964D+00
 Gap=     0.248 Goal=   None    Shift=    0.000
 Gap=     0.342 Goal=   None    Shift=    0.000
 RMSDP=1.21D-03 MaxDP=1.42D-02 DE=-2.05D-02 OVMax= 1.14D-01

 Cycle   3  Pass 1  IDiag  1:
 E= -39.8471554082453     Delta-E=       -0.023183869233 Rises=F Damp=F
 DIIS: error= 1.73D-03 at cycle   3 NSaved=   3.
 NSaved= 3 IEnMin= 3 EnMin= -39.8471554082453     IErMin= 3 ErrMin= 1.73D-03
 ErrMax= 1.73D-03 EMaxC= 1.00D-01 BMatC= 1.42D-04 BMatP= 5.46D-03
 IDIUse=3 WtCom= 9.83D-01 WtEn= 1.73D-02
 Coeff-Com: -0.201D-01 0.269D-01 0.993D+00
 Coeff-En:   0.000D+00 0.000D+00 0.100D+01
 Coeff:     -0.198D-01 0.264D-01 0.993D+00
 Gap=     0.254 Goal=   None    Shift=    0.000
 Gap=     0.336 Goal=   None    Shift=    0.000
 RMSDP=2.35D-04 MaxDP=3.10D-03 DE=-2.32D-02 OVMax= 3.95D-03

 Cycle   4  Pass 1  IDiag  1:
 E= -39.8472208053736     Delta-E=       -0.000065397128 Rises=F Damp=F
 DIIS: error= 3.23D-04 at cycle   4 NSaved=   4.
 NSaved= 4 IEnMin= 4 EnMin= -39.8472208053736     IErMin= 4 ErrMin= 3.23D-04
 ErrMax= 3.23D-04 EMaxC= 1.00D-01 BMatC= 9.59D-06 BMatP= 1.42D-04
 IDIUse=3 WtCom= 9.97D-01 WtEn= 3.23D-03
 Coeff-Com:  0.143D-02-0.167D-01-0.286D+00 0.130D+01
 Coeff-En:   0.000D+00 0.000D+00 0.000D+00 0.100D+01
 Coeff:      0.143D-02-0.166D-01-0.285D+00 0.130D+01
 Gap=     0.254 Goal=   None    Shift=    0.000
 Gap=     0.336 Goal=   None    Shift=    0.000
 RMSDP=9.74D-05 MaxDP=1.16D-03 DE=-6.54D-05 OVMax= 1.56D-03

 Cycle   5  Pass 1  IDiag  1:
 E= -39.8472280752744     Delta-E=       -0.000007269901 Rises=F Damp=F
 DIIS: error= 5.88D-05 at cycle   5 NSaved=   5.
 NSaved= 5 IEnMin= 5 EnMin= -39.8472280752744     IErMin= 5 ErrMin= 5.88D-05
 ErrMax= 5.88D-05 EMaxC= 1.00D-01 BMatC= 3.27D-07 BMatP= 9.59D-06
 IDIUse=1 WtCom= 1.00D+00 WtEn= 0.00D+00
 Coeff-Com:  0.110D-02 0.244D-02 0.320D-02-0.232D+00 0.122D+01
 Coeff:      0.110D-02 0.244D-02 0.320D-02-0.232D+00 0.122D+01
 Gap=     0.254 Goal=   None    Shift=    0.000
 Gap=     0.336 Goal=   None    Shift=    0.000
 RMSDP=1.94D-05 MaxDP=2.12D-04 DE=-7.27D-06 OVMax= 2.96D-04

 Cycle   6  Pass 1  IDiag  1:
 E= -39.8472283291976     Delta-E=       -0.000000253923 Rises=F Damp=F
 DIIS: error= 6.30D-06 at cycle   6 NSaved=   6.
 NSaved= 6 IEnMin= 6 EnMin= -39.8472283291976     IErMin= 6 ErrMin= 6.30D-06
 ErrMax= 6.30D-06 EMaxC= 1.00D-01 BMatC= 3.63D-09 BMatP= 3.27D-07
 IDIUse=1 WtCom= 1.00D+00 WtEn= 0.00D+00
 Coeff-Com: -0.160D-03 0.493D-04 0.742D-02-0.540D-02-0.140D+00 0.114D+01
 Coeff:     -0.160D-03 0.493D-04 0.742D-02-0.540D-02-0.140D+00 0.114D+01
 Gap=     0.254 Goal=   None    Shift=    0.000
 Gap=     0.336 Goal=   None    Shift=    0.000
 RMSDP=2.08D-06 MaxDP=2.49D-05 DE=-2.54D-07 OVMax= 3.97D-05

 Cycle   7  Pass 1  IDiag  1:
 E= -39.8472283319822     Delta-E=       -0.000000002785 Rises=F Damp=F
 DIIS: error= 1.11D-06 at cycle   7 NSaved=   7.
 NSaved= 7 IEnMin= 7 EnMin= -39.8472283319822     IErMin= 7 ErrMin= 1.11D-06
 ErrMax= 1.11D-06 EMaxC= 1.00D-01 BMatC= 6.03D-11 BMatP= 3.63D-09
 IDIUse=1 WtCom= 1.00D+00 WtEn= 0.00D+00
 Coeff-Com:  0.266D-04-0.447D-04-0.782D-03 0.210D-02 0.638D-02-0.148D+00
 Coeff-Com:  0.114D+01
 Coeff:      0.266D-04-0.447D-04-0.782D-03 0.210D-02 0.638D-02-0.148D+00
 Coeff:      0.114D+01
 Gap=     0.254 Goal=   None    Shift=    0.000
 Gap=     0.336 Goal=   None    Shift=    0.000
 RMSDP=2.00D-07 MaxDP=2.81D-06 DE=-2.78D-09 OVMax= 3.77D-06

 Cycle   8  Pass 1  IDiag  1:
 E= -39.8472283320101     Delta-E=       -0.000000000028 Rises=F Damp=F
 DIIS: error= 2.53D-08 at cycle   8 NSaved=   8.
 NSaved= 8 IEnMin= 8 EnMin= -39.8472283320101     IErMin= 8 ErrMin= 2.53D-08
 ErrMax= 2.53D-08 EMaxC= 1.00D-01 BMatC= 2.94D-14 BMatP= 6.03D-11
 IDIUse=1 WtCom= 1.00D+00 WtEn= 0.00D+00
 Coeff-Com: -0.175D-05 0.361D-05 0.371D-04-0.119D-03-0.237D-03 0.843D-02
 Coeff-Com: -0.896D-01 0.108D+01
 Coeff:     -0.175D-05 0.361D-05 0.371D-04-0.119D-03-0.237D-03 0.843D-02
 Coeff:     -0.896D-01 0.108D+01
 Gap=     0.254 Goal=   None    Shift=    0.000
 Gap=     0.336 Goal=   None    Shift=    0.000
 RMSDP=6.06D-09 MaxDP=1.44D-07 DE=-2.79D-11 OVMax= 1.31D-07

 SCF Done:  E(UB3LYP) =  -39.8472283320     A.U. after    8 cycles
             Convg  =    0.6059D-08             -V/T =  2.0118
 <Sx>= 0.0000 <Sy>= 0.0000 <Sz>= 0.5000 <S**2>= 0.7534 S= 0.5017
 <L.S>=  0.00000000000    
 KE= 3.938401352485D+01 PE=-1.108180959518D+02 EE= 2.200726550215D+01
 Annihilation of the first spin contaminant:
 S**2 before annihilation     0.7534,   after     0.7500
 Leave Link  502 at Fri Aug 16 12:59:33 2024, MaxMem=   13107200 cpu:       1.7
 (Enter /programs/64bit/g09/g09-gfortran/bin/l601.exe)
 Copying SCF densities to generalized density rwf, IOpCl= 1 IROHF=0.

 **********************************************************************

            Population analysis using the SCF density.

 **********************************************************************

 Orbital symmetries:
 Alpha Orbitals:
       Occupied  (A1') (A1') (E') (E') (A2")
       Virtual   (A1') (E') (E') (A2") (A1') (E') (E') (E') (E')
                 (A2") (A1') (E') (E') (A1') (E") (E") (E') (E')
                 (A1') (A2') (A2") (E") (E") (E') (E') (A1') (E')
                 (E') (A1')
 Beta  Orbitals:
       Occupied  (A1') (A1') (E') (E')
       Virtual   (A2") (A1') (E') (E') (A2") (E') (E') (A1') (E')
                 (E') (A2") (A1') (E') (E') (A1') (E") (E") (E')
                 (E') (A2') (A1') (A2") (E") (E") (E') (E') (A1')
                 (E') (E') (A1')
 The electronic state is 2-A2".
 Alpha  occ. eigenvalues --  -10.20693  -0.68858  -0.42345  -0.42345  -0.23554
 Alpha virt. eigenvalues --    0.01883   0.05824   0.05824   0.07395   0.18655
 Alpha virt. eigenvalues --    0.19064   0.19064   0.63046   0.63046   0.64847
 Alpha virt. eigenvalues --    0.82541   0.93270   0.93270   0.95853   1.42669
 Alpha virt. eigenvalues --    1.42669   1.92207   1.92207   1.95844   1.99667
 Alpha virt. eigenvalues --    2.27630   2.54146   2.54146   2.70108   2.70108
 Alpha virt. eigenvalues --    3.23710   3.42815   3.42815   4.28419
  Beta  occ. eigenvalues --  -10.19323  -0.64885  -0.41380  -0.41380
  Beta virt. eigenvalues --   -0.07743   0.02445   0.05808   0.05808   0.09910
  Beta virt. eigenvalues --    0.19509   0.19509   0.20612   0.63983   0.63983
  Beta virt. eigenvalues --    0.71713   0.84778   0.93390   0.93390   0.98120
  Beta virt. eigenvalues --    1.47150   1.47150   1.92525   1.92525   1.99165
  Beta virt. eigenvalues --    2.03602   2.28237   2.56969   2.56969   2.70118
  Beta virt. eigenvalues --    2.70118   3.24365   3.43550   3.43550   4.31937
     Alpha Molecular Orbital Coefficients:
                           1         2         3         4         5
                       (A1')--O  (A1')--O   (E')--O   (E')--O  (A2")--O
     Eigenvalues --   -10.20693  -0.68858  -0.42345  -0.42345  -0.23554
   1 1   C  1S          0.99250  -0.20579   0.00000   0.00000   0.00000
   2        2S          0.05026   0.41282   0.00000   0.00000   0.00000
   3        2PX         0.00000   0.00000   0.45796   0.00000   0.00000
   4        2PY        -0.00000   0.00000   0.00000   0.45796   0.00000
   5        2PZ         0.00000   0.00000   0.00000   0.00000   0.59639
   6        3S         -0.01025   0.38955   0.00000  -0.00000   0.00000
   7        3PX         0.00000   0.00000   0.18528   0.00000   0.00000
   8        3PY        -0.00000  -0.00000   0.00000   0.18528   0.00000
   9        3PZ         0.00000   0.00000   0.00000   0.00000   0.45092
  10        4S          0.00078   0.01335   0.00000  -0.00000   0.00000
  11        4PX         0.00000   0.00000   0.02740   0.00000   0.00000
  12        4PY         0.00000  -0.00000   0.00000   0.02740   0.00000
  13        4PZ         0.00000   0.00000   0.00000   0.00000   0.13498
  14        5XX        -0.00995  -0.00910   0.00000  -0.01820   0.00000
  15        5YY        -0.00995  -0.00910   0.00000   0.01820   0.00000
  16        5ZZ        -0.00981  -0.00909   0.00000   0.00000   0.00000
  17        5XY         0.00000   0.00000  -0.02101   0.00000   0.00000
  18        5XZ         0.00000   0.00000   0.00000   0.00000   0.00000
  19        5YZ         0.00000   0.00000   0.00000   0.00000   0.00000
  20 2   H  1S         -0.00029   0.14852   0.00000   0.28209   0.00000
  21        2S          0.00161   0.04077   0.00000   0.20925   0.00000
  22        3PX         0.00000   0.00000   0.00765   0.00000   0.00000
  23        3PY         0.00016  -0.01332   0.00000  -0.00764   0.00000
  24        3PZ         0.00000   0.00000   0.00000   0.00000   0.01507
  25 3   H  1S         -0.00029   0.14852   0.24430  -0.14104   0.00000
  26        2S          0.00161   0.04077   0.18121  -0.10462   0.00000
  27        3PX         0.00014  -0.01154  -0.00382   0.00662   0.00000
  28        3PY        -0.00008   0.00666   0.00662   0.00382   0.00000
  29        3PZ         0.00000   0.00000   0.00000   0.00000   0.01507
  30 4   H  1S         -0.00029   0.14852  -0.24430  -0.14104   0.00000
  31        2S          0.00161   0.04077  -0.18121  -0.10462   0.00000
  32        3PX        -0.00014   0.01154  -0.00382  -0.00662   0.00000
  33        3PY        -0.00008   0.00666  -0.00662   0.00382   0.00000
  34        3PZ         0.00000   0.00000   0.00000   0.00000   0.01507
                           6         7         8         9        10
                       (A1')--V   (E')--V   (E')--V  (A2")--V  (A1')--V
     Eigenvalues --     0.01883   0.05824   0.05824   0.07395   0.18655
   1 1   C  1S          0.09740   0.00000  -0.00000   0.00000  -0.12591
   2        2S         -0.17849   0.00000  -0.00000   0.00000   0.13644
   3        2PX         0.00000  -0.19404   0.00000   0.00000   0.00000
   4        2PY         0.00000   0.00000  -0.19404   0.00000  -0.00000
   5        2PZ         0.00000   0.00000   0.00000  -0.25994   0.00000
   6        3S         -0.84678   0.00000   0.00000   0.00000   2.22779
   7        3PX         0.00000  -0.19373   0.00000   0.00000   0.00000
   8        3PY         0.00000   0.00000  -0.19373   0.00000  -0.00000
   9        3PZ         0.00000   0.00000   0.00000  -0.38506   0.00000
  10        4S          1.37598   0.00000   0.00000   0.00000   1.27104
  11        4PX         0.00000   1.16813   0.00000   0.00000   0.00000
  12        4PY         0.00000   0.00000   1.16813   0.00000  -0.00000
  13        4PZ         0.00000   0.00000   0.00000   1.13130   0.00000
  14        5XX         0.01734   0.00000   0.00826   0.00000  -0.03479
  15        5YY         0.01734   0.00000  -0.00826   0.00000  -0.03479
  16        5ZZ         0.01327   0.00000   0.00000   0.00000   0.02411
  17        5XY         0.00000   0.00953   0.00000   0.00000   0.00000
  18        5XZ         0.00000   0.00000   0.00000   0.00000   0.00000
  19        5YZ         0.00000   0.00000   0.00000  -0.00000   0.00000
  20 2   H  1S          0.02006   0.00000  -0.04171   0.00000  -0.14734
  21        2S          0.01387   0.00000  -0.17656   0.00000  -1.41924
  22        3PX         0.00000   0.00313   0.00000   0.00000   0.00000
  23        3PY         0.01275   0.00000   0.01115   0.00000  -0.00512
  24        3PZ         0.00000   0.00000   0.00000  -0.00003   0.00000
  25 3   H  1S          0.02006  -0.03613   0.02086   0.00000  -0.14734
  26        2S          0.01387  -0.15291   0.08828   0.00000  -1.41924
  27        3PX         0.01104   0.00914  -0.00347   0.00000  -0.00443
  28        3PY        -0.00637  -0.00347   0.00513   0.00000   0.00256
  29        3PZ         0.00000   0.00000   0.00000  -0.00003   0.00000
  30 4   H  1S          0.02006   0.03613   0.02086   0.00000  -0.14734
  31        2S          0.01387   0.15291   0.08828   0.00000  -1.41924
  32        3PX        -0.01104   0.00914   0.00347   0.00000   0.00443
  33        3PY        -0.00637   0.00347   0.00513   0.00000   0.00256
  34        3PZ         0.00000   0.00000   0.00000  -0.00003   0.00000
                          11        12        13        14        15
                        (E')--V   (E')--V   (E')--V   (E')--V  (A2")--V
     Eigenvalues --     0.19064   0.19064   0.63046   0.63046   0.64847
   1 1   C  1S          0.00000   0.00000   0.00000  -0.00000   0.00000
   2        2S          0.00000  -0.00000   0.00000  -0.00000   0.00000
   3        2PX        -0.32803   0.00000  -0.93011   0.00000   0.00000
   4        2PY         0.00000  -0.32803   0.00000  -0.93011   0.00000
   5        2PZ         0.00000   0.00000   0.00000   0.00000  -1.07585
   6        3S          0.00000  -0.00000   0.00000   0.00000   0.00000
   7        3PX        -1.50607   0.00000   1.83279   0.00000   0.00000
   8        3PY         0.00000  -1.50607   0.00000   1.83279   0.00000
   9        3PZ         0.00000   0.00000   0.00000   0.00000   1.41893
  10        4S          0.00000  -0.00000   0.00000  -0.00000   0.00000
  11        4PX        -0.43489   0.00000  -0.53529   0.00000   0.00000
  12        4PY         0.00000  -0.43489   0.00000  -0.53529   0.00000
  13        4PZ         0.00000   0.00000   0.00000   0.00000  -0.58530
  14        5XX         0.00000  -0.02606   0.00000   0.03811   0.00000
  15        5YY         0.00000   0.02606   0.00000  -0.03811   0.00000
  16        5ZZ         0.00000  -0.00000   0.00000   0.00000   0.00000
  17        5XY        -0.03010   0.00000   0.04400   0.00000   0.00000
  18        5XZ         0.00000   0.00000   0.00000   0.00000   0.00000
  19        5YZ         0.00000   0.00000   0.00000   0.00000  -0.00000
  20 2   H  1S          0.00000   0.15416   0.00000  -0.26868   0.00000
  21        2S          0.00000   2.02829   0.00000  -0.38869   0.00000
  22        3PX        -0.02161   0.00000   0.02876   0.00000   0.00000
  23        3PY         0.00000   0.00054   0.00000   0.07065   0.00000
  24        3PZ         0.00000   0.00000   0.00000   0.00000  -0.00738
  25 3   H  1S          0.13351  -0.07708  -0.23268   0.13434   0.00000
  26        2S          1.75655  -1.01415  -0.33661   0.19434   0.00000
  27        3PX        -0.00500  -0.00959   0.06018  -0.01814   0.00000
  28        3PY        -0.00959  -0.01607  -0.01814   0.03923   0.00000
  29        3PZ         0.00000   0.00000   0.00000   0.00000  -0.00738
  30 4   H  1S         -0.13351  -0.07708   0.23268   0.13434   0.00000
  31        2S         -1.75655  -1.01415   0.33661   0.19434   0.00000
  32        3PX        -0.00500   0.00959   0.06018   0.01814   0.00000
  33        3PY         0.00959  -0.01607   0.01814   0.03923   0.00000
  34        3PZ         0.00000   0.00000   0.00000   0.00000  -0.00738
                          16        17        18        19        20
                       (A1')--V   (E')--V   (E')--V  (A1')--V   (E")--V
     Eigenvalues --     0.82541   0.93270   0.93270   0.95853   1.42669
   1 1   C  1S         -0.05257   0.00000  -0.00000   0.03616   0.00000
   2        2S         -1.30117   0.00000  -0.00000  -1.41003   0.00000
   3        2PX         0.00000   0.54897   0.00000   0.00000   0.00000
   4        2PY        -0.00000   0.00000   0.54897  -0.00000   0.00000
   5        2PZ         0.00000   0.00000   0.00000   0.00000   0.00000
   6        3S          2.35359   0.00000   0.00000   3.35273   0.00000
   7        3PX         0.00000  -0.96097   0.00000   0.00000   0.00000
   8        3PY         0.00000   0.00000  -0.96097   0.00000   0.00000
   9        3PZ         0.00000   0.00000   0.00000   0.00000   0.00000
  10        4S         -0.87825   0.00000  -0.00000   0.56781   0.00000
  11        4PX         0.00000  -0.41724   0.00000   0.00000   0.00000
  12        4PY         0.00000   0.00000  -0.41724   0.00000   0.00000
  13        4PZ         0.00000   0.00000   0.00000   0.00000   0.00000
  14        5XX        -0.18648   0.00000   0.25507   0.06580   0.00000
  15        5YY        -0.18648   0.00000  -0.25507   0.06580   0.00000
  16        5ZZ         0.07818   0.00000  -0.00000  -0.19638   0.00000
  17        5XY         0.00000   0.29453   0.00000   0.00000   0.00000
  18        5XZ         0.00000   0.00000   0.00000   0.00000   0.73135
  19        5YZ         0.00000   0.00000   0.00000   0.00000   0.00000
  20 2   H  1S         -0.46699   0.00000  -0.91513   0.54419   0.00000
  21        2S          0.14858   0.00000   1.89058  -1.49467   0.00000
  22        3PX         0.00000   0.07401   0.00000   0.00000   0.00000
  23        3PY        -0.00020   0.00000  -0.08341   0.07084   0.00000
  24        3PZ         0.00000   0.00000   0.00000   0.00000   0.00000
  25 3   H  1S         -0.46699  -0.79253   0.45757   0.54419   0.00000
  26        2S          0.14858   1.63729  -0.94529  -1.49467   0.00000
  27        3PX        -0.00017  -0.04406   0.06817   0.06135   0.00000
  28        3PY         0.00010   0.06817   0.03466  -0.03542   0.00000
  29        3PZ         0.00000   0.00000   0.00000   0.00000   0.33260
  30 4   H  1S         -0.46699   0.79253   0.45757   0.54419   0.00000
  31        2S          0.14858  -1.63729  -0.94529  -1.49467   0.00000
  32        3PX         0.00017  -0.04406  -0.06817  -0.06135   0.00000
  33        3PY         0.00010  -0.06817   0.03466  -0.03542   0.00000
  34        3PZ         0.00000   0.00000   0.00000   0.00000  -0.33260
                          21        22        23        24        25
                        (E")--V   (E')--V   (E')--V  (A1')--V  (A2')--V
     Eigenvalues --     1.42669   1.92207   1.92207   1.95844   1.99667
   1 1   C  1S          0.00000   0.00000  -0.00000   0.05023   0.00000
   2        2S          0.00000   0.00000  -0.00000   0.26583   0.00000
   3        2PX         0.00000  -0.08267   0.00000   0.00000   0.00000
   4        2PY         0.00000   0.00000  -0.08267  -0.00000   0.00000
   5        2PZ        -0.00000   0.00000   0.00000   0.00000   0.00000
   6        3S          0.00000   0.00000   0.00000  -0.73768   0.00000
   7        3PX         0.00000   0.80756   0.00000   0.00000   0.00000
   8        3PY         0.00000   0.00000   0.80756   0.00000   0.00000
   9        3PZ        -0.00000   0.00000   0.00000   0.00000   0.00000
  10        4S          0.00000   0.00000   0.00000   0.19726   0.00000
  11        4PX         0.00000  -0.17806   0.00000   0.00000  -0.00000
  12        4PY         0.00000   0.00000  -0.17806   0.00000   0.00000
  13        4PZ        -0.00000   0.00000   0.00000   0.00000   0.00000
  14        5XX         0.00000   0.00000  -0.54020  -0.37196   0.00000
  15        5YY         0.00000   0.00000   0.54020  -0.37196   0.00000
  16        5ZZ         0.00000   0.00000  -0.00000   1.02268   0.00000
  17        5XY         0.00000  -0.62377   0.00000   0.00000  -0.00000
  18        5XZ         0.00000   0.00000   0.00000   0.00000   0.00000
  19        5YZ         0.73135   0.00000   0.00000   0.00000   0.00000
  20 2   H  1S          0.00000   0.00000  -0.65263   0.37793   0.00000
  21        2S          0.00000   0.00000   0.02639  -0.08640   0.00000
  22        3PX         0.00000  -0.43534   0.00000   0.00000   0.57947
  23        3PY         0.00000   0.00000  -0.23268   0.15948   0.00000
  24        3PZ         0.38405   0.00000   0.00000   0.00000   0.00000
  25 3   H  1S          0.00000  -0.56519   0.32631   0.37793  -0.00000
  26        2S          0.00000   0.02285  -0.01319  -0.08640   0.00000
  27        3PX         0.00000  -0.28334  -0.08776   0.13811  -0.28973
  28        3PY         0.00000  -0.08776  -0.38468  -0.07974  -0.50183
  29        3PZ        -0.19203   0.00000   0.00000   0.00000   0.00000
  30 4   H  1S          0.00000   0.56519   0.32631   0.37793   0.00000
  31        2S          0.00000  -0.02285  -0.01319  -0.08640  -0.00000
  32        3PX         0.00000  -0.28334   0.08776  -0.13811  -0.28973
  33        3PY         0.00000   0.08776  -0.38468  -0.07974   0.50183
  34        3PZ        -0.19203   0.00000   0.00000   0.00000   0.00000
                          26        27        28        29        30
                       (A2")--V   (E")--V   (E")--V   (E')--V   (E')--V
     Eigenvalues --     2.27630   2.54146   2.54146   2.70108   2.70108
   1 1   C  1S          0.00000   0.00000   0.00000  -0.00000   0.00000
   2        2S          0.00000   0.00000   0.00000   0.00000   0.00000
   3        2PX         0.00000   0.00000   0.00000   0.00000  -0.35582
   4        2PY         0.00000   0.00000   0.00000  -0.35582   0.00000
   5        2PZ        -0.09873   0.00000   0.00000   0.00000   0.00000
   6        3S          0.00000   0.00000   0.00000   0.00000   0.00000
   7        3PX         0.00000   0.00000   0.00000   0.00000  -0.58210
   8        3PY         0.00000   0.00000   0.00000  -0.58210   0.00000
   9        3PZ        -0.39685   0.00000   0.00000   0.00000   0.00000
  10        4S          0.00000   0.00000   0.00000   0.00000   0.00000
  11        4PX         0.00000   0.00000   0.00000   0.00000  -0.09546
  12        4PY         0.00000   0.00000   0.00000  -0.09546   0.00000
  13        4PZ         0.09647  -0.00000   0.00000   0.00000   0.00000
  14        5XX         0.00000   0.00000   0.00000  -0.36115   0.00000
  15        5YY         0.00000   0.00000   0.00000   0.36115   0.00000
  16        5ZZ         0.00000   0.00000   0.00000  -0.00000   0.00000
  17        5XY         0.00000   0.00000   0.00000   0.00000  -0.41702
  18        5XZ         0.00000   0.00000   0.78056   0.00000   0.00000
  19        5YZ        -0.00000  -0.78056   0.00000   0.00000   0.00000
  20 2   H  1S          0.00000   0.00000   0.00000  -0.06048   0.00000
  21        2S          0.00000   0.00000   0.00000   0.70892   0.00000
  22        3PX         0.00000   0.00000   0.00000   0.00000   0.76395
  23        3PY         0.00000   0.00000   0.00000  -0.45811   0.00000
  24        3PZ         0.62057   0.78483   0.00000   0.00000   0.00000
  25 3   H  1S          0.00000   0.00000   0.00000   0.03024  -0.05238
  26        2S          0.00000   0.00000   0.00000  -0.35446   0.61395
  27        3PX         0.00000   0.00000   0.00000   0.52917  -0.15259
  28        3PY         0.00000   0.00000   0.00000   0.45844   0.52917
  29        3PZ         0.62057  -0.39242  -0.67968   0.00000   0.00000
  30 4   H  1S          0.00000   0.00000   0.00000   0.03024   0.05238
  31        2S          0.00000   0.00000   0.00000  -0.35446  -0.61395
  32        3PX         0.00000   0.00000   0.00000  -0.52917  -0.15259
  33        3PY         0.00000   0.00000   0.00000   0.45844  -0.52917
  34        3PZ         0.62057  -0.39242   0.67968   0.00000   0.00000
                          31        32        33        34
                       (A1')--V   (E')--V   (E')--V  (A1')--V
     Eigenvalues --     3.23710   3.42815   3.42815   4.28419
   1 1   C  1S         -0.16573   0.00000   0.00000  -0.44343
   2        2S          1.08535  -0.00000   0.00000   2.89668
   3        2PX         0.00000   0.00000  -0.91305   0.00000
   4        2PY         0.00000   0.91305   0.00000   0.00000
   5        2PZ         0.00000   0.00000   0.00000   0.00000
   6        3S          1.36622  -0.00000   0.00000   1.28130
   7        3PX         0.00000   0.00000  -0.38058   0.00000
   8        3PY         0.00000   0.38058   0.00000   0.00000
   9        3PZ         0.00000   0.00000   0.00000   0.00000
  10        4S          0.17575   0.00000   0.00000  -0.16729
  11        4PX         0.00000   0.00000  -0.00039   0.00000
  12        4PY         0.00000   0.00039   0.00000   0.00000
  13        4PZ         0.00000   0.00000   0.00000   0.00000
  14        5XX         0.14483  -1.04273   0.00000  -2.16188
  15        5YY         0.14483   1.04273   0.00000  -2.16188
  16        5ZZ        -0.95746   0.00000   0.00000  -1.58040
  17        5XY         0.00000   0.00000   1.20404   0.00000
  18        5XZ         0.00000   0.00000   0.00000   0.00000
  19        5YZ         0.00000   0.00000   0.00000   0.00000
  20 2   H  1S         -0.33315  -0.75321   0.00000   0.34314
  21        2S         -0.54053  -0.38396   0.00000  -0.15671
  22        3PX         0.00000   0.00000  -0.29389   0.00000
  23        3PY         0.76142   1.08035   0.00000  -0.40799
  24        3PZ         0.00000   0.00000   0.00000   0.00000
  25 3   H  1S         -0.33315   0.37661   0.65230   0.34314
  26        2S         -0.54053   0.19198   0.33252  -0.15671
  27        3PX         0.65941  -0.34055  -0.88373  -0.35333
  28        3PY        -0.38071   0.49050   0.34055   0.20400
  29        3PZ         0.00000   0.00000   0.00000   0.00000
  30 4   H  1S         -0.33315   0.37661  -0.65230   0.34314
  31        2S         -0.54053   0.19198  -0.33252  -0.15671
  32        3PX        -0.65941   0.34055  -0.88373   0.35333
  33        3PY        -0.38071   0.49050  -0.34055   0.20400
  34        3PZ         0.00000   0.00000   0.00000   0.00000
     Beta Molecular Orbital Coefficients:
                           1         2         3         4         5
                       (A1')--O  (A1')--O   (E')--O   (E')--O  (A2")--V
     Eigenvalues --   -10.19323  -0.64885  -0.41380  -0.41380  -0.07743
   1 1   C  1S          0.99305  -0.19799   0.00000   0.00000   0.00000
   2        2S          0.04671   0.39249   0.00000   0.00000   0.00000
   3        2PX         0.00000   0.00000   0.44046   0.00000   0.00000
   4        2PY        -0.00000   0.00000   0.00000   0.44046   0.00000
   5        2PZ         0.00000   0.00000   0.00000   0.00000   0.46599
   6        3S         -0.01013   0.33016   0.00000  -0.00000   0.00000
   7        3PX         0.00000   0.00000   0.16568   0.00000   0.00000
   8        3PY        -0.00000  -0.00000   0.00000   0.16568   0.00000
   9        3PZ         0.00000   0.00000   0.00000   0.00000   0.42157
  10        4S          0.00083   0.00523   0.00000  -0.00000   0.00000
  11        4PX         0.00000   0.00000   0.03023   0.00000   0.00000
  12        4PY         0.00000  -0.00000   0.00000   0.03023   0.00000
  13        4PZ         0.00000   0.00000   0.00000   0.00000   0.35680
  14        5XX        -0.00820   0.00278   0.00000  -0.01733   0.00000
  15        5YY        -0.00820   0.00278   0.00000   0.01733   0.00000
  16        5ZZ        -0.00960  -0.03137   0.00000   0.00000   0.00000
  17        5XY         0.00000   0.00000  -0.02001   0.00000   0.00000
  18        5XZ         0.00000   0.00000   0.00000   0.00000   0.00000
  19        5YZ         0.00000   0.00000   0.00000   0.00000   0.00000
  20 2   H  1S         -0.00049   0.16153   0.00000   0.29425   0.00000
  21        2S          0.00155   0.07000   0.00000   0.23114   0.00000
  22        3PX         0.00000   0.00000   0.00834   0.00000   0.00000
  23        3PY         0.00032  -0.01293   0.00000  -0.00865   0.00000
  24        3PZ         0.00000   0.00000   0.00000   0.00000   0.01902
  25 3   H  1S         -0.00049   0.16153   0.25483  -0.14712   0.00000
  26        2S          0.00155   0.07000   0.20017  -0.11557   0.00000
  27        3PX         0.00028  -0.01120  -0.00440   0.00736   0.00000
  28        3PY        -0.00016   0.00646   0.00736   0.00409   0.00000
  29        3PZ         0.00000   0.00000   0.00000   0.00000   0.01902
  30 4   H  1S         -0.00049   0.16153  -0.25483  -0.14712   0.00000
  31        2S          0.00155   0.07000  -0.20017  -0.11557   0.00000
  32        3PX        -0.00028   0.01120  -0.00440  -0.00736   0.00000
  33        3PY        -0.00016   0.00646  -0.00736   0.00409   0.00000
  34        3PZ         0.00000   0.00000   0.00000   0.00000   0.01902
                           6         7         8         9        10
                       (A1')--V   (E')--V   (E')--V  (A2")--V   (E')--V
     Eigenvalues --     0.02445   0.05808   0.05808   0.09910   0.19509
   1 1   C  1S          0.09727  -0.00000   0.00000   0.00000   0.00000
   2        2S         -0.15711  -0.00000   0.00000   0.00000   0.00000
   3        2PX         0.00000   0.00000  -0.18530   0.00000  -0.33093
   4        2PY         0.00000  -0.18530   0.00000   0.00000   0.00000
   5        2PZ         0.00000   0.00000   0.00000  -0.32624   0.00000
   6        3S         -0.85294   0.00000   0.00000   0.00000   0.00000
   7        3PX         0.00000   0.00000  -0.18486   0.00000  -1.52255
   8        3PY         0.00000  -0.18486   0.00000   0.00000   0.00000
   9        3PZ         0.00000   0.00000   0.00000  -0.55114   0.00000
  10        4S          1.40387   0.00000   0.00000   0.00000   0.00000
  11        4PX         0.00000   0.00000   1.17559   0.00000  -0.41892
  12        4PY         0.00000   1.17559   0.00000   0.00000   0.00000
  13        4PZ         0.00000   0.00000   0.00000   1.10290   0.00000
  14        5XX         0.01258   0.00849   0.00000   0.00000   0.00000
  15        5YY         0.01258  -0.00849   0.00000   0.00000   0.00000
  16        5ZZ         0.02447   0.00000   0.00000   0.00000   0.00000
  17        5XY         0.00000   0.00000   0.00981   0.00000  -0.02810
  18        5XZ         0.00000   0.00000   0.00000   0.00000   0.00000
  19        5YZ         0.00000   0.00000   0.00000  -0.00000   0.00000
  20 2   H  1S          0.01150  -0.04831   0.00000   0.00000   0.00000
  21        2S         -0.00424  -0.20045   0.00000   0.00000   0.00000
  22        3PX         0.00000   0.00000   0.00331   0.00000  -0.02283
  23        3PY         0.01254   0.01148   0.00000   0.00000   0.00000
  24        3PZ         0.00000   0.00000   0.00000  -0.00560   0.00000
  25 3   H  1S          0.01150   0.02415  -0.04184   0.00000   0.12361
  26        2S         -0.00424   0.10023  -0.17360   0.00000   1.76004
  27        3PX         0.01086  -0.00354   0.00944   0.00000  -0.00400
  28        3PY        -0.00627   0.00536  -0.00354   0.00000  -0.01087
  29        3PZ         0.00000   0.00000   0.00000  -0.00560   0.00000
  30 4   H  1S          0.01150   0.02415   0.04184   0.00000  -0.12361
  31        2S         -0.00424   0.10023   0.17360   0.00000  -1.76004
  32        3PX        -0.01086   0.00354   0.00944   0.00000  -0.00400
  33        3PY        -0.00627   0.00536   0.00354   0.00000   0.01087
  34        3PZ         0.00000   0.00000   0.00000  -0.00560   0.00000
                          11        12        13        14        15
                        (E')--V  (A1')--V   (E')--V   (E')--V  (A2")--V
     Eigenvalues --     0.19509   0.20612   0.63983   0.63983   0.71713
   1 1   C  1S         -0.00000  -0.13469  -0.00000   0.00000   0.00000
   2        2S          0.00000   0.15378  -0.00000   0.00000   0.00000
   3        2PX         0.00000   0.00000   0.00000  -0.92437   0.00000
   4        2PY        -0.33093   0.00000  -0.92437   0.00000   0.00000
   5        2PZ         0.00000   0.00000   0.00000   0.00000  -1.12045
   6        3S          0.00000   2.28301   0.00000   0.00000   0.00000
   7        3PX         0.00000   0.00000   0.00000   1.81407   0.00000
   8        3PY        -1.52255   0.00000   1.81407   0.00000   0.00000
   9        3PZ         0.00000   0.00000   0.00000   0.00000   1.37199
  10        4S          0.00000   1.25911  -0.00000   0.00000   0.00000
  11        4PX         0.00000   0.00000   0.00000  -0.53581   0.00000
  12        4PY        -0.41892   0.00000  -0.53581   0.00000   0.00000
  13        4PZ         0.00000   0.00000   0.00000   0.00000  -0.54487
  14        5XX        -0.02433  -0.02170   0.03934   0.00000   0.00000
  15        5YY         0.02433  -0.02170  -0.03934   0.00000   0.00000
  16        5ZZ        -0.00000  -0.00219   0.00000   0.00000   0.00000
  17        5XY         0.00000   0.00000   0.00000   0.04543   0.00000
  18        5XZ         0.00000   0.00000   0.00000   0.00000   0.00000
  19        5YZ         0.00000   0.00000   0.00000   0.00000  -0.00000
  20 2   H  1S          0.14273  -0.13212  -0.28230   0.00000   0.00000
  21        2S          2.03232  -1.44200  -0.36063   0.00000   0.00000
  22        3PX         0.00000   0.00000   0.00000   0.03064   0.00000
  23        3PY         0.00228  -0.00658   0.07255   0.00000   0.00000
  24        3PZ         0.00000   0.00000   0.00000   0.00000  -0.01017
  25 3   H  1S         -0.07136  -0.13212   0.14115  -0.24448   0.00000
  26        2S         -1.01616  -1.44200   0.18032  -0.31232   0.00000
  27        3PX        -0.01087  -0.00570  -0.01815   0.06207   0.00000
  28        3PY        -0.01656   0.00329   0.04112  -0.01815   0.00000
  29        3PZ         0.00000   0.00000   0.00000   0.00000  -0.01017
  30 4   H  1S         -0.07136  -0.13212   0.14115   0.24448   0.00000
  31        2S         -1.01616  -1.44200   0.18032   0.31232   0.00000
  32        3PX         0.01087   0.00570   0.01815   0.06207   0.00000
  33        3PY        -0.01656   0.00329   0.04112   0.01815   0.00000
  34        3PZ         0.00000   0.00000   0.00000   0.00000  -0.01017
                          16        17        18        19        20
                       (A1')--V   (E')--V   (E')--V  (A1')--V   (E")--V
     Eigenvalues --     0.84778   0.93390   0.93390   0.98120   1.47150
   1 1   C  1S         -0.06168   0.00000  -0.00000   0.03913   0.00000
   2        2S         -1.20155   0.00000  -0.00000  -1.47911   0.00000
   3        2PX         0.00000   0.56531   0.00000   0.00000   0.00000
   4        2PY        -0.00000   0.00000   0.56531  -0.00000   0.00000
   5        2PZ         0.00000   0.00000   0.00000   0.00000   0.00000
   6        3S          2.21397   0.00000   0.00000   3.41436   0.00000
   7        3PX         0.00000  -0.97231   0.00000   0.00000   0.00000
   8        3PY         0.00000   0.00000  -0.97231   0.00000   0.00000
   9        3PZ         0.00000   0.00000   0.00000   0.00000   0.00000
  10        4S         -0.88453   0.00000  -0.00000   0.51986   0.00000
  11        4PX         0.00000  -0.41207   0.00000   0.00000   0.00000
  12        4PY         0.00000   0.00000  -0.41207   0.00000   0.00000
  13        4PZ         0.00000   0.00000   0.00000   0.00000   0.00000
  14        5XX        -0.18896   0.00000   0.25217   0.03478   0.00000
  15        5YY        -0.18896   0.00000  -0.25217   0.03478   0.00000
  16        5ZZ         0.06851   0.00000  -0.00000  -0.15712   0.00000
  17        5XY         0.00000   0.29118   0.00000   0.00000   0.00000
  18        5XZ         0.00000   0.00000   0.00000   0.00000   0.70688
  19        5YZ         0.00000   0.00000   0.00000   0.00000   0.00000
  20 2   H  1S         -0.50563   0.00000  -0.91195   0.52955   0.00000
  21        2S          0.20899   0.00000   1.88758  -1.46564   0.00000
  22        3PX         0.00000   0.07485   0.00000   0.00000   0.00000
  23        3PY        -0.00577   0.00000  -0.08699   0.07427   0.00000
  24        3PZ         0.00000   0.00000   0.00000   0.00000   0.00000
  25 3   H  1S         -0.50563  -0.78977   0.45598   0.52955   0.00000
  26        2S          0.20899   1.63469  -0.94379  -1.46564   0.00000
  27        3PX        -0.00499  -0.04653   0.07008   0.06432   0.00000
  28        3PY         0.00288   0.07008   0.03439  -0.03713   0.00000
  29        3PZ         0.00000   0.00000   0.00000   0.00000   0.35344
  30 4   H  1S         -0.50563   0.78977   0.45598   0.52955   0.00000
  31        2S          0.20899  -1.63469  -0.94379  -1.46564   0.00000
  32        3PX         0.00499  -0.04653  -0.07008  -0.06432   0.00000
  33        3PY         0.00288  -0.07008   0.03439  -0.03713   0.00000
  34        3PZ         0.00000   0.00000   0.00000   0.00000  -0.35344
                          21        22        23        24        25
                        (E")--V   (E')--V   (E')--V  (A2')--V  (A1')--V
     Eigenvalues --     1.47150   1.92525   1.92525   1.99165   2.03602
   1 1   C  1S          0.00000   0.00000  -0.00000   0.00000   0.03978
   2        2S          0.00000   0.00000  -0.00000   0.00000   0.32650
   3        2PX         0.00000  -0.08712   0.00000   0.00000   0.00000
   4        2PY         0.00000   0.00000  -0.08712   0.00000  -0.00000
   5        2PZ        -0.00000   0.00000   0.00000   0.00000   0.00000
   6        3S          0.00000   0.00000   0.00000   0.00000  -0.74883
   7        3PX         0.00000   0.81316   0.00000   0.00000   0.00000
   8        3PY         0.00000   0.00000   0.81316   0.00000   0.00000
   9        3PZ         0.00000   0.00000   0.00000   0.00000   0.00000
  10        4S          0.00000   0.00000   0.00000   0.00000   0.18251
  11        4PX         0.00000  -0.17716   0.00000  -0.00000   0.00000
  12        4PY         0.00000   0.00000  -0.17716   0.00000   0.00000
  13        4PZ        -0.00000   0.00000   0.00000   0.00000   0.00000
  14        5XX         0.00000   0.00000  -0.53380   0.00000  -0.37127
  15        5YY         0.00000   0.00000   0.53380   0.00000  -0.37127
  16        5ZZ         0.00000   0.00000  -0.00000   0.00000   1.01544
  17        5XY         0.00000  -0.61638   0.00000  -0.00000   0.00000
  18        5XZ         0.00000   0.00000   0.00000   0.00000   0.00000
  19        5YZ         0.70688   0.00000   0.00000   0.00000   0.00000
  20 2   H  1S          0.00000   0.00000  -0.64500   0.00000   0.34493
  21        2S          0.00000   0.00000   0.02003   0.00000  -0.06688
  22        3PX         0.00000  -0.44050   0.00000   0.57947   0.00000
  23        3PY         0.00000   0.00000  -0.23607   0.00000   0.17021
  24        3PZ         0.40812   0.00000   0.00000   0.00000   0.00000
  25 3   H  1S          0.00000  -0.55859   0.32250  -0.00000   0.34493
  26        2S          0.00000   0.01735  -0.01002   0.00000  -0.06688
  27        3PX         0.00000  -0.28718  -0.08852  -0.28973   0.14741
  28        3PY         0.00000  -0.08852  -0.38939  -0.50183  -0.08511
  29        3PZ        -0.20406   0.00000   0.00000   0.00000   0.00000
  30 4   H  1S          0.00000   0.55859   0.32250   0.00000   0.34493
  31        2S          0.00000  -0.01735  -0.01002  -0.00000  -0.06688
  32        3PX         0.00000  -0.28718   0.08852  -0.28973  -0.14741
  33        3PY         0.00000   0.08852  -0.38939   0.50183  -0.08511
  34        3PZ        -0.20406   0.00000   0.00000   0.00000   0.00000
                          26        27        28        29        30
                       (A2")--V   (E")--V   (E")--V   (E')--V   (E')--V
     Eigenvalues --     2.28237   2.56969   2.56969   2.70118   2.70118
   1 1   C  1S          0.00000   0.00000   0.00000  -0.00000   0.00000
   2        2S          0.00000   0.00000   0.00000   0.00000   0.00000
   3        2PX         0.00000   0.00000   0.00000   0.00000  -0.36155
   4        2PY         0.00000   0.00000   0.00000  -0.36155   0.00000
   5        2PZ        -0.10706  -0.00000   0.00000   0.00000   0.00000
   6        3S          0.00000   0.00000   0.00000   0.00000   0.00000
   7        3PX         0.00000   0.00000   0.00000   0.00000  -0.57988
   8        3PY         0.00000   0.00000   0.00000  -0.57988   0.00000
   9        3PZ        -0.39827  -0.00000   0.00000   0.00000   0.00000
  10        4S          0.00000   0.00000   0.00000  -0.00000   0.00000
  11        4PX         0.00000   0.00000   0.00000   0.00000  -0.09564
  12        4PY         0.00000   0.00000   0.00000  -0.09564   0.00000
  13        4PZ         0.09678   0.00000   0.00000   0.00000   0.00000
  14        5XX         0.00000   0.00000   0.00000  -0.36203   0.00000
  15        5YY         0.00000   0.00000   0.00000   0.36203   0.00000
  16        5ZZ         0.00000   0.00000   0.00000  -0.00000   0.00000
  17        5XY         0.00000   0.00000   0.00000   0.00000  -0.41804
  18        5XZ         0.00000   0.00000   0.80278   0.00000   0.00000
  19        5YZ        -0.00000   0.80278   0.00000   0.00000   0.00000
  20 2   H  1S          0.00000   0.00000   0.00000  -0.05880   0.00000
  21        2S          0.00000   0.00000   0.00000   0.70827   0.00000
  22        3PX         0.00000   0.00000   0.00000   0.00000   0.76103
  23        3PY         0.00000   0.00000   0.00000  -0.46131   0.00000
  24        3PZ         0.62040  -0.77259   0.00000   0.00000   0.00000
  25 3   H  1S          0.00000   0.00000   0.00000   0.02940  -0.05092
  26        2S          0.00000   0.00000   0.00000  -0.35413   0.61338
  27        3PX         0.00000   0.00000   0.00000   0.52929  -0.15573
  28        3PY         0.00000   0.00000   0.00000   0.45544   0.52929
  29        3PZ         0.62040   0.38629  -0.66908   0.00000   0.00000
  30 4   H  1S          0.00000   0.00000   0.00000   0.02940   0.05092
  31        2S          0.00000   0.00000   0.00000  -0.35413  -0.61338
  32        3PX         0.00000   0.00000   0.00000  -0.52929  -0.15573
  33        3PY         0.00000   0.00000   0.00000   0.45544  -0.52929
  34        3PZ         0.62040   0.38629   0.66908   0.00000   0.00000
                          31        32        33        34
                       (A1')--V   (E')--V   (E')--V  (A1')--V
     Eigenvalues --     3.24365   3.43550   3.43550   4.31937
   1 1   C  1S         -0.16143   0.00000   0.00000  -0.44442
   2        2S          1.05266   0.00000  -0.00000   2.91433
   3        2PX         0.00000  -0.91562   0.00000   0.00000
   4        2PY         0.00000   0.00000   0.91562   0.00000
   5        2PZ         0.00000   0.00000   0.00000   0.00000
   6        3S          1.36292   0.00000  -0.00000   1.27982
   7        3PX         0.00000  -0.38083   0.00000   0.00000
   8        3PY         0.00000   0.00000   0.38083   0.00000
   9        3PZ         0.00000   0.00000   0.00000   0.00000
  10        4S          0.17661   0.00000   0.00000  -0.16485
  11        4PX         0.00000   0.00005   0.00000   0.00000
  12        4PY         0.00000   0.00000  -0.00005   0.00000
  13        4PZ         0.00000   0.00000   0.00000   0.00000
  14        5XX         0.17206   0.00000  -1.04643  -2.16074
  15        5YY         0.17206   0.00000   1.04643  -2.16074
  16        5ZZ        -0.96109   0.00000   0.00000  -1.58745
  17        5XY         0.00000   1.20831   0.00000   0.00000
  18        5XZ         0.00000   0.00000   0.00000   0.00000
  19        5YZ         0.00000   0.00000   0.00000   0.00000
  20 2   H  1S         -0.34009   0.00000  -0.75600   0.33992
  21        2S         -0.53917   0.00000  -0.38210  -0.15865
  22        3PX         0.00000  -0.29327   0.00000   0.00000
  23        3PY         0.76251   0.00000   1.07783  -0.40091
  24        3PZ         0.00000   0.00000   0.00000   0.00000
  25 3   H  1S         -0.34009   0.65471   0.37800   0.33992
  26        2S         -0.53917   0.33091   0.19105  -0.15865
  27        3PX         0.66035  -0.88169  -0.33972  -0.34720
  28        3PY        -0.38125   0.33972   0.48941   0.20046
  29        3PZ         0.00000   0.00000   0.00000   0.00000
  30 4   H  1S         -0.34009  -0.65471   0.37800   0.33992
  31        2S         -0.53917  -0.33091   0.19105  -0.15865
  32        3PX        -0.66035  -0.88169   0.33972   0.34720
  33        3PY        -0.38125  -0.33972   0.48941   0.20046
  34        3PZ         0.00000   0.00000   0.00000   0.00000
     Alpha Density Matrix:
                           1         2         3         4         5
   1 1   C  1S          1.02741
   2        2S         -0.03508   0.17295
   3        2PX         0.00000  -0.00000   0.20973
   4        2PY        -0.00000   0.00000   0.00000   0.20973
   5        2PZ         0.00000  -0.00000   0.00000   0.00000   0.35568
   6        3S         -0.09034   0.16030   0.00000  -0.00000   0.00000
   7        3PX        -0.00000   0.00000   0.08485   0.00000  -0.00000
   8        3PY         0.00000  -0.00000   0.00000   0.08485   0.00000
   9        3PZ        -0.00000   0.00000  -0.00000   0.00000   0.26893
  10        4S         -0.00198   0.00555   0.00000  -0.00000   0.00000
  11        4PX        -0.00000   0.00000   0.01255   0.00000  -0.00000
  12        4PY         0.00000  -0.00000   0.00000   0.01255   0.00000
  13        4PZ        -0.00000   0.00000  -0.00000   0.00000   0.08050
  14        5XX        -0.00800  -0.00426  -0.00000  -0.00833  -0.00000
  15        5YY        -0.00800  -0.00426   0.00000   0.00833   0.00000
  16        5ZZ        -0.00787  -0.00424  -0.00000   0.00000  -0.00000
  17        5XY        -0.00000  -0.00000  -0.00962   0.00000   0.00000
  18        5XZ         0.00000   0.00000  -0.00000   0.00000  -0.00000
  19        5YZ        -0.00000  -0.00000   0.00000   0.00000   0.00000
  20 2   H  1S         -0.03086   0.06130   0.00000   0.12919   0.00000
  21        2S         -0.00679   0.01691   0.00000   0.09583   0.00000
  22        3PX         0.00000  -0.00000   0.00350  -0.00000   0.00000
  23        3PY         0.00290  -0.00549  -0.00000  -0.00350  -0.00000
  24        3PZ         0.00000  -0.00000   0.00000   0.00000   0.00899
  25 3   H  1S         -0.03086   0.06130   0.11188  -0.06459   0.00000
  26        2S         -0.00679   0.01691   0.08299  -0.04791   0.00000
  27        3PX         0.00251  -0.00476  -0.00175   0.00303  -0.00000
  28        3PY        -0.00145   0.00275   0.00303   0.00175   0.00000
  29        3PZ         0.00000  -0.00000   0.00000   0.00000   0.00899
  30 4   H  1S         -0.03086   0.06130  -0.11188  -0.06459  -0.00000
  31        2S         -0.00679   0.01691  -0.08299  -0.04791  -0.00000
  32        3PX        -0.00251   0.00476  -0.00175  -0.00303  -0.00000
  33        3PY        -0.00145   0.00275  -0.00303   0.00175  -0.00000
  34        3PZ        -0.00000   0.00000   0.00000  -0.00000   0.00899
                           6         7         8         9        10
   6        3S          0.15186
   7        3PX         0.00000   0.03433
   8        3PY        -0.00000   0.00000   0.03433
   9        3PZ         0.00000  -0.00000   0.00000   0.20333
  10        4S          0.00519   0.00000  -0.00000  -0.00000   0.00018
  11        4PX         0.00000   0.00508   0.00000  -0.00000   0.00000
  12        4PY        -0.00000   0.00000   0.00508   0.00000  -0.00000
  13        4PZ         0.00000  -0.00000   0.00000   0.06086   0.00000
  14        5XX        -0.00344  -0.00000  -0.00337  -0.00000  -0.00013
  15        5YY        -0.00344   0.00000   0.00337   0.00000  -0.00013
  16        5ZZ        -0.00344  -0.00000   0.00000  -0.00000  -0.00013
  17        5XY        -0.00000  -0.00389   0.00000   0.00000   0.00000
  18        5XZ        -0.00000  -0.00000   0.00000  -0.00000  -0.00000
  19        5YZ        -0.00000   0.00000   0.00000   0.00000  -0.00000
  20 2   H  1S          0.05786   0.00000   0.05226   0.00000   0.00198
  21        2S          0.01587   0.00000   0.03877   0.00000   0.00055
  22        3PX        -0.00000   0.00142  -0.00000   0.00000  -0.00000
  23        3PY        -0.00519  -0.00000  -0.00142   0.00000  -0.00018
  24        3PZ        -0.00000  -0.00000   0.00000   0.00680  -0.00000
  25 3   H  1S          0.05786   0.04526  -0.02613  -0.00000   0.00198
  26        2S          0.01587   0.03358  -0.01938  -0.00000   0.00055
  27        3PX        -0.00450  -0.00071   0.00123   0.00000  -0.00015
  28        3PY         0.00260   0.00123   0.00071  -0.00000   0.00009
  29        3PZ        -0.00000   0.00000  -0.00000   0.00680   0.00000
  30 4   H  1S          0.05786  -0.04526  -0.02613   0.00000   0.00198
  31        2S          0.01587  -0.03358  -0.01938   0.00000   0.00055
  32        3PX         0.00450  -0.00071  -0.00123   0.00000   0.00015
  33        3PY         0.00260  -0.00123   0.00071   0.00000   0.00009
  34        3PZ         0.00000   0.00000   0.00000   0.00680  -0.00000
                          11        12        13        14        15
  11        4PX         0.00075
  12        4PY         0.00000   0.00075
  13        4PZ        -0.00000   0.00000   0.01822
  14        5XX        -0.00000  -0.00050  -0.00000   0.00051
  15        5YY         0.00000   0.00050   0.00000  -0.00015   0.00051
  16        5ZZ        -0.00000   0.00000  -0.00000   0.00018   0.00018
  17        5XY        -0.00058   0.00000   0.00000   0.00000   0.00000
  18        5XZ        -0.00000   0.00000  -0.00000  -0.00000  -0.00000
  19        5YZ         0.00000   0.00000   0.00000   0.00000   0.00000
  20 2   H  1S          0.00000   0.00773   0.00000  -0.00648   0.00378
  21        2S          0.00000   0.00573   0.00000  -0.00419   0.00342
  22        3PX         0.00021  -0.00000   0.00000   0.00000   0.00000
  23        3PY        -0.00000  -0.00021   0.00000   0.00026  -0.00002
  24        3PZ        -0.00000   0.00000   0.00203   0.00000   0.00000
  25 3   H  1S          0.00669  -0.00386  -0.00000   0.00122  -0.00391
  26        2S          0.00497  -0.00287   0.00000   0.00152  -0.00229
  27        3PX        -0.00010   0.00018   0.00000  -0.00002   0.00022
  28        3PY         0.00018   0.00010  -0.00000  -0.00013   0.00001
  29        3PZ         0.00000  -0.00000   0.00203   0.00000   0.00000
  30 4   H  1S         -0.00669  -0.00386   0.00000   0.00122  -0.00391
  31        2S         -0.00497  -0.00287  -0.00000   0.00152  -0.00229
  32        3PX        -0.00010  -0.00018   0.00000   0.00002  -0.00022
  33        3PY        -0.00018   0.00010   0.00000  -0.00013   0.00001
  34        3PZ         0.00000   0.00000   0.00203  -0.00000  -0.00000
                          16        17        18        19        20
  16        5ZZ         0.00018
  17        5XY         0.00000   0.00044
  18        5XZ        -0.00000   0.00000   0.00000
  19        5YZ         0.00000  -0.00000  -0.00000   0.00000
  20 2   H  1S         -0.00135   0.00000   0.00000   0.00000   0.10163
  21        2S         -0.00039   0.00000   0.00000   0.00000   0.06508
  22        3PX         0.00000  -0.00016  -0.00000   0.00000  -0.00000
  23        3PY         0.00012  -0.00000  -0.00000   0.00000  -0.00413
  24        3PZ         0.00000  -0.00000  -0.00000  -0.00000  -0.00000
  25 3   H  1S         -0.00135  -0.00513  -0.00000   0.00000  -0.01773
  26        2S         -0.00039  -0.00381   0.00000   0.00000  -0.02346
  27        3PX         0.00010   0.00008  -0.00000  -0.00000   0.00015
  28        3PY        -0.00006  -0.00014   0.00000   0.00000   0.00207
  29        3PZ         0.00000  -0.00000  -0.00000   0.00000  -0.00000
  30 4   H  1S         -0.00135   0.00513  -0.00000  -0.00000  -0.01773
  31        2S         -0.00039   0.00381   0.00000  -0.00000  -0.02346
  32        3PX        -0.00010   0.00008   0.00000  -0.00000  -0.00015
  33        3PY        -0.00006   0.00014   0.00000  -0.00000   0.00207
  34        3PZ        -0.00000  -0.00000   0.00000   0.00000   0.00000
                          21        22        23        24        25
  21        2S          0.04545
  22        3PX        -0.00000   0.00006
  23        3PY        -0.00214   0.00000   0.00024
  24        3PZ        -0.00000   0.00000   0.00000   0.00023
  25 3   H  1S         -0.02346   0.00187  -0.00090   0.00000   0.10163
  26        2S         -0.02023   0.00139   0.00026   0.00000   0.06508
  27        3PX         0.00091  -0.00003   0.00010  -0.00000  -0.00358
  28        3PY         0.00107   0.00005  -0.00012   0.00000   0.00207
  29        3PZ         0.00000  -0.00000   0.00000   0.00023  -0.00000
  30 4   H  1S         -0.02346  -0.00187  -0.00090  -0.00000  -0.01773
  31        2S         -0.02023  -0.00139   0.00026  -0.00000  -0.02346
  32        3PX        -0.00091  -0.00003  -0.00010  -0.00000   0.00171
  33        3PY         0.00107  -0.00005  -0.00012  -0.00000  -0.00117
  34        3PZ        -0.00000  -0.00000  -0.00000   0.00023   0.00000
                          26        27        28        29        30
  26        2S          0.04545
  27        3PX        -0.00186   0.00019
  28        3PY         0.00107  -0.00008   0.00010
  29        3PZ        -0.00000   0.00000  -0.00000   0.00023
  30 4   H  1S         -0.02346  -0.00171  -0.00117  -0.00000   0.10163
  31        2S         -0.02023  -0.00047  -0.00133  -0.00000   0.06508
  32        3PX         0.00047  -0.00016   0.00003  -0.00000   0.00358
  33        3PY        -0.00133  -0.00003   0.00002  -0.00000   0.00207
  34        3PZ         0.00000  -0.00000   0.00000   0.00023   0.00000
                          31        32        33        34
  31        2S          0.04545
  32        3PX         0.00186   0.00019
  33        3PY         0.00107   0.00008   0.00010
  34        3PZ         0.00000   0.00000   0.00000   0.00023
     Beta Density Matrix:
                           1         2         3         4         5
   1 1   C  1S          1.02535
   2        2S         -0.03133   0.15623
   3        2PX         0.00000  -0.00000   0.19400
   4        2PY        -0.00000   0.00000   0.00000   0.19400
   5        2PZ         0.00000  -0.00000   0.00000   0.00000   0.00000
   6        3S         -0.07543   0.12911   0.00000  -0.00000   0.00000
   7        3PX        -0.00000   0.00000   0.07297   0.00000  -0.00000
   8        3PY         0.00000  -0.00000   0.00000   0.07297   0.00000
   9        3PZ        -0.00000   0.00000  -0.00000   0.00000   0.00000
  10        4S         -0.00021   0.00209   0.00000   0.00000   0.00000
  11        4PX        -0.00000   0.00000   0.01331   0.00000  -0.00000
  12        4PY         0.00000  -0.00000   0.00000   0.01331   0.00000
  13        4PZ        -0.00000   0.00000  -0.00000   0.00000   0.00000
  14        5XX        -0.00869   0.00071  -0.00000  -0.00763  -0.00000
  15        5YY        -0.00869   0.00071   0.00000   0.00763   0.00000
  16        5ZZ        -0.00333  -0.01276   0.00000  -0.00000   0.00000
  17        5XY        -0.00000   0.00000  -0.00881   0.00000   0.00000
  18        5XZ         0.00000   0.00000  -0.00000   0.00000  -0.00000
  19        5YZ        -0.00000  -0.00000   0.00000   0.00000   0.00000
  20 2   H  1S         -0.03247   0.06338   0.00000   0.12960   0.00000
  21        2S         -0.01232   0.02755   0.00000   0.10181   0.00000
  22        3PX         0.00000  -0.00000   0.00367  -0.00000   0.00000
  23        3PY         0.00288  -0.00506  -0.00000  -0.00381  -0.00000
  24        3PZ         0.00000  -0.00000   0.00000  -0.00000  -0.00000
  25 3   H  1S         -0.03247   0.06338   0.11224  -0.06480   0.00000
  26        2S         -0.01232   0.02755   0.08817  -0.05090   0.00000
  27        3PX         0.00249  -0.00438  -0.00194   0.00324   0.00000
  28        3PY        -0.00144   0.00253   0.00324   0.00180   0.00000
  29        3PZ         0.00000  -0.00000   0.00000   0.00000  -0.00000
  30 4   H  1S         -0.03247   0.06338  -0.11224  -0.06480  -0.00000
  31        2S         -0.01232   0.02755  -0.08817  -0.05090  -0.00000
  32        3PX        -0.00249   0.00438  -0.00194  -0.00324   0.00000
  33        3PY        -0.00144   0.00253  -0.00324   0.00180  -0.00000
  34        3PZ        -0.00000   0.00000   0.00000  -0.00000  -0.00000
                           6         7         8         9        10
   6        3S          0.10911
   7        3PX         0.00000   0.02745
   8        3PY        -0.00000   0.00000   0.02745
   9        3PZ         0.00000  -0.00000   0.00000   0.00000
  10        4S          0.00172   0.00000  -0.00000   0.00000   0.00003
  11        4PX         0.00000   0.00501   0.00000  -0.00000   0.00000
  12        4PY        -0.00000   0.00000   0.00501   0.00000  -0.00000
  13        4PZ         0.00000  -0.00000   0.00000   0.00000   0.00000
  14        5XX         0.00100  -0.00000  -0.00287  -0.00000   0.00001
  15        5YY         0.00100   0.00000   0.00287   0.00000   0.00001
  16        5ZZ        -0.01026  -0.00000   0.00000  -0.00000  -0.00017
  17        5XY         0.00000  -0.00332   0.00000   0.00000   0.00000
  18        5XZ        -0.00000  -0.00000   0.00000  -0.00000  -0.00000
  19        5YZ        -0.00000   0.00000   0.00000   0.00000  -0.00000
  20 2   H  1S          0.05333   0.00000   0.04875   0.00000   0.00084
  21        2S          0.02310   0.00000   0.03829   0.00000   0.00037
  22        3PX        -0.00000   0.00138  -0.00000   0.00000  -0.00000
  23        3PY        -0.00427  -0.00000  -0.00143  -0.00000  -0.00007
  24        3PZ        -0.00000  -0.00000  -0.00000  -0.00000  -0.00000
  25 3   H  1S          0.05333   0.04222  -0.02438  -0.00000   0.00084
  26        2S          0.02310   0.03316  -0.01915  -0.00000   0.00037
  27        3PX        -0.00370  -0.00073   0.00122   0.00000  -0.00006
  28        3PY         0.00214   0.00122   0.00068  -0.00000   0.00003
  29        3PZ         0.00000   0.00000  -0.00000  -0.00000   0.00000
  30 4   H  1S          0.05333  -0.04222  -0.02438   0.00000   0.00084
  31        2S          0.02310  -0.03316  -0.01915   0.00000   0.00037
  32        3PX         0.00370  -0.00073  -0.00122   0.00000   0.00006
  33        3PY         0.00214  -0.00122   0.00068   0.00000   0.00003
  34        3PZ        -0.00000   0.00000   0.00000  -0.00000  -0.00000
                          11        12        13        14        15
  11        4PX         0.00091
  12        4PY         0.00000   0.00091
  13        4PZ        -0.00000   0.00000   0.00000
  14        5XX        -0.00000  -0.00052  -0.00000   0.00038
  15        5YY         0.00000   0.00052   0.00000  -0.00023   0.00038
  16        5ZZ        -0.00000   0.00000  -0.00000  -0.00001  -0.00001
  17        5XY        -0.00060   0.00000   0.00000  -0.00000   0.00000
  18        5XZ        -0.00000   0.00000  -0.00000  -0.00000  -0.00000
  19        5YZ         0.00000   0.00000   0.00000  -0.00000   0.00000
  20 2   H  1S          0.00000   0.00889   0.00000  -0.00465   0.00555
  21        2S          0.00000   0.00699   0.00000  -0.00382   0.00419
  22        3PX         0.00025  -0.00000   0.00000  -0.00000   0.00000
  23        3PY        -0.00000  -0.00026  -0.00000   0.00011  -0.00019
  24        3PZ        -0.00000  -0.00000  -0.00000   0.00000  -0.00000
  25 3   H  1S          0.00770  -0.00445  -0.00000   0.00300  -0.00210
  26        2S          0.00605  -0.00349   0.00000   0.00218  -0.00182
  27        3PX        -0.00013   0.00022   0.00000  -0.00016   0.00009
  28        3PY         0.00022   0.00012   0.00000  -0.00005   0.00009
  29        3PZ         0.00000  -0.00000  -0.00000   0.00000   0.00000
  30 4   H  1S         -0.00770  -0.00445   0.00000   0.00300  -0.00210
  31        2S         -0.00605  -0.00349  -0.00000   0.00218  -0.00182
  32        3PX        -0.00013  -0.00022   0.00000   0.00016  -0.00009
  33        3PY        -0.00022   0.00012  -0.00000  -0.00005   0.00009
  34        3PZ         0.00000   0.00000  -0.00000  -0.00000  -0.00000
                          16        17        18        19        20
  16        5ZZ         0.00108
  17        5XY        -0.00000   0.00040
  18        5XZ        -0.00000   0.00000   0.00000
  19        5YZ         0.00000  -0.00000   0.00000   0.00000
  20 2   H  1S         -0.00506   0.00000   0.00000   0.00000   0.11267
  21        2S         -0.00221   0.00000  -0.00000   0.00000   0.07932
  22        3PX         0.00000  -0.00017  -0.00000   0.00000  -0.00000
  23        3PY         0.00040  -0.00000  -0.00000   0.00000  -0.00463
  24        3PZ         0.00000  -0.00000  -0.00000  -0.00000  -0.00000
  25 3   H  1S         -0.00506  -0.00510  -0.00000   0.00000  -0.01720
  26        2S         -0.00221  -0.00401   0.00000  -0.00000  -0.02270
  27        3PX         0.00035   0.00009  -0.00000  -0.00000   0.00036
  28        3PY        -0.00020  -0.00015   0.00000  -0.00000   0.00225
  29        3PZ        -0.00000  -0.00000  -0.00000   0.00000   0.00000
  30 4   H  1S         -0.00506   0.00510  -0.00000  -0.00000  -0.01720
  31        2S         -0.00221   0.00401   0.00000   0.00000  -0.02270
  32        3PX        -0.00035   0.00009   0.00000  -0.00000  -0.00036
  33        3PY        -0.00020   0.00015   0.00000  -0.00000   0.00225
  34        3PZ        -0.00000  -0.00000   0.00000   0.00000  -0.00000
                          21        22        23        24        25
  21        2S          0.05833
  22        3PX        -0.00000   0.00007
  23        3PY        -0.00290   0.00000   0.00024
  24        3PZ        -0.00000   0.00000   0.00000   0.00000
  25 3   H  1S         -0.02270   0.00213  -0.00082   0.00000   0.11267
  26        2S         -0.02181   0.00167   0.00010   0.00000   0.07932
  27        3PX         0.00092  -0.00004   0.00008  -0.00000  -0.00401
  28        3PY         0.00140   0.00006  -0.00012   0.00000   0.00232
  29        3PZ         0.00000   0.00000   0.00000  -0.00000  -0.00000
  30 4   H  1S         -0.02270  -0.00213  -0.00082  -0.00000  -0.01720
  31        2S         -0.02181  -0.00167   0.00010  -0.00000  -0.02270
  32        3PX        -0.00092  -0.00004  -0.00008  -0.00000   0.00177
  33        3PY         0.00140  -0.00006  -0.00012  -0.00000  -0.00143
  34        3PZ        -0.00000   0.00000  -0.00000  -0.00000   0.00000
                          26        27        28        29        30
  26        2S          0.05833
  27        3PX        -0.00252   0.00020
  28        3PY         0.00145  -0.00007   0.00011
  29        3PZ        -0.00000   0.00000  -0.00000   0.00000
  30 4   H  1S         -0.02270  -0.00177  -0.00143  -0.00000   0.11267
  31        2S         -0.02181  -0.00075  -0.00149  -0.00000   0.07932
  32        3PX         0.00075  -0.00016   0.00001  -0.00000   0.00401
  33        3PY        -0.00149  -0.00001   0.00000  -0.00000   0.00232
  34        3PZ         0.00000  -0.00000   0.00000  -0.00000   0.00000
                          31        32        33        34
  31        2S          0.05833
  32        3PX         0.00252   0.00020
  33        3PY         0.00145   0.00007   0.00011
  34        3PZ         0.00000   0.00000   0.00000   0.00000
    Full Mulliken population analysis:
                           1         2         3         4         5
   1 1   C  1S          2.05276
   2        2S         -0.01455   0.32918
   3        2PX         0.00000   0.00000   0.40373
   4        2PY         0.00000   0.00000   0.00000   0.40373
   5        2PZ         0.00000   0.00000  -0.00000   0.00000   0.35568
   6        3S         -0.03054   0.23508   0.00000   0.00000   0.00000
   7        3PX         0.00000   0.00000   0.08992  -0.00000   0.00000
   8        3PY         0.00000   0.00000   0.00000   0.08992   0.00000
   9        3PZ         0.00000   0.00000   0.00000   0.00000   0.15322
  10        4S         -0.00015   0.00307   0.00000   0.00000   0.00000
  11        4PX         0.00000   0.00000   0.00426   0.00000   0.00000
  12        4PY         0.00000   0.00000  -0.00000   0.00426   0.00000
  13        4PZ         0.00000   0.00000   0.00000   0.00000   0.01326
  14        5XX        -0.00132  -0.00252   0.00000   0.00000   0.00000
  15        5YY        -0.00132  -0.00252   0.00000   0.00000   0.00000
  16        5ZZ        -0.00089  -0.01208   0.00000   0.00000   0.00000
  17        5XY        -0.00000  -0.00000   0.00000   0.00000   0.00000
  18        5XZ        -0.00000  -0.00000   0.00000   0.00000   0.00000
  19        5YZ        -0.00000  -0.00000   0.00000   0.00000   0.00000
  20 2   H  1S         -0.00207   0.03412   0.00000   0.09558   0.00000
  21        2S         -0.00176   0.02117   0.00000   0.05252   0.00000
[...]
     3   Atom       -0.063185     -0.000000      0.000000
     4   Atom        0.063185      0.000000      0.000000
 --------------------------------------------------------


 ---------------------------------------------------------------------------------
              Anisotropic Spin Dipole Couplings in Principal Axis System
 ---------------------------------------------------------------------------------

       Atom             a.u.   MegaHertz   Gauss  10(-4) cm-1        Axes

              Baa    -0.5282   -70.879   -25.292   -23.643  0.8659 -0.5002  0.0000
     1 C(13)  Bbb    -0.5282   -70.879   -25.292   -23.643  0.5002  0.8659 -0.0000
              Bcc     1.0564   141.759    50.583    47.286  0.0000  0.0000  1.0000
 
              Baa    -0.0725   -38.672   -13.799   -12.899  1.0000 -0.0000  0.0000
     2 H(1)   Bbb    -0.0010    -0.512    -0.183    -0.171  0.0000  0.0000  1.0000
              Bcc     0.0734    39.184    13.982    13.070  0.0000  1.0000 -0.0000
 
              Baa    -0.0725   -38.672   -13.799   -12.899  0.5000  0.8660 -0.0000
     3 H(1)   Bbb    -0.0010    -0.512    -0.183    -0.171  0.0000  0.0000  1.0000
              Bcc     0.0734    39.184    13.982    13.070  0.8660 -0.5000  0.0000
 
              Baa    -0.0725   -38.672   -13.799   -12.899 -0.5000  0.8660 -0.0000
     4 H(1)   Bbb    -0.0010    -0.512    -0.183    -0.171  0.0000  0.0000  1.0000
              Bcc     0.0734    39.184    13.982    13.070  0.8660  0.5000 -0.0000
 

 ---------------------------------------------------------------------------------

 No NMR shielding tensors so no spin-rotation constants.
 Leave Link  601 at Fri Aug 16 12:59:56 2024, MaxMem=   13107200 cpu:       0.4
 (Enter /programs/64bit/g09/g09-gfortran/bin/l701.exe)
 Compute integral second derivatives.
 ... and contract with generalized density number  0.
 Leave Link  701 at Fri Aug 16 12:59:56 2024, MaxMem=   13107200 cpu:       0.4
 (Enter /programs/64bit/g09/g09-gfortran/bin/l702.exe)
 L702 exits ... SP integral derivatives will be done elsewhere.
 Leave Link  702 at Fri Aug 16 12:59:56 2024, MaxMem=   13107200 cpu:       0.0
 (Enter /programs/64bit/g09/g09-gfortran/bin/l703.exe)
 Compute integral second derivatives, UseDBF=F ICtDFT=           0.
 Integral derivatives from FoFDir, PRISM(SPDF).
 Calling FoFJK, ICntrl=    100127 FMM=F ISym2X=1 I1Cent= 0 IOpClX= 1 NMat=1 NMatS=1 NMatT=0.
 FoFCou: FMM=F IPFlag=           0 FMFlag=      100000 FMFlg1=         800
         NFxFlg=           0 DoJE=F BraDBF=F KetDBF=F FulRan=T
         Omega=  0.000000  0.000000  1.000000  0.000000  0.000000 ICntrl=  100127 IOpCl=  1
         NMat0=    1 NMatS0=    1 NMatT0=    0 NMatD0=    1 NMtDS0=    0 NMtDT0=    0
         I1Cent=           0 NGrid=           0.
 Petite list used in FoFCou.
 Leave Link  703 at Fri Aug 16 12:59:59 2024, MaxMem=   13107200 cpu:       3.0
 (Enter /programs/64bit/g09/g09-gfortran/bin/l716.exe)
 Dipole        =-8.03935911D-16 2.17924637D-16 2.44211143D-33
 Polarizability= 1.27233167D+01-6.35625350D-10 1.27235520D+01
                -3.04222776D-10 1.37971002D-10 1.16744347D+01
 Full mass-weighted force constant matrix:
 Low frequencies ---  -59.2802  -59.2776  -54.6885   -0.0046    0.0333    0.5466
 Low frequencies ---  523.2320 1412.0119 1412.0135
 Diagonal vibrational polarizability:
        0.0734223       0.0734384      10.2753894
 Harmonic frequencies (cm**-1), IR intensities (KM/Mole), Raman scattering
 activities (A**4/AMU), depolarization ratios for plane and unpolarized
 incident light, reduced masses (AMU), force constants (mDyne/A),
 and normal coordinates:
                     1                      2                      3
                    A2"                    E'                     E'
 Frequencies --   523.2320              1412.0119              1412.0135
 Red. masses --     1.2356                 1.1020                 1.1020
 Frc consts  --     0.1993                 1.2945                 1.2946
 IR Inten    --   104.5331                 4.5693                 4.5680
  Atom  AN      X      Y      Z        X      Y      Z        X      Y      Z
     1   6    -0.00  -0.00   0.14    -0.00   0.09   0.00    -0.09  -0.00  -0.00
     2   1     0.00  -0.00  -0.57     0.00   0.07  -0.00     0.81  -0.00   0.00
     3   1    -0.00   0.00  -0.57    -0.38  -0.59  -0.00     0.15   0.38   0.00
     4   1     0.00   0.00  -0.57     0.38  -0.59  -0.00     0.15  -0.38   0.00
                     4                      5                      6
                    A1'                    E'                     E'
 Frequencies --  3128.3355              3309.7407              3309.7417
 Red. masses --     1.0078                 1.1184                 1.1184
 Frc consts  --     5.8111                 7.2183                 7.2183
 IR Inten    --     0.0000                 4.7890                 4.7886
  Atom  AN      X      Y      Z        X      Y      Z        X      Y      Z
     1   6    -0.00   0.00   0.00     0.10  -0.00   0.00     0.00   0.10   0.00
     2   1    -0.00   0.58  -0.00     0.02   0.00  -0.00     0.00  -0.81  -0.00
     3   1     0.50  -0.29  -0.00    -0.61   0.36  -0.00     0.36  -0.19  -0.00
     4   1    -0.50  -0.29  -0.00    -0.61  -0.36  -0.00    -0.36  -0.19  -0.00

 -------------------
 - Thermochemistry -
 -------------------
 Temperature   298.150 Kelvin.  Pressure   1.00000 Atm.
 Atom     1 has atomic number  6 and mass  12.00000
 Atom     2 has atomic number  1 and mass   1.00783
 Atom     3 has atomic number  1 and mass   1.00783
 Atom     4 has atomic number  1 and mass   1.00783
 Molecular mass:    15.02348 amu.
 Principal axes and moments of inertia in atomic units:
                           1         2         3
     Eigenvalues --     6.32370   6.32370  12.64740
           X           -0.52912   0.84854   0.00000
           Y            0.84854   0.52912   0.00000
           Z            0.00000   0.00000   1.00000
 This molecule is an oblate symmetric top.
 Rotational symmetry number  6.
 Rotational temperatures (Kelvin)     13.69670    13.69670     6.84835
 Rotational constants (GHZ):         285.39325   285.39325   142.69662
 Zero-point vibrational energy      78325.9 (Joules/Mol)
                                   18.72035 (Kcal/Mol)
 Warning -- explicit consideration of   1 degrees of freedom as
           vibrations may cause significant error
 Vibrational temperatures:    752.81  2031.57  2031.57  4500.97  4761.97
          (Kelvin)           4761.97
 
 Zero-point correction=                           0.029833 (Hartree/Particle)
 Thermal correction to Energy=                    0.032887
 Thermal correction to Enthalpy=                  0.033831
 Thermal correction to Gibbs Free Energy=         0.011733
 Sum of electronic and zero-point Energies=            -39.817502
 Sum of electronic and thermal Energies=               -39.814447
 Sum of electronic and thermal Enthalpies=             -39.813503
 Sum of electronic and thermal Free Energies=          -39.835602
 
                     E (Thermal)             CV                S
                      KCal/Mol        Cal/Mol-Kelvin    Cal/Mol-Kelvin
 Total                   20.637              7.364             46.510
 Electronic               0.000              0.000              1.377
 Translational            0.889              2.981             34.068
 Rotational               0.889              2.981             10.429
 Vibrational             18.859              1.402              0.637
 Vibration     1          0.878              1.199              0.603
                       Q            Log10(Q)             Ln(Q)
 Total Bot       0.401244D-05         -5.396591        -12.426110
 Total V=0       0.211594D+09          8.325504         19.170182
 Vib (Bot)       0.206586D-13        -13.684899        -31.510644
 Vib (Bot)    1  0.307579D+00         -0.512044         -1.179025
 Vib (V=0)       0.108942D+01          0.037196          0.085648
 Vib (V=0)    1  0.108703D+01          0.036242          0.083450
 Electronic      0.200000D+01          0.301030          0.693147
 Translational   0.228882D+07          6.359611         14.643545
 Rotational      0.424294D+02          1.627667          3.747842
 
                                                            methil_radical
                                                             IR Spectrum
 
      3     3                                                                 1                                                      
      3     1                                                                 4                                 5                    
      1     2                                                                 1                                 2                    
      0     8                                                                 2                                 3                    
 
      X                                                                       X                                 X                    
      X                                                                       X                                 X                    
                                                                                                                X                    
                                                                                                                X                    
                                                                                                                X                    
                                                                                                                X                    
                                                                                                                X                    
                                                                                                                X                    
                                                                                                                X                    
                                                                                                                X                    
                                                                                                                X                    
                                                                                                                X                    
                                                                                                                X                    
                                                                                                                X                    
                                                                                                                X                    
                                                                                                                X                    
                                                                                                                X                    
                                                                                                                X                    
                                                                                                                X                    
                                                                                                                X                    
 
 ***** Axes restored to original set *****
 -------------------------------------------------------------------
 Center     Atomic                   Forces (Hartrees/Bohr)
 Number     Number              X              Y              Z
 -------------------------------------------------------------------
      1        6          -0.000000000    0.000000000    0.000000000
      2        1          -0.000000000    0.000000000    0.000244648
      3        1           0.000211871   -0.000000000   -0.000122324
      4        1          -0.000211871    0.000000000   -0.000122324
 -------------------------------------------------------------------
 Cartesian Forces:  Max     0.000244648 RMS     0.000122324
 Force constants in Cartesian coordinates: 
                1             2             3             4             5 
      1  0.621413D+00
      2  0.000000D+00  0.250016D-01
      3  0.000000D+00  0.000000D+00  0.621414D+00
      4 -0.548258D-01  0.000000D+00  0.000000D+00  0.456351D-01
      5  0.000000D+00 -0.834179D-02  0.000000D+00  0.000000D+00  0.269125D-02
      6  0.000000D+00  0.000000D+00 -0.359453D+00  0.000000D+00  0.000000D+00
      7 -0.283295D+00  0.000000D+00  0.131907D+00  0.459482D-02  0.000000D+00
      8  0.000000D+00 -0.833585D-02  0.000000D+00  0.000000D+00  0.282527D-02
      9  0.131907D+00  0.000000D+00 -0.130982D+00  0.237605D-01  0.000000D+00
     10 -0.283295D+00  0.000000D+00 -0.131907D+00  0.459482D-02  0.000000D+00
     11  0.000000D+00 -0.833585D-02  0.000000D+00  0.000000D+00  0.282527D-02
     12 -0.131907D+00  0.000000D+00 -0.130982D+00 -0.237605D-01  0.000000D+00
                6             7             8             9            10 
      6  0.373177D+00
      7 -0.391763D-02  0.291292D+00
      8  0.000000D+00  0.000000D+00  0.269125D-02
      9 -0.686144D-02 -0.141830D+00  0.000000D+00  0.127521D+00
     10  0.391763D-02 -0.125896D-01  0.000000D+00 -0.138390D-01  0.291292D+00
     11  0.000000D+00  0.000000D+00  0.282527D-02  0.000000D+00  0.000000D+00
     12 -0.686144D-02  0.138390D-01  0.000000D+00  0.103230D-01  0.141830D+00
               11            12 
     11  0.269125D-02
     12  0.000000D+00  0.127521D+00
 Force constants in internal coordinates: 
                1             2             3             4             5 
      1  0.373177D+00
      2  0.384100D-04  0.373176D+00
      3  0.384100D-04  0.386200D-04  0.373176D+00
      4  0.538665D-02  0.538673D-02 -0.107736D-01  0.637962D-01
      5  0.538665D-02 -0.107736D-01  0.538673D-02 -0.318983D-01  0.637962D-01
      6 -0.107733D-01  0.538688D-02  0.538688D-02 -0.318979D-01 -0.318979D-01
      7  0.000000D+00  0.000000D+00  0.000000D+00  0.000000D+00  0.000000D+00
                6             7 
      6  0.637958D-01
      7  0.000000D+00  0.884244D-02
 Leave Link  716 at Fri Aug 16 12:59:59 2024, MaxMem=   13107200 cpu:       0.0
 (Enter /programs/64bit/g09/g09-gfortran/bin/l103.exe)

 GradGradGradGradGradGradGradGradGradGradGradGradGradGradGradGradGradGrad
 Berny optimization.
 Internal  Forces:  Max     0.000244648 RMS     0.000160159
 Search for a local minimum.
 Step number   1 out of a maximum of    2
 All quantities printed in internal units (Hartrees-Bohrs-Radians)
 Second derivative matrix not updated -- analytic derivatives used.
 The second derivative matrix:
                          R1        R2        R3        A1        A2
           R1           0.37318
           R2           0.00004   0.37318
           R3           0.00004   0.00004   0.37318
           A1           0.00539   0.00539  -0.01077   0.06380
           A2           0.00539  -0.01077   0.00539  -0.03190   0.06380
           A3          -0.01077   0.00539   0.00539  -0.03190  -0.03190
           D1          -0.00000  -0.00000  -0.00000  -0.00000   0.00000
                          A3        D1
           A3           0.06380
           D1           0.00000   0.00884
     Eigenvalues ---    0.00884   0.09476   0.09476   0.37325   0.37408
     Eigenvalues ---    0.374081000.00000
 Angle between quadratic step and forces=   0.00 degrees.
 Linear search not attempted -- first point.
 Iteration  1 RMS(Cart)=  0.00042909 RMS(Int)=  0.00000000
 Iteration  2 RMS(Cart)=  0.00000000 RMS(Int)=  0.00000000
 ClnCor:  largest displacement from symmetrization is 2.33D-09 for atom     4.
 Variable       Old X    -DE/DX   Delta X   Delta X   Delta X     New X
                                 (Linear)    (Quad)   (Total)
    R1        2.04525   0.00024   0.00000   0.00066   0.00066   2.04591
    R2        2.04525   0.00024   0.00000   0.00066   0.00066   2.04591
    R3        2.04525   0.00024   0.00000   0.00066   0.00066   2.04591
    A1        2.09440   0.00000   0.00000   0.00000  -0.00000   2.09440
    A2        2.09440   0.00000   0.00000   0.00000   0.00000   2.09440
    A3        2.09440  -0.00000   0.00000  -0.00000   0.00000   2.09440
    D1        3.14159   0.00000   0.00000   0.00000   0.00000   3.14159
         Item               Value     Threshold  Converged?
 Maximum Force            0.000245     0.000450     YES
 RMS     Force            0.000160     0.000300     YES
 Maximum Displacement     0.000655     0.001800     YES
 RMS     Displacement     0.000429     0.001200     YES
 Predicted change in Energy=-2.405304D-07
 Optimization completed.
    -- Stationary point found.
                           ----------------------------
                           !   Optimized Parameters   !
                           ! (Angstroms and Degrees)  !
 --------------------------                            --------------------------
 ! Name  Definition              Value          Derivative Info.                !
 --------------------------------------------------------------------------------
 ! R1    R(1,2)                  1.0823         -DE/DX =    0.0002              !
 ! R2    R(1,3)                  1.0823         -DE/DX =    0.0002              !
 ! R3    R(1,4)                  1.0823         -DE/DX =    0.0002              !
 ! A1    A(2,1,3)              120.0            -DE/DX =    0.0                 !
 ! A2    A(2,1,4)              120.0            -DE/DX =    0.0                 !
 ! A3    A(3,1,4)              120.0            -DE/DX =    0.0                 !
 ! D1    D(2,1,4,3)            180.0            -DE/DX =    0.0                 !
 --------------------------------------------------------------------------------
 GradGradGradGradGradGradGradGradGradGradGradGradGradGradGradGradGradGrad

 Leave Link  103 at Fri Aug 16 12:59:59 2024, MaxMem=   13107200 cpu:       0.0
 (Enter /programs/64bit/g09/g09-gfortran/bin/l9999.exe)
 1\1\GINC-MOLMOD\Freq\UB3LYP\6-31+G(d,p)\C1H3(2)\OSPITE\16-Aug-2024\0\\
 #P Geom=AllCheck Guess=TCheck SCRF=Check GenChk UB3LYP/6-31+G(d,p) Fre
 q\\methil_radical\\0,2\C,0.,0.,0.\H,0.,0.,1.0823022253\H,0.9373012217,
 0.,-0.5411511126\H,-0.9373012217,0.,-0.5411511126\\Version=EM64L-G09Re
 vA.02\State=2-A2"\HF=-39.8473344\S2=0.753351\S2-1=0.\S2A=0.750006\RMSD
 =3.439e-10\RMSF=1.223e-04\ZeroPoint=0.0298328\Thermal=0.032887\Dipole=
 0.,0.,0.\DipoleDeriv=0.0073284,0.,0.,0.,-0.5088509,0.,0.,0.,0.0073059,
 0.0542778,0.,0.,0.,0.1696359,0.,0.,0.,-0.0591638,-0.0308032,0.,0.04911
 86,0.,0.1696217,0.,0.0491172,0.,0.0259232,-0.0308032,0.,-0.0491186,0.,
 0.1696217,0.,-0.0491172,0.,0.0259232\Polar=12.7233167,0.,11.6744347,0.
 ,0.,12.723552\PG=D03H [O(C1),3C2(H1)]\NImag=0\\0.62141303,0.,0.0250016
 0,0.,0.,0.62141402,-0.05482578,0.,0.,0.04563508,0.,-0.00834179,0.,0.,0
 .00269125,0.,0.,-0.35945310,0.,0.,0.37317703,-0.28329495,0.,0.13190722
 ,0.00459482,0.,-0.00391763,0.29129154,0.,-0.00833585,0.,0.,0.00282527,
 0.,0.,0.00269125,0.13190701,0.,-0.13098153,0.02376046,0.,-0.00686144,-
 0.14182982,0.,0.12752057,-0.28329495,0.,-0.13190722,0.00459482,0.,0.00
 391763,-0.01258957,0.,-0.01383905,0.29129154,0.,-0.00833585,0.,0.,0.00
 282527,0.,0.,0.00282527,0.,0.,0.00269125,-0.13190701,0.,-0.13098153,-0
 .02376046,0.,-0.00686144,0.01383905,0.,0.01032296,0.14182982,0.,0.1275
 2057\\0.,0.,0.,0.,0.,-0.00024465,-0.00021187,0.,0.00012232,0.00021187,
 0.,0.00012232\\\@


 IF THE FACTS DO NOT CONFORM TO THE THEORY, THEY MUST BE DISPOSED OF.
 Job cpu time:  0 days  0 hours  0 minutes 19.5 seconds.
 File lengths (MBytes):  RWF=      5 Int=      0 D2E=      0 Chk=      1 Scr=      1
 Normal termination of Gaussian 09 at Fri Aug 16 13:00:00 2024.
