 Entering Gaussian System, Link 0=/programs/64bit/g09/g09-gfortran/bin/g09
 Input=ch3_aug-cc-pVDZ.com
 Output=ch3_aug-cc-pVDZ.log
 Initial command:
 /programs/64bit/g09/g09-gfortran/bin/l1.exe /home/ospite/Desktop/MMfP/Project6/CH3/g09/DFT/Gau-8674.inp -scrdir=/home/ospite/Desktop/MMfP/Project6/CH3/g09/DFT/
 Entering Link 1 = /programs/64bit/g09/g09-gfortran/bin/l1.exe PID=      8677.
  
 Copyright (c) 1988,1990,1992,1993,1995,1998,2003,2009, Gaussian, Inc.
                  All Rights Reserved.
  
 This is part of the Gaussian(R) 09 program.  It is based on
 the Gaussian(R) 03 system (copyright 2003, Gaussian, Inc.),
 the Gaussian(R) 98 system (copyright 1998, Gaussian, Inc.),
 the Gaussian(R) 94 system (copyright 1995, Gaussian, Inc.),
 the Gaussian 92(TM) system (copyright 1992, Gaussian, Inc.),
 the Gaussian 90(TM) system (copyright 1990, Gaussian, Inc.),
 the Gaussian 88(TM) system (copyright 1988, Gaussian, Inc.),
 the Gaussian 86(TM) system (copyright 1986, Carnegie Mellon
 University), and the Gaussian 82(TM) system (copyright 1983,
 Carnegie Mellon University). Gaussian is a federally registered
 trademark of Gaussian, Inc.
  
 This software contains proprietary and confidential information,
 including trade secrets, belonging to Gaussian, Inc.
  
 This software is provided under written license and may be
 used, copied, transmitted, or stored only in accord with that
 written license.
  
 The following legend is applicable only to US Government
 contracts under FAR:
  
                    RESTRICTED RIGHTS LEGEND
  
 Use, reproduction and disclosure by the US Government is
 subject to restrictions as set forth in subparagraphs (a)
 and (c) of the Commercial Computer Software - Restricted
 Rights clause in FAR 52.227-19.
  
 Gaussian, Inc.
 340 Quinnipiac St., Bldg. 40, Wallingford CT 06492
  
  
 ---------------------------------------------------------------
 Warning -- This program may not be used in any manner that
 competes with the business of Gaussian, Inc. or will provide
 assistance to any competitor of Gaussian, Inc.  The licensee
 of this program is prohibited from giving any competitor of
 Gaussian, Inc. access to this program.  By using this program,
 the user acknowledges that Gaussian, Inc. is engaged in the
 business of creating and licensing software in the field of
 computational chemistry and represents and warrants to the
 licensee that it is not a competitor of Gaussian, Inc. and that
 it will not use this program in any manner prohibited above.
 ---------------------------------------------------------------
  

 Cite this work as:
 Gaussian 09, Revision A.02,
 M. J. Frisch, G. W. Trucks, H. B. Schlegel, G. E. Scuseria, 
 M. A. Robb, J. R. Cheeseman, G. Scalmani, V. Barone, B. Mennucci, 
 G. A. Petersson, H. Nakatsuji, M. Caricato, X. Li, H. P. Hratchian, 
 A. F. Izmaylov, J. Bloino, G. Zheng, J. L. Sonnenberg, M. Hada, 
 M. Ehara, K. Toyota, R. Fukuda, J. Hasegawa, M. Ishida, T. Nakajima, 
 Y. Honda, O. Kitao, H. Nakai, T. Vreven, J. A. Montgomery, Jr., 
 J. E. Peralta, F. Ogliaro, M. Bearpark, J. J. Heyd, E. Brothers, 
 K. N. Kudin, V. N. Staroverov, R. Kobayashi, J. Normand, 
 K. Raghavachari, A. Rendell, J. C. Burant, S. S. Iyengar, J. Tomasi, 
 M. Cossi, N. Rega, J. M. Millam, M. Klene, J. E. Knox, J. B. Cross, 
 V. Bakken, C. Adamo, J. Jaramillo, R. Gomperts, R. E. Stratmann, 
 O. Yazyev, A. J. Austin, R. Cammi, C. Pomelli, J. W. Ochterski, 
 R. L. Martin, K. Morokuma, V. G. Zakrzewski, G. A. Voth, 
 P. Salvador, J. J. Dannenberg, S. Dapprich, A. D. Daniels, 
 O. Farkas, J. B. Foresman, J. V. Ortiz, J. Cioslowski, 
 and D. J. Fox, Gaussian, Inc., Wallingford CT, 2009.
 
 ******************************************
 Gaussian 09:  EM64L-G09RevA.02 11-Jun-2009
                17-Aug-2024 
 ******************************************
 %mem=100MB
 ----------------------------------------------------------------------
 #p b3lyp/aug-cc-pVDZ opt freq symmetry=(follow,pg=C3v) pop=full gfinpu
 t
 ----------------------------------------------------------------------
 1/14=-1,18=20,19=15,26=3,38=1/1,3;
 2/9=110,12=2,17=6,18=5,19=2314885530821997379,40=1/2;
 3/5=16,7=10,11=2,16=1,24=10,25=1,30=1,71=1,74=-5/1,2,3;
 4//1;
 5/5=2,38=5/2;
 6/7=3,28=1/1;
 7//1,2,3,16;
 1/14=-1,18=20,19=15/3(2);
 2/9=110,15=5,19=2314885530821997379/2;
 99//99;
 2/9=110,15=5,19=2314885530821997379/2;
 3/5=16,7=10,11=2,16=1,25=1,30=1,71=1,74=-5/1,2,3;
 4/5=5,16=3/1;
 5/5=2,38=5/2;
 7//1,2,3,16;
 1/14=-1,18=20,19=15/3(-5);
 2/9=110,15=5,19=2314885530821997379/2;
 6/7=3,19=2,28=1/1;
 99/9=1/99;
 Leave Link    1 at Sat Aug 17 17:54:55 2024, MaxMem=   13107200 cpu:       0.1
 (Enter /programs/64bit/g09/g09-gfortran/bin/l101.exe)
 --------------------------------------------------------------
 methyl with imposed symmetry and hf/aug-cc-pVDZ basis function
 --------------------------------------------------------------
 Symbolic Z-matrix:
 Charge =  0 Multiplicity = 2
 C1
 H2                   1    d
 H3                   1    d        2    a
 H4                   1    d        2    -a       3    t        0
       Variables:
  d                     1.09                     
  a                   120.                       
  t                     0.                       
 
 NAtoms=      4 NQM=      4 NQMF=      0 NMic=      0 NMicF=      0 NTot=      4.
                    Isotopes and Nuclear Properties:
 (Nuclear quadrupole moments (NQMom) in fm**2, nuclear magnetic moments (NMagM)
  in nuclear magnetons)

  Atom         1           2           3           4
 IAtWgt=          12           1           1           1
 AtmWgt=  12.0000000   1.0078250   1.0078250   1.0078250
 NucSpn=           0           1           1           1
 AtZEff=   0.0000000   0.0000000   0.0000000   0.0000000
 NQMom=    0.0000000   0.0000000   0.0000000   0.0000000
 NMagM=    0.0000000   2.7928460   2.7928460   2.7928460
 Leave Link  101 at Sat Aug 17 17:54:55 2024, MaxMem=   13107200 cpu:       0.1
 (Enter /programs/64bit/g09/g09-gfortran/bin/l103.exe)

 GradGradGradGradGradGradGradGradGradGradGradGradGradGradGradGradGradGrad
 Berny optimization.
 Initialization pass.
                           ----------------------------
                           !    Initial Parameters    !
                           ! (Angstroms and Degrees)  !
 --------------------------                            --------------------------
 ! Name  Definition              Value          Derivative Info.                !
 --------------------------------------------------------------------------------
 ! R1    R(1,2)                  1.09           estimate D2E/DX2                !
 ! R2    R(1,3)                  1.09           estimate D2E/DX2                !
 ! R3    R(1,4)                  1.09           estimate D2E/DX2                !
 ! A1    A(2,1,3)              120.0            estimate D2E/DX2                !
 ! A2    A(2,1,4)              120.0            estimate D2E/DX2                !
 ! A3    A(3,1,4)              120.0            estimate D2E/DX2                !
 ! D1    D(2,1,4,3)            180.0            estimate D2E/DX2                !
 --------------------------------------------------------------------------------
 Trust Radius=3.00D-01 FncErr=1.00D-07 GrdErr=1.00D-06
 Number of steps in this run=  20 maximum allowed number of steps= 100.
 GradGradGradGradGradGradGradGradGradGradGradGradGradGradGradGradGradGrad

 Leave Link  103 at Sat Aug 17 17:54:55 2024, MaxMem=   13107200 cpu:       0.0
 (Enter /programs/64bit/g09/g09-gfortran/bin/l202.exe)
                          Input orientation:                          
 ---------------------------------------------------------------------
 Center     Atomic      Atomic             Coordinates (Angstroms)
 Number     Number       Type             X           Y           Z
 ---------------------------------------------------------------------
      1          6           0        0.000000    0.000000    0.000000
      2          1           0        0.000000    0.000000    1.090000
      3          1           0        0.943968    0.000000   -0.545000
      4          1           0       -0.943968    0.000000   -0.545000
 ---------------------------------------------------------------------
                    Distance matrix (angstroms):
                    1          2          3          4
     1  C    0.000000
     2  H    1.090000   0.000000
     3  H    1.090000   1.887935   0.000000
     4  H    1.090000   1.887935   1.887935   0.000000
 Symm:  InNGrp=C3V  InAxis=0.
 This structure is nearly, but not quite of a higher symmetry.
 Consider Symm=Loose if the higher symmetry is desired.
 Stoichiometry    CH3(2)
 Framework group  C2[C2(CH),X(H2)]
 Deg. of freedom     3
 Full point group                 C2      NOp   2
 Largest Abelian subgroup         C2      NOp   2
 Largest concise Abelian subgroup C2      NOp   2
                         Standard orientation:                         
 ---------------------------------------------------------------------
 Center     Atomic      Atomic             Coordinates (Angstroms)
 Number     Number       Type             X           Y           Z
 ---------------------------------------------------------------------
      1          6           0        0.000000    0.000000    0.000000
      2          1           0        0.000000    0.000000    1.090000
      3          1           0        0.000000    0.943968   -0.545000
      4          1           0       -0.000000   -0.943968   -0.545000
 ---------------------------------------------------------------------
 Rotational constants (GHZ):    281.3764836    281.3764836    140.6882418
 Leave Link  202 at Sat Aug 17 17:54:55 2024, MaxMem=   13107200 cpu:       0.0
 (Enter /programs/64bit/g09/g09-gfortran/bin/l301.exe)
 Standard basis: Aug-CC-pVDZ (5D, 7F)
 Ernie: Thresh=  0.10000D-02 Tol=  0.10000D-05 Strict=F.
 Ernie:  2 primitive shells out of 46 were deleted.
 AO basis set in the form of general basis input (Overlap normalization):
      1 0
 S   7 1.00       0.000000000000
      0.6665000000D+04  0.6935163173D-03
      0.1000000000D+04  0.5341502433D-02
      0.2280000000D+03  0.2713667141D-01
      0.6471000000D+02  0.1019923853D+00
      0.2106000000D+02  0.2755086365D+00
      0.7495000000D+01  0.4510864331D+00
      0.2797000000D+01  0.2875657448D+00
 S   7 1.00       0.000000000000
      0.6665000000D+04  0.7733547404D-05
      0.2280000000D+03  0.2780721367D-03
      0.6471000000D+02 -0.2578756542D-02
      0.2106000000D+02 -0.8950876838D-02
      0.7495000000D+01 -0.1060588547D+00
      0.2797000000D+01 -0.1315176856D+00
      0.5215000000D+00  0.1099486598D+01
 S   1 1.00       0.000000000000
      0.1596000000D+00  0.1000000000D+01
 S   1 1.00       0.000000000000
      0.4690000000D-01  0.1000000000D+01
 P   3 1.00       0.000000000000
      0.9439000000D+01  0.5697925159D-01
      0.2002000000D+01  0.3132072115D+00
      0.5456000000D+00  0.7603767417D+00
 P   1 1.00       0.000000000000
      0.1517000000D+00  0.1000000000D+01
 P   1 1.00       0.000000000000
      0.4041000000D-01  0.1000000000D+01
 D   1 1.00       0.000000000000
      0.5500000000D+00  0.1000000000D+01
 D   1 1.00       0.000000000000
      0.1510000000D+00  0.1000000000D+01
 ****
      2 0
 S   3 1.00       0.000000000000
      0.1301000000D+02  0.3349872639D-01
      0.1962000000D+01  0.2348008012D+00
      0.4446000000D+00  0.8136829579D+00
 S   1 1.00       0.000000000000
      0.1220000000D+00  0.1000000000D+01
 S   1 1.00       0.000000000000
      0.2974000000D-01  0.1000000000D+01
 P   1 1.00       0.000000000000
      0.7270000000D+00  0.1000000000D+01
 P   1 1.00       0.000000000000
      0.1410000000D+00  0.1000000000D+01
 ****
      3 0
 S   3 1.00       0.000000000000
      0.1301000000D+02  0.3349872639D-01
      0.1962000000D+01  0.2348008012D+00
      0.4446000000D+00  0.8136829579D+00
 S   1 1.00       0.000000000000
      0.1220000000D+00  0.1000000000D+01
 S   1 1.00       0.000000000000
      0.2974000000D-01  0.1000000000D+01
 P   1 1.00       0.000000000000
      0.7270000000D+00  0.1000000000D+01
 P   1 1.00       0.000000000000
      0.1410000000D+00  0.1000000000D+01
 ****
      4 0
 S   3 1.00       0.000000000000
      0.1301000000D+02  0.3349872639D-01
      0.1962000000D+01  0.2348008012D+00
      0.4446000000D+00  0.8136829579D+00
 S   1 1.00       0.000000000000
      0.1220000000D+00  0.1000000000D+01
 S   1 1.00       0.000000000000
      0.2974000000D-01  0.1000000000D+01
 P   1 1.00       0.000000000000
      0.7270000000D+00  0.1000000000D+01
 P   1 1.00       0.000000000000
      0.1410000000D+00  0.1000000000D+01
 ****

 There are    27 symmetry adapted basis functions of A   symmetry.
 There are    23 symmetry adapted basis functions of B   symmetry.
 Integral buffers will be    131072 words long.
 Raffenetti 2 integral format.
 Two-electron integral symmetry is turned on.
    50 basis functions,    76 primitive gaussians,    52 cartesian basis functions
     5 alpha electrons        4 beta electrons
       nuclear repulsion energy         9.5795885928 Hartrees.
 IExCor=  402 DFT=T Ex+Corr=B3LYP ExCW=0 ScaHFX=  0.200000
 ScaDFX=  0.800000  0.720000  1.000000  0.810000 ScalE2=  1.000000  1.000000
 IRadAn=      0 IRanWt=     -1 IRanGd=            0 ICorTp=0
 NAtoms=    4 NActive=    4 NUniq=    3 SFac= 1.33D+00 NAtFMM=   80 NAOKFM=F Big=F
 Leave Link  301 at Sat Aug 17 17:54:55 2024, MaxMem=   13107200 cpu:       0.1
 (Enter /programs/64bit/g09/g09-gfortran/bin/l302.exe)
 NPDir=0 NMtPBC=     1 NCelOv=     1 NCel=       1 NClECP=     1 NCelD=      1
         NCelK=      1 NCelE2=     1 NClLst=     1 CellRange=     0.0.
 One-electron integrals computed using PRISM.
 One-electron integral symmetry used in STVInt
 NBasis=    50 RedAO= T  NBF=    27    23
 NBsUse=    50 1.00D-06 NBFU=    27    23
 Precomputing XC quadrature grid using
 IXCGrd= 2 IRadAn=           0 IRanWt=          -1 IRanGd=           0 AccXCQ= 1.00D-10.
 NRdTot=     259 NPtTot=       32550 NUsed=       34428 NTot=       34460
 NSgBfM=    52    52    52    52    52 NAtAll=     4     4.
 Leave Link  302 at Sat Aug 17 17:54:56 2024, MaxMem=   13107200 cpu:       0.2
 (Enter /programs/64bit/g09/g09-gfortran/bin/l303.exe)
 DipDrv:  MaxL=1.
 Leave Link  303 at Sat Aug 17 17:54:56 2024, MaxMem=   13107200 cpu:       0.0
 (Enter /programs/64bit/g09/g09-gfortran/bin/l401.exe)
 Harris functional with IExCor=  402 diagonalized for initial guess.
 ExpMin= 2.97D-02 ExpMax= 6.66D+03 ExpMxC= 2.28D+02 IAcc=3 IRadAn=         0 AccDes= 0.00D+00
 HarFok:  IExCor=  402 AccDes= 0.00D+00 IRadAn=         0 IDoV= 1
 ScaDFX=  1.000000  1.000000  1.000000  1.000000
 FoFCou: FMM=F IPFlag=           0 FMFlag=      100000 FMFlg1=           0
         NFxFlg=           0 DoJE=T BraDBF=F KetDBF=T FulRan=T
         Omega=  0.000000  0.000000  1.000000  0.000000  0.000000 ICntrl=     500 IOpCl=  0
         NMat0=    1 NMatS0=    1 NMatT0=    0 NMatD0=    1 NMtDS0=    0 NMtDT0=    0
         I1Cent=           4 NGrid=           0.
 Petite list used in FoFCou.
 Harris En= -39.8372133625634    
 Initial guess orbital symmetries:
 Alpha Orbitals:
       Occupied  (A) (A) (A) (B) (B)
       Virtual   (A) (B) (A) (B) (B) (A) (A) (B) (A) (A) (A) (B)
                 (B) (A) (B) (B) (A) (B) (A) (A) (B) (A) (A) (B)
                 (A) (B) (B) (A) (A) (B) (A) (B) (A) (B) (B) (B)
                 (A) (A) (A) (B) (B) (A) (A) (B) (A)
 Beta  Orbitals:
       Occupied  (A) (A) (A) (B)
       Virtual   (B) (A) (B) (A) (B) (B) (A) (A) (B) (A) (A) (A)
                 (B) (B) (A) (B) (B) (A) (B) (A) (A) (B) (A) (A)
                 (B) (A) (B) (B) (A) (A) (B) (A) (B) (A) (B) (B)
                 (B) (A) (A) (A) (B) (B) (A) (A) (B) (A)
 The electronic state of the initial guess is 2-B.
 Initial guess <Sx>= 0.0000 <Sy>= 0.0000 <Sz>= 0.5000 <S**2>= 0.7500 S= 0.5000
 Leave Link  401 at Sat Aug 17 17:54:57 2024, MaxMem=   13107200 cpu:       0.7
 (Enter /programs/64bit/g09/g09-gfortran/bin/l502.exe)
 UHF open shell SCF:
 Requested convergence on RMS density matrix=1.00D-08 within 128 cycles.
 Requested convergence on MAX density matrix=1.00D-06.
 Requested convergence on             energy=1.00D-06.
 No special actions if energy rises.
 Using DIIS extrapolation, IDIIS=  1040.
 Integral symmetry usage will be decided dynamically.
        34379 words used for storage of precomputed grid.
 Keep R1 and R2 ints in memory in canonical form, NReq=2833478.
 IEnd=       61417 IEndB=       61417 NGot=    13107200 MDV=    11164890
 LenX=    11164890 LenY=    11161745
 Symmetry not used in FoFDir.
 MinBra= 0 MaxBra= 2 Meth= 1.
 IRaf=       0 NMat=   1 IRICut=       1 DoRegI=T DoRafI=F ISym2E= 0 JSym2E=0.

 Cycle   1  Pass 1  IDiag  1:
 E= -39.8022025600534    
 DIIS: error= 3.32D-02 at cycle   1 NSaved=   1.
 NSaved= 1 IEnMin= 1 EnMin= -39.8022025600534     IErMin= 1 ErrMin= 3.32D-02
 ErrMax= 3.32D-02 EMaxC= 1.00D-01 BMatC= 1.37D-01 BMatP= 1.37D-01
 IDIUse=3 WtCom= 6.68D-01 WtEn= 3.32D-01
 Coeff-Com:  0.100D+01
 Coeff-En:   0.100D+01
 Coeff:      0.100D+01
 Gap=     0.153 Goal=   None    Shift=    0.000
 Gap=     0.345 Goal=   None    Shift=    0.000
 GapD=    0.153 DampG=1.000 DampE=0.500 DampFc=0.5000 IDamp=-1.
 Damping current iteration by 5.00D-01
 RMSDP=7.50D-03 MaxDP=1.63D-01              OVMax= 1.81D-01

 Cycle   2  Pass 1  IDiag  1:
 E= -39.8219839981482     Delta-E=       -0.019781438095 Rises=F Damp=T
 DIIS: error= 6.56D-03 at cycle   2 NSaved=   2.
 NSaved= 2 IEnMin= 2 EnMin= -39.8219839981482     IErMin= 2 ErrMin= 6.56D-03
 ErrMax= 6.56D-03 EMaxC= 1.00D-01 BMatC= 4.05D-03 BMatP= 1.37D-01
 IDIUse=3 WtCom= 9.34D-01 WtEn= 6.56D-02
 Coeff-Com:  0.302D-01 0.970D+00
 Coeff-En:   0.391D-01 0.961D+00
 Coeff:      0.308D-01 0.969D+00
 Gap=     0.225 Goal=   None    Shift=    0.000
 Gap=     0.338 Goal=   None    Shift=    0.000
 RMSDP=2.40D-03 MaxDP=3.49D-02 DE=-1.98D-02 OVMax= 1.11D-01

 Cycle   3  Pass 1  IDiag  1:
 E= -39.8442632675602     Delta-E=       -0.022279269412 Rises=F Damp=F
 DIIS: error= 1.15D-03 at cycle   3 NSaved=   3.
 NSaved= 3 IEnMin= 3 EnMin= -39.8442632675602     IErMin= 3 ErrMin= 1.15D-03
 ErrMax= 1.15D-03 EMaxC= 1.00D-01 BMatC= 1.54D-04 BMatP= 4.05D-03
 IDIUse=3 WtCom= 9.89D-01 WtEn= 1.15D-02
 Coeff-Com: -0.235D-01 0.208D-01 0.100D+01
 Coeff-En:   0.000D+00 0.000D+00 0.100D+01
 Coeff:     -0.232D-01 0.206D-01 0.100D+01
 Gap=     0.230 Goal=   None    Shift=    0.000
 Gap=     0.333 Goal=   None    Shift=    0.000
 RMSDP=2.26D-04 MaxDP=3.25D-03 DE=-2.23D-02 OVMax= 4.19D-03

 Cycle   4  Pass 1  IDiag  1:
 E= -39.8443334828853     Delta-E=       -0.000070215325 Rises=F Damp=F
 DIIS: error= 2.60D-04 at cycle   4 NSaved=   4.
 NSaved= 4 IEnMin= 4 EnMin= -39.8443334828853     IErMin= 4 ErrMin= 2.60D-04
 ErrMax= 2.60D-04 EMaxC= 1.00D-01 BMatC= 8.99D-06 BMatP= 1.54D-04
 IDIUse=3 WtCom= 9.97D-01 WtEn= 2.60D-03
 Coeff-Com:  0.244D-02-0.197D-01-0.272D+00 0.129D+01
 Coeff-En:   0.000D+00 0.000D+00 0.000D+00 0.100D+01
 Coeff:      0.244D-02-0.197D-01-0.272D+00 0.129D+01
 Gap=     0.231 Goal=   None    Shift=    0.000
 Gap=     0.333 Goal=   None    Shift=    0.000
 RMSDP=8.78D-05 MaxDP=1.20D-03 DE=-7.02D-05 OVMax= 1.52D-03

 Cycle   5  Pass 1  IDiag  1:
 E= -39.8443405282132     Delta-E=       -0.000007045328 Rises=F Damp=F
 DIIS: error= 4.76D-05 at cycle   5 NSaved=   5.
 NSaved= 5 IEnMin= 5 EnMin= -39.8443405282132     IErMin= 5 ErrMin= 4.76D-05
 ErrMax= 4.76D-05 EMaxC= 1.00D-01 BMatC= 3.20D-07 BMatP= 8.99D-06
 IDIUse=1 WtCom= 1.00D+00 WtEn= 0.00D+00
 Coeff-Com:  0.103D-02 0.370D-02 0.331D-02-0.250D+00 0.124D+01
 Coeff:      0.103D-02 0.370D-02 0.331D-02-0.250D+00 0.124D+01
 Gap=     0.231 Goal=   None    Shift=    0.000
 Gap=     0.333 Goal=   None    Shift=    0.000
 RMSDP=1.65D-05 MaxDP=2.24D-04 DE=-7.05D-06 OVMax= 3.08D-04

 Cycle   6  Pass 1  IDiag  1:
 E= -39.8443407914452     Delta-E=       -0.000000263232 Rises=F Damp=F
 DIIS: error= 6.33D-06 at cycle   6 NSaved=   6.
 NSaved= 6 IEnMin= 6 EnMin= -39.8443407914452     IErMin= 6 ErrMin= 6.33D-06
 ErrMax= 6.33D-06 EMaxC= 1.00D-01 BMatC= 2.86D-09 BMatP= 3.20D-07
 IDIUse=1 WtCom= 1.00D+00 WtEn= 0.00D+00
 Coeff-Com: -0.200D-03-0.150D-03 0.570D-02 0.479D-02-0.156D+00 0.115D+01
 Coeff:     -0.200D-03-0.150D-03 0.570D-02 0.479D-02-0.156D+00 0.115D+01
 Gap=     0.231 Goal=   None    Shift=    0.000
 Gap=     0.333 Goal=   None    Shift=    0.000
 RMSDP=1.26D-06 MaxDP=2.60D-05 DE=-2.63D-07 OVMax= 3.87D-05

 Cycle   7  Pass 1  IDiag  1:
 E= -39.8443407938399     Delta-E=       -0.000000002395 Rises=F Damp=F
 DIIS: error= 1.09D-06 at cycle   7 NSaved=   7.
 NSaved= 7 IEnMin= 7 EnMin= -39.8443407938399     IErMin= 7 ErrMin= 1.09D-06
 ErrMax= 1.09D-06 EMaxC= 1.00D-01 BMatC= 7.85D-11 BMatP= 2.86D-09
 IDIUse=1 WtCom= 1.00D+00 WtEn= 0.00D+00
 Coeff-Com:  0.343D-04-0.389D-04-0.522D-03 0.111D-02 0.567D-02-0.122D+00
 Coeff-Com:  0.112D+01
 Coeff:      0.343D-04-0.389D-04-0.522D-03 0.111D-02 0.567D-02-0.122D+00
 Coeff:      0.112D+01
 Gap=     0.231 Goal=   None    Shift=    0.000
 Gap=     0.333 Goal=   None    Shift=    0.000
 RMSDP=1.21D-07 MaxDP=2.55D-06 DE=-2.39D-09 OVMax= 3.69D-06

 Cycle   8  Pass 1  IDiag  1:
 E= -39.8443407938712     Delta-E=       -0.000000000031 Rises=F Damp=F
 DIIS: error= 6.29D-08 at cycle   8 NSaved=   8.
 NSaved= 8 IEnMin= 8 EnMin= -39.8443407938712     IErMin= 8 ErrMin= 6.29D-08
 ErrMax= 6.29D-08 EMaxC= 1.00D-01 BMatC= 1.04D-13 BMatP= 7.85D-11
 IDIUse=1 WtCom= 1.00D+00 WtEn= 0.00D+00
 Coeff-Com: -0.123D-05 0.360D-05-0.164D-04-0.373D-04 0.602D-03-0.986D-03
 Coeff-Com: -0.723D-01 0.107D+01
 Coeff:     -0.123D-05 0.360D-05-0.164D-04-0.373D-04 0.602D-03-0.986D-03
 Coeff:     -0.723D-01 0.107D+01
 Gap=     0.231 Goal=   None    Shift=    0.000
 Gap=     0.333 Goal=   None    Shift=    0.000
 RMSDP=8.01D-09 MaxDP=3.31D-07 DE=-3.14D-11 OVMax= 3.38D-07

 SCF Done:  E(UB3LYP) =  -39.8443407939     A.U. after    8 cycles
             Convg  =    0.8011D-08             -V/T =  2.0092
 <Sx>= 0.0000 <Sy>= 0.0000 <Sz>= 0.5000 <S**2>= 0.7535 S= 0.5018
 <L.S>=  0.00000000000    
 KE= 3.947935916058D+01 PE=-1.109098707779D+02 EE= 2.200658223067D+01
 Annihilation of the first spin contaminant:
 S**2 before annihilation     0.7535,   after     0.7500
 Leave Link  502 at Sat Aug 17 17:55:04 2024, MaxMem=   13107200 cpu:       7.3
 (Enter /programs/64bit/g09/g09-gfortran/bin/l601.exe)
 Copying SCF densities to generalized density rwf, IOpCl= 1 IROHF=0.

 **********************************************************************

            Population analysis using the SCF density.

 **********************************************************************

 Orbital symmetries:
 Alpha Orbitals:
       Occupied  (A) (A) (B) (A) (B)
       Virtual   (A) (A) (B) (B) (B) (A) (A) (A) (B) (A) (A) (B)
                 (B) (A) (B) (B) (A) (A) (B) (A) (A) (B) (B) (A)
                 (B) (A) (B) (A) (A) (B) (A) (B) (A) (B) (B) (B)
                 (A) (A) (A) (B) (B) (A) (A) (B) (A)
 Beta  Orbitals:
       Occupied  (A) (A) (B) (A)
       Virtual   (B) (A) (B) (A) (B) (B) (A) (A) (A) (B) (A) (A)
                 (B) (B) (A) (B) (B) (A) (A) (B) (A) (A) (B) (B)
                 (A) (A) (B) (B) (A) (A) (B) (A) (B) (A) (B) (B)
                 (B) (A) (A) (A) (B) (B) (A) (A) (B) (A)
 The electronic state is 2-B.
 Alpha  occ. eigenvalues --  -10.20420  -0.68914  -0.42348  -0.42348  -0.23724
 Alpha virt. eigenvalues --   -0.00655   0.02892   0.02893   0.06427   0.09897
 Alpha virt. eigenvalues --    0.09898   0.11081   0.16571   0.16571   0.16815
 Alpha virt. eigenvalues --    0.24815   0.24816   0.34193   0.34195   0.36815
 Alpha virt. eigenvalues --    0.39474   0.42782   0.44789   0.45896   0.45897
 Alpha virt. eigenvalues --    0.50206   0.50206   0.51287   0.51288   0.70645
 Alpha virt. eigenvalues --    0.70766   0.90277   0.90278   1.23425   1.23425
 Alpha virt. eigenvalues --    1.28173   1.28173   1.51627   1.57250   1.69452
 Alpha virt. eigenvalues --    1.70460   1.70460   1.83993   1.98768   1.98768
 Alpha virt. eigenvalues --    2.15963   2.15963   2.48037   2.64688   2.64688
  Beta  occ. eigenvalues --  -10.19016  -0.64925  -0.41370  -0.41370
  Beta virt. eigenvalues --   -0.08058  -0.00415   0.02840   0.02840   0.08451
  Beta virt. eigenvalues --    0.09836   0.09836   0.11613   0.16828   0.16828
  Beta virt. eigenvalues --    0.18569   0.25627   0.25627   0.34231   0.34233
  Beta virt. eigenvalues --    0.38777   0.39263   0.44922   0.45420   0.46063
  Beta virt. eigenvalues --    0.46065   0.51331   0.51331   0.51696   0.51697
  Beta virt. eigenvalues --    0.72103   0.76414   0.90938   0.90939   1.23767
  Beta virt. eigenvalues --    1.23767   1.31127   1.31127   1.56021   1.56904
  Beta virt. eigenvalues --    1.70561   1.70774   1.70774   1.88062   2.01703
  Beta virt. eigenvalues --    2.01703   2.16268   2.16268   2.48578   2.65456
  Beta virt. eigenvalues --    2.65456
     Alpha Molecular Orbital Coefficients:
                           1         2         3         4         5
                           O         O         O         O         O
     Eigenvalues --   -10.20420  -0.68914  -0.42348  -0.42348  -0.23724
   1 1   C  1S          0.99695  -0.19547   0.00000  -0.00000   0.00000
   2        2S          0.03638   0.40913   0.00000  -0.00000   0.00000
   3        3S         -0.06369   0.22680   0.00000   0.00001   0.00000
   4        4S         -0.01874   0.00448   0.00000   0.00003   0.00000
   5        5PX         0.00000   0.00000  -0.00000   0.00000   0.61225
   6        5PY         0.00000   0.00000   0.46060   0.00000  -0.00000
   7        5PZ         0.00000  -0.00000   0.00000   0.46060   0.00000
   8        6PX         0.00000   0.00000  -0.00000   0.00000   0.42674
   9        6PY         0.00000   0.00000  -0.00766   0.00000   0.00000
  10        6PZ        -0.00000  -0.00000   0.00000  -0.00766   0.00000
  11        7PX         0.00000   0.00000  -0.00000   0.00000   0.08584
  12        7PY         0.00000   0.00000  -0.01452   0.00000   0.00000
  13        7PZ        -0.00000   0.00000   0.00000  -0.01452   0.00000
  14        8D 0        0.00080  -0.00652   0.00000   0.01862   0.00000
  15        8D+1        0.00000   0.00000   0.00000   0.00000  -0.00000
  16        8D-1        0.00000   0.00000  -0.02150   0.00000  -0.00000
  17        8D+2       -0.00138   0.01130   0.00000   0.01075   0.00000
  18        8D-2       -0.00000  -0.00000   0.00000   0.00000   0.00000
  19        9D 0       -0.00173  -0.00640   0.00000  -0.07838   0.00000
  20        9D+1        0.00000   0.00000  -0.00000   0.00000   0.00002
  21        9D-1        0.00000   0.00000   0.09051   0.00000  -0.00000
  22        9D+2        0.00299   0.01108   0.00000  -0.04526   0.00000
  23        9D-2        0.00000  -0.00000   0.00000   0.00000   0.00000
  24 2   H  1S         -0.00083   0.19893   0.00000   0.38529   0.00000
  25        2S          0.02142   0.04321   0.00000   0.44287   0.00000
  26        3S          0.00237   0.00200   0.00000   0.02086   0.00000
  27        4PX         0.00000   0.00000  -0.00000   0.00000   0.02021
  28        4PY         0.00000   0.00000   0.01273   0.00000  -0.00000
  29        4PZ         0.00211  -0.02651   0.00000  -0.01177   0.00000
  30        5PX         0.00000   0.00000   0.00000   0.00000   0.01849
  31        5PY         0.00000   0.00000  -0.03502   0.00000  -0.00000
  32        5PZ        -0.00687  -0.01145   0.00000  -0.08884   0.00000
  33 3   H  1S         -0.00083   0.19893   0.33367  -0.19265  -0.00000
  34        2S          0.02142   0.04319   0.38356  -0.22145  -0.00000
  35        3S          0.00237   0.00201   0.01807  -0.01044  -0.00000
  36        4PX         0.00000   0.00000  -0.00000  -0.00000   0.02021
  37        4PY         0.00183  -0.02296  -0.00564   0.01061   0.00000
  38        4PZ        -0.00105   0.01326   0.01061   0.00660  -0.00000
  39        5PX        -0.00000   0.00000   0.00000  -0.00000   0.01851
  40        5PY        -0.00595  -0.00991  -0.07539   0.02331   0.00000
  41        5PZ         0.00343   0.00572   0.02331  -0.04848  -0.00000
  42 4   H  1S         -0.00083   0.19893  -0.33367  -0.19265   0.00000
  43        2S          0.02142   0.04319  -0.38356  -0.22145   0.00000
  44        3S          0.00237   0.00201  -0.01807  -0.01044   0.00000
  45        4PX        -0.00000  -0.00000  -0.00000   0.00000   0.02021
  46        4PY        -0.00183   0.02296  -0.00564  -0.01061   0.00000
  47        4PZ        -0.00105   0.01326  -0.01061   0.00660   0.00000
  48        5PX         0.00000  -0.00000   0.00000   0.00000   0.01851
  49        5PY         0.00595   0.00991  -0.07539  -0.02331   0.00000
  50        5PZ         0.00343   0.00572  -0.02331  -0.04848   0.00000
                           6         7         8         9        10
                           V         V         V         V         V
     Eigenvalues --    -0.00655   0.02892   0.02893   0.06427   0.09897
   1 1   C  1S         -0.06422  -0.00001   0.00000   0.00000   0.00000
   2        2S          0.13884   0.00004   0.00000   0.00000   0.00000
   3        3S          0.73361  -0.00001   0.00000   0.00000   0.00000
   4        4S          1.66151  -0.00006   0.00000   0.00000   0.00000
   5        5PX         0.00000   0.00000   0.00000  -0.24802   0.00000
   6        5PY         0.00000   0.00000  -0.14643  -0.00000   0.06771
   7        5PZ         0.00002  -0.14640   0.00000   0.00000   0.00000
   8        6PX         0.00000   0.00000   0.00000  -0.22314   0.00000
   9        6PY         0.00000   0.00000  -0.28095  -0.00000  -1.18957
  10        6PZ        -0.00003  -0.28116   0.00000   0.00000   0.00000
  11        7PX         0.00000   0.00000  -0.00000   1.18968   0.00000
  12        7PY         0.00000   0.00000  -1.05642   0.00000  -3.78116
  13        7PZ        -0.00003  -1.05716   0.00000   0.00000   0.00000
  14        8D 0       -0.00344  -0.00428   0.00000   0.00000   0.00000
  15        8D+1        0.00000   0.00000  -0.00000  -0.00001  -0.00000
  16        8D-1        0.00000   0.00000   0.00495   0.00000  -0.02554
  17        8D+2        0.00595  -0.00247   0.00000   0.00000   0.00000
  18        8D-2        0.00000   0.00000   0.00000   0.00000   0.00000
  19        9D 0        0.02180   0.05302   0.00000   0.00000   0.00000
  20        9D+1        0.00000   0.00000   0.00000   0.00013   0.00000
  21        9D-1        0.00000   0.00000  -0.06124   0.00000   0.33356
  22        9D+2       -0.03776   0.03064   0.00000   0.00000   0.00000
  23        9D-2       -0.00000  -0.00000   0.00000   0.00000   0.00000
  24 2   H  1S         -0.01705  -0.03411   0.00000   0.00000   0.00000
  25        2S         -0.37861   0.25371   0.00000   0.00000   0.00000
  26        3S         -0.76075   3.69836   0.00000   0.00000   0.00000
  27        4PX         0.00000   0.00000  -0.00000   0.00408   0.00000
  28        4PY         0.00000   0.00000  -0.00431   0.00000  -0.01644
  29        4PZ        -0.01054   0.00898   0.00000   0.00000   0.00000
  30        5PX         0.00000   0.00000   0.00000  -0.08658   0.00000
  31        5PY         0.00000   0.00000   0.11741  -0.00000  -0.13033
  32        5PZ         0.03581  -0.04311   0.00000   0.00000   0.00000
  33 3   H  1S         -0.01707   0.01705  -0.02954   0.00000   0.12557
  34        2S         -0.37869  -0.12683   0.21938   0.00000   2.42189
  35        3S         -0.76032  -1.84924   3.20199  -0.00000   4.58765
  36        4PX        -0.00000  -0.00000  -0.00000   0.00409   0.00000
  37        4PY        -0.00913  -0.00576   0.00567   0.00000  -0.01425
  38        4PZ         0.00527  -0.00098  -0.00576   0.00000  -0.00127
  39        5PX         0.00000   0.00000   0.00000  -0.08648   0.00000
  40        5PY         0.03100   0.06951  -0.00291  -0.00000  -0.42975
  41        5PZ        -0.01788   0.07735   0.06946   0.00000   0.17289
  42 4   H  1S         -0.01707   0.01705   0.02954  -0.00000  -0.12557
  43        2S         -0.37869  -0.12683  -0.21938  -0.00000  -2.42189
  44        3S         -0.76032  -1.84924  -3.20199   0.00000  -4.58765
  45        4PX         0.00000   0.00000  -0.00000   0.00409   0.00000
  46        4PY         0.00913   0.00576   0.00567   0.00000  -0.01425
  47        4PZ         0.00527  -0.00098   0.00576  -0.00000   0.00127
  48        5PX        -0.00000  -0.00000   0.00000  -0.08648   0.00000
  49        5PY        -0.03100  -0.06951  -0.00291  -0.00000  -0.42975
  50        5PZ        -0.01788   0.07735  -0.06946  -0.00000  -0.17289
                          11        12        13        14        15
                           V         V         V         V         V
     Eigenvalues --     0.09898   0.11081   0.16571   0.16571   0.16815
   1 1   C  1S         -0.00002   0.06539   0.00012   0.00000  -0.06550
   2        2S          0.00018  -0.31877  -0.00016   0.00000   0.08212
   3        3S         -0.00136   1.54891  -0.00178   0.00000   1.02728
   4        4S         -0.00498   6.70807  -0.00695   0.00000   4.13737
   5        5PX         0.00000   0.00000   0.00000  -0.00000   0.00000
   6        5PY         0.00000   0.00000   0.00000   0.35283   0.00000
   7        5PZ         0.06775   0.00002   0.35283   0.00000   0.00065
   8        6PX         0.00000   0.00000   0.00000   0.00000   0.00000
   9        6PY         0.00000   0.00000   0.00000   0.01102   0.00000
  10        6PZ        -1.18932  -0.00094   0.01111   0.00000  -0.00037
  11        7PX         0.00000   0.00000   0.00000  -0.00000   0.00000
  12        7PY         0.00000   0.00000   0.00000  -1.78092   0.00000
  13        7PZ        -3.78088  -0.00220  -1.78070   0.00000  -0.00365
  14        8D 0        0.02212   0.00327  -0.05333   0.00000  -0.01947
  15        8D+1        0.00000   0.00000   0.00000  -0.00000   0.00000
  16        8D-1        0.00000   0.00000   0.00000   0.06162   0.00000
  17        8D+2        0.01278  -0.00563  -0.03087   0.00000   0.03354
  18        8D-2        0.00000   0.00000  -0.00000   0.00000  -0.00000
  19        9D 0       -0.28891   0.11802   0.32369   0.00000  -0.04778
  20        9D+1        0.00000   0.00000   0.00000  -0.00000   0.00000
  21        9D-1        0.00000   0.00000   0.00000  -0.37361   0.00000
  22        9D+2       -0.16667  -0.20502   0.18668   0.00000   0.08364
  23        9D-2       -0.00000  -0.00000  -0.00000   0.00000   0.00000
  24 2   H  1S          0.14500   0.04205  -0.14247   0.00000  -0.17997
  25        2S          2.79741  -1.34987  -0.54613   0.00000  -1.43867
  26        3S          5.29785  -1.54314   3.58198   0.00000  -0.56264
  27        4PX         0.00000   0.00000   0.00000  -0.00000   0.00000
  28        4PY         0.00000   0.00000   0.00000   0.01793   0.00000
  29        4PZ        -0.01354   0.02313  -0.02818   0.00000   0.00821
  30        5PX         0.00000   0.00000   0.00000   0.00000   0.00000
  31        5PY         0.00000   0.00000   0.00000   0.69119   0.00000
  32        5PZ        -0.52983   0.45742  -0.50574   0.00000  -0.12607
  33 3   H  1S         -0.07250   0.04190   0.07171  -0.12365  -0.17964
  34        2S         -1.39692  -1.35313   0.27681  -0.47494  -1.43883
  35        3S         -2.64731  -1.54780  -1.78962   3.10164  -0.57321
  36        4PX        -0.00000  -0.00000  -0.00000   0.00000  -0.00000
  37        4PY        -0.00128   0.02003   0.01995  -0.01664   0.00718
  38        4PZ        -0.01570  -0.01158   0.00642   0.01996  -0.00411
  39        5PX         0.00000   0.00000   0.00000   0.00000   0.00000
  40        5PY         0.17259   0.39667   0.51861  -0.20673  -0.10710
  41        5PZ        -0.23003  -0.22920   0.39179   0.51839   0.06281
  42 4   H  1S         -0.07250   0.04190   0.07171   0.12365  -0.17964
  43        2S         -1.39692  -1.35313   0.27681   0.47494  -1.43883
  44        3S         -2.64731  -1.54780  -1.78962  -3.10164  -0.57321
  45        4PX         0.00000   0.00000   0.00000   0.00000   0.00000
  46        4PY         0.00128  -0.02003  -0.01995  -0.01664  -0.00718
  47        4PZ        -0.01570  -0.01158   0.00642  -0.01996  -0.00411
  48        5PX        -0.00000  -0.00000  -0.00000   0.00000  -0.00000
  49        5PY        -0.17259  -0.39667  -0.51861  -0.20673   0.10710
  50        5PZ        -0.23003  -0.22920   0.39179  -0.51839   0.06281
                          16        17        18        19        20
                           V         V         V         V         V
     Eigenvalues --     0.24815   0.24816   0.34193   0.34195   0.36815
   1 1   C  1S         -0.00000   0.00000   0.00000  -0.00000   0.00000
   2        2S         -0.00000   0.00000   0.00000   0.00001   0.00000
   3        3S          0.00000   0.00000   0.00000  -0.00026   0.00000
   4        4S          0.00000   0.00000   0.00000   0.00011   0.00000
   5        5PX         0.00000   0.00002  -0.00000   0.00000   0.37977
   6        5PY         0.00000   0.00000  -0.19416   0.00000  -0.00000
   7        5PZ         0.00000   0.00000   0.00000  -0.19415   0.00000
   8        6PX         0.00000   0.00016  -0.00000   0.00000   1.66241
   9        6PY         0.00000  -0.00000  -3.96874   0.00000  -0.00000
  10        6PZ        -0.00000   0.00000   0.00000  -3.96906   0.00000
  11        7PX         0.00000   0.00000  -0.00000   0.00000   0.90420
  12        7PY         0.00000  -0.00000  -3.63617   0.00000  -0.00000
  13        7PZ        -0.00000   0.00000   0.00000  -3.63629   0.00000
  14        8D 0        0.00000   0.00000   0.00000  -0.06937   0.00000
  15        8D+1        0.00000   0.04866  -0.00000   0.00000  -0.00002
  16        8D-1        0.00000   0.00000   0.08010   0.00000   0.00000
  17        8D+2       -0.00000   0.00000   0.00000  -0.04004   0.00000
  18        8D-2        0.04866   0.00000   0.00000  -0.00000   0.00000
  19        9D 0       -0.00000   0.00000   0.00000  -0.57538   0.00000
  20        9D+1        0.00000  -0.02350   0.00000   0.00000   0.00026
  21        9D-1        0.00000   0.00000   0.66412   0.00000   0.00000
  22        9D+2       -0.00000   0.00000   0.00000  -0.33222   0.00000
  23        9D-2       -0.02352   0.00000   0.00000   0.00000   0.00000
  24 2   H  1S          0.00000   0.00000   0.00000  -0.07703   0.00000
  25        2S          0.00000   0.00000   0.00000   6.70872   0.00000
  26        3S          0.00000   0.00000   0.00000   3.65611   0.00000
  27        4PX         0.00000  -0.00168  -0.00000   0.00000   0.01816
  28        4PY         0.00000   0.00000   0.00953   0.00000   0.00000
  29        4PZ         0.00000   0.00000   0.00000  -0.02598   0.00000
  30        5PX         0.00000   1.06485   0.00000   0.00000  -1.23594
  31        5PY         0.00000  -0.00000   0.96495   0.00000   0.00000
  32        5PZ        -0.00000   0.00000   0.00000  -1.37181   0.00000
  33 3   H  1S         -0.00000   0.00000  -0.06669   0.03848  -0.00000
  34        2S         -0.00000   0.00000   5.80903  -3.35430   0.00000
  35        3S         -0.00000   0.00000   3.16620  -1.82807   0.00000
  36        4PX        -0.00146   0.00084  -0.00000   0.00000   0.01816
  37        4PY         0.00000   0.00000  -0.01710   0.01537  -0.00000
  38        4PZ        -0.00000   0.00000   0.01537   0.00066   0.00000
  39        5PX         0.92228  -0.53256   0.00000  -0.00000  -1.23547
  40        5PY         0.00000  -0.00000  -0.78727   1.01166   0.00000
  41        5PZ        -0.00000   0.00000   1.01171   0.38065   0.00000
  42 4   H  1S         -0.00000  -0.00000   0.06669   0.03848   0.00000
  43        2S         -0.00000  -0.00000  -5.80903  -3.35430  -0.00000
  44        3S         -0.00000  -0.00000  -3.16620  -1.82807  -0.00000
  45        4PX         0.00146   0.00084  -0.00000  -0.00000   0.01816
  46        4PY        -0.00000   0.00000  -0.01710  -0.01537  -0.00000
  47        4PZ        -0.00000  -0.00000  -0.01537   0.00066  -0.00000
  48        5PX        -0.92228  -0.53256   0.00000   0.00000  -1.23547
  49        5PY        -0.00000  -0.00000  -0.78727  -1.01166   0.00000
  50        5PZ        -0.00000  -0.00000  -1.01171   0.38065  -0.00000
                          21        22        23        24        25
                           V         V         V         V         V
     Eigenvalues --     0.39474   0.42782   0.44789   0.45896   0.45897
   1 1   C  1S          0.00000  -0.09398  -0.12345   0.00000   0.00007
   2        2S          0.00000   0.02218  -0.01066   0.00000  -0.00000
   3        3S          0.00000   4.80713   9.89247   0.00000  -0.00532
   4        4S          0.00000   7.63942   3.86209   0.00000  -0.00287
   5        5PX        -0.00000   0.00000   0.00000   0.00000   0.00000
   6        5PY        -0.00002   0.00000   0.00000   0.23610   0.00000
   7        5PZ         0.00000   0.00002   0.00008   0.00000   0.23619
   8        6PX        -0.00000   0.00000   0.00000   0.00000   0.00000
   9        6PY        -0.00036   0.00000   0.00000  -3.87112   0.00000
  10        6PZ         0.00000   0.00004  -0.00251   0.00000  -3.86993
  11        7PX        -0.00000   0.00000   0.00000   0.00000   0.00000
  12        7PY        -0.00021   0.00000   0.00000   0.38587   0.00000
  13        7PZ         0.00000   0.00008  -0.00011   0.00000   0.38644
  14        8D 0        0.00000   0.00654   0.01064   0.00000  -0.00276
  15        8D+1       -0.00000   0.00000   0.00000  -0.00000   0.00000
  16        8D-1        0.00000   0.00000   0.00000   0.00320   0.00000
  17        8D+2        0.00000  -0.01132  -0.01842   0.00000  -0.00161
  18        8D-2        0.00000   0.00000   0.00000   0.00000  -0.00000
  19        9D 0        0.00000   0.70992  -0.16765   0.00000  -2.27836
  20        9D+1        0.00000   0.00000   0.00000   0.00000   0.00000
  21        9D-1       -0.00008   0.00000   0.00000   2.63072   0.00000
  22        9D+2        0.00000  -1.23009   0.28791   0.00000  -1.31545
  23        9D-2        0.00000  -0.00000  -0.00000   0.00000   0.00000
  24 2   H  1S          0.00000   0.04215  -0.05841   0.00000  -0.17901
  25        2S          0.00000  -3.74319  -3.66241   0.00000  10.20871
  26        3S          0.00000  -1.06550  -0.64269   0.00000  -0.90382
  27        4PX        -0.00000   0.00000   0.00000   0.00000   0.00000
  28        4PY        -0.01063   0.00000   0.00000   0.02879   0.00000
  29        4PZ         0.00000  -0.00159   0.00669   0.00000  -0.00621
  30        5PX        -0.00000   0.00000   0.00000  -0.00000   0.00000
  31        5PY         1.22269   0.00000   0.00000  -2.39080   0.00000
  32        5PZ         0.00000   0.46813   2.05320   0.00000  -3.75375
  33 3   H  1S          0.00001   0.04218  -0.05831  -0.15507   0.08962
  34        2S          0.00042  -3.74362  -3.67139   8.84076  -5.10111
  35        3S          0.00021  -1.06536  -0.64260  -0.78258   0.45262
  36        4PX        -0.00000  -0.00000  -0.00000   0.00000   0.00000
  37        4PY         0.00532  -0.00138   0.00580   0.00254   0.01516
  38        4PZ         0.00921   0.00080  -0.00333   0.01515   0.02003
  39        5PX         0.00000   0.00000   0.00000   0.00000  -0.00000
  40        5PY        -0.61139   0.40540   1.78061  -3.41284   0.58868
  41        5PZ        -1.05864  -0.23429  -1.02910   0.59004  -2.73095
  42 4   H  1S         -0.00001   0.04218  -0.05831   0.15507   0.08962
  43        2S         -0.00042  -3.74362  -3.67139  -8.84076  -5.10111
  44        3S         -0.00021  -1.06536  -0.64260   0.78258   0.45262
  45        4PX        -0.00000   0.00000   0.00000   0.00000  -0.00000
  46        4PY         0.00532   0.00138  -0.00580   0.00254  -0.01516
  47        4PZ        -0.00921   0.00080  -0.00333  -0.01515   0.02003
  48        5PX         0.00000  -0.00000  -0.00000   0.00000   0.00000
  49        5PY        -0.61139  -0.40540  -1.78061  -3.41284  -0.58868
  50        5PZ         1.05864  -0.23429  -1.02910  -0.59004  -2.73095
                          26        27        28        29        30
                           V         V         V         V         V
     Eigenvalues --     0.50206   0.50206   0.51287   0.51288   0.70645
   1 1   C  1S         -0.00000   0.00000   0.00000   0.00001   0.00000
   2        2S          0.00000   0.00000   0.00000  -0.00000   0.00000
   3        3S          0.00000   0.00000   0.00000  -0.00067   0.00000
   4        4S          0.00000   0.00000   0.00000  -0.00020   0.00000
   5        5PX         0.00000  -0.00007   0.00000   0.00000  -0.97842
   6        5PY         0.00000  -0.00000  -0.39398   0.00000  -0.00000
   7        5PZ        -0.00000   0.00000   0.00000  -0.39395   0.00000
   8        6PX         0.00000  -0.00007   0.00000   0.00000   3.04754
   9        6PY         0.00000  -0.00000  -5.54913   0.00000   0.00000
  10        6PZ        -0.00000   0.00000   0.00000  -5.54961   0.00000
  11        7PX         0.00000  -0.00016   0.00000   0.00000  -0.05008
  12        7PY         0.00000  -0.00000  -1.63236   0.00000  -0.00000
  13        7PZ        -0.00000   0.00000   0.00000  -1.63220   0.00000
  14        8D 0        0.00000   0.00000   0.00000   0.02762   0.00000
  15        8D+1        0.00000  -0.02625   0.00000   0.00000  -0.00001
  16        8D-1        0.00000  -0.00000  -0.03188   0.00000  -0.00000
  17        8D+2        0.00000   0.00000   0.00000   0.01593   0.00000
  18        8D-2       -0.02625   0.00000   0.00000   0.00000   0.00000
  19        9D 0        0.00000   0.00000   0.00000   1.01526   0.00000
  20        9D+1        0.00000   2.33113  -0.00000   0.00000  -0.00007
  21        9D-1        0.00000  -0.00000  -1.17273   0.00000   0.00000
  22        9D+2        0.00000   0.00000   0.00000   0.58610   0.00000
  23        9D-2        2.33113   0.00000   0.00000  -0.00000   0.00000
  24 2   H  1S          0.00000   0.00000   0.00000   0.22052   0.00000
  25        2S          0.00000   0.00000   0.00000   8.29871   0.00000
  26        3S          0.00000   0.00000   0.00000   2.32545   0.00000
  27        4PX         0.00000   0.01219   0.00000   0.00000  -0.05584
  28        4PY         0.00000  -0.00000  -0.01152   0.00000  -0.00000
  29        4PZ         0.00000   0.00000   0.00000   0.04047   0.00000
  30        5PX         0.00000  -2.23646   0.00000   0.00000  -0.94303
  31        5PY         0.00000   0.00000   1.22441   0.00000  -0.00000
  32        5PZ        -0.00000   0.00000   0.00000  -4.39275   0.00000
  33 3   H  1S         -0.00000   0.00000   0.19097  -0.11021   0.00000
  34        2S         -0.00000   0.00000   7.18546  -4.14907  -0.00000
  35        3S         -0.00000   0.00000   2.01409  -1.16266   0.00000
  36        4PX         0.01056  -0.00610   0.00000  -0.00000  -0.05583
  37        4PY        -0.00000   0.00000   0.02747  -0.02251   0.00000
  38        4PZ        -0.00000  -0.00000  -0.02251   0.00148  -0.00000
  39        5PX        -1.93691   1.11839  -0.00000   0.00000  -0.94312
  40        5PY         0.00000  -0.00000  -2.98790   2.43194   0.00000
  41        5PZ         0.00000   0.00000   2.43206  -0.18005  -0.00000
  42 4   H  1S         -0.00000  -0.00000  -0.19097  -0.11021  -0.00000
  43        2S         -0.00000  -0.00000  -7.18546  -4.14907   0.00000
  44        3S         -0.00000  -0.00000  -2.01409  -1.16266  -0.00000
  45        4PX        -0.01056  -0.00610   0.00000   0.00000  -0.05583
  46        4PY         0.00000   0.00000   0.02747   0.02251   0.00000
  47        4PZ        -0.00000   0.00000   0.02251   0.00148   0.00000
  48        5PX         1.93691   1.11839  -0.00000  -0.00000  -0.94312
  49        5PY        -0.00000  -0.00000  -2.98790  -2.43194   0.00000
  50        5PZ         0.00000  -0.00000  -2.43206  -0.18005   0.00000
                          31        32        33        34        35
                           V         V         V         V         V
     Eigenvalues --     0.70766   0.90277   0.90278   1.23425   1.23425
   1 1   C  1S          0.05736   0.00000   0.00000   0.00000   0.00000
   2        2S         -0.49801   0.00000   0.00000   0.00002   0.00000
   3        3S          1.90490   0.00000   0.00003  -0.00013   0.00000
   4        4S          1.64615   0.00000   0.00011  -0.00009   0.00000
   5        5PX         0.00000   0.00000   0.00000   0.00000  -0.00000
   6        5PY         0.00000  -0.90226   0.00000   0.00000   0.22451
   7        5PZ        -0.00002   0.00000   0.90225   0.22451   0.00000
   8        6PX         0.00000  -0.00000   0.00000   0.00000   0.00000
   9        6PY         0.00000   8.27868   0.00000   0.00000  -5.35862
  10        6PZ         0.00041   0.00000  -8.27881  -5.35858   0.00000
  11        7PX         0.00000  -0.00000   0.00000   0.00000   0.00000
  12        7PY         0.00000   2.15783   0.00000   0.00000  -0.61052
  13        7PZ        -0.00008   0.00000  -2.15795  -0.61052   0.00000
  14        8D 0        0.14908   0.00000  -0.17351   0.54216   0.00000
  15        8D+1        0.00000   0.00000   0.00000   0.00000  -0.00000
  16        8D-1        0.00000  -0.20036   0.00000   0.00000  -0.62604
  17        8D+2       -0.25820   0.00000  -0.10018   0.31302   0.00000
  18        8D-2       -0.00000   0.00000   0.00000  -0.00000   0.00000
  19        9D 0       -0.23047   0.00000   1.33824  -3.41658   0.00000
  20        9D+1        0.00000   0.00000   0.00000   0.00000   0.00000
  21        9D-1        0.00000   1.54528   0.00000   0.00000   3.94512
  22        9D+2        0.39930   0.00000   0.77263  -1.97255   0.00000
  23        9D-2       -0.00000   0.00000  -0.00000   0.00000   0.00000
  24 2   H  1S          0.71349   0.00000  -0.18045   1.21801   0.00000
  25        2S         -1.46838   0.00000   9.06960   8.87036   0.00000
  26        3S         -0.12500   0.00000   2.00384   0.16723   0.00000
  27        4PX         0.00000   0.00000   0.00000   0.00000  -0.00000
  28        4PY         0.00000   0.01343   0.00000   0.00000  -0.12955
  29        4PZ         0.15821   0.00000  -0.27615   0.03998   0.00000
  30        5PX         0.00000   0.00000   0.00000   0.00000  -0.00000
  31        5PY         0.00000  -2.38282   0.00000   0.00000  -1.62343
  32        5PZ         0.15973   0.00000  -2.99373  -2.03724   0.00000
  33 3   H  1S          0.71347   0.15629   0.09025  -0.60900   1.05482
  34        2S         -1.46723  -7.85438  -4.53488  -4.43509   7.68196
  35        3S         -0.12517  -1.73527  -1.00194  -0.08359   0.14481
  36        4PX        -0.00000  -0.00000   0.00000  -0.00000   0.00000
  37        4PY         0.13701   0.21047   0.11376  -0.07341  -0.00241
  38        4PZ        -0.07910  -0.11376  -0.07911  -0.08717  -0.07341
  39        5PX         0.00000   0.00000   0.00000   0.00000  -0.00000
  40        5PY         0.13791   1.64956   2.32813   0.17917  -1.93379
  41        5PZ        -0.07955  -2.32810   1.03871  -1.72688   0.17919
  42 4   H  1S          0.71347  -0.15629   0.09025  -0.60900  -1.05482
  43        2S         -1.46723   7.85438  -4.53488  -4.43509  -7.68196
  44        3S         -0.12517   1.73527  -1.00194  -0.08359  -0.14481
  45        4PX         0.00000  -0.00000  -0.00000   0.00000   0.00000
  46        4PY        -0.13701   0.21047  -0.11376   0.07341  -0.00241
  47        4PZ        -0.07910   0.11376  -0.07911  -0.08717   0.07341
  48        5PX        -0.00000   0.00000  -0.00000  -0.00000  -0.00000
  49        5PY        -0.13791   1.64956  -2.32813  -0.17917  -1.93379
  50        5PZ        -0.07955   2.32810   1.03871  -1.72688  -0.17919
                          36        37        38        39        40
                           V         V         V         V         V
     Eigenvalues --     1.28173   1.28173   1.51627   1.57250   1.69452
   1 1   C  1S          0.00000   0.00000  -0.12450   0.00000   0.00000
   2        2S          0.00000   0.00000  -1.69699   0.00000   0.00000
   3        3S         -0.00000   0.00000  10.52837   0.00000   0.00000
   4        4S         -0.00000   0.00000   5.10492   0.00000   0.00000
   5        5PX         0.00000   0.00000   0.00000   0.00000  -0.35460
   6        5PY         0.00000  -0.00000   0.00000  -0.00000  -0.00000
   7        5PZ         0.00000   0.00000  -0.00000   0.00000   0.00000
   8        6PX         0.00000  -0.00005   0.00000   0.00000   0.39459
   9        6PY         0.00000   0.00000   0.00000   0.00007   0.00000
  10        6PZ         0.00000   0.00000   0.00009   0.00000   0.00000
  11        7PX         0.00000  -0.00002   0.00000  -0.00000   0.31663
  12        7PY         0.00000   0.00000   0.00000   0.00000   0.00000
  13        7PZ         0.00000   0.00000   0.00000   0.00000   0.00000
  14        8D 0       -0.00000   0.00000  -0.40455   0.00000   0.00000
  15        8D+1        0.00000  -0.77857   0.00000   0.00000   0.00000
  16        8D-1        0.00000   0.00000   0.00000  -0.00000  -0.00000
  17        8D+2       -0.00000   0.00000   0.70074   0.00000   0.00000
  18        8D-2       -0.77857   0.00000   0.00000   0.00000   0.00000
  19        9D 0        0.00000   0.00000   0.59281   0.00000   0.00000
  20        9D+1        0.00000   0.87661   0.00000  -0.00000  -0.00001
  21        9D-1        0.00000  -0.00000   0.00000  -0.00002  -0.00000
  22        9D+2        0.00000   0.00000  -1.02679   0.00000   0.00000
  23        9D-2        0.87661   0.00000   0.00000   0.00000   0.00000
  24 2   H  1S         -0.00000   0.00000  -0.05310   0.00000   0.00000
  25        2S         -0.00000   0.00000  -4.45313   0.00000   0.00000
  26        3S         -0.00000   0.00000  -0.63416   0.00000   0.00000
  27        4PX         0.00000  -0.48408   0.00000  -0.00000   0.69282
  28        4PY         0.00000   0.00000   0.00000   0.66416  -0.00000
  29        4PZ        -0.00000   0.00000   0.20233   0.00000   0.00000
  30        5PX         0.00000  -0.20751   0.00000   0.00000  -0.45094
  31        5PY         0.00000   0.00000   0.00000  -0.58796  -0.00000
  32        5PZ         0.00000   0.00000   1.04576   0.00000   0.00000
  33 3   H  1S          0.00000  -0.00000  -0.05307  -0.00001  -0.00000
  34        2S          0.00000  -0.00000  -4.45302  -0.00008  -0.00000
  35        3S          0.00000  -0.00000  -0.63416   0.00000  -0.00000
  36        4PX        -0.41923   0.24205  -0.00000  -0.00000   0.69281
  37        4PY        -0.00000   0.00000   0.17522  -0.33209  -0.00000
  38        4PZ         0.00000   0.00000  -0.10118  -0.57519  -0.00000
  39        5PX        -0.17973   0.10379  -0.00000   0.00000  -0.45095
  40        5PY        -0.00000   0.00000   0.90561   0.29401   0.00000
  41        5PZ         0.00000  -0.00000  -0.52286   0.50919  -0.00000
  42 4   H  1S          0.00000   0.00000  -0.05307   0.00001   0.00000
  43        2S          0.00000   0.00000  -4.45302   0.00008   0.00000
  44        3S          0.00000   0.00000  -0.63416  -0.00000   0.00000
  45        4PX         0.41923   0.24205   0.00000  -0.00000   0.69281
  46        4PY         0.00000   0.00000  -0.17522  -0.33209  -0.00000
  47        4PZ         0.00000  -0.00000  -0.10118   0.57519   0.00000
  48        5PX         0.17973   0.10379   0.00000   0.00000  -0.45095
  49        5PY         0.00000   0.00000  -0.90561   0.29401   0.00000
  50        5PZ         0.00000   0.00000  -0.52286  -0.50919   0.00000
                          41        42        43        44        45
                           V         V         V         V         V
     Eigenvalues --     1.70460   1.70460   1.83993   1.98768   1.98768
   1 1   C  1S          0.00000  -0.00000  -0.22798   0.00000   0.00000
   2        2S          0.00000  -0.00002  -2.57980   0.00000   0.00000
   3        3S          0.00000   0.00010  15.61508  -0.00000   0.00000
   4        4S          0.00000   0.00008   3.86414  -0.00000   0.00000
   5        5PX        -0.00000   0.00000   0.00000   0.00000  -0.00000
   6        5PY         0.29447   0.00000   0.00000   0.00000   0.00000
   7        5PZ         0.00000   0.29447   0.00000  -0.00000   0.00000
   8        6PX         0.00000   0.00000   0.00000   0.00000   0.00001
   9        6PY        -7.48907   0.00000   0.00000   0.00000  -0.00000
  10        6PZ         0.00000  -7.48907  -0.00010   0.00000   0.00000
  11        7PX         0.00000   0.00000   0.00000   0.00000   0.00001
  12        7PY        -0.44450   0.00000   0.00000   0.00000  -0.00000
  13        7PZ         0.00000  -0.44450  -0.00001   0.00000   0.00000
  14        8D 0        0.00000  -0.37994   0.41568  -0.00000   0.00000
  15        8D+1       -0.00000   0.00000   0.00000   0.00000   1.10176
  16        8D-1        0.43870   0.00000   0.00000   0.00000  -0.00000
  17        8D+2        0.00000  -0.21933  -0.71998   0.00000   0.00000
  18        8D-2        0.00000   0.00000   0.00000   1.10176   0.00000
  19        9D 0        0.00000  -0.53866   0.23810  -0.00000   0.00000
  20        9D+1        0.00000   0.00000   0.00000   0.00000  -0.72939
  21        9D-1        0.62204   0.00000   0.00000   0.00000   0.00000
  22        9D+2        0.00000  -0.31104  -0.41245   0.00000   0.00000
  23        9D-2        0.00000  -0.00000  -0.00000  -0.72939   0.00000
  24 2   H  1S          0.00000   1.10340  -0.81939   0.00000   0.00000
  25        2S          0.00000   9.54359  -4.99307   0.00000   0.00000
  26        3S          0.00000   0.26425  -0.49510   0.00000   0.00000
  27        4PX         0.00000   0.00000   0.00000   0.00000  -0.94250
  28        4PY         0.67529   0.00000   0.00000   0.00000   0.00000
  29        4PZ         0.00000   0.23359  -0.01848  -0.00000   0.00000
  30        5PX        -0.00000   0.00000   0.00000   0.00000   0.83478
  31        5PY         0.08200   0.00000   0.00000   0.00000  -0.00000
  32        5PZ         0.00000  -3.56123   1.90033  -0.00000   0.00000
  33 3   H  1S          0.95557  -0.55169  -0.81941   0.00000   0.00000
  34        2S          8.26504  -4.77189  -4.99329   0.00000   0.00000
  35        3S          0.22886  -0.13214  -0.49511   0.00000  -0.00000
  36        4PX         0.00000  -0.00000  -0.00000  -0.81623   0.47125
  37        4PY         0.34401   0.19127  -0.01601   0.00000   0.00000
  38        4PZ         0.19125   0.56485   0.00925  -0.00000  -0.00000
  39        5PX        -0.00000   0.00000   0.00000   0.72294  -0.41740
  40        5PY        -2.65040   1.57758   1.64580  -0.00000  -0.00000
  41        5PZ         1.57757  -0.82880  -0.95021   0.00000   0.00000
  42 4   H  1S         -0.95557  -0.55169  -0.81941   0.00000  -0.00000
  43        2S         -8.26504  -4.77189  -4.99329   0.00000  -0.00000
  44        3S         -0.22886  -0.13214  -0.49511   0.00000   0.00000
  45        4PX         0.00000   0.00000   0.00000   0.81623   0.47125
  46        4PY         0.34401  -0.19127   0.01601  -0.00000   0.00000
  47        4PZ        -0.19125   0.56485   0.00925  -0.00000   0.00000
  48        5PX        -0.00000  -0.00000  -0.00000  -0.72294  -0.41740
  49        5PY        -2.65040  -1.57758  -1.64580   0.00000  -0.00000
  50        5PZ        -1.57757  -0.82880  -0.95021   0.00000  -0.00000
                          46        47        48        49        50
                           V         V         V         V         V
     Eigenvalues --     2.15963   2.15963   2.48037   2.64688   2.64688
   1 1   C  1S          0.00000  -0.00000  -0.07354   0.00000   0.00000
   2        2S          0.00000  -0.00001   1.13098   0.00000  -0.00001
   3        3S          0.00000   0.00002   3.29349   0.00000  -0.00005
   4        4S          0.00000   0.00000   0.65318   0.00000  -0.00003
   5        5PX         0.00000   0.00000   0.00000   0.00000   0.00000
   6        5PY         0.86409   0.00000   0.00000   1.07203   0.00000
   7        5PZ         0.00000   0.86409   0.00001   0.00000   1.07203
   8        6PX         0.00000   0.00000   0.00000  -0.00000   0.00000
   9        6PY        -1.50321   0.00000   0.00000   3.47042   0.00000
  10        6PZ         0.00000  -1.50321   0.00003   0.00000   3.47043
  11        7PX         0.00000   0.00000   0.00000  -0.00000   0.00000
  12        7PY        -0.37746   0.00000   0.00000   0.71885   0.00000
  13        7PZ         0.00000  -0.37746  -0.00000   0.00000   0.71887
  14        8D 0        0.00000  -0.34389   0.48889   0.00000   1.57931
  15        8D+1       -0.00000   0.00000   0.00000  -0.00000   0.00000
  16        8D-1        0.39709   0.00000   0.00000  -1.82363   0.00000
  17        8D+2        0.00000  -0.19854  -0.84676   0.00000   0.91182
  18        8D-2        0.00000   0.00000  -0.00000   0.00000   0.00000
  19        9D 0        0.00000  -0.82470  -0.00065   0.00000  -0.29564
  20        9D+1        0.00000   0.00000   0.00000   0.00000   0.00000
  21        9D-1        0.95228   0.00000   0.00000   0.34136   0.00000
  22        9D+2        0.00000  -0.47614   0.00114   0.00000  -0.17068
  23        9D-2        0.00000  -0.00000   0.00000   0.00000   0.00000
  24 2   H  1S          0.00000   0.21471  -0.89011   0.00000  -1.68464
  25        2S          0.00000   2.40687  -1.06220   0.00000  -3.12206
  26        3S          0.00000   0.49381  -0.03132   0.00000  -0.62789
  27        4PX         0.00000   0.00000   0.00000   0.00000   0.00000
  28        4PY        -0.76310   0.00000   0.00000   0.57577   0.00000
  29        4PZ         0.00000   0.79386   1.01877   0.00000   1.22952
  30        5PX        -0.00000   0.00000   0.00000   0.00000   0.00000
  31        5PY        -0.22671   0.00000   0.00000  -0.88081   0.00000
  32        5PZ         0.00000  -0.87624   0.16569   0.00000   0.82855
  33 3   H  1S          0.18594  -0.10736  -0.89009  -1.45895   0.84233
  34        2S          2.08442  -1.20345  -1.06214  -2.70379   1.56106
  35        3S          0.42766  -0.24691  -0.03133  -0.54376   0.31395
  36        4PX        -0.00000  -0.00000   0.00000  -0.00000  -0.00000
  37        4PY         0.40462  -0.67418   0.88227   1.06608  -0.28309
  38        4PZ        -0.67418  -0.37386  -0.50937  -0.28308   0.73921
  39        5PX         0.00000   0.00000  -0.00000   0.00000  -0.00000
  40        5PY        -0.71386   0.28126   0.14347   0.40121  -0.74018
  41        5PZ         0.28126  -0.38909  -0.08283  -0.74018  -0.45348
  42 4   H  1S         -0.18594  -0.10736  -0.89009   1.45895   0.84233
  43        2S         -2.08442  -1.20345  -1.06214   2.70379   1.56106
  44        3S         -0.42766  -0.24691  -0.03133   0.54376   0.31395
  45        4PX        -0.00000   0.00000  -0.00000  -0.00000   0.00000
  46        4PY         0.40462   0.67418  -0.88227   1.06608   0.28309
  47        4PZ         0.67418  -0.37386  -0.50937   0.28308   0.73921
  48        5PX         0.00000  -0.00000   0.00000   0.00000   0.00000
  49        5PY        -0.71386  -0.28126  -0.14347   0.40121   0.74018
  50        5PZ        -0.28126  -0.38909  -0.08283   0.74018  -0.45348
     Beta Molecular Orbital Coefficients:
                           1         2         3         4         5
                           O         O         O         O         V
     Eigenvalues --   -10.19016  -0.64925  -0.41370  -0.41370  -0.08058
   1 1   C  1S          0.99714  -0.18896   0.00000  -0.00000   0.00000
   2        2S          0.03420   0.38331   0.00000   0.00000   0.00000
   3        3S         -0.05972   0.18458   0.00000   0.00001   0.00000
   4        4S         -0.01833  -0.00583   0.00000   0.00002   0.00000
   5        5PX         0.00000   0.00000  -0.00000   0.00000   0.48304
   6        5PY         0.00000   0.00000   0.44295   0.00000  -0.00000
   7        5PZ         0.00000   0.00000   0.00000   0.44295   0.00000
   8        6PX         0.00000   0.00000  -0.00000   0.00000   0.33954
   9        6PY         0.00000   0.00000  -0.05312   0.00000   0.00000
  10        6PZ        -0.00000  -0.00000   0.00000  -0.05311   0.00000
  11        7PX         0.00000   0.00000  -0.00000   0.00000   0.26606
  12        7PY         0.00000   0.00000  -0.02577   0.00000   0.00000
  13        7PZ        -0.00000   0.00001   0.00000  -0.02578   0.00000
  14        8D 0        0.00114   0.00644   0.00000   0.01686   0.00000
  15        8D+1        0.00000   0.00000  -0.00000   0.00000  -0.00000
  16        8D-1        0.00000   0.00000  -0.01947   0.00000  -0.00000
  17        8D+2       -0.00197  -0.01116   0.00000   0.00974   0.00000
  18        8D-2       -0.00000  -0.00000   0.00000  -0.00000   0.00000
  19        9D 0       -0.00177  -0.00359   0.00000  -0.08319   0.00000
  20        9D+1        0.00000   0.00000  -0.00000   0.00000   0.00004
  21        9D-1        0.00000   0.00000   0.09605   0.00000  -0.00000
  22        9D+2        0.00306   0.00622   0.00000  -0.04803   0.00000
  23        9D-2        0.00000  -0.00000   0.00000   0.00000   0.00000
  24 2   H  1S         -0.00089   0.21319   0.00000   0.40470   0.00000
  25        2S          0.02035   0.06155   0.00000   0.49421   0.00000
  26        3S          0.00233   0.00347   0.00000   0.03163   0.00000
  27        4PX         0.00000   0.00000  -0.00000   0.00000   0.02540
  28        4PY         0.00000   0.00000   0.01329   0.00000  -0.00000
  29        4PZ         0.00195  -0.02592   0.00000  -0.01279   0.00000
  30        5PX         0.00000   0.00000   0.00000   0.00000   0.05972
  31        5PY         0.00000   0.00000  -0.02942   0.00000  -0.00000
  32        5PZ        -0.00638  -0.01416   0.00000  -0.09376   0.00000
  33 3   H  1S         -0.00089   0.21319   0.35048  -0.20235  -0.00000
  34        2S          0.02035   0.06154   0.42801  -0.24712  -0.00000
  35        3S          0.00233   0.00348   0.02739  -0.01582  -0.00000
  36        4PX         0.00000  -0.00000  -0.00000   0.00000   0.02540
  37        4PY         0.00169  -0.02245  -0.00627   0.01130   0.00000
  38        4PZ        -0.00098   0.01296   0.01129   0.00677  -0.00000
  39        5PX        -0.00000   0.00000   0.00000  -0.00000   0.05976
  40        5PY        -0.00552  -0.01226  -0.07768   0.02786   0.00000
  41        5PZ         0.00319   0.00708   0.02786  -0.04550  -0.00000
  42 4   H  1S         -0.00089   0.21319  -0.35048  -0.20235   0.00000
  43        2S          0.02035   0.06154  -0.42801  -0.24712   0.00000
  44        3S          0.00233   0.00348  -0.02739  -0.01582   0.00000
  45        4PX        -0.00000   0.00000  -0.00000  -0.00000   0.02540
  46        4PY        -0.00169   0.02245  -0.00627  -0.01130   0.00000
  47        4PZ        -0.00098   0.01296  -0.01129   0.00677   0.00000
  48        5PX         0.00000  -0.00000   0.00000   0.00000   0.05976
  49        5PY         0.00552   0.01226  -0.07768  -0.02786   0.00000
  50        5PZ         0.00319   0.00708  -0.02786  -0.04550   0.00000
                           6         7         8         9        10
                           V         V         V         V         V
     Eigenvalues --    -0.00415   0.02840   0.02840   0.08451   0.09836
   1 1   C  1S         -0.06245   0.00000   0.00001   0.00000   0.00000
   2        2S          0.12231   0.00000  -0.00003   0.00000   0.00000
   3        3S          0.71945   0.00000  -0.00006   0.00000   0.00000
   4        4S          1.79208   0.00000   0.00008   0.00000   0.00000
   5        5PX         0.00000   0.00000   0.00000  -0.30648   0.00000
   6        5PY         0.00000  -0.14069   0.00000   0.00000   0.06364
   7        5PZ        -0.00001   0.00000  -0.14067   0.00000   0.00000
   8        6PX         0.00000   0.00000   0.00000  -0.30635   0.00000
   9        6PY         0.00000  -0.26708   0.00000  -0.00000  -1.19242
  10        6PZ        -0.00016   0.00000  -0.26744   0.00000   0.00000
  11        7PX         0.00000   0.00000   0.00000   1.20124  -0.00000
  12        7PY         0.00000  -1.07272   0.00000  -0.00000  -3.77174
  13        7PZ        -0.00047   0.00000  -1.07396   0.00000   0.00000
  14        8D 0        0.00162   0.00000  -0.00460   0.00000   0.00000
  15        8D+1        0.00000  -0.00000   0.00000  -0.00001  -0.00000
  16        8D-1        0.00000   0.00530   0.00000   0.00000  -0.02509
  17        8D+2       -0.00281   0.00000  -0.00265   0.00000   0.00000
  18        8D-2        0.00000   0.00000   0.00000   0.00000   0.00000
  19        9D 0        0.02147   0.00000   0.05481   0.00000   0.00000
  20        9D+1        0.00000   0.00000   0.00000   0.00013   0.00000
  21        9D-1        0.00000  -0.06328   0.00000   0.00000   0.34714
  22        9D+2       -0.03718   0.00000   0.03166   0.00000   0.00000
  23        9D-2       -0.00000   0.00000  -0.00000   0.00000   0.00000
  24 2   H  1S         -0.00699   0.00000  -0.04157   0.00000   0.00000
  25        2S         -0.38065   0.00000   0.22686   0.00000   0.00000
  26        3S         -0.79574   0.00000   3.73532   0.00000   0.00000
  27        4PX         0.00000   0.00000   0.00000  -0.00168   0.00000
  28        4PY         0.00000  -0.00449   0.00000  -0.00000  -0.01709
  29        4PZ        -0.00981   0.00000   0.00914   0.00000   0.00000
  30        5PX         0.00000   0.00000   0.00000  -0.13136   0.00000
  31        5PY         0.00000   0.11928   0.00000  -0.00000  -0.14451
  32        5PZ         0.03785   0.00000  -0.03816   0.00000   0.00000
  33 3   H  1S         -0.00699  -0.03603   0.02079   0.00000   0.12595
  34        2S         -0.38105   0.19590  -0.11342   0.00000   2.44794
  35        3S         -0.79726   3.23337  -1.86760   0.00000   4.56811
  36        4PX         0.00000   0.00000  -0.00000  -0.00168   0.00000
  37        4PY        -0.00849   0.00574  -0.00590  -0.00000  -0.01390
  38        4PZ         0.00490  -0.00590  -0.00109   0.00000  -0.00184
  39        5PX         0.00000   0.00000   0.00000  -0.13124   0.00000
  40        5PY         0.03288   0.00125   0.06826  -0.00000  -0.44073
  41        5PZ        -0.01894   0.06814   0.08002   0.00000   0.17101
  42 4   H  1S         -0.00699   0.03603   0.02079  -0.00000  -0.12595
  43        2S         -0.38105  -0.19590  -0.11342  -0.00000  -2.44794
  44        3S         -0.79726  -3.23337  -1.86760  -0.00000  -4.56811
  45        4PX        -0.00000   0.00000   0.00000  -0.00168   0.00000
  46        4PY         0.00849   0.00574   0.00590  -0.00000  -0.01390
  47        4PZ         0.00490   0.00590  -0.00109  -0.00000   0.00184
  48        5PX        -0.00000   0.00000  -0.00000  -0.13124   0.00000
  49        5PY        -0.03288   0.00125  -0.06826  -0.00000  -0.44073
  50        5PZ        -0.01894  -0.06814   0.08002  -0.00000  -0.17101
                          11        12        13        14        15
                           V         V         V         V         V
     Eigenvalues --     0.09836   0.11613   0.16828   0.16828   0.18569
   1 1   C  1S         -0.00001   0.06502   0.00003   0.00000  -0.07517
   2        2S          0.00016  -0.30915  -0.00003   0.00000   0.10366
   3        3S         -0.00155   1.67200  -0.00040   0.00000   0.96427
   4        4S         -0.00504   6.90300  -0.00136   0.00000   4.18437
   5        5PX         0.00000   0.00000   0.00000   0.00000   0.00000
   6        5PY         0.00000   0.00000   0.00000   0.34833   0.00000
   7        5PZ         0.06371   0.00005   0.34833   0.00000   0.00014
   8        6PX         0.00000   0.00000   0.00000   0.00000   0.00000
   9        6PY         0.00000   0.00000   0.00000  -0.05431   0.00000
  10        6PZ        -1.19246  -0.00059  -0.05425   0.00000  -0.00007
  11        7PX         0.00000   0.00000   0.00000  -0.00000   0.00000
  12        7PY         0.00000   0.00000   0.00000  -1.83619   0.00000
  13        7PZ        -3.77147  -0.00182  -1.83593   0.00000  -0.00096
  14        8D 0        0.02173  -0.00457  -0.05277   0.00000  -0.00789
  15        8D+1        0.00000   0.00000   0.00000  -0.00000   0.00000
  16        8D-1        0.00000   0.00000   0.00000   0.06093   0.00000
  17        8D+2        0.01255   0.00797  -0.03047   0.00000   0.01367
  18        8D-2        0.00000   0.00000   0.00000   0.00000  -0.00000
  19        9D 0       -0.30076   0.12352   0.33671   0.00000  -0.01640
  20        9D+1        0.00000   0.00000   0.00000  -0.00000   0.00000
  21        9D-1        0.00000   0.00000   0.00000  -0.38875   0.00000
  22        9D+2       -0.17346  -0.21447   0.19441   0.00000   0.02830
  23        9D-2       -0.00000  -0.00000  -0.00000   0.00000   0.00000
  24 2   H  1S          0.14545   0.02542  -0.12756   0.00000  -0.16659
  25        2S          2.82816  -1.44751  -0.45888   0.00000  -1.48693
  26        3S          5.27504  -1.55570   3.62411   0.00000  -0.55230
  27        4PX         0.00000   0.00000   0.00000  -0.00000   0.00000
  28        4PY         0.00000   0.00000   0.00000   0.01948   0.00000
  29        4PZ        -0.01286   0.02351  -0.03028   0.00000   0.00600
  30        5PX         0.00000   0.00000   0.00000   0.00000   0.00000
  31        5PY         0.00000   0.00000   0.00000   0.72347   0.00000
  32        5PZ        -0.53995   0.47662  -0.53898   0.00000  -0.17550
  33 3   H  1S         -0.07271   0.02529   0.06385  -0.11050  -0.16657
  34        2S         -1.41210  -1.44992   0.23022  -0.39771  -1.48748
  35        3S         -2.63593  -1.55937  -1.81178   3.13884  -0.55498
  36        4PX        -0.00000  -0.00000  -0.00000   0.00000   0.00000
  37        4PY        -0.00185   0.02036   0.02155  -0.01784   0.00520
  38        4PZ        -0.01602  -0.01176   0.00705   0.02155  -0.00300
  39        5PX         0.00000   0.00000   0.00000   0.00000   0.00000
  40        5PY         0.17081   0.41315   0.54673  -0.22343  -0.15153
  41        5PZ        -0.24323  -0.23875   0.40784   0.54666   0.08744
  42 4   H  1S         -0.07271   0.02529   0.06385   0.11050  -0.16657
  43        2S         -1.41210  -1.44992   0.23022   0.39771  -1.48748
  44        3S         -2.63593  -1.55937  -1.81178  -3.13884  -0.55498
  45        4PX         0.00000   0.00000   0.00000   0.00000  -0.00000
  46        4PY         0.00185  -0.02036  -0.02155  -0.01784  -0.00520
  47        4PZ        -0.01602  -0.01176   0.00705  -0.02155  -0.00300
  48        5PX        -0.00000  -0.00000  -0.00000   0.00000  -0.00000
  49        5PY        -0.17081  -0.41315  -0.54673  -0.22343   0.15153
  50        5PZ        -0.24323  -0.23875   0.40784  -0.54666   0.08744
                          16        17        18        19        20
                           V         V         V         V         V
     Eigenvalues --     0.25627   0.25627   0.34231   0.34233   0.38777
   1 1   C  1S         -0.00000   0.00000   0.00000   0.00001   0.00000
   2        2S         -0.00000   0.00000   0.00000   0.00002   0.00000
   3        3S          0.00000   0.00000   0.00000  -0.00083   0.00000
   4        4S          0.00000   0.00000   0.00000  -0.00011   0.00000
   5        5PX         0.00000   0.00001  -0.00000   0.00000   0.36856
   6        5PY         0.00000   0.00000  -0.18870   0.00000  -0.00000
   7        5PZ         0.00000   0.00000   0.00000  -0.18867   0.00000
   8        6PX         0.00000   0.00012  -0.00000   0.00000   1.91159
   9        6PY         0.00000  -0.00000  -3.95987   0.00000   0.00000
  10        6PZ        -0.00000   0.00000   0.00000  -3.96085   0.00000
  11        7PX         0.00000   0.00000  -0.00000   0.00000   0.85142
  12        7PY         0.00000  -0.00000  -3.61192   0.00000  -0.00000
  13        7PZ        -0.00000   0.00000   0.00000  -3.61197   0.00000
  14        8D 0       -0.00000   0.00000   0.00000  -0.06721   0.00000
  15        8D+1        0.00000   0.03781  -0.00000   0.00000  -0.00002
  16        8D-1        0.00000   0.00000   0.07761   0.00000   0.00000
  17        8D+2       -0.00000   0.00000   0.00000  -0.03879   0.00000
  18        8D-2        0.03781   0.00000   0.00000  -0.00000   0.00000
  19        9D 0       -0.00000   0.00000   0.00000  -0.58100   0.00000
  20        9D+1        0.00000  -0.10016   0.00000   0.00000   0.00031
  21        9D-1        0.00000   0.00000   0.67030   0.00000  -0.00000
  22        9D+2       -0.00000   0.00000   0.00000  -0.33538   0.00000
  23        9D-2       -0.10017   0.00000   0.00000   0.00000   0.00000
  24 2   H  1S          0.00000   0.00000   0.00000  -0.08612   0.00000
  25        2S          0.00000   0.00000   0.00000   6.68996   0.00000
  26        3S          0.00000   0.00000   0.00000   3.61060   0.00000
  27        4PX         0.00000  -0.00188  -0.00000   0.00000   0.02188
  28        4PY         0.00000   0.00000   0.01014   0.00000  -0.00000
  29        4PZ         0.00000   0.00000   0.00000  -0.02586   0.00000
  30        5PX         0.00000   1.14242   0.00000   0.00000  -1.29138
  31        5PY         0.00000  -0.00000   0.95758   0.00000   0.00000
  32        5PZ        -0.00000   0.00000   0.00000  -1.34537   0.00000
  33 3   H  1S         -0.00000   0.00000  -0.07456   0.04302  -0.00000
  34        2S         -0.00000   0.00000   5.79132  -3.34450  -0.00000
  35        3S         -0.00000   0.00000   3.12698  -1.80530   0.00000
  36        4PX        -0.00163   0.00094  -0.00000   0.00000   0.02188
  37        4PY         0.00000   0.00000  -0.01686   0.01559  -0.00000
  38        4PZ        -0.00000   0.00000   0.01559   0.00116   0.00000
  39        5PX         0.98943  -0.57131   0.00000  -0.00000  -1.29088
  40        5PY         0.00000  -0.00000  -0.76890   0.99676   0.00000
  41        5PZ        -0.00000   0.00000   0.99664   0.38154  -0.00000
  42 4   H  1S         -0.00000  -0.00000   0.07456   0.04302   0.00000
  43        2S         -0.00000  -0.00000  -5.79132  -3.34450   0.00000
  44        3S         -0.00000  -0.00000  -3.12698  -1.80530  -0.00000
  45        4PX         0.00163   0.00094  -0.00000  -0.00000   0.02188
  46        4PY        -0.00000   0.00000  -0.01686  -0.01559  -0.00000
  47        4PZ        -0.00000  -0.00000  -0.01559   0.00116  -0.00000
  48        5PX        -0.98943  -0.57131   0.00000   0.00000  -1.29088
  49        5PY        -0.00000  -0.00000  -0.76890  -0.99676   0.00000
  50        5PZ        -0.00000  -0.00000  -0.99664   0.38154   0.00000
                          21        22        23        24        25
                           V         V         V         V         V
     Eigenvalues --     0.39263   0.44922   0.45420   0.46063   0.46065
   1 1   C  1S          0.00000  -0.12773  -0.09135   0.00000   0.00010
   2        2S          0.00000  -0.02217  -0.01674   0.00000   0.00001
   3        3S          0.00000   7.93495   7.84008   0.00000  -0.00799
   4        4S          0.00000   8.32312   1.26462   0.00000  -0.00224
   5        5PX        -0.00000   0.00000   0.00000   0.00000   0.00000
   6        5PY        -0.00000   0.00000   0.00000   0.24079   0.00000
   7        5PZ         0.00000   0.00002   0.00018   0.00000   0.24090
   8        6PX        -0.00000   0.00000   0.00000   0.00000   0.00000
   9        6PY        -0.00009   0.00000   0.00000  -3.91874   0.00000
  10        6PZ         0.00000  -0.00013  -0.00431   0.00000  -3.91711
  11        7PX        -0.00000   0.00000   0.00000   0.00000   0.00000
  12        7PY         0.00018   0.00000   0.00000   0.37974   0.00000
  13        7PZ         0.00000  -0.00026   0.00005   0.00000   0.38076
  14        8D 0        0.00000   0.00902   0.02208   0.00000  -0.00257
  15        8D+1       -0.00000   0.00000   0.00000  -0.00000   0.00000
  16        8D-1       -0.00000   0.00000   0.00000   0.00295   0.00000
  17        8D+2        0.00000  -0.01562  -0.03825   0.00000  -0.00145
  18        8D-2        0.00000   0.00000   0.00000   0.00000  -0.00000
  19        9D 0        0.00000   0.61898  -0.41035   0.00000  -2.27599
[...]

              Baa    -0.5419   -72.712   -25.945   -24.254 -0.0000  1.0000 -0.0000
     1 C(13)  Bbb    -0.5419   -72.711   -25.945   -24.254  1.0000  0.0000  0.0000
              Bcc     1.0837   145.423    51.891    48.508  0.0000  0.0000  1.0000
 
              Baa    -0.0735   -39.217   -13.994   -13.081  1.0000  0.0000  0.0000
     2 H(1)   Bbb    -0.0016    -0.837    -0.298    -0.279  0.0000  0.0000  1.0000
              Bcc     0.0751    40.053    14.292    13.360 -0.0000  1.0000 -0.0000
 
              Baa    -0.0735   -39.217   -13.994   -13.081  0.5000  0.8660  0.0000
     3 H(1)   Bbb    -0.0016    -0.837    -0.299    -0.279  0.0000  0.0000  1.0000
              Bcc     0.0751    40.054    14.292    13.361  0.8660 -0.5000  0.0000
 
              Baa    -0.0735   -39.217   -13.994   -13.081 -0.5000  0.8660  0.0000
     4 H(1)   Bbb    -0.0016    -0.837    -0.299    -0.279  0.0000  0.0000  1.0000
              Bcc     0.0751    40.054    14.292    13.361  0.8660  0.5000 -0.0000
 

 ---------------------------------------------------------------------------------

 No NMR shielding tensors so no spin-rotation constants.
 Leave Link  601 at Sat Aug 17 17:56:08 2024, MaxMem=   13107200 cpu:       0.3
 (Enter /programs/64bit/g09/g09-gfortran/bin/l701.exe)
 Compute integral second derivatives.
 ... and contract with generalized density number  0.
 Leave Link  701 at Sat Aug 17 17:56:09 2024, MaxMem=   13107200 cpu:       0.2
 (Enter /programs/64bit/g09/g09-gfortran/bin/l702.exe)
 L702 exits ... SP integral derivatives will be done elsewhere.
 Leave Link  702 at Sat Aug 17 17:56:09 2024, MaxMem=   13107200 cpu:       0.0
 (Enter /programs/64bit/g09/g09-gfortran/bin/l703.exe)
 Compute integral second derivatives, UseDBF=F ICtDFT=           0.
 Integral derivatives from FoFDir, PRISM(SPDF).
 Calling FoFJK, ICntrl=    100127 FMM=F ISym2X=1 I1Cent= 0 IOpClX= 1 NMat=1 NMatS=1 NMatT=0.
 FoFCou: FMM=F IPFlag=           0 FMFlag=      100000 FMFlg1=         800
         NFxFlg=           0 DoJE=F BraDBF=F KetDBF=F FulRan=T
         Omega=  0.000000  0.000000  1.000000  0.000000  0.000000 ICntrl=  100127 IOpCl=  1
         NMat0=    1 NMatS0=    1 NMatT0=    0 NMatD0=    1 NMtDS0=    0 NMtDT0=    0
         I1Cent=           0 NGrid=           0.
 Petite list used in FoFCou.
 Leave Link  703 at Sat Aug 17 17:56:17 2024, MaxMem=   13107200 cpu:       8.4
 (Enter /programs/64bit/g09/g09-gfortran/bin/l716.exe)
 Dipole        =-5.01541007D-12-1.00571885D-05-1.03752622D-32
 Polarizability= 1.60776096D+01 2.54632265D-03 1.60834934D+01
                -3.53746018D-05-9.29896469D-05 1.60984369D+01
 Full mass-weighted force constant matrix:
 Low frequencies ---  -47.9754  -28.3893  -22.2645   -0.0006   -0.0005    0.0015
 Low frequencies ---  558.8181 1380.7780 1380.8065
 Diagonal vibrational polarizability:
        0.0472805       0.0473045       6.5312610
 Harmonic frequencies (cm**-1), IR intensities (KM/Mole), Raman scattering
 activities (A**4/AMU), depolarization ratios for plane and unpolarized
 incident light, reduced masses (AMU), force constants (mDyne/A),
 and normal coordinates:
                     1                      2                      3
                    A"                     A'                     A'
 Frequencies --   558.8174              1380.7780              1380.8065
 Red. masses --     1.2356                 1.1021                 1.1021
 Frc consts  --     0.2273                 1.2380                 1.2380
 IR Inten    --    75.7886                 2.6372                 2.6331
  Atom  AN      X      Y      Z        X      Y      Z        X      Y      Z
     1   6    -0.00   0.00   0.14     0.00   0.09  -0.00    -0.09   0.00  -0.00
     2   1     0.00   0.00  -0.57    -0.01   0.07   0.00     0.81   0.00   0.00
     3   1    -0.00  -0.00  -0.57    -0.38  -0.59   0.00     0.14   0.38   0.00
     4   1     0.00  -0.00  -0.57     0.38  -0.58   0.00     0.15  -0.39   0.00
                     4                      5                      6
                    A'                     A'                     A'
 Frequencies --  3104.8875              3294.9623              3294.9836
 Red. masses --     1.0078                 1.1184                 1.1183
 Frc consts  --     5.7244                 7.1537                 7.1536
 IR Inten    --     0.0000                 4.0786                 4.0690
  Atom  AN      X      Y      Z        X      Y      Z        X      Y      Z
     1   6     0.00   0.00  -0.00     0.10   0.01   0.00    -0.01   0.10   0.00
     2   1    -0.00   0.58   0.00     0.02  -0.10  -0.00    -0.00  -0.81  -0.00
     3   1     0.50  -0.29   0.00    -0.56   0.33  -0.00     0.43  -0.23  -0.00
     4   1    -0.50  -0.29   0.00    -0.65  -0.38  -0.00    -0.28  -0.14  -0.00

 -------------------
 - Thermochemistry -
 -------------------
 Temperature   298.150 Kelvin.  Pressure   1.00000 Atm.
 Atom     1 has atomic number  6 and mass  12.00000
 Atom     2 has atomic number  1 and mass   1.00783
 Atom     3 has atomic number  1 and mass   1.00783
 Atom     4 has atomic number  1 and mass   1.00783
 Molecular mass:    15.02348 amu.
 Principal axes and moments of inertia in atomic units:
                           1         2         3
     Eigenvalues --     6.38485   6.38485  12.76971
           X            0.00000   1.00000   0.00000
           Y            1.00000  -0.00000   0.00000
           Z           -0.00000   0.00000   1.00000
 This molecule is an oblate symmetric top.
 Rotational symmetry number  1.
 Rotational temperatures (Kelvin)     13.56551    13.56551     6.78276
 Rotational constants (GHZ):         282.65976   282.65974   141.32987
 Zero-point vibrational energy      77848.4 (Joules/Mol)
                                   18.60621 (Kcal/Mol)
 Warning -- explicit consideration of   1 degrees of freedom as
           vibrations may cause significant error
 Vibrational temperatures:    804.01  1986.63  1986.67  4467.23  4740.71
          (Kelvin)           4740.74
 
 Zero-point correction=                           0.029651 (Hartree/Particle)
 Thermal correction to Energy=                    0.032684
 Thermal correction to Enthalpy=                  0.033628
 Thermal correction to Gibbs Free Energy=         0.009858
 Sum of electronic and zero-point Energies=            -39.814701
 Sum of electronic and thermal Energies=               -39.811668
 Sum of electronic and thermal Enthalpies=             -39.810724
 Sum of electronic and thermal Free Energies=          -39.834494
 
                     E (Thermal)             CV                S
                      KCal/Mol        Cal/Mol-Kelvin    Cal/Mol-Kelvin
 Total                   20.509              7.308             50.028
 Electronic               0.000              0.000              1.377
 Translational            0.889              2.981             34.068
 Rotational               0.889              2.981             14.018
 Vibrational             18.732              1.347              0.565
 Vibration     1          0.914              1.120              0.526
                       Q            Log10(Q)             Ln(Q)
 Total Bot       0.292230D-04         -4.534275        -10.440555
 Total V=0       0.127103D+10          9.104157         20.963097
 Vib (Bot)       0.247170D-13        -13.607004        -31.331284
 Vib (Bot)    1  0.278448D+00         -0.555256         -1.278525
 Vib (V=0)       0.107505D+01          0.031428          0.072367
 Vib (V=0)    1  0.107231D+01          0.030318          0.069811
 Electronic      0.200000D+01          0.301030          0.693147
 Translational   0.228882D+07          6.359611         14.643545
 Rotational      0.258278D+03          2.412088          5.554038
 
                                    methyl with imposed symmetry and hf/aug-cc-pV
 DZ basis function
                                                             IR Spectrum
 
      3      3                                                                 1                                                     
      2      1                                                                 3                               5                     
      9      0                                                                 8                               5                     
      5      5                                                                 1                               9                     
 
      X                                                                        X                               X                     
      X                                                                                                        X                     
                                                                                                               X                     
                                                                                                               X                     
                                                                                                               X                     
                                                                                                               X                     
                                                                                                               X                     
                                                                                                               X                     
                                                                                                               X                     
                                                                                                               X                     
                                                                                                               X                     
                                                                                                               X                     
                                                                                                               X                     
                                                                                                               X                     
                                                                                                               X                     
                                                                                                               X                     
                                                                                                               X                     
                                                                                                               X                     
                                                                                                               X                     
                                                                                                               X                     
 
 ***** Axes restored to original set *****
 -------------------------------------------------------------------
 Center     Atomic                   Forces (Hartrees/Bohr)
 Number     Number              X              Y              Z
 -------------------------------------------------------------------
      1        6           0.000000001   -0.000000000    0.000000018
      2        1           0.000000000    0.000000000    0.000079165
      3        1           0.000068499   -0.000000000   -0.000039591
      4        1          -0.000068501    0.000000000   -0.000039592
 -------------------------------------------------------------------
 Cartesian Forces:  Max     0.000079165 RMS     0.000039567
 Force constants in Cartesian coordinates: 
                1             2             3             4             5 
      1  0.612779D+00
      2  0.000000D+00  0.285396D-01
      3  0.000000D+00  0.000000D+00  0.612695D+00
      4 -0.521035D-01  0.000000D+00  0.000000D+00  0.436737D-01
      5  0.000000D+00 -0.953577D-02  0.000000D+00  0.000000D+00  0.317352D-02
      6  0.000000D+00  0.000000D+00 -0.356403D+00  0.000000D+00  0.000000D+00
      7 -0.280339D+00  0.000000D+00  0.131743D+00  0.421497D-02  0.000000D+00
      8  0.000000D+00 -0.950194D-02  0.000000D+00  0.000000D+00  0.318113D-02
      9  0.131745D+00  0.000000D+00 -0.128145D+00  0.227974D-01  0.000000D+00
     10 -0.280337D+00  0.000000D+00 -0.131742D+00  0.421477D-02  0.000000D+00
     11  0.000000D+00 -0.950194D-02  0.000000D+00  0.000000D+00  0.318112D-02
     12 -0.131745D+00  0.000000D+00 -0.128147D+00 -0.227973D-01  0.000000D+00
                6             7             8             9            10 
      6  0.369108D+00
      7 -0.448944D-02  0.287766D+00
      8  0.000000D+00  0.000000D+00  0.311651D-02
      9 -0.635395D-02 -0.140898D+00  0.000000D+00  0.124999D+00
     10  0.448804D-02 -0.116423D-01  0.000000D+00 -0.136438D-01  0.287765D+00
     11  0.000000D+00  0.000000D+00  0.320430D-02  0.000000D+00  0.000000D+00
     12 -0.635186D-02  0.136446D-01  0.000000D+00  0.949965D-02  0.140898D+00
               11            12 
     11  0.311652D-02
     12  0.000000D+00  0.124999D+00
 Force constants in internal coordinates: 
                1             2             3             4             5 
      1  0.369108D+00
      2 -0.710979D-03  0.369096D+00
      3 -0.710812D-03 -0.709635D-03  0.369094D+00
      4  0.530688D-02  0.528637D-02 -0.106168D-01  0.615325D-01
      5  0.530598D-02 -0.106172D-01  0.528676D-02 -0.307667D-01  0.615326D-01
      6 -0.106129D-01  0.533082D-02  0.533004D-02 -0.307659D-01 -0.307659D-01
      7  0.000000D+00  0.000000D+00  0.000000D+00  0.000000D+00  0.000000D+00
                6             7 
      6  0.615318D-01
      7  0.000000D+00  0.100855D-01
 Leave Link  716 at Sat Aug 17 17:56:17 2024, MaxMem=   13107200 cpu:       0.0
 (Enter /programs/64bit/g09/g09-gfortran/bin/l103.exe)

 GradGradGradGradGradGradGradGradGradGradGradGradGradGradGradGradGradGrad
 Berny optimization.
 Internal  Forces:  Max     0.000079165 RMS     0.000051805
 Search for a local minimum.
 Step number   1 out of a maximum of    2
 All quantities printed in internal units (Hartrees-Bohrs-Radians)
 Second derivative matrix not updated -- analytic derivatives used.
 The second derivative matrix:
                          R1        R2        R3        A1        A2
           R1           0.36911
           R2          -0.00071   0.36910
           R3          -0.00071  -0.00071   0.36909
           A1           0.00531   0.00529  -0.01062   0.06153
           A2           0.00531  -0.01062   0.00529  -0.03077   0.06153
           A3          -0.01061   0.00533   0.00533  -0.03077  -0.03077
           D1           0.00000  -0.00000  -0.00000   0.00000   0.00000
                          A3        D1
           A3           0.06153
           D1          -0.00000   0.01009
     Eigenvalues ---    0.01009   0.09138   0.09139   0.36768   0.37071
     Eigenvalues ---    0.370731000.00000
 Angle between quadratic step and forces=   0.10 degrees.
 Linear search not attempted -- first point.
 Iteration  1 RMS(Cart)=  0.00014090 RMS(Int)=  0.00000000
 Iteration  2 RMS(Cart)=  0.00000000 RMS(Int)=  0.00000000
 ClnCor:  largest displacement from symmetrization is 2.75D-10 for atom     1.
 Variable       Old X    -DE/DX   Delta X   Delta X   Delta X     New X
                                 (Linear)    (Quad)   (Total)
    R1        2.05512   0.00008   0.00000   0.00022   0.00022   2.05533
    R2        2.05512   0.00008   0.00000   0.00022   0.00022   2.05534
    R3        2.05512   0.00008   0.00000   0.00022   0.00022   2.05534
    A1        2.09440   0.00000   0.00000   0.00000   0.00000   2.09440
    A2        2.09440   0.00000   0.00000   0.00000   0.00000   2.09440
    A3        2.09439  -0.00000   0.00000  -0.00000  -0.00000   2.09439
    D1        3.14159   0.00000   0.00000  -0.00000   0.00000   3.14159
         Item               Value     Threshold  Converged?
 Maximum Force            0.000079     0.000450     YES
 RMS     Force            0.000052     0.000300     YES
 Maximum Displacement     0.000216     0.001800     YES
 RMS     Displacement     0.000141     0.001200     YES
 Predicted change in Energy=-2.554742D-08
 Optimization completed.
    -- Stationary point found.
                           ----------------------------
                           !   Optimized Parameters   !
                           ! (Angstroms and Degrees)  !
 --------------------------                            --------------------------
 ! Name  Definition              Value          Derivative Info.                !
 --------------------------------------------------------------------------------
 ! R1    R(1,2)                  1.0875         -DE/DX =    0.0001              !
 ! R2    R(1,3)                  1.0875         -DE/DX =    0.0001              !
 ! R3    R(1,4)                  1.0875         -DE/DX =    0.0001              !
 ! A1    A(2,1,3)              120.0001         -DE/DX =    0.0                 !
 ! A2    A(2,1,4)              120.0001         -DE/DX =    0.0                 !
 ! A3    A(3,1,4)              119.9998         -DE/DX =    0.0                 !
 ! D1    D(2,1,4,3)            180.0            -DE/DX =    0.0                 !
 --------------------------------------------------------------------------------
 GradGradGradGradGradGradGradGradGradGradGradGradGradGradGradGradGradGrad

 Leave Link  103 at Sat Aug 17 17:56:17 2024, MaxMem=   13107200 cpu:       0.0
 (Enter /programs/64bit/g09/g09-gfortran/bin/l9999.exe)
 1\1\GINC-MOLMOD\Freq\UB3LYP\Aug-CC-pVDZ\C1H3(2)\OSPITE\17-Aug-2024\0\\
 #P Geom=AllCheck Guess=TCheck SCRF=Check GenChk UB3LYP/Aug-CC-pVDZ Fre
 q\\methyl with imposed symmetry and hf/aug-cc-pVDZ basis function\\0,2
 \C,0.,0.,0.0000013993\H,0.,0.,1.0875224634\H,0.9418224391,0.,-0.543761
 9313\H,-0.9418224391,0.,-0.5437619313\\Version=EM64L-G09RevA.02\State=
 2-A"\HF=-39.8443517\S2=0.753518\S2-1=0.\S2A=0.750006\RMSD=2.213e-10\RM
 SF=3.957e-05\ZeroPoint=0.0296509\Thermal=0.0326836\Dipole=0.,0.,-0.000
 0101\DipoleDeriv=0.018608,-0.000001,-0.0000663,-0.0000012,-0.4332962,-
 0.000003,-0.0000839,-0.0000022,0.0184311,0.0413758,-0.0000002,-0.00001
 49,0.0000003,0.1445624,-0.0000004,0.0000782,0.0000021,-0.0536887,-0.02
 99915,0.,0.0412608,0.0000008,0.144367,0.0000032,0.0412371,0.0000003,0.
 0176468,-0.0299923,0.0000011,-0.0411796,0.0000002,0.1443669,0.0000002,
 -0.0412314,-0.0000002,0.0176107\Polar=16.0776096,0.0000354,16.0984369,
 0.0025464,0.000093,16.0834933\PG=CS [SG(C1H3)]\NImag=0\\0.61277941,-0.
 00000003,0.02853965,-0.00000075,-0.00000006,0.61269464,-0.05210345,0.,
 -0.00000065,0.04367371,-0.00000002,-0.00953577,-0.00000007,0.,0.003173
 52,0.00000080,0.00000006,-0.35640264,0.00000060,0.00000006,0.36910845,
 -0.28033886,0.,0.13174318,0.00421497,0.00000004,-0.00448944,0.28776616
 ,0.00000005,-0.00950194,0.00000014,0.,0.00318113,-0.00000013,-0.000000
 05,0.00311651,0.13174480,0.00000001,-0.12814484,0.02279736,0.,-0.00635
 395,-0.14089831,0.,0.12499914,-0.28033709,0.00000004,-0.13174177,0.004
 21477,-0.00000003,0.00448804,-0.01164227,0.,-0.01364385,0.28776459,0.,
 -0.00950194,-0.00000001,0.,0.00318112,0.,0.00000001,0.00320430,0.,-0.0
 0000001,0.00311652,-0.13174485,0.,-0.12814717,-0.02279730,0.00000002,-
 0.00635186,0.01364457,-0.00000001,0.00949965,0.14089758,0.,0.12499937\
 \0.,0.,-0.00000002,0.,0.,-0.00007916,-0.00006850,0.,0.00003959,0.00006
 850,0.,0.00003959\\\@


  THE LARGE PRINT GIVETH,
  AND THE SMALL PRINT TAKETH AWAY.

                     -- TOM WAITES
 Job cpu time:  0 days  0 hours  0 minutes 59.9 seconds.
 File lengths (MBytes):  RWF=      5 Int=      0 D2E=      0 Chk=      1 Scr=      1
 Normal termination of Gaussian 09 at Sat Aug 17 17:56:17 2024.
