 Entering Gaussian System, Link 0=/programs/64bit/g09/g09-gfortran/bin/g09
 Input=ch3_cc-pVTZ.com
 Output=ch3_cc-pVTZ.log
 Initial command:
 /programs/64bit/g09/g09-gfortran/bin/l1.exe /home/ospite/Desktop/MMfP/Project6/CH3/g09/DFT/B3LYP/Gau-17582.inp -scrdir=/home/ospite/Desktop/MMfP/Project6/CH3/g09/DFT/B3LYP/
 Entering Link 1 = /programs/64bit/g09/g09-gfortran/bin/l1.exe PID=     17583.
  
 Copyright (c) 1988,1990,1992,1993,1995,1998,2003,2009, Gaussian, Inc.
                  All Rights Reserved.
  
 This is part of the Gaussian(R) 09 program.  It is based on
 the Gaussian(R) 03 system (copyright 2003, Gaussian, Inc.),
 the Gaussian(R) 98 system (copyright 1998, Gaussian, Inc.),
 the Gaussian(R) 94 system (copyright 1995, Gaussian, Inc.),
 the Gaussian 92(TM) system (copyright 1992, Gaussian, Inc.),
 the Gaussian 90(TM) system (copyright 1990, Gaussian, Inc.),
 the Gaussian 88(TM) system (copyright 1988, Gaussian, Inc.),
 the Gaussian 86(TM) system (copyright 1986, Carnegie Mellon
 University), and the Gaussian 82(TM) system (copyright 1983,
 Carnegie Mellon University). Gaussian is a federally registered
 trademark of Gaussian, Inc.
  
 This software contains proprietary and confidential information,
 including trade secrets, belonging to Gaussian, Inc.
  
 This software is provided under written license and may be
 used, copied, transmitted, or stored only in accord with that
 written license.
  
 The following legend is applicable only to US Government
 contracts under FAR:
  
                    RESTRICTED RIGHTS LEGEND
  
 Use, reproduction and disclosure by the US Government is
 subject to restrictions as set forth in subparagraphs (a)
 and (c) of the Commercial Computer Software - Restricted
 Rights clause in FAR 52.227-19.
  
 Gaussian, Inc.
 340 Quinnipiac St., Bldg. 40, Wallingford CT 06492
  
  
 ---------------------------------------------------------------
 Warning -- This program may not be used in any manner that
 competes with the business of Gaussian, Inc. or will provide
 assistance to any competitor of Gaussian, Inc.  The licensee
 of this program is prohibited from giving any competitor of
 Gaussian, Inc. access to this program.  By using this program,
 the user acknowledges that Gaussian, Inc. is engaged in the
 business of creating and licensing software in the field of
 computational chemistry and represents and warrants to the
 licensee that it is not a competitor of Gaussian, Inc. and that
 it will not use this program in any manner prohibited above.
 ---------------------------------------------------------------
  

 Cite this work as:
 Gaussian 09, Revision A.02,
 M. J. Frisch, G. W. Trucks, H. B. Schlegel, G. E. Scuseria, 
 M. A. Robb, J. R. Cheeseman, G. Scalmani, V. Barone, B. Mennucci, 
 G. A. Petersson, H. Nakatsuji, M. Caricato, X. Li, H. P. Hratchian, 
 A. F. Izmaylov, J. Bloino, G. Zheng, J. L. Sonnenberg, M. Hada, 
 M. Ehara, K. Toyota, R. Fukuda, J. Hasegawa, M. Ishida, T. Nakajima, 
 Y. Honda, O. Kitao, H. Nakai, T. Vreven, J. A. Montgomery, Jr., 
 J. E. Peralta, F. Ogliaro, M. Bearpark, J. J. Heyd, E. Brothers, 
 K. N. Kudin, V. N. Staroverov, R. Kobayashi, J. Normand, 
 K. Raghavachari, A. Rendell, J. C. Burant, S. S. Iyengar, J. Tomasi, 
 M. Cossi, N. Rega, J. M. Millam, M. Klene, J. E. Knox, J. B. Cross, 
 V. Bakken, C. Adamo, J. Jaramillo, R. Gomperts, R. E. Stratmann, 
 O. Yazyev, A. J. Austin, R. Cammi, C. Pomelli, J. W. Ochterski, 
 R. L. Martin, K. Morokuma, V. G. Zakrzewski, G. A. Voth, 
 P. Salvador, J. J. Dannenberg, S. Dapprich, A. D. Daniels, 
 O. Farkas, J. B. Foresman, J. V. Ortiz, J. Cioslowski, 
 and D. J. Fox, Gaussian, Inc., Wallingford CT, 2009.
 
 ******************************************
 Gaussian 09:  EM64L-G09RevA.02 11-Jun-2009
                17-Aug-2024 
 ******************************************
 %mem=100MB
 -------------------------------------------------------------------
 #p b3lyp/cc-pVTZ opt freq symmetry=(follow,pg=C3v) pop=full gfinput
 -------------------------------------------------------------------
 1/14=-1,18=20,19=15,26=3,38=1/1,3;
 2/9=110,12=2,17=6,18=5,19=2314885530821997379,40=1/2;
 3/5=16,6=1,11=2,16=1,24=10,25=1,30=1,71=1,74=-5/1,2,3;
 4//1;
 5/5=2,38=5/2;
 6/7=3,28=1/1;
 7//1,2,3,16;
 1/14=-1,18=20,19=15/3(2);
 2/9=110,15=5,19=2314885530821997379/2;
 99//99;
 2/9=110,15=5,19=2314885530821997379/2;
 3/5=16,6=1,11=2,16=1,25=1,30=1,71=1,74=-5/1,2,3;
 4/5=5,16=3/1;
 5/5=2,38=5/2;
 7//1,2,3,16;
 1/14=-1,18=20,19=15/3(-5);
 2/9=110,15=5,19=2314885530821997379/2;
 6/7=3,19=2,28=1/1;
 99/9=1/99;
 Leave Link    1 at Sat Aug 17 23:30:20 2024, MaxMem=   13107200 cpu:       0.1
 (Enter /programs/64bit/g09/g09-gfortran/bin/l101.exe)
 --------------------------------------------------
 methyl with imposed symmetry and cc-pVTZ basis set
 --------------------------------------------------
 Symbolic Z-matrix:
 Charge =  0 Multiplicity = 2
 C1
 H2                   1    d
 H3                   1    d        2    a
 H4                   1    d        2    -a       3    t        0
       Variables:
  d                     1.09                     
  a                   120.                       
  t                     0.                       
 
 NAtoms=      4 NQM=      4 NQMF=      0 NMic=      0 NMicF=      0 NTot=      4.
                    Isotopes and Nuclear Properties:
 (Nuclear quadrupole moments (NQMom) in fm**2, nuclear magnetic moments (NMagM)
  in nuclear magnetons)

  Atom         1           2           3           4
 IAtWgt=          12           1           1           1
 AtmWgt=  12.0000000   1.0078250   1.0078250   1.0078250
 NucSpn=           0           1           1           1
 AtZEff=   0.0000000   0.0000000   0.0000000   0.0000000
 NQMom=    0.0000000   0.0000000   0.0000000   0.0000000
 NMagM=    0.0000000   2.7928460   2.7928460   2.7928460
 Leave Link  101 at Sat Aug 17 23:30:20 2024, MaxMem=   13107200 cpu:       0.1
 (Enter /programs/64bit/g09/g09-gfortran/bin/l103.exe)

 GradGradGradGradGradGradGradGradGradGradGradGradGradGradGradGradGradGrad
 Berny optimization.
 Initialization pass.
                           ----------------------------
                           !    Initial Parameters    !
                           ! (Angstroms and Degrees)  !
 --------------------------                            --------------------------
 ! Name  Definition              Value          Derivative Info.                !
 --------------------------------------------------------------------------------
 ! R1    R(1,2)                  1.09           estimate D2E/DX2                !
 ! R2    R(1,3)                  1.09           estimate D2E/DX2                !
 ! R3    R(1,4)                  1.09           estimate D2E/DX2                !
 ! A1    A(2,1,3)              120.0            estimate D2E/DX2                !
 ! A2    A(2,1,4)              120.0            estimate D2E/DX2                !
 ! A3    A(3,1,4)              120.0            estimate D2E/DX2                !
 ! D1    D(2,1,4,3)            180.0            estimate D2E/DX2                !
 --------------------------------------------------------------------------------
 Trust Radius=3.00D-01 FncErr=1.00D-07 GrdErr=1.00D-06
 Number of steps in this run=  20 maximum allowed number of steps= 100.
 GradGradGradGradGradGradGradGradGradGradGradGradGradGradGradGradGradGrad

 Leave Link  103 at Sat Aug 17 23:30:20 2024, MaxMem=   13107200 cpu:       0.0
 (Enter /programs/64bit/g09/g09-gfortran/bin/l202.exe)
                          Input orientation:                          
 ---------------------------------------------------------------------
 Center     Atomic      Atomic             Coordinates (Angstroms)
 Number     Number       Type             X           Y           Z
 ---------------------------------------------------------------------
      1          6           0        0.000000    0.000000    0.000000
      2          1           0        0.000000    0.000000    1.090000
      3          1           0        0.943968    0.000000   -0.545000
      4          1           0       -0.943968    0.000000   -0.545000
 ---------------------------------------------------------------------
                    Distance matrix (angstroms):
                    1          2          3          4
     1  C    0.000000
     2  H    1.090000   0.000000
     3  H    1.090000   1.887935   0.000000
     4  H    1.090000   1.887935   1.887935   0.000000
 Symm:  InNGrp=C3V  InAxis=0.
 This structure is nearly, but not quite of a higher symmetry.
 Consider Symm=Loose if the higher symmetry is desired.
 Stoichiometry    CH3(2)
 Framework group  C2[C2(CH),X(H2)]
 Deg. of freedom     3
 Full point group                 C2      NOp   2
 Largest Abelian subgroup         C2      NOp   2
 Largest concise Abelian subgroup C2      NOp   2
                         Standard orientation:                         
 ---------------------------------------------------------------------
 Center     Atomic      Atomic             Coordinates (Angstroms)
 Number     Number       Type             X           Y           Z
 ---------------------------------------------------------------------
      1          6           0        0.000000    0.000000    0.000000
      2          1           0        0.000000    0.000000    1.090000
      3          1           0        0.000000    0.943968   -0.545000
      4          1           0       -0.000000   -0.943968   -0.545000
 ---------------------------------------------------------------------
 Rotational constants (GHZ):    281.3764836    281.3764836    140.6882418
 Leave Link  202 at Sat Aug 17 23:30:20 2024, MaxMem=   13107200 cpu:       0.0
 (Enter /programs/64bit/g09/g09-gfortran/bin/l301.exe)
 Standard basis: CC-pVTZ (5D, 7F)
 Ernie: Thresh=  0.10000D-02 Tol=  0.10000D-05 Strict=F.
 Ernie:  3 primitive shells out of 50 were deleted.
 AO basis set in the form of general basis input (Overlap normalization):
      1 0
 S   7 1.00       0.000000000000
      0.8236000000D+04  0.5419783203D-03
      0.1235000000D+04  0.4192873817D-02
      0.2808000000D+03  0.2152216205D-01
      0.7927000000D+02  0.8353432195D-01
      0.2559000000D+02  0.2395828457D+00
      0.8997000000D+01  0.4428528419D+00
      0.3319000000D+01  0.3517995618D+00
 S   6 1.00       0.000000000000
      0.2808000000D+03 -0.5949224937D-04
      0.7927000000D+02 -0.1148158310D-02
      0.2559000000D+02 -0.1001913745D-01
      0.8997000000D+01 -0.6121949230D-01
      0.3319000000D+01 -0.1732698541D+00
      0.3643000000D+00  0.1072915192D+01
 S   1 1.00       0.000000000000
      0.9059000000D+00  0.1000000000D+01
 S   1 1.00       0.000000000000
      0.1285000000D+00  0.1000000000D+01
 P   3 1.00       0.000000000000
      0.1871000000D+02  0.3942638716D-01
      0.4133000000D+01  0.2440889849D+00
      0.1200000000D+01  0.8154920089D+00
 P   1 1.00       0.000000000000
      0.3827000000D+00  0.1000000000D+01
 P   1 1.00       0.000000000000
      0.1209000000D+00  0.1000000000D+01
 D   1 1.00       0.000000000000
      0.1097000000D+01  0.1000000000D+01
 D   1 1.00       0.000000000000
      0.3180000000D+00  0.1000000000D+01
 F   1 1.00       0.000000000000
      0.7610000000D+00  0.1000000000D+01
 ****
      2 0
 S   3 1.00       0.000000000000
      0.3387000000D+02  0.2549486323D-01
      0.5095000000D+01  0.1903627659D+00
      0.1159000000D+01  0.8521620222D+00
 S   1 1.00       0.000000000000
      0.3258000000D+00  0.1000000000D+01
 S   1 1.00       0.000000000000
      0.1027000000D+00  0.1000000000D+01
 P   1 1.00       0.000000000000
      0.1407000000D+01  0.1000000000D+01
 P   1 1.00       0.000000000000
      0.3880000000D+00  0.1000000000D+01
 D   1 1.00       0.000000000000
      0.1057000000D+01  0.1000000000D+01
 ****
      3 0
 S   3 1.00       0.000000000000
      0.3387000000D+02  0.2549486323D-01
      0.5095000000D+01  0.1903627659D+00
      0.1159000000D+01  0.8521620222D+00
 S   1 1.00       0.000000000000
      0.3258000000D+00  0.1000000000D+01
 S   1 1.00       0.000000000000
      0.1027000000D+00  0.1000000000D+01
 P   1 1.00       0.000000000000
      0.1407000000D+01  0.1000000000D+01
 P   1 1.00       0.000000000000
      0.3880000000D+00  0.1000000000D+01
 D   1 1.00       0.000000000000
      0.1057000000D+01  0.1000000000D+01
 ****
      4 0
 S   3 1.00       0.000000000000
      0.3387000000D+02  0.2549486323D-01
      0.5095000000D+01  0.1903627659D+00
      0.1159000000D+01  0.8521620222D+00
 S   1 1.00       0.000000000000
      0.3258000000D+00  0.1000000000D+01
 S   1 1.00       0.000000000000
      0.1027000000D+00  0.1000000000D+01
 P   1 1.00       0.000000000000
      0.1407000000D+01  0.1000000000D+01
 P   1 1.00       0.000000000000
      0.3880000000D+00  0.1000000000D+01
 D   1 1.00       0.000000000000
      0.1057000000D+01  0.1000000000D+01
 ****

 There are    38 symmetry adapted basis functions of A   symmetry.
 There are    34 symmetry adapted basis functions of B   symmetry.
 Integral buffers will be    131072 words long.
 Raffenetti 2 integral format.
 Two-electron integral symmetry is turned on.
    72 basis functions,   103 primitive gaussians,    80 cartesian basis functions
     5 alpha electrons        4 beta electrons
       nuclear repulsion energy         9.5795885928 Hartrees.
 IExCor=  402 DFT=T Ex+Corr=B3LYP ExCW=0 ScaHFX=  0.200000
 ScaDFX=  0.800000  0.720000  1.000000  0.810000 ScalE2=  1.000000  1.000000
 IRadAn=      0 IRanWt=     -1 IRanGd=            0 ICorTp=0
 NAtoms=    4 NActive=    4 NUniq=    3 SFac= 1.33D+00 NAtFMM=   80 NAOKFM=F Big=F
 Leave Link  301 at Sat Aug 17 23:30:20 2024, MaxMem=   13107200 cpu:       0.1
 (Enter /programs/64bit/g09/g09-gfortran/bin/l302.exe)
 NPDir=0 NMtPBC=     1 NCelOv=     1 NCel=       1 NClECP=     1 NCelD=      1
         NCelK=      1 NCelE2=     1 NClLst=     1 CellRange=     0.0.
 One-electron integrals computed using PRISM.
 One-electron integral symmetry used in STVInt
 NBasis=    72 RedAO= T  NBF=    38    34
 NBsUse=    72 1.00D-06 NBFU=    38    34
 Precomputing XC quadrature grid using
 IXCGrd= 2 IRadAn=           0 IRanWt=          -1 IRanGd=           0 AccXCQ= 1.00D-10.
 NRdTot=     247 NPtTot=       31236 NUsed=       33030 NTot=       33062
 NSgBfM=    80    80    80    80    80 NAtAll=     4     4.
 Leave Link  302 at Sat Aug 17 23:30:20 2024, MaxMem=   13107200 cpu:       0.2
 (Enter /programs/64bit/g09/g09-gfortran/bin/l303.exe)
 DipDrv:  MaxL=1.
 Leave Link  303 at Sat Aug 17 23:30:20 2024, MaxMem=   13107200 cpu:       0.0
 (Enter /programs/64bit/g09/g09-gfortran/bin/l401.exe)
 Harris functional with IExCor=  402 diagonalized for initial guess.
 ExpMin= 1.03D-01 ExpMax= 8.24D+03 ExpMxC= 2.81D+02 IAcc=1 IRadAn=         1 AccDes= 0.00D+00
 HarFok:  IExCor=  402 AccDes= 0.00D+00 IRadAn=         1 IDoV= 1
 ScaDFX=  1.000000  1.000000  1.000000  1.000000
 FoFCou: FMM=F IPFlag=           0 FMFlag=      100000 FMFlg1=           0
         NFxFlg=           0 DoJE=T BraDBF=F KetDBF=T FulRan=T
         Omega=  0.000000  0.000000  1.000000  0.000000  0.000000 ICntrl=     500 IOpCl=  0
         NMat0=    1 NMatS0=    1 NMatT0=    0 NMatD0=    1 NMtDS0=    0 NMtDT0=    0
         I1Cent=           4 NGrid=           0.
 Petite list used in FoFCou.
 Harris En= -39.8571541124136    
 Initial guess orbital symmetries:
 Alpha Orbitals:
       Occupied  (A) (A) (B) (A) (B)
       Virtual   (A) (A) (B) (A) (B) (B) (A) (A) (B) (A) (A) (B)
                 (B) (A) (A) (B) (B) (B) (A) (B) (A) (A) (B) (A)
                 (B) (A) (A) (B) (A) (B) (B) (A) (B) (A) (B) (B)
                 (A) (B) (A) (A) (A) (B) (A) (A) (B) (B) (A) (B)
                 (A) (B) (B) (A) (B) (A) (B) (A) (A) (B) (A) (B)
                 (B) (A) (A) (A) (B) (B) (A)
 Beta  Orbitals:
       Occupied  (A) (A) (B) (A)
       Virtual   (B) (A) (A) (B) (A) (B) (B) (A) (A) (B) (A) (A)
                 (B) (B) (A) (A) (B) (B) (B) (A) (B) (A) (A) (B)
                 (A) (B) (A) (A) (B) (A) (B) (B) (A) (B) (A) (B)
                 (B) (A) (B) (A) (A) (A) (B) (A) (A) (B) (B) (A)
                 (B) (A) (B) (B) (A) (B) (A) (B) (A) (A) (B) (A)
                 (B) (B) (A) (A) (A) (B) (B) (A)
 The electronic state of the initial guess is 2-B.
 Initial guess <Sx>= 0.0000 <Sy>= 0.0000 <Sz>= 0.5000 <S**2>= 0.7500 S= 0.5000
 Leave Link  401 at Sat Aug 17 23:30:22 2024, MaxMem=   13107200 cpu:       0.7
 (Enter /programs/64bit/g09/g09-gfortran/bin/l502.exe)
 UHF open shell SCF:
 Requested convergence on RMS density matrix=1.00D-08 within 128 cycles.
 Requested convergence on MAX density matrix=1.00D-06.
 Requested convergence on             energy=1.00D-06.
 No special actions if energy rises.
 Using DIIS extrapolation, IDIIS=  1040.
 Integral symmetry usage will be decided dynamically.
        32981 words used for storage of precomputed grid.
 Keep R1 and R2 ints in memory in canonical form, NReq=12512356.
 IEnd=       71495 IEndB=       71495 NGot=    13107200 MDV=     2557958
 LenX=     2557958 LenY=     2551117
 Symmetry not used in FoFDir.
 MinBra= 0 MaxBra= 3 Meth= 1.
 IRaf=       0 NMat=   1 IRICut=       1 DoRegI=T DoRafI=F ISym2E= 0 JSym2E=0.
 Integral accuracy reduced to 1.0D-05 until final iterations.

 Cycle   1  Pass 0  IDiag  1:
 E= -39.8095790050167    
 DIIS: error= 3.55D-02 at cycle   1 NSaved=   1.
 NSaved= 1 IEnMin= 1 EnMin= -39.8095790050167     IErMin= 1 ErrMin= 3.55D-02
 ErrMax= 3.55D-02 EMaxC= 1.00D-01 BMatC= 1.85D-01 BMatP= 1.85D-01
 IDIUse=3 WtCom= 6.45D-01 WtEn= 3.55D-01
 Coeff-Com:  0.100D+01
 Coeff-En:   0.100D+01
 Coeff:      0.100D+01
 Gap=     0.209 Goal=   None    Shift=    0.000
 Gap=     0.366 Goal=   None    Shift=    0.000
 GapD=    0.209 DampG=1.000 DampE=0.500 DampFc=0.5000 IDamp=-1.
 Damping current iteration by 5.00D-01
 RMSDP=3.50D-03 MaxDP=1.46D-01              OVMax= 1.59D-01

 Cycle   2  Pass 0  IDiag  1:
 E= -39.8329126649404     Delta-E=       -0.023333659924 Rises=F Damp=T
 DIIS: error= 8.42D-03 at cycle   2 NSaved=   2.
 NSaved= 2 IEnMin= 2 EnMin= -39.8329126649404     IErMin= 2 ErrMin= 8.42D-03
 ErrMax= 8.42D-03 EMaxC= 1.00D-01 BMatC= 6.86D-03 BMatP= 1.85D-01
 IDIUse=3 WtCom= 9.16D-01 WtEn= 8.42D-02
 Coeff-Com:  0.116D-01 0.988D+00
 Coeff-En:   0.199D-01 0.980D+00
 Coeff:      0.123D-01 0.988D+00
 Gap=     0.279 Goal=   None    Shift=    0.000
 Gap=     0.339 Goal=   None    Shift=    0.000
 RMSDP=4.55D-04 MaxDP=1.75D-02 DE=-2.33D-02 OVMax= 9.26D-02

 Cycle   3  Pass 0  IDiag  1:
 E= -39.8582935264980     Delta-E=       -0.025380861558 Rises=F Damp=F
 DIIS: error= 1.55D-03 at cycle   3 NSaved=   3.
 NSaved= 3 IEnMin= 3 EnMin= -39.8582935264980     IErMin= 3 ErrMin= 1.55D-03
 ErrMax= 1.55D-03 EMaxC= 1.00D-01 BMatC= 2.62D-04 BMatP= 6.86D-03
 IDIUse=3 WtCom= 9.84D-01 WtEn= 1.55D-02
 Coeff-Com: -0.294D-01 0.454D-01 0.984D+00
 Coeff-En:   0.000D+00 0.000D+00 0.100D+01
 Coeff:     -0.289D-01 0.447D-01 0.984D+00
 Gap=     0.282 Goal=   None    Shift=    0.000
 Gap=     0.340 Goal=   None    Shift=    0.000
 RMSDP=7.98D-05 MaxDP=2.44D-03 DE=-2.54D-02 OVMax= 4.73D-03

 Cycle   4  Pass 0  IDiag  1:
 E= -39.8583833388062     Delta-E=       -0.000089812308 Rises=F Damp=F
 DIIS: error= 2.56D-04 at cycle   4 NSaved=   4.
 NSaved= 4 IEnMin= 4 EnMin= -39.8583833388062     IErMin= 4 ErrMin= 2.56D-04
 ErrMax= 2.56D-04 EMaxC= 1.00D-01 BMatC= 8.41D-06 BMatP= 2.62D-04
 IDIUse=3 WtCom= 9.97D-01 WtEn= 2.56D-03
 Coeff-Com:  0.347D-02-0.209D-01-0.182D+00 0.120D+01
 Coeff-En:   0.000D+00 0.000D+00 0.000D+00 0.100D+01
 Coeff:      0.346D-02-0.209D-01-0.181D+00 0.120D+01
 Gap=     0.283 Goal=   None    Shift=    0.000
 Gap=     0.340 Goal=   None    Shift=    0.000
 RMSDP=3.04D-05 MaxDP=8.92D-04 DE=-8.98D-05 OVMax= 1.25D-03

 Cycle   5  Pass 0  IDiag  1:
 E= -39.8583895125701     Delta-E=       -0.000006173764 Rises=F Damp=F
 DIIS: error= 5.46D-05 at cycle   5 NSaved=   5.
 NSaved= 5 IEnMin= 5 EnMin= -39.8583895125701     IErMin= 5 ErrMin= 5.46D-05
 ErrMax= 5.46D-05 EMaxC= 1.00D-01 BMatC= 4.97D-07 BMatP= 8.41D-06
 IDIUse=1 WtCom= 1.00D+00 WtEn= 0.00D+00
 Coeff-Com:  0.796D-03 0.406D-02-0.178D-02-0.295D+00 0.129D+01
 Coeff:      0.796D-03 0.406D-02-0.178D-02-0.295D+00 0.129D+01
 Gap=     0.283 Goal=   None    Shift=    0.000
 Gap=     0.340 Goal=   None    Shift=    0.000
 RMSDP=8.72D-06 MaxDP=1.98D-04 DE=-6.17D-06 OVMax= 3.57D-04

 Initial convergence to 1.0D-05 achieved.  Increase integral accuracy.
 Cycle   6  Pass 1  IDiag  1:
 E= -39.8583941960250     Delta-E=       -0.000004683455 Rises=F Damp=F
 DIIS: error= 7.55D-06 at cycle   1 NSaved=   1.
 NSaved= 1 IEnMin= 1 EnMin= -39.8583941960250     IErMin= 1 ErrMin= 7.55D-06
 ErrMax= 7.55D-06 EMaxC= 1.00D-01 BMatC= 1.48D-08 BMatP= 1.48D-08
 IDIUse=1 WtCom= 1.00D+00 WtEn= 0.00D+00
 Coeff-Com:  0.100D+01
 Coeff:      0.100D+01
 Gap=     0.283 Goal=   None    Shift=    0.000
 Gap=     0.340 Goal=   None    Shift=    0.000
 RMSDP=8.72D-06 MaxDP=1.98D-04 DE=-4.68D-06 OVMax= 5.06D-05

 Cycle   7  Pass 1  IDiag  1:
 E= -39.8583942017105     Delta-E=       -0.000000005685 Rises=F Damp=F
 DIIS: error= 6.13D-06 at cycle   2 NSaved=   2.
 NSaved= 2 IEnMin= 2 EnMin= -39.8583942017105     IErMin= 2 ErrMin= 6.13D-06
 ErrMax= 6.13D-06 EMaxC= 1.00D-01 BMatC= 2.99D-09 BMatP= 1.48D-08
 IDIUse=1 WtCom= 1.00D+00 WtEn= 0.00D+00
 Coeff-Com:  0.119D+00 0.881D+00
 Coeff:      0.119D+00 0.881D+00
 Gap=     0.283 Goal=   None    Shift=    0.000
 Gap=     0.340 Goal=   None    Shift=    0.000
 RMSDP=3.96D-07 MaxDP=9.30D-06 DE=-5.69D-09 OVMax= 2.33D-05

 Cycle   8  Pass 1  IDiag  1:
 E= -39.8583942024307     Delta-E=       -0.000000000720 Rises=F Damp=F
 DIIS: error= 3.95D-06 at cycle   3 NSaved=   3.
 NSaved= 3 IEnMin= 3 EnMin= -39.8583942024307     IErMin= 3 ErrMin= 3.95D-06
 ErrMax= 3.95D-06 EMaxC= 1.00D-01 BMatC= 1.61D-09 BMatP= 2.99D-09
 IDIUse=1 WtCom= 1.00D+00 WtEn= 0.00D+00
 Coeff-Com: -0.118D+00 0.436D+00 0.682D+00
 Coeff:     -0.118D+00 0.436D+00 0.682D+00
 Gap=     0.283 Goal=   None    Shift=    0.000
 Gap=     0.340 Goal=   None    Shift=    0.000
 RMSDP=1.95D-07 MaxDP=7.87D-06 DE=-7.20D-10 OVMax= 1.06D-05

 Cycle   9  Pass 1  IDiag  1:
 E= -39.8583942029194     Delta-E=       -0.000000000489 Rises=F Damp=F
 DIIS: error= 4.64D-07 at cycle   4 NSaved=   4.
 NSaved= 4 IEnMin= 4 EnMin= -39.8583942029194     IErMin= 4 ErrMin= 4.64D-07
 ErrMax= 4.64D-07 EMaxC= 1.00D-01 BMatC= 2.57D-11 BMatP= 1.61D-09
 IDIUse=1 WtCom= 1.00D+00 WtEn= 0.00D+00
 Coeff-Com:  0.230D-02-0.130D+00-0.130D+00 0.126D+01
 Coeff:      0.230D-02-0.130D+00-0.130D+00 0.126D+01
 Gap=     0.283 Goal=   None    Shift=    0.000
 Gap=     0.340 Goal=   None    Shift=    0.000
 RMSDP=6.37D-08 MaxDP=1.07D-06 DE=-4.89D-10 OVMax= 2.91D-06

 Cycle  10  Pass 1  IDiag  1:
 E= -39.8583942029402     Delta-E=       -0.000000000021 Rises=F Damp=F
 DIIS: error= 6.80D-08 at cycle   5 NSaved=   5.
 NSaved= 5 IEnMin= 5 EnMin= -39.8583942029402     IErMin= 5 ErrMin= 6.80D-08
 ErrMax= 6.80D-08 EMaxC= 1.00D-01 BMatC= 4.78D-13 BMatP= 2.57D-11
 IDIUse=1 WtCom= 1.00D+00 WtEn= 0.00D+00
 Coeff-Com:  0.309D-02-0.945D-02-0.120D-01-0.413D-01 0.106D+01
 Coeff:      0.309D-02-0.945D-02-0.120D-01-0.413D-01 0.106D+01
 Gap=     0.283 Goal=   None    Shift=    0.000
 Gap=     0.340 Goal=   None    Shift=    0.000
 RMSDP=8.18D-09 MaxDP=3.57D-07 DE=-2.08D-11 OVMax= 3.77D-07

 SCF Done:  E(UB3LYP) =  -39.8583942029     A.U. after   10 cycles
             Convg  =    0.8176D-08             -V/T =  2.0087
 <Sx>= 0.0000 <Sy>= 0.0000 <Sz>= 0.5000 <S**2>= 0.7537 S= 0.5019
 <L.S>=  0.00000000000    
 KE= 3.951550469025D+01 PE=-1.110123012695D+02 EE= 2.205881378360D+01
 Annihilation of the first spin contaminant:
 S**2 before annihilation     0.7537,   after     0.7500
 Leave Link  502 at Sat Aug 17 23:30:42 2024, MaxMem=   13107200 cpu:      13.6
 (Enter /programs/64bit/g09/g09-gfortran/bin/l601.exe)
 Copying SCF densities to generalized density rwf, IOpCl= 1 IROHF=0.

 **********************************************************************

            Population analysis using the SCF density.

 **********************************************************************

 Orbital symmetries:
 Alpha Orbitals:
       Occupied  (A) (A) (A) (B) (B)
       Virtual   (A) (B) (A) (B) (A) (B) (A) (A) (A) (B) (A) (B)
                 (B) (A) (B) (A) (B) (A) (B) (A) (B) (B) (A) (A)
                 (B) (A) (B) (A) (B) (A) (B) (A) (B) (B) (A) (B)
                 (A) (A) (B) (A) (A) (A) (B) (A) (B) (B) (A) (B)
                 (A) (B) (A) (B) (B) (A) (B) (A) (A) (B) (B) (A)
                 (A) (B) (A) (B) (A) (B) (A)
 Beta  Orbitals:
       Occupied  (A) (A) (B) (A)
       Virtual   (B) (A) (B) (A) (B) (A) (A) (B) (B) (A) (A) (A)
                 (B) (B) (B) (A) (A) (B) (A) (B) (A) (B) (B) (A)
                 (A) (B) (A) (B) (A) (B) (A) (A) (B) (B) (B) (A)
                 (B) (A) (A) (B) (A) (A) (B) (A) (A) (B) (B) (A)
                 (B) (A) (B) (A) (B) (B) (A) (B) (A) (A) (B) (B)
                 (A) (A) (B) (A) (B) (A) (B) (A)
 The electronic state is 2-B.
 Alpha  occ. eigenvalues --  -10.18839  -0.68604  -0.42191  -0.42191  -0.23566
 Alpha virt. eigenvalues --    0.04734   0.11573   0.11573   0.24747   0.24747
 Alpha virt. eigenvalues --    0.30061   0.32657   0.46871   0.47437   0.47437
 Alpha virt. eigenvalues --    0.55540   0.55540   0.82915   0.87559   0.89176
 Alpha virt. eigenvalues --    0.89176   0.95586   1.06921   1.06921   1.24306
 Alpha virt. eigenvalues --    1.24306   1.31446   1.31446   1.53160   2.00614
 Alpha virt. eigenvalues --    2.09315   2.23266   2.23266   2.50309   2.50309
 Alpha virt. eigenvalues --    2.57836   2.57836   2.83059   2.86547   2.87846
 Alpha virt. eigenvalues --    2.89708   2.89709   2.96031   2.96031   3.19581
 Alpha virt. eigenvalues --    3.20695   3.33357   3.33357   3.58585   3.58585
 Alpha virt. eigenvalues --    3.62053   3.62053   3.85892   3.87558   3.88721
 Alpha virt. eigenvalues --    3.93258   3.93258   4.06666   4.06666   4.64743
 Alpha virt. eigenvalues --    4.75618   4.78669   4.78670   4.85629   4.85629
 Alpha virt. eigenvalues --    4.90654   4.90654   5.48012   5.61433   5.61433
 Alpha virt. eigenvalues --    6.12393  12.38123
  Beta  occ. eigenvalues --  -10.17413  -0.64630  -0.41257  -0.41257
  Beta virt. eigenvalues --   -0.07218   0.05482   0.11817   0.11817   0.24946
  Beta virt. eigenvalues --    0.24946   0.35453   0.35852   0.48033   0.48033
  Beta virt. eigenvalues --    0.48619   0.58246   0.58246   0.82677   0.89592
  Beta virt. eigenvalues --    0.89593   0.91232   0.97115   1.09120   1.09120
  Beta virt. eigenvalues --    1.24600   1.24600   1.31789   1.31789   1.54733
  Beta virt. eigenvalues --    2.08765   2.10229   2.24978   2.24978   2.52582
  Beta virt. eigenvalues --    2.52582   2.61236   2.61236   2.83043   2.90701
  Beta virt. eigenvalues --    2.90701   2.91928   2.95815   3.00277   3.00278
  Beta virt. eigenvalues --    3.19681   3.21417   3.33599   3.33599   3.59121
  Beta virt. eigenvalues --    3.59121   3.63361   3.63361   3.85364   3.87651
  Beta virt. eigenvalues --    3.89128   3.93021   3.93021   4.07476   4.07476
  Beta virt. eigenvalues --    4.66454   4.76398   4.79191   4.79191   4.85636
  Beta virt. eigenvalues --    4.85636   4.93681   4.93681   5.49107   5.61867
  Beta virt. eigenvalues --    5.61867   6.12774  12.40316
     Alpha Molecular Orbital Coefficients:
                           1         2         3         4         5
                           O         O         O         O         O
     Eigenvalues --   -10.18839  -0.68604  -0.42191  -0.42191  -0.23566
   1 1   C  1S          0.97525  -0.19490   0.00000   0.00000   0.00000
   2        2S          0.00307   0.44101   0.00000   0.00000   0.00000
   3        3S          0.05182   0.11622  -0.00000   0.00000   0.00000
   4        4S          0.01722   0.22511   0.00001   0.00000   0.00000
   5        5PX         0.00000   0.00000   0.00000  -0.00000   0.33665
   6        5PY         0.00000   0.00000   0.00000   0.25972  -0.00000
   7        5PZ         0.00000  -0.00000   0.25972   0.00000   0.00000
   8        6PX         0.00000   0.00000   0.00000  -0.00000   0.42341
   9        6PY         0.00000   0.00000   0.00000   0.28275   0.00000
  10        6PZ        -0.00000   0.00000   0.28275   0.00000   0.00000
  11        7PX         0.00000   0.00000   0.00000  -0.00000   0.40991
  12        7PY         0.00000   0.00000   0.00000   0.13698   0.00000
  13        7PZ         0.00000   0.00000   0.13698   0.00000   0.00000
  14        8D 0        0.00065   0.00120   0.01133   0.00000   0.00000
  15        8D+1        0.00000   0.00000   0.00000  -0.00000  -0.00000
  16        8D-1        0.00000   0.00000   0.00000  -0.01309  -0.00000
  17        8D+2       -0.00112  -0.00208   0.00654   0.00000   0.00000
  18        8D-2       -0.00000  -0.00000  -0.00000   0.00000   0.00000
  19        9D 0        0.00180   0.00060   0.01000   0.00000   0.00000
  20        9D+1        0.00000   0.00000   0.00000   0.00000   0.00000
  21        9D-1        0.00000   0.00000   0.00000  -0.01154  -0.00000
  22        9D+2       -0.00312  -0.00104   0.00577   0.00000   0.00000
  23        9D-2       -0.00000  -0.00000   0.00000   0.00000   0.00000
  24       10F 0        0.00167   0.00359  -0.00135   0.00000   0.00000
  25       10F+1        0.00000   0.00000   0.00000   0.00000  -0.00209
  26       10F-1        0.00000   0.00000   0.00000  -0.00055   0.00000
  27       10F+2        0.00129   0.00278   0.00175   0.00000   0.00000
  28       10F-2        0.00000   0.00000  -0.00000   0.00000   0.00000
  29       10F+3        0.00000   0.00000   0.00000   0.00000   0.00270
  30       10F-3        0.00000   0.00000   0.00000   0.00214  -0.00000
  31 2   H  1S          0.00012   0.09160   0.17454   0.00000   0.00000
  32        2S         -0.00891   0.09416   0.24162   0.00000   0.00000
  33        3S         -0.00262   0.01632   0.10783   0.00000   0.00000
  34        4PX         0.00000   0.00000   0.00000  -0.00000   0.00946
  35        4PY         0.00000   0.00000   0.00000   0.00527   0.00000
  36        4PZ         0.00112  -0.00918  -0.01406   0.00000   0.00000
  37        5PX         0.00000   0.00000   0.00000   0.00000   0.02080
  38        5PY         0.00000   0.00000   0.00000   0.01159   0.00000
  39        5PZ         0.00481  -0.00477  -0.01072   0.00000   0.00000
  40        6D 0       -0.00167   0.00193   0.00383   0.00000   0.00000
  41        6D+1        0.00000   0.00000   0.00000  -0.00000  -0.00431
  42        6D-1        0.00000   0.00000   0.00000  -0.00285   0.00000
  43        6D+2       -0.00005   0.00017   0.00033   0.00000   0.00000
  44        6D-2        0.00000  -0.00000  -0.00000   0.00000   0.00000
  45 3   H  1S          0.00012   0.09160  -0.08727   0.15115   0.00000
  46        2S         -0.00891   0.09416  -0.12082   0.20925  -0.00000
  47        3S         -0.00262   0.01633  -0.05392   0.09338  -0.00000
  48        4PX         0.00000   0.00000   0.00000   0.00000   0.00946
  49        4PY         0.00097  -0.00795   0.00837  -0.00922   0.00000
  50        4PZ        -0.00056   0.00459   0.00044   0.00837  -0.00000
  51        5PX         0.00000   0.00000  -0.00000   0.00000   0.02080
  52        5PY         0.00417  -0.00413   0.00966  -0.00514   0.00000
  53        5PZ        -0.00241   0.00238   0.00601   0.00966  -0.00000
  54        6D 0        0.00024  -0.00035   0.00220   0.00047   0.00000
  55        6D+1        0.00000   0.00000   0.00000   0.00000   0.00215
  56        6D-1        0.00127  -0.00152   0.00027  -0.00333   0.00000
  57        6D+2        0.00106  -0.00115   0.00221  -0.00136   0.00000
  58        6D-2       -0.00000  -0.00000   0.00000  -0.00000  -0.00373
  59 4   H  1S          0.00012   0.09160  -0.08727  -0.15115  -0.00000
  60        2S         -0.00891   0.09416  -0.12082  -0.20925   0.00000
  61        3S         -0.00262   0.01633  -0.05392  -0.09338   0.00000
  62        4PX        -0.00000  -0.00000  -0.00000   0.00000   0.00946
  63        4PY        -0.00097   0.00795  -0.00837  -0.00922   0.00000
  64        4PZ        -0.00056   0.00459   0.00044  -0.00837   0.00000
  65        5PX        -0.00000  -0.00000   0.00000   0.00000   0.02080
  66        5PY        -0.00417   0.00413  -0.00966  -0.00514   0.00000
  67        5PZ        -0.00241   0.00238   0.00601  -0.00966   0.00000
  68        6D 0        0.00024  -0.00035   0.00220  -0.00047  -0.00000
  69        6D+1       -0.00000  -0.00000  -0.00000   0.00000   0.00215
  70        6D-1       -0.00127   0.00152  -0.00027  -0.00333   0.00000
  71        6D+2        0.00106  -0.00115   0.00221   0.00136  -0.00000
  72        6D-2       -0.00000  -0.00000   0.00000   0.00000   0.00373
                           6         7         8         9        10
                           V         V         V         V         V
     Eigenvalues --     0.04734   0.11573   0.11573   0.24747   0.24747
   1 1   C  1S         -0.10183   0.00000   0.00000   0.00000   0.00000
   2        2S          0.30696   0.00000   0.00000   0.00000   0.00001
   3        3S          0.08589   0.00000   0.00000   0.00000  -0.00000
   4        4S          2.61638   0.00000   0.00002   0.00000   0.00025
   5        5PX         0.00000   0.00000   0.00000   0.00000   0.00000
   6        5PY         0.00000  -0.19114   0.00000  -0.08060   0.00000
   7        5PZ         0.00000   0.00000  -0.19114   0.00000  -0.08060
   8        6PX         0.00000   0.00000   0.00000   0.00000   0.00000
   9        6PY         0.00000  -0.34435   0.00000   0.48801   0.00000
  10        6PZ        -0.00001   0.00000  -0.34435   0.00000   0.48801
  11        7PX         0.00000   0.00000   0.00000  -0.00000   0.00000
  12        7PY         0.00000  -1.52645   0.00000   2.17854   0.00000
  13        7PZ        -0.00002   0.00000  -1.52646   0.00000   2.17852
  14        8D 0       -0.00414   0.00000   0.00781   0.00000  -0.01473
  15        8D+1        0.00000   0.00000   0.00000  -0.00000   0.00000
  16        8D-1        0.00000  -0.00901   0.00000   0.01700   0.00000
  17        8D+2        0.00717   0.00000   0.00451   0.00000  -0.00850
  18        8D-2        0.00000   0.00000  -0.00000   0.00000   0.00000
  19        9D 0        0.04076   0.00000  -0.04964   0.00000   0.44700
  20        9D+1        0.00000   0.00000   0.00000  -0.00000   0.00000
  21        9D-1        0.00000   0.05732   0.00000  -0.51614   0.00000
  22        9D+2       -0.07061   0.00000  -0.02866   0.00000   0.25805
  23        9D-2        0.00000   0.00000  -0.00000   0.00000  -0.00000
  24       10F 0        0.00849   0.00000  -0.00209   0.00000   0.02937
  25       10F+1        0.00000  -0.00000   0.00000  -0.00000   0.00000
  26       10F-1        0.00000  -0.00085   0.00000   0.01199   0.00000
  27       10F+2        0.00658   0.00000   0.00270   0.00000  -0.03790
  28       10F-2        0.00000   0.00000  -0.00000   0.00000   0.00000
  29       10F+3        0.00000   0.00000   0.00000   0.00000   0.00000
  30       10F-3        0.00000   0.00331   0.00000  -0.04643   0.00000
  31 2   H  1S         -0.02527   0.00000   0.02365   0.00000  -0.06637
  32        2S         -0.18471   0.00000   0.15127   0.00000  -1.78139
  33        3S         -1.15278   0.00000   2.48026   0.00000  -0.64868
  34        4PX         0.00000  -0.00000   0.00000  -0.00000   0.00000
  35        4PY         0.00000  -0.01317   0.00000   0.00597   0.00000
  36        4PZ        -0.01511   0.00000   0.02300   0.00000   0.03275
  37        5PX         0.00000   0.00000   0.00000   0.00000   0.00000
  38        5PY         0.00000   0.00960   0.00000   0.16945   0.00000
  39        5PZ         0.09138   0.00000  -0.10340   0.00000   0.37838
  40        6D 0       -0.00453   0.00000   0.00597   0.00000  -0.03406
  41        6D+1        0.00000   0.00000   0.00000  -0.00000   0.00000
  42        6D-1        0.00000   0.00224   0.00000  -0.00972   0.00000
  43        6D+2        0.00239   0.00000   0.00128   0.00000  -0.00849
  44        6D-2       -0.00000   0.00000   0.00000   0.00000   0.00000
  45 3   H  1S         -0.02527   0.02048  -0.01183  -0.05747   0.03318
  46        2S         -0.18475   0.13101  -0.07564  -1.54266   0.89057
  47        3S         -1.15279   2.14796  -1.24013  -0.56176   0.32429
  48        4PX         0.00000   0.00000  -0.00000  -0.00000   0.00000
  49        4PY        -0.01309   0.01395  -0.01566   0.02605  -0.01160
  50        4PZ         0.00755  -0.01566  -0.00413  -0.01160   0.01266
  51        5PX         0.00000   0.00000   0.00000   0.00000  -0.00000
  52        5PY         0.07915  -0.07515   0.04894   0.32614  -0.09044
  53        5PZ        -0.04570   0.04893  -0.01865  -0.09046   0.22168
  54        6D 0       -0.00098  -0.00221  -0.00067   0.01211   0.00143
  55        6D+1       -0.00000   0.00000  -0.00000   0.00000   0.00000
  56        6D-1        0.00237  -0.00380   0.00349   0.02288  -0.01882
  57        6D+2        0.00443  -0.00315   0.00070   0.01667  -0.00476
  58        6D-2       -0.00000  -0.00000  -0.00000   0.00000  -0.00000
  59 4   H  1S         -0.02527  -0.02048  -0.01183   0.05747   0.03318
  60        2S         -0.18475  -0.13101  -0.07564   1.54266   0.89057
  61        3S         -1.15279  -2.14796  -1.24013   0.56176   0.32429
  62        4PX        -0.00000   0.00000   0.00000  -0.00000  -0.00000
  63        4PY         0.01309   0.01395   0.01566   0.02605   0.01160
  64        4PZ         0.00755   0.01566  -0.00413   0.01160   0.01266
  65        5PX        -0.00000   0.00000  -0.00000   0.00000   0.00000
  66        5PY        -0.07915  -0.07515  -0.04894   0.32614   0.09044
  67        5PZ        -0.04570  -0.04893  -0.01865   0.09046   0.22168
  68        6D 0       -0.00098   0.00221  -0.00067  -0.01211   0.00143
  69        6D+1        0.00000   0.00000   0.00000   0.00000  -0.00000
  70        6D-1       -0.00237  -0.00380  -0.00349   0.02288   0.01882
  71        6D+2        0.00443   0.00315   0.00070  -0.01667  -0.00476
  72        6D-2       -0.00000   0.00000  -0.00000  -0.00000  -0.00000
                          11        12        13        14        15
                           V         V         V         V         V
     Eigenvalues --     0.30061   0.32657   0.46871   0.47437   0.47437
   1 1   C  1S          0.00000  -0.04251   0.15902   0.00005   0.00000
   2        2S          0.00000   0.07801  -0.33937  -0.00010   0.00000
   3        3S          0.00000  -0.02016  -0.21876  -0.00006   0.00000
   4        4S          0.00000   1.68042   7.32139   0.00208   0.00000
   5        5PX        -0.26991   0.00000   0.00000   0.00000  -0.00000
   6        5PY         0.00000   0.00000   0.00000   0.00000  -0.33353
   7        5PZ         0.00000   0.00000  -0.00009   0.33353   0.00000
   8        6PX        -0.77952   0.00000   0.00000   0.00000  -0.00000
   9        6PY        -0.00000   0.00000   0.00000   0.00000   0.22511
  10        6PZ         0.00000   0.00000   0.00009  -0.22511   0.00000
  11        7PX         1.26880   0.00000   0.00000   0.00000   0.00000
  12        7PY        -0.00000   0.00000   0.00000   0.00000   2.75789
  13        7PZ         0.00000  -0.00005   0.00078  -2.75788   0.00000
  14        8D 0        0.00000  -0.00693   0.02427  -0.03454   0.00000
  15        8D+1        0.00000   0.00000   0.00000   0.00000  -0.00000
  16        8D-1        0.00000   0.00000   0.00000   0.00000  -0.03989
  17        8D+2        0.00000   0.01200  -0.04201  -0.01996   0.00000
  18        8D-2        0.00000   0.00000   0.00000   0.00000   0.00000
  19        9D 0        0.00000  -0.04067   0.33529  -0.63446   0.00000
  20        9D+1       -0.00000   0.00000   0.00000   0.00000   0.00000
  21        9D-1        0.00000   0.00000   0.00000   0.00000  -0.73271
  22        9D+2        0.00000   0.07044  -0.58029  -0.36651   0.00000
  23        9D-2        0.00000   0.00000   0.00000   0.00000   0.00000
  24       10F 0        0.00000   0.03650   0.10176  -0.03077   0.00000
  25       10F+1        0.00604   0.00000   0.00000   0.00000   0.00000
  26       10F-1       -0.00000   0.00000   0.00000   0.00000   0.01258
  27       10F+2        0.00000   0.02827   0.07881   0.03979   0.00000
  28       10F-2        0.00000  -0.00000  -0.00000   0.00000   0.00000
  29       10F+3       -0.00779   0.00000   0.00000   0.00000   0.00000
  30       10F-3        0.00000   0.00000   0.00000   0.00000  -0.04870
  31 2   H  1S          0.00000  -0.09898   0.07969  -0.12436   0.00000
  32        2S          0.00000  -0.96662  -1.17971   0.61159   0.00000
  33        3S          0.00000   0.11573  -1.70169   2.87428   0.00000
  34        4PX         0.00932   0.00000   0.00000   0.00000   0.00000
  35        4PY         0.00000   0.00000   0.00000   0.00000   0.01063
  36        4PZ         0.00000   0.01998   0.00999  -0.00281   0.00000
  37        5PX        -0.07244   0.00000   0.00000   0.00000  -0.00000
  38        5PY        -0.00000   0.00000   0.00000   0.00000  -0.11831
  39        5PZ         0.00000   0.00997   0.76592  -0.78927   0.00000
  40        6D 0        0.00000  -0.01493  -0.05727   0.04561   0.00000
  41        6D+1        0.00107   0.00000   0.00000   0.00000  -0.00000
  42        6D-1       -0.00000   0.00000   0.00000   0.00000   0.00384
  43        6D+2        0.00000   0.00139   0.01016   0.00345   0.00000
  44        6D-2        0.00000  -0.00000   0.00000   0.00000   0.00000
  45 3   H  1S         -0.00000  -0.09899   0.07963   0.06221   0.10772
  46        2S          0.00000  -0.96668  -1.17943  -0.30629  -0.52994
  47        3S          0.00000   0.11574  -1.70045  -1.43786  -2.48962
  48        4PX         0.00932   0.00000  -0.00000  -0.00000  -0.00000
  49        4PY        -0.00000   0.01731   0.00865  -0.00338   0.00477
  50        4PZ         0.00000  -0.00999  -0.00499  -0.00867   0.00338
  51        5PX        -0.07244  -0.00000   0.00000   0.00000  -0.00000
  52        5PY        -0.00000   0.00863   0.66298   0.39327   0.56254
  53        5PZ         0.00000  -0.00499  -0.38281  -0.10876  -0.39308
  54        6D 0       -0.00000   0.00097   0.00055   0.00646   0.00544
  55        6D+1       -0.00054  -0.00000  -0.00000  -0.00000   0.00000
  56        6D-1       -0.00000   0.01059   0.03854   0.01620   0.03189
  57        6D+2       -0.00000   0.01056   0.04354   0.01519   0.02297
  58        6D-2        0.00093   0.00000   0.00000  -0.00000   0.00000
  59 4   H  1S          0.00000  -0.09899   0.07963   0.06221  -0.10772
  60        2S         -0.00000  -0.96668  -1.17943  -0.30629   0.52994
  61        3S         -0.00000   0.11574  -1.70045  -1.43786   2.48962
  62        4PX         0.00932  -0.00000   0.00000   0.00000  -0.00000
  63        4PY        -0.00000  -0.01731  -0.00865   0.00338   0.00477
  64        4PZ        -0.00000  -0.00999  -0.00499  -0.00867  -0.00338
  65        5PX        -0.07244   0.00000  -0.00000  -0.00000  -0.00000
  66        5PY        -0.00000  -0.00863  -0.66298  -0.39327   0.56254
  67        5PZ        -0.00000  -0.00499  -0.38281  -0.10876   0.39308
  68        6D 0        0.00000   0.00097   0.00055   0.00646  -0.00544
  69        6D+1       -0.00054   0.00000   0.00000   0.00000   0.00000
  70        6D-1       -0.00000  -0.01059  -0.03854  -0.01620   0.03189
  71        6D+2        0.00000   0.01056   0.04354   0.01519  -0.02297
  72        6D-2       -0.00093   0.00000   0.00000  -0.00000  -0.00000
                          16        17        18        19        20
                           V         V         V         V         V
     Eigenvalues --     0.55540   0.55540   0.82915   0.87559   0.89176
   1 1   C  1S          0.00000   0.00000   0.00000  -0.01078   0.00000
   2        2S          0.00000   0.00000   0.00000   0.04195   0.00000
   3        3S          0.00000   0.00000   0.00000  -0.11340   0.00000
   4        4S         -0.00000   0.00000   0.00000   2.81191   0.00000
   5        5PX         0.00000  -0.00000   0.00000   0.00000  -0.00000
   6        5PY         0.00000   0.00000  -0.00000   0.00000   0.13158
   7        5PZ        -0.00000   0.00000   0.00000   0.00004   0.00000
   8        6PX         0.00000  -0.00000   0.00000   0.00000  -0.00000
   9        6PY         0.00000  -0.00000  -0.00003   0.00000   1.04976
  10        6PZ        -0.00000   0.00000   0.00000   0.00031   0.00000
  11        7PX         0.00000   0.00000   0.00000   0.00000  -0.00000
  12        7PY         0.00000  -0.00000  -0.00003   0.00000   2.18261
  13        7PZ         0.00000   0.00000   0.00000   0.00056   0.00000
  14        8D 0       -0.00000   0.00000   0.00000  -0.00426   0.00000
  15        8D+1        0.00000   0.00706   0.00000   0.00000  -0.00000
  16        8D-1        0.00000   0.00000   0.00000   0.00000  -0.02657
  17        8D+2       -0.00000   0.00000   0.00000   0.00739   0.00000
  18        8D-2        0.00706   0.00000   0.00000   0.00000   0.00000
  19        9D 0       -0.00000   0.00000   0.00000   0.73887   0.00000
  20        9D+1        0.00000   0.52004  -0.00000   0.00000   0.00000
  21        9D-1        0.00000   0.00000   0.00003   0.00000  -1.16123
  22        9D+2       -0.00000   0.00000   0.00000  -1.27912   0.00000
  23        9D-2        0.52004   0.00000   0.00000  -0.00000   0.00000
  24       10F 0       -0.00000   0.00000   0.00000   0.08097   0.00000
  25       10F+1        0.00000  -0.01047  -0.00000   0.00000   0.00000
  26       10F-1        0.00000  -0.00000  -0.11268   0.00000   0.01266
  27       10F+2        0.00000   0.00000   0.00000   0.06270   0.00000
  28       10F-2        0.01324   0.00000   0.00000   0.00000   0.00000
  29       10F+3        0.00000  -0.00811  -0.00000   0.00000   0.00000
  30       10F-3        0.00000   0.00000  -0.02909   0.00000  -0.04904
  31 2   H  1S          0.00000   0.00000   0.00000  -0.01245   0.00000
  32        2S          0.00000   0.00000   0.00000  -1.30948   0.00000
  33        3S         -0.00000   0.00000   0.00000  -0.21867   0.00000
  34        4PX         0.00000  -0.03351   0.00000   0.00000  -0.00000
  35        4PY         0.00000   0.00000  -0.02957   0.00000   0.03996
  36        4PZ        -0.00000   0.00000   0.00000   0.05095   0.00000
  37        5PX         0.00000   0.48324   0.00000   0.00000  -0.00000
  38        5PY         0.00000  -0.00000   0.75654   0.00000  -0.59860
  39        5PZ        -0.00000   0.00000   0.00000  -0.02361   0.00000
  40        6D 0        0.00000   0.00000   0.00000  -0.01452   0.00000
  41        6D+1        0.00000   0.00917   0.00000   0.00000   0.00000
  42        6D-1        0.00000  -0.00000  -0.03332   0.00000  -0.01119
  43        6D+2        0.00000   0.00000   0.00000  -0.00935   0.00000
  44        6D-2        0.00185   0.00000   0.00000  -0.00000   0.00000
  45 3   H  1S          0.00000  -0.00000  -0.00000  -0.01246   0.02523
  46        2S         -0.00000   0.00000   0.00004  -1.30854  -1.99253
  47        3S          0.00000   0.00000   0.00000  -0.21841  -0.59849
  48        4PX        -0.02902   0.01675   0.00000   0.00000  -0.00000
  49        4PY         0.00000  -0.00000   0.01478   0.04411   0.04295
  50        4PZ        -0.00000   0.00000   0.02561  -0.02546  -0.00173
  51        5PX         0.41849  -0.24162  -0.00000   0.00000   0.00000
  52        5PY         0.00000  -0.00000  -0.37827  -0.02059  -0.03566
  53        5PZ        -0.00000   0.00000  -0.65517   0.01173  -0.32503
  54        6D 0       -0.00000  -0.00000  -0.02499   0.00789   0.00163
  55        6D+1       -0.00317   0.00368   0.00000   0.00000   0.00000
  56        6D-1        0.00000  -0.00000   0.01666   0.01493   0.01518
  57        6D+2        0.00000  -0.00000  -0.01443   0.00357   0.02762
  58        6D-2        0.00734  -0.00317   0.00000  -0.00000  -0.00000
  59 4   H  1S          0.00000   0.00000   0.00000  -0.01246  -0.02523
  60        2S         -0.00000  -0.00000  -0.00004  -1.30854   1.99253
  61        3S          0.00000  -0.00000  -0.00000  -0.21841   0.59849
  62        4PX         0.02902   0.01675   0.00000  -0.00000  -0.00000
  63        4PY        -0.00000  -0.00000   0.01478  -0.04411   0.04295
  64        4PZ        -0.00000  -0.00000  -0.02561  -0.02546   0.00173
  65        5PX        -0.41849  -0.24162  -0.00000  -0.00000   0.00000
  66        5PY        -0.00000  -0.00000  -0.37827   0.02059  -0.03566
  67        5PZ        -0.00000  -0.00000   0.65517   0.01173   0.32503
  68        6D 0       -0.00000   0.00000   0.02499   0.00789  -0.00163
  69        6D+1        0.00317   0.00368   0.00000  -0.00000   0.00000
  70        6D-1       -0.00000  -0.00000   0.01666  -0.01493   0.01518
  71        6D+2        0.00000   0.00000   0.01443   0.00357  -0.02762
  72        6D-2        0.00734   0.00317  -0.00000  -0.00000   0.00000
                          21        22        23        24        25
                           V         V         V         V         V
     Eigenvalues --     0.89176   0.95586   1.06921   1.06921   1.24306
   1 1   C  1S         -0.00000   0.00000   0.00000   0.00000   0.00000
   2        2S         -0.00001   0.00000   0.00000   0.00000  -0.00001
   3        3S         -0.00004   0.00000   0.00000   0.00000  -0.00000
   4        4S          0.00076   0.00000   0.00000   0.00000   0.00000
   5        5PX         0.00000  -0.14584   0.00000  -0.00000   0.00000
   6        5PY         0.00000  -0.00000   0.00000  -0.00000   0.00000
   7        5PZ        -0.13158   0.00000   0.00000   0.00000  -0.14636
   8        6PX         0.00000  -0.54813   0.00000  -0.00000   0.00000
   9        6PY         0.00000   0.00000   0.00000   0.00000   0.00000
  10        6PZ        -1.04977   0.00000  -0.00000   0.00000  -3.82242
  11        7PX         0.00000  -0.77103   0.00000  -0.00000   0.00000
  12        7PY         0.00000   0.00000   0.00000   0.00000   0.00000
  13        7PZ        -2.18262   0.00000   0.00000   0.00000  -1.12439
  14        8D 0       -0.02301   0.00000  -0.00000   0.00000  -0.07460
  15        8D+1        0.00000  -0.00000   0.00000  -0.02072   0.00000
  16        8D-1        0.00000  -0.00000   0.00000  -0.00000   0.00000
  17        8D+2       -0.01329   0.00000  -0.00000   0.00000  -0.04307
  18        8D-2       -0.00000   0.00000  -0.02072   0.00000  -0.00000
  19        9D 0       -1.00548   0.00000  -0.00000   0.00000  -3.15758
  20        9D+1        0.00000  -0.00000   0.00000   1.57749   0.00000
  21        9D-1        0.00000  -0.00000   0.00000  -0.00000   0.00000
  22        9D+2       -0.58095   0.00000  -0.00000   0.00000  -1.82303
  23        9D-2        0.00000   0.00000   1.57749   0.00000  -0.00000
  24       10F 0       -0.03099   0.00000   0.00000   0.00000  -0.10322
  25       10F+1        0.00000  -0.02728   0.00000   0.05390   0.00000
  26       10F-1        0.00000   0.00000   0.00000   0.00000   0.00000
  27       10F+2        0.04006   0.00000   0.00000   0.00000   0.13326
  28       10F-2        0.00000   0.00000  -0.06818   0.00000   0.00000
  29       10F+3        0.00000   0.03522   0.00000   0.04175   0.00000
  30       10F-3        0.00000  -0.00000   0.00000  -0.00000   0.00000
  31 2   H  1S         -0.02914   0.00000  -0.00000   0.00000  -0.15047
  32        2S          2.30046   0.00000   0.00000   0.00000   5.52090
  33        3S          0.69102   0.00000  -0.00000   0.00000   0.43162
  34        4PX         0.00000  -0.05486   0.00000   0.07131   0.00000
  35        4PY         0.00000  -0.00000   0.00000  -0.00000   0.00000
  36        4PZ        -0.04394   0.00000  -0.00000   0.00000  -0.03245
  37        5PX         0.00000   0.90718   0.00000  -1.38407   0.00000
  38        5PY         0.00000   0.00000   0.00000   0.00000   0.00000
  39        5PZ        -0.15201   0.00000  -0.00000   0.00000  -2.59524
  40        6D 0        0.03409   0.00000   0.00000   0.00000   0.14229
  41        6D+1        0.00000  -0.01836   0.00000   0.07324   0.00000
  42        6D-1        0.00000  -0.00000   0.00000   0.00000   0.00000
  43        6D+2       -0.01112   0.00000   0.00000   0.00000   0.01098
  44        6D-2        0.00000   0.00000   0.02406   0.00000  -0.00000
  45 3   H  1S          0.01456   0.00000   0.00000   0.00000   0.07524
  46        2S         -1.15073  -0.00000  -0.00000  -0.00000  -2.76045
  47        3S         -0.34560  -0.00000  -0.00000  -0.00000  -0.21581
  48        4PX         0.00000  -0.05486   0.06176  -0.03566  -0.00000
  49        4PY         0.00174   0.00000   0.00000   0.00000   0.04723
  50        4PZ        -0.04096  -0.00000   0.00000  -0.00000   0.04935
  51        5PX        -0.00000   0.90718  -1.19865   0.69204   0.00000
  52        5PY         0.32501   0.00000   0.00000   0.00000   0.47999
  53        5PZ         0.41096  -0.00000  -0.00000  -0.00000  -1.76385
  54        6D 0       -0.00874   0.00000   0.00000   0.00000  -0.01464
  55        6D+1        0.00000   0.00918  -0.02130   0.03636  -0.00000
  56        6D-1        0.01523   0.00000   0.00000   0.00000   0.07380
  57        6D+2        0.01035   0.00000   0.00000   0.00000   0.02713
  58        6D-2        0.00000  -0.01590   0.06095  -0.02130  -0.00000
  59 4   H  1S          0.01456  -0.00000   0.00000  -0.00000   0.07524
  60        2S         -1.15073   0.00000  -0.00000   0.00000  -2.76045
  61        3S         -0.34560   0.00000  -0.00000   0.00000  -0.21581
  62        4PX        -0.00000  -0.05486  -0.06176  -0.03566   0.00000
  63        4PY        -0.00174   0.00000  -0.00000   0.00000  -0.04723
  64        4PZ        -0.04096   0.00000   0.00000   0.00000   0.04935
  65        5PX         0.00000   0.90718   1.19865   0.69204  -0.00000
  66        5PY        -0.32501   0.00000  -0.00000   0.00000  -0.47999
  67        5PZ         0.41096   0.00000  -0.00000   0.00000  -1.76385
  68        6D 0       -0.00874  -0.00000   0.00000  -0.00000  -0.01464
  69        6D+1       -0.00000   0.00918   0.02130   0.03636   0.00000
  70        6D-1       -0.01523   0.00000  -0.00000   0.00000  -0.07380
  71        6D+2        0.01035  -0.00000   0.00000  -0.00000   0.02713
  72        6D-2        0.00000   0.01590   0.06095   0.02130  -0.00000
                          26        27        28        29        30
                           V         V         V         V         V
     Eigenvalues --     1.24306   1.31446   1.31446   1.53160   2.00614
   1 1   C  1S          0.00000   0.00000  -0.00000  -0.09648   0.00000
   2        2S          0.00000   0.00000   0.00001   1.41716   0.00000
   3        3S          0.00000   0.00000   0.00001   0.79833   0.00000
   4        4S          0.00000   0.00000   0.00001   4.10948   0.00000
   5        5PX        -0.00000   0.00000   0.00000   0.00000  -1.26329
   6        5PY        -0.14635   0.25782   0.00000   0.00000  -0.00000
   7        5PZ         0.00000   0.00000   0.25782  -0.00000   0.00000
   8        6PX         0.00000  -0.00000   0.00000   0.00000   1.66616
   9        6PY        -3.82239   3.09773   0.00000   0.00000   0.00000
  10        6PZ         0.00000   0.00000   3.09768  -0.00002   0.00000
  11        7PX        -0.00000   0.00000   0.00000   0.00000  -0.47610
  12        7PY        -1.12437   2.07696   0.00000   0.00000   0.00000
  13        7PZ         0.00000   0.00000   2.07695  -0.00002   0.00000
  14        8D 0        0.00000   0.00000   0.03301  -0.05741   0.00000
  15        8D+1        0.00000  -0.00000   0.00000   0.00000   0.00000
  16        8D-1        0.08614  -0.03812   0.00000   0.00000  -0.00000
  17        8D+2        0.00000   0.00000   0.01906   0.09943   0.00000
  18        8D-2        0.00000   0.00000   0.00000   0.00000   0.00000
  19        9D 0        0.00000   0.00000   0.15818   0.44533   0.00000
  20        9D+1        0.00000  -0.00000   0.00000   0.00000  -0.00000
  21        9D-1        3.64606  -0.18270   0.00000   0.00000  -0.00000
  22        9D+2        0.00000   0.00000   0.09133  -0.77135   0.00000
  23        9D-2        0.00000   0.00000   0.00000  -0.00000   0.00000
  24       10F 0        0.00000   0.00000   0.03829  -0.13606   0.00000
  25       10F+1       -0.00000   0.00000   0.00000   0.00000  -0.04293
  26       10F-1       -0.04214   0.01563   0.00000   0.00000  -0.00000
  27       10F+2        0.00000   0.00000  -0.04943  -0.10540   0.00000
  28       10F-2        0.00000   0.00000   0.00000   0.00000   0.00000
  29       10F+3       -0.00000   0.00000   0.00000   0.00000   0.05543
  30       10F-3        0.16321  -0.06054   0.00000   0.00000  -0.00000
  31 2   H  1S          0.00000   0.00000  -0.15383  -0.26443   0.00000
  32        2S          0.00000   0.00000  -2.59795  -1.19771   0.00000
  33        3S          0.00000   0.00000  -1.95343  -0.94904   0.00000
  34        4PX         0.00000  -0.00000   0.00000   0.00000   0.01177
  35        4PY         0.07662   0.06693   0.00000   0.00000  -0.00000
  36        4PZ         0.00000   0.00000  -0.06928  -0.13043   0.00000
  37        5PX        -0.00000   0.00000   0.00000   0.00000  -0.20841
  38        5PY        -1.48673  -0.95838   0.00000   0.00000   0.00000
  39        5PZ         0.00000   0.00000   2.39403   1.21019   0.00000
  40        6D 0        0.00000   0.00000  -0.10800   0.04047   0.00000
  41        6D+1       -0.00000   0.00000   0.00000   0.00000   0.02714
  42        6D-1        0.04172   0.02800   0.00000   0.00000  -0.00000
  43        6D+2        0.00000   0.00000  -0.00404  -0.00288   0.00000
  44        6D-2        0.00000   0.00000  -0.00000  -0.00000   0.00000
  45 3   H  1S         -0.13031  -0.13322   0.07691  -0.26444   0.00000
  46        2S          4.78121  -2.24994   1.29897  -1.19775  -0.00000
  47        3S          0.37378  -1.69172   0.97671  -0.94906  -0.00000
  48        4PX        -0.00000   0.00000  -0.00000   0.00000   0.01177
  49        4PY        -0.00519  -0.03522   0.05898  -0.11296   0.00000
  50        4PZ         0.04723   0.05898   0.03288   0.06522  -0.00000
  51        5PX         0.00000  -0.00000  -0.00000   0.00000  -0.20841
  52        5PY        -2.31808   1.55595  -1.45164   1.04807   0.00000
  53        5PZ         0.47998  -1.45165  -0.12029  -0.60510  -0.00000
  54        6D 0       -0.03722   0.00346  -0.02625  -0.00319  -0.00000
  55        6D+1       -0.00000   0.00000   0.00000  -0.00000  -0.01357
  56        6D-1       -0.08611   0.07866  -0.02925  -0.02911   0.00000
  57        6D+2       -0.08313   0.05250  -0.04431  -0.02809   0.00000
  58        6D-2        0.00000  -0.00000  -0.00000  -0.00000   0.02351
  59 4   H  1S          0.13031   0.13322   0.07691  -0.26444  -0.00000
  60        2S         -4.78121   2.24994   1.29897  -1.19775   0.00000
  61        3S         -0.37378   1.69172   0.97671  -0.94906   0.00000
  62        4PX        -0.00000   0.00000   0.00000  -0.00000   0.01177
  63        4PY        -0.00519  -0.03522  -0.05898   0.11296   0.00000
  64        4PZ        -0.04723  -0.05898   0.03288   0.06522   0.00000
  65        5PX         0.00000  -0.00000   0.00000  -0.00000  -0.20841
  66        5PY        -2.31808   1.55595   1.45164  -1.04807   0.00000
  67        5PZ        -0.47998   1.45165  -0.12029  -0.60510   0.00000
  68        6D 0        0.03722  -0.00346  -0.02625  -0.00319   0.00000
  69        6D+1       -0.00000   0.00000  -0.00000   0.00000  -0.01357
  70        6D-1       -0.08611   0.07866   0.02925   0.02911   0.00000
  71        6D+2        0.08313  -0.05250  -0.04431  -0.02809  -0.00000
  72        6D-2       -0.00000   0.00000  -0.00000  -0.00000  -0.02351
                          31        32        33        34        35
                           V         V         V         V         V
     Eigenvalues --     2.09315   2.23266   2.23266   2.50309   2.50309
   1 1   C  1S         -0.09039   0.00000  -0.00000   0.00000   0.00000
   2        2S          1.40343   0.00000   0.00003   0.00000  -0.00000
   3        3S          0.90813   0.00000   0.00002   0.00000  -0.00001
   4        4S          4.58924   0.00000   0.00011   0.00000  -0.00003
   5        5PX         0.00000  -0.00000   0.00000   0.00000   0.00000
   6        5PY         0.00000   0.07567   0.00000  -1.10566   0.00000
   7        5PZ        -0.00001   0.00000   0.07567   0.00000  -1.10566
   8        6PX         0.00000   0.00000   0.00000  -0.00000   0.00000
   9        6PY         0.00000  -1.84110   0.00000   5.44138   0.00000
  10        6PZ         0.00005   0.00000  -1.84110   0.00000   5.44138
  11        7PX         0.00000  -0.00000   0.00000   0.00000   0.00000
  12        7PY         0.00000  -0.98103   0.00000   0.89568   0.00000
  13        7PZ         0.00001   0.00000  -0.98103   0.00000   0.89568
  14        8D 0        0.12508   0.00000  -0.19981   0.00000  -0.00055
  15        8D+1        0.00000   0.00000   0.00000  -0.00000   0.00000
  16        8D-1        0.00000   0.23073   0.00000   0.00063   0.00000
  17        8D+2       -0.21664   0.00000  -0.11537   0.00000  -0.00032
  18        8D-2        0.00000   0.00000   0.00000   0.00000   0.00000
  19        9D 0        0.39588   0.00000   0.20372   0.00000   1.61867
  20        9D+1        0.00000  -0.00000   0.00000   0.00000   0.00000
  21        9D-1        0.00000  -0.23523   0.00000  -1.86908   0.00000
  22        9D+2       -0.68569   0.00000   0.11760   0.00000   0.93455
  23        9D-2       -0.00000   0.00000  -0.00000   0.00000   0.00000
  24       10F 0        0.43309   0.00000  -0.34346   0.00000  -0.09754
  25       10F+1        0.00000   0.00000   0.00000  -0.00000   0.00000
  26       10F-1        0.00000  -0.14022   0.00000  -0.03982   0.00000
  27       10F+2        0.33546   0.00000   0.44342   0.00000   0.12592
  28       10F-2       -0.00000   0.00000  -0.00000   0.00000  -0.00000
  29       10F+3        0.00000  -0.00000   0.00000   0.00000   0.00000
  30       10F-3        0.00000   0.54307   0.00000   0.15422   0.00000
  31 2   H  1S          0.54119   0.00000  -0.92608   0.00000   0.44385
  32        2S         -2.54765   0.00000   2.65038   0.00000  -5.27157
  33        3S         -0.55112   0.00000   0.07407   0.00000  -0.16318
  34        4PX         0.00000   0.00000   0.00000  -0.00000   0.00000
  35        4PY         0.00000  -0.00198   0.00000   0.08695   0.00000
  36        4PZ         0.03250   0.00000  -0.09786   0.00000   0.16009
  37        5PX         0.00000  -0.00000   0.00000   0.00000   0.00000
  38        5PY         0.00000   0.65993   0.00000  -0.06971   0.00000
  39        5PZ         1.01414   0.00000  -0.94567   0.00000   2.32161
  40        6D 0       -0.04067   0.00000   0.09227   0.00000  -0.23655
  41        6D+1        0.00000  -0.00000   0.00000   0.00000   0.00000
  42        6D-1        0.00000  -0.01637   0.00000  -0.05379   0.00000
  43        6D+2        0.01902   0.00000   0.12153   0.00000   0.17613
  44        6D-2       -0.00000   0.00000  -0.00000   0.00000  -0.00000
  45 3   H  1S          0.54116  -0.80202   0.46306   0.38439  -0.22193
  46        2S         -2.54757   2.29534  -1.32528  -4.56533   2.63580
  47        3S         -0.55113   0.06416  -0.03706  -0.14132   0.08159
  48        4PX         0.00000   0.00000   0.00000   0.00000   0.00000
  49        4PY         0.02815  -0.07389   0.04152   0.14180  -0.03167
  50        4PZ        -0.01625   0.04152  -0.02595  -0.03167   0.10523
  51        5PX         0.00000  -0.00000   0.00000   0.00000  -0.00000
  52        5PY         0.87824  -0.54429   0.69528   1.72379  -1.03548
  53        5PZ        -0.50706   0.69526   0.25852  -1.03547   0.52813
  54        6D 0       -0.00727  -0.07221   0.05586  -0.05330   0.07735
  55        6D+1       -0.00000  -0.00000   0.00000   0.00000  -0.00000
  56        6D-1        0.02226  -0.10960   0.05383   0.07415  -0.07386
  57        6D+2        0.03830   0.01742  -0.00187   0.24004  -0.11169
  58        6D-2       -0.00000   0.00000  -0.00000  -0.00000  -0.00000
  59 4   H  1S          0.54116   0.80202   0.46306  -0.38439  -0.22193
  60        2S         -2.54757  -2.29534  -1.32528   4.56533   2.63580
  61        3S         -0.55113  -0.06416  -0.03706   0.14132   0.08159
  62        4PX        -0.00000   0.00000  -0.00000   0.00000  -0.00000
  63        4PY        -0.02815  -0.07389  -0.04152   0.14180   0.03167
  64        4PZ        -0.01625  -0.04152  -0.02595   0.03167   0.10523
  65        5PX        -0.00000  -0.00000  -0.00000   0.00000   0.00000
  66        5PY        -0.87824  -0.54429  -0.69528   1.72379   1.03548
  67        5PZ        -0.50706  -0.69526   0.25852   1.03547   0.52813
  68        6D 0       -0.00727   0.07221   0.05586   0.05330   0.07735
  69        6D+1        0.00000  -0.00000  -0.00000   0.00000   0.00000
  70        6D-1       -0.02226  -0.10960  -0.05383   0.07415   0.07386
  71        6D+2        0.03830  -0.01742  -0.00187  -0.24004  -0.11169
  72        6D-2       -0.00000  -0.00000  -0.00000   0.00000  -0.00000
                          36        37        38        39        40
                           V         V         V         V         V
     Eigenvalues --     2.57836   2.57836   2.83059   2.86547   2.87846
   1 1   C  1S          0.00000   0.00000   0.00000   0.00000  -0.02282
   2        2S          0.00000  -0.00000   0.00000   0.00000   0.27270
   3        3S          0.00000  -0.00000   0.00000   0.00000  -0.03008
   4        4S          0.00000  -0.00000   0.00000   0.00000   1.16600
   5        5PX        -0.00000   0.00000   0.00000   0.17864   0.00000
   6        5PY        -0.00000   0.00000   0.00000   0.00000   0.00000
   7        5PZ         0.00000   0.00000   0.00000   0.00000   0.00001
   8        6PX        -0.00000   0.00000  -0.00000  -0.42486   0.00000
   9        6PY         0.00000   0.00000  -0.00001  -0.00000   0.00000
  10        6PZ         0.00000  -0.00000   0.00000   0.00000  -0.00003
  11        7PX        -0.00000   0.00000  -0.00000  -0.31746   0.00000
  12        7PY         0.00000   0.00000  -0.00000   0.00000   0.00000
  13        7PZ         0.00000  -0.00000   0.00000   0.00000   0.00000
  14        8D 0        0.00000   0.00000   0.00000   0.00000  -0.49253
  15        8D+1        0.61476   0.00000  -0.00000   0.00000   0.00000
  16        8D-1       -0.00000   0.00000   0.00000   0.00000   0.00000
  17        8D+2        0.00000   0.00000   0.00000   0.00000   0.85305
  18        8D-2        0.00000   0.61476   0.00000   0.00000   0.00000
  19        9D 0        0.00000  -0.00000   0.00000   0.00000   0.50909
  20        9D+1       -0.21775   0.00000   0.00000  -0.00000   0.00000
  21        9D-1       -0.00000   0.00000   0.00000  -0.00000   0.00000
  22        9D+2        0.00000  -0.00000   0.00000   0.00000  -0.88171
  23        9D-2        0.00000  -0.21775   0.00000   0.00000  -0.00000
  24       10F 0        0.00000  -0.00000   0.00000   0.00000   0.36425
  25       10F+1        0.35873   0.00000  -0.00000  -0.59129   0.00000
  26       10F-1        0.00000   0.00000   0.86598  -0.00000   0.00000
  27       10F+2        0.00000  -0.00000   0.00000   0.00000   0.28214
  28       10F-2        0.00000  -0.45377   0.00000   0.00000   0.00000
  29       10F+3        0.27787   0.00000   0.00000   0.76336   0.00000
  30       10F-3        0.00000   0.00000   0.22360  -0.00000   0.00000
  31 2   H  1S          0.00000  -0.00000   0.00000   0.00000  -0.03131
  32        2S          0.00000   0.00000   0.00000   0.00000  -0.68362
  33        3S          0.00000   0.00000   0.00000   0.00000  -0.07012
  34        4PX         0.27937   0.00000  -0.00000  -0.19119   0.00000
  35        4PY         0.00000   0.00000   0.29668  -0.00000   0.00000
  36        4PZ         0.00000   0.00000   0.00000   0.00000   0.31717
  37        5PX        -0.27650   0.00000   0.00000   0.48342   0.00000
  38        5PY        -0.00000   0.00000  -0.50729   0.00000   0.00000
  39        5PZ         0.00000  -0.00000   0.00000   0.00000  -0.08601
  40        6D 0        0.00000   0.00000   0.00000   0.00000  -0.03020
  41        6D+1       -0.22914   0.00000   0.00000   0.04470   0.00000
  42        6D-1       -0.00000   0.00000  -0.01263  -0.00000   0.00000
  43        6D+2        0.00000  -0.00000   0.00000   0.00000   0.04101
  44        6D-2        0.00000  -0.15328   0.00000   0.00000   0.00000
  45 3   H  1S          0.00000  -0.00000  -0.00000  -0.00000  -0.03130
  46        2S         -0.00000  -0.00000   0.00001   0.00000  -0.68364
  47        3S         -0.00000   0.00000   0.00000  -0.00000  -0.07012
  48        4PX        -0.13968   0.24194  -0.00000  -0.19119   0.00000
  49        4PY         0.00000   0.00000  -0.14834   0.00000   0.27467
  50        4PZ        -0.00000  -0.00000  -0.25694   0.00000  -0.15857
  51        5PX         0.13825  -0.23945   0.00000   0.48342   0.00000
  52        5PY         0.00000   0.00000   0.25364  -0.00000  -0.07446
  53        5PZ        -0.00000  -0.00000   0.43933   0.00000   0.04300
  54        6D 0       -0.00000  -0.00000  -0.00947   0.00000  -0.02286
  55        6D+1       -0.17224   0.03285  -0.00000  -0.02235   0.00000
  56        6D-1        0.00000   0.00000   0.00631   0.00000   0.00489
  57        6D+2        0.00000   0.00000  -0.00547   0.00000   0.04525
  58        6D-2        0.03285  -0.21018  -0.00000   0.03872  -0.00000
  59 4   H  1S         -0.00000  -0.00000   0.00000   0.00000  -0.03130
  60        2S          0.00000  -0.00000  -0.00001  -0.00000  -0.68364
  61        3S          0.00000   0.00000  -0.00000   0.00000  -0.07012
  62        4PX        -0.13968  -0.24194  -0.00000  -0.19119  -0.00000
  63        4PY         0.00000  -0.00000  -0.14834   0.00000  -0.27467
  64        4PZ         0.00000  -0.00000   0.25694  -0.00000  -0.15857
  65        5PX         0.13825   0.23945   0.00000   0.48342  -0.00000
  66        5PY         0.00000  -0.00000   0.25364  -0.00000   0.07446
  67        5PZ         0.00000  -0.00000  -0.43933  -0.00000   0.04300
  68        6D 0        0.00000  -0.00000   0.00947  -0.00000  -0.02286
  69        6D+1       -0.17224  -0.03285  -0.00000  -0.02235  -0.00000
  70        6D-1        0.00000  -0.00000   0.00631   0.00000  -0.00489
  71        6D+2       -0.00000   0.00000   0.00547  -0.00000   0.04525
  72        6D-2       -0.03285  -0.21018   0.00000  -0.03872  -0.00000
                          41        42        43        44        45
                           V         V         V         V         V
     Eigenvalues --     2.89708   2.89709   2.96031   2.96031   3.19581
   1 1   C  1S          0.00000   0.00000  -0.00000   0.00000  -0.00000
   2        2S          0.00000  -0.00001   0.00000   0.00000   0.00000
   3        3S          0.00000  -0.00000   0.00000   0.00000   0.00000
   4        4S          0.00000  -0.00003   0.00000   0.00000   0.00000
   5        5PX         0.00000   0.00000   0.00000  -0.00000   0.00000
   6        5PY        -0.22847   0.00000   0.00000   0.00000   0.00000
   7        5PZ         0.00000   0.22847   0.00000   0.00000   0.00000
   8        6PX        -0.00000   0.00000   0.00000   0.00000   0.00000
   9        6PY         0.91246   0.00000   0.00000   0.00000   0.00000
  10        6PZ         0.00000  -0.91247  -0.00000   0.00000   0.00000
  11        7PX        -0.00000   0.00000   0.00000  -0.00000   0.00000
  12        7PY        -0.42400   0.00000   0.00000  -0.00000   0.00000
  13        7PZ         0.00000   0.42400  -0.00000   0.00000   0.00000
  14        8D 0        0.00000  -0.78404  -0.00000   0.00000  -0.00000
  15        8D+1        0.00000   0.00000   0.00000  -0.77555   0.00000
  16        8D-1       -0.90535   0.00000   0.00000  -0.00000   0.00000
  17        8D+2        0.00000  -0.45269   0.00000   0.00000  -0.00000
  18        8D-2        0.00000   0.00000  -0.77555   0.00000   0.00000
  19        9D 0        0.00000   1.19368   0.00000   0.00000   0.00000
  20        9D+1       -0.00000   0.00000   0.00000   1.26206   0.00000
  21        9D-1        1.37836   0.00000   0.00000   0.00000   0.00000
  22        9D+2        0.00000   0.68920  -0.00000   0.00000  -0.00000
  23        9D-2        0.00000  -0.00000   1.26206   0.00000  -0.00000
  24       10F 0        0.00000   0.19124   0.00000   0.00000   0.00000
  25       10F+1       -0.00000   0.00000   0.00000   0.59857   0.00000
  26       10F-1       -0.07808   0.00000   0.00000  -0.00000   0.00000
  27       10F+2        0.00000  -0.24691   0.00000   0.00000   0.00000
  28       10F-2        0.00000   0.00000  -0.75714   0.00000   0.00000
  29       10F+3        0.00000   0.00000   0.00000   0.46365   0.00000
  30       10F-3        0.30240   0.00000   0.00000  -0.00000   0.00000
  31 2   H  1S          0.00000  -0.16895   0.00000   0.00000  -0.00000
  32        2S          0.00000  -0.03479   0.00000   0.00000  -0.00000
  33        3S          0.00000  -0.01093  -0.00000   0.00000  -0.00000
  34        4PX        -0.00000   0.00000   0.00000  -0.06929   0.00000
  35        4PY        -0.22496   0.00000   0.00000  -0.00000   0.00000
  36        4PZ         0.00000   0.36771   0.00000   0.00000  -0.00000
  37        5PX         0.00000   0.00000   0.00000  -0.73402   0.00000
  38        5PY        -0.42100   0.00000   0.00000   0.00000   0.00000
  39        5PZ         0.00000  -0.75306  -0.00000   0.00000   0.00000
  40        6D 0        0.00000  -0.00589   0.00000   0.00000  -0.00000
  41        6D+1        0.00000   0.00000   0.00000   0.20242   0.00000
  42        6D-1        0.23329   0.00000   0.00000   0.00000   0.00000
  43        6D+2        0.00000   0.04069   0.00000   0.00000   0.00000
  44        6D-2        0.00000  -0.00000  -0.30523   0.00000   0.58004
  45 3   H  1S          0.14631   0.08447   0.00000  -0.00000  -0.00000
  46        2S          0.03015   0.01742  -0.00000   0.00000  -0.00000
  47        3S          0.00946   0.00547  -0.00000  -0.00000  -0.00000
  48        4PX        -0.00000   0.00000  -0.06000   0.03464  -0.00000
  49        4PY        -0.33202  -0.06182   0.00000  -0.00000  -0.00000
  50        4PZ         0.06182   0.26065  -0.00000   0.00000   0.00000
  51        5PX         0.00000   0.00000  -0.63568   0.36701   0.00000
  52        5PY         0.45954   0.50838   0.00000  -0.00000   0.00000
  53        5PZ        -0.50838   0.12749  -0.00000  -0.00000  -0.00000
  54        6D 0       -0.06524   0.16437   0.00000   0.00000  -0.00000
  55        6D+1        0.00000   0.00000  -0.21982  -0.17832  -0.50233
  56        6D-1        0.06976  -0.09442   0.00000   0.00000  -0.00000
  57        6D+2       -0.07584   0.07286  -0.00000  -0.00000   0.00000
  58        6D-2        0.00000   0.00000   0.07550  -0.21982  -0.29002
  59 4   H  1S         -0.14631   0.08447   0.00000   0.00000  -0.00000
  60        2S         -0.03015   0.01742  -0.00000  -0.00000  -0.00000
  61        3S         -0.00946   0.00547  -0.00000   0.00000  -0.00000
  62        4PX        -0.00000  -0.00000   0.06000   0.03464   0.00000
  63        4PY        -0.33202   0.06182  -0.00000  -0.00000   0.00000
  64        4PZ        -0.06182   0.26065  -0.00000  -0.00000   0.00000
  65        5PX         0.00000  -0.00000   0.63568   0.36701  -0.00000
  66        5PY         0.45954  -0.50838  -0.00000  -0.00000  -0.00000
  67        5PZ         0.50838   0.12749  -0.00000   0.00000  -0.00000
  68        6D 0        0.06524   0.16437   0.00000  -0.00000  -0.00000
  69        6D+1        0.00000  -0.00000   0.21982  -0.17832   0.50233
  70        6D-1        0.06976   0.09442  -0.00000   0.00000   0.00000
  71        6D+2        0.07584   0.07286  -0.00000   0.00000   0.00000
  72        6D-2       -0.00000   0.00000   0.07550   0.21982  -0.29002
                          46        47        48        49        50
                           V         V         V         V         V
     Eigenvalues --     3.20695   3.33357   3.33357   3.58585   3.58585
   1 1   C  1S         -0.09128   0.00000   0.00000   0.00000   0.00000
   2        2S          0.08385  -0.00000   0.00000   0.00000   0.00000
   3        3S          0.34611  -0.00000   0.00000   0.00000   0.00000
   4        4S          1.15244  -0.00002   0.00000   0.00000   0.00000
   5        5PX         0.00000   0.00000  -0.00000   0.00000   0.00000
   6        5PY         0.00000   0.00000  -0.76862   0.00000   0.00000
   7        5PZ        -0.00000  -0.76862   0.00000   0.00000   0.00000
   8        6PX         0.00000   0.00000  -0.00000   0.00000   0.00000
   9        6PY         0.00000   0.00000   5.23048   0.00000  -0.00000
  10        6PZ         0.00001   5.23048   0.00000  -0.00000   0.00000
  11        7PX         0.00000   0.00000   0.00000   0.00000   0.00000
  12        7PY         0.00000   0.00000   1.41199   0.00000  -0.00000
  13        7PZ         0.00000   1.41199   0.00000  -0.00000   0.00000
  14        8D 0        0.05668   0.07972   0.00000  -0.00000   0.00000
  15        8D+1        0.00000   0.00000   0.00000   0.00000  -0.21915
  16        8D-1        0.00000   0.00000  -0.09206   0.00000  -0.00000
  17        8D+2       -0.09817   0.04603   0.00000  -0.00000   0.00000
  18        8D-2       -0.00000  -0.00000   0.00000  -0.21915   0.00000
  19        9D 0        0.24313   2.17683   0.00000   0.00000   0.00000
  20        9D+1        0.00000   0.00000  -0.00000   0.00000   0.27612
  21        9D-1        0.00000   0.00000  -2.51358   0.00000   0.00000
  22        9D+2       -0.42110   1.25680   0.00000   0.00000   0.00000
  23        9D-2        0.00000   0.00000   0.00000   0.27612   0.00000
  24       10F 0        0.37477   0.37397   0.00000  -0.00000   0.00000
  25       10F+1        0.00000   0.00000  -0.00000   0.00000   0.34813
  26       10F-1        0.00000   0.00000   0.15267   0.00000   0.00000
  27       10F+2        0.29029  -0.48280   0.00000   0.00000   0.00000
  28       10F-2       -0.00000  -0.00000   0.00000  -0.44035   0.00000
  29       10F+3        0.00000   0.00000  -0.00000   0.00000   0.26966
  30       10F-3        0.00000   0.00000  -0.59130   0.00000  -0.00000
  31 2   H  1S         -0.46062  -0.60261   0.00000  -0.00000   0.00000
  32        2S         -0.04487  -4.65774   0.00000  -0.00000   0.00000
  33        3S         -0.30396  -0.99159   0.00000   0.00000   0.00000
  34        4PX         0.00000   0.00000   0.00000   0.00000   0.69094
  35        4PY         0.00000   0.00000   0.15346   0.00000   0.00000
  36        4PZ        -0.13575  -0.24478   0.00000   0.00000   0.00000
  37        5PX         0.00000   0.00000   0.00000   0.00000  -0.66865
  38        5PY         0.00000   0.00000   0.14219   0.00000  -0.00000
  39        5PZ         0.24070   2.64121   0.00000   0.00000   0.00000
  40        6D 0       -0.21948  -0.47174   0.00000  -0.00000   0.00000
  41        6D+1        0.00000   0.00000  -0.00000   0.00000   0.25364
  42        6D-1        0.00000   0.00000   0.05083   0.00000   0.00000
  43        6D+2        0.39937  -0.35000   0.00000  -0.00000   0.00000
  44        6D-2       -0.00000  -0.00000   0.00000   0.57390   0.00000
  45 3   H  1S         -0.46062   0.30131  -0.52188  -0.00000  -0.00000
  46        2S         -0.04485   2.32888  -4.03372  -0.00000   0.00000
  47        3S         -0.30396   0.49580  -0.85875  -0.00000   0.00000
  48        4PX        -0.00000   0.00000  -0.00000   0.59836  -0.34546
  49        4PY        -0.11756   0.17244  -0.14522  -0.00000  -0.00000
  50        4PZ         0.06788   0.05390   0.17244  -0.00000   0.00000
  51        5PX        -0.00000  -0.00000  -0.00000  -0.57907   0.33432
  52        5PY         0.20845  -1.08211   2.01645   0.00000  -0.00000
  53        5PZ        -0.12035   0.76694  -1.08211   0.00000   0.00000
[...]
 --------------------------------------------------------


 ---------------------------------------------------------------------------------
              Anisotropic Spin Dipole Couplings in Principal Axis System
 ---------------------------------------------------------------------------------

       Atom             a.u.   MegaHertz   Gauss  10(-4) cm-1        Axes

              Baa    -0.5864   -78.685   -28.077   -26.247  1.0000  0.0025 -0.0000
     1 C(13)  Bbb    -0.5864   -78.685   -28.077   -26.247 -0.0025  1.0000 -0.0000
              Bcc     1.1727   157.370    56.154    52.493  0.0000  0.0000  1.0000
 
              Baa    -0.0768   -40.962   -14.616   -13.663  1.0000 -0.0000  0.0000
     2 H(1)   Bbb     0.0036     1.919     0.685     0.640  0.0000  0.0000  1.0000
              Bcc     0.0732    39.043    13.931    13.023  0.0000  1.0000 -0.0000
 
              Baa    -0.0768   -40.961   -14.616   -13.663 -0.5000  0.8660  0.0000
     3 H(1)   Bbb     0.0036     1.919     0.685     0.640  0.0000  0.0000  1.0000
              Bcc     0.0732    39.043    13.931    13.023  0.8660  0.5000 -0.0000
 
              Baa    -0.0768   -40.961   -14.616   -13.663  0.5000  0.8660  0.0000
     4 H(1)   Bbb     0.0036     1.919     0.685     0.640  0.0000  0.0000  1.0000
              Bcc     0.0732    39.043    13.931    13.023  0.8660 -0.5000 -0.0000
 

 ---------------------------------------------------------------------------------

 No NMR shielding tensors so no spin-rotation constants.
 Leave Link  601 at Sat Aug 17 23:33:56 2024, MaxMem=   13107200 cpu:       0.4
 (Enter /programs/64bit/g09/g09-gfortran/bin/l701.exe)
 Compute integral second derivatives.
 ... and contract with generalized density number  0.
 Leave Link  701 at Sat Aug 17 23:33:57 2024, MaxMem=   13107200 cpu:       0.3
 (Enter /programs/64bit/g09/g09-gfortran/bin/l702.exe)
 L702 exits ... SP integral derivatives will be done elsewhere.
 Leave Link  702 at Sat Aug 17 23:33:57 2024, MaxMem=   13107200 cpu:       0.0
 (Enter /programs/64bit/g09/g09-gfortran/bin/l703.exe)
 Compute integral second derivatives, UseDBF=F ICtDFT=           0.
 Integral derivatives from FoFDir, PRISM(SPDF).
 Calling FoFJK, ICntrl=    100127 FMM=F ISym2X=1 I1Cent= 0 IOpClX= 1 NMat=1 NMatS=1 NMatT=0.
 FoFCou: FMM=F IPFlag=           0 FMFlag=      100000 FMFlg1=         800
         NFxFlg=           0 DoJE=F BraDBF=F KetDBF=F FulRan=T
         Omega=  0.000000  0.000000  1.000000  0.000000  0.000000 ICntrl=  100127 IOpCl=  1
         NMat0=    1 NMatS0=    1 NMatT0=    0 NMatD0=    1 NMtDS0=    0 NMtDT0=    0
         I1Cent=           0 NGrid=           0.
 Petite list used in FoFCou.
 Leave Link  703 at Sat Aug 17 23:34:31 2024, MaxMem=   13107200 cpu:      25.0
 (Enter /programs/64bit/g09/g09-gfortran/bin/l716.exe)
 Dipole        = 1.30493779D-10-4.64797866D-07 1.66677916D-33
 Polarizability= 1.40182878D+01 9.22376282D-09 1.40183342D+01
                -2.78335784D-11-3.47735721D-10 1.03541616D+01
 Full mass-weighted force constant matrix:
 Low frequencies ---  -61.8255  -47.1138  -44.0540   -0.0007    0.0005    0.0007
 Low frequencies ---  524.4664 1406.8953 1406.9428
 Diagonal vibrational polarizability:
        0.0524516       0.0524672       7.4579599
 Harmonic frequencies (cm**-1), IR intensities (KM/Mole), Raman scattering
 activities (A**4/AMU), depolarization ratios for plane and unpolarized
 incident light, reduced masses (AMU), force constants (mDyne/A),
 and normal coordinates:
                     1                      2                      3
                    A"                     A'                     A'
 Frequencies --   524.4656              1406.8953              1406.9428
 Red. masses --     1.2356                 1.1023                 1.1023
 Frc consts  --     0.2002                 1.2855                 1.2856
 IR Inten    --    76.2291                 2.9294                 2.9309
  Atom  AN      X      Y      Z        X      Y      Z        X      Y      Z
     1   6    -0.00  -0.00   0.14    -0.09   0.00  -0.00     0.00   0.09   0.00
     2   1     0.00   0.00  -0.57     0.81  -0.00   0.00    -0.00   0.07  -0.00
     3   1     0.00  -0.00  -0.57     0.15  -0.38   0.00     0.38  -0.59  -0.00
     4   1     0.00   0.00  -0.57     0.15   0.38   0.00    -0.38  -0.59  -0.00
                     4                      5                      6
                    A'                     A'                     A'
 Frequencies --  3111.3628              3287.9663              3288.0189
 Red. masses --     1.0078                 1.1181                 1.1181
 Frc consts  --     5.7483                 7.1219                 7.1221
 IR Inten    --     0.0000                 5.0712                 5.0707
  Atom  AN      X      Y      Z        X      Y      Z        X      Y      Z
     1   6     0.00  -0.00   0.00     0.10  -0.00   0.00     0.00   0.10   0.00
     2   1    -0.00  -0.58  -0.00     0.02   0.00  -0.00     0.00  -0.81  -0.00
     3   1     0.50   0.29  -0.00    -0.60  -0.36  -0.00    -0.36  -0.19  -0.00
     4   1    -0.50   0.29  -0.00    -0.61   0.36  -0.00     0.36  -0.19  -0.00

 -------------------
 - Thermochemistry -
 -------------------
 Temperature   298.150 Kelvin.  Pressure   1.00000 Atm.
 Atom     1 has atomic number  6 and mass  12.00000
 Atom     2 has atomic number  1 and mass   1.00783
 Atom     3 has atomic number  1 and mass   1.00783
 Atom     4 has atomic number  1 and mass   1.00783
 Molecular mass:    15.02348 amu.
 Principal axes and moments of inertia in atomic units:
                           1         2         3
     Eigenvalues --     6.27052   6.27056  12.54108
           X            1.00000   0.00001   0.00000
           Y           -0.00001   1.00000   0.00000
           Z            0.00000  -0.00000   1.00000
 This molecule is an asymmetric top.
 Rotational symmetry number  1.
 Rotational temperatures (Kelvin)     13.81286    13.81277     6.90641
 Rotational constants (GHZ):         287.81369   287.81168   143.90634
 Zero-point vibrational energy      77910.7 (Joules/Mol)
                                   18.62110 (Kcal/Mol)
 Warning -- explicit consideration of   1 degrees of freedom as
           vibrations may cause significant error
 Vibrational temperatures:    754.59  2024.21  2024.27  4476.55  4730.64
          (Kelvin)           4730.72
 
 Zero-point correction=                           0.029675 (Hartree/Particle)
 Thermal correction to Energy=                    0.032728
 Thermal correction to Enthalpy=                  0.033672
 Thermal correction to Gibbs Free Energy=         0.009895
 Sum of electronic and zero-point Energies=            -39.828997
 Sum of electronic and thermal Energies=               -39.825943
 Sum of electronic and thermal Enthalpies=             -39.824999
 Sum of electronic and thermal Free Energies=          -39.848777
 
                     E (Thermal)             CV                S
                      KCal/Mol        Cal/Mol-Kelvin    Cal/Mol-Kelvin
 Total                   20.537              7.364             50.044
 Electronic               0.000              0.000              1.377
 Translational            0.889              2.981             34.068
 Rotational               0.889              2.981             13.964
 Vibrational             18.760              1.403              0.635
 Vibration     1          0.879              1.196              0.600
                       Q            Log10(Q)             Ln(Q)
 Total Bot       0.280936D-04         -4.551392        -10.479967
 Total V=0       0.125301D+10          9.097956         20.948817
 Vib (Bot)       0.244145D-13        -13.612352        -31.343598
 Vib (Bot)    1  0.306506D+00         -0.513561         -1.182517
 Vib (V=0)       0.108892D+01          0.036996          0.085186
 Vib (V=0)    1  0.108647D+01          0.036017          0.082933
 Electronic      0.200000D+01          0.301030          0.693147
 Translational   0.228882D+07          6.359611         14.643545
 Rotational      0.251373D+03          2.400319          5.526939
 
                                          methyl with imposed symmetry and cc-pVT
 Z basis set
                                                             IR Spectrum
 
      3     3                                                                 1                                                      
      2     1                                                                 4                                 5                    
      8     1                                                                 0                                 2                    
      8     1                                                                 7                                 4                    
 
      X                                                                       X                                 X                    
      X                                                                       X                                 X                    
      X                                                                                                         X                    
                                                                                                                X                    
                                                                                                                X                    
                                                                                                                X                    
                                                                                                                X                    
                                                                                                                X                    
                                                                                                                X                    
                                                                                                                X                    
                                                                                                                X                    
                                                                                                                X                    
                                                                                                                X                    
                                                                                                                X                    
                                                                                                                X                    
                                                                                                                X                    
                                                                                                                X                    
                                                                                                                X                    
                                                                                                                X                    
                                                                                                                X                    
 
 ***** Axes restored to original set *****
 -------------------------------------------------------------------
 Center     Atomic                   Forces (Hartrees/Bohr)
 Number     Number              X              Y              Z
 -------------------------------------------------------------------
      1        6           0.000000000    0.000000000   -0.000001031
      2        1           0.000000000   -0.000000000    0.000185728
      3        1           0.000160882    0.000000000   -0.000092348
      4        1          -0.000160883   -0.000000000   -0.000092348
 -------------------------------------------------------------------
 Cartesian Forces:  Max     0.000185728 RMS     0.000092790
 Force constants in Cartesian coordinates: 
                1             2             3             4             5 
      1  0.612829D+00
      2  0.000000D+00  0.251387D-01
      3  0.000000D+00  0.000000D+00  0.612827D+00
      4 -0.541290D-01  0.000000D+00  0.000000D+00  0.453207D-01
      5  0.000000D+00 -0.840295D-02  0.000000D+00  0.000000D+00  0.275946D-02
      6  0.000000D+00  0.000000D+00 -0.354433D+00  0.000000D+00  0.000000D+00
      7 -0.279350D+00  0.000000D+00  0.130022D+00  0.440414D-02  0.000000D+00
      8  0.000000D+00 -0.836787D-02  0.000000D+00  0.000000D+00  0.282175D-02
      9  0.130023D+00  0.000000D+00 -0.129197D+00  0.236744D-01  0.000000D+00
     10 -0.279350D+00  0.000000D+00 -0.130022D+00  0.440414D-02  0.000000D+00
     11  0.000000D+00 -0.836787D-02  0.000000D+00  0.000000D+00  0.282175D-02
     12 -0.130023D+00  0.000000D+00 -0.129197D+00 -0.236744D-01  0.000000D+00
                6             7             8             9            10 
      6  0.368630D+00
      7 -0.375443D-02  0.287797D+00
      8  0.000000D+00  0.000000D+00  0.270017D-02
      9 -0.709856D-02 -0.139983D+00  0.000000D+00  0.126142D+00
     10  0.375442D-02 -0.128504D-01  0.000000D+00 -0.137150D-01  0.287796D+00
     11  0.000000D+00  0.000000D+00  0.284595D-02  0.000000D+00  0.000000D+00
     12 -0.709856D-02  0.137150D-01  0.000000D+00  0.101534D-01  0.139983D+00
               11            12 
     11  0.270017D-02
     12  0.000000D+00  0.126142D+00
 Force constants in internal coordinates: 
                1             2             3             4             5 
      1  0.368630D+00
      2  0.297838D-03  0.368611D+00
      3  0.297840D-03  0.298642D-03  0.368611D+00
      4  0.544784D-02  0.544237D-02 -0.108950D-01  0.627899D-01
      5  0.544785D-02 -0.108950D-01  0.544237D-02 -0.313932D-01  0.627899D-01
      6 -0.108957D-01  0.545263D-02  0.545264D-02 -0.313967D-01 -0.313967D-01
      7  0.000000D+00  0.000000D+00  0.000000D+00  0.000000D+00  0.000000D+00
                6             7 
      6  0.627934D-01
      7  0.000000D+00  0.878388D-02
 Leave Link  716 at Sat Aug 17 23:34:31 2024, MaxMem=   13107200 cpu:       0.0
 (Enter /programs/64bit/g09/g09-gfortran/bin/l103.exe)

 GradGradGradGradGradGradGradGradGradGradGradGradGradGradGradGradGradGrad
 Berny optimization.
 Internal  Forces:  Max     0.000185728 RMS     0.000121490
 Search for a local minimum.
 Step number   1 out of a maximum of    2
 All quantities printed in internal units (Hartrees-Bohrs-Radians)
 Second derivative matrix not updated -- analytic derivatives used.
 The second derivative matrix:
                          R1        R2        R3        A1        A2
           R1           0.36863
           R2           0.00030   0.36861
           R3           0.00030   0.00030   0.36861
           A1           0.00545   0.00544  -0.01090   0.06279
           A2           0.00545  -0.01090   0.00544  -0.03139   0.06279
           A3          -0.01090   0.00545   0.00545  -0.03140  -0.03140
           D1           0.00000  -0.00000   0.00000   0.00000  -0.00000
                          A3        D1
           A3           0.06279
           D1          -0.00000   0.00878
     Eigenvalues ---    0.00878   0.09321   0.09322   0.36921   0.36928
     Eigenvalues ---    0.369301000.00000
 Angle between quadratic step and forces=   0.41 degrees.
 Linear search not attempted -- first point.
 Iteration  1 RMS(Cart)=  0.00032906 RMS(Int)=  0.00000000
 Iteration  2 RMS(Cart)=  0.00000000 RMS(Int)=  0.00000000
 ClnCor:  largest displacement from symmetrization is 5.99D-11 for atom     1.
 Variable       Old X    -DE/DX   Delta X   Delta X   Delta X     New X
                                 (Linear)    (Quad)   (Total)
    R1        2.03664   0.00019   0.00000   0.00050   0.00050   2.03714
    R2        2.03664   0.00019   0.00000   0.00050   0.00050   2.03714
    R3        2.03664   0.00019   0.00000   0.00050   0.00050   2.03714
    A1        2.09439  -0.00000   0.00000  -0.00000  -0.00000   2.09439
    A2        2.09439  -0.00000   0.00000  -0.00000  -0.00000   2.09439
    A3        2.09440   0.00000   0.00000   0.00001   0.00001   2.09441
    D1        3.14159   0.00000   0.00000  -0.00000   0.00000   3.14159
         Item               Value     Threshold  Converged?
 Maximum Force            0.000186     0.000450     YES
 RMS     Force            0.000121     0.000300     YES
 Maximum Displacement     0.000500     0.001800     YES
 RMS     Displacement     0.000329     0.001200     YES
 Predicted change in Energy=-1.399185D-07
 Optimization completed.
    -- Stationary point found.
                           ----------------------------
                           !   Optimized Parameters   !
                           ! (Angstroms and Degrees)  !
 --------------------------                            --------------------------
 ! Name  Definition              Value          Derivative Info.                !
 --------------------------------------------------------------------------------
 ! R1    R(1,2)                  1.0777         -DE/DX =    0.0002              !
 ! R2    R(1,3)                  1.0777         -DE/DX =    0.0002              !
 ! R3    R(1,4)                  1.0777         -DE/DX =    0.0002              !
 ! A1    A(2,1,3)              119.9999         -DE/DX =    0.0                 !
 ! A2    A(2,1,4)              119.9999         -DE/DX =    0.0                 !
 ! A3    A(3,1,4)              120.0002         -DE/DX =    0.0                 !
 ! D1    D(2,1,4,3)            180.0            -DE/DX =    0.0                 !
 --------------------------------------------------------------------------------
 GradGradGradGradGradGradGradGradGradGradGradGradGradGradGradGradGradGrad

 Leave Link  103 at Sat Aug 17 23:34:31 2024, MaxMem=   13107200 cpu:       0.0
 (Enter /programs/64bit/g09/g09-gfortran/bin/l9999.exe)
 1\1\GINC-MOLMOD\Freq\UB3LYP\CC-pVTZ\C1H3(2)\OSPITE\17-Aug-2024\0\\#P G
 eom=AllCheck Guess=TCheck SCRF=Check GenChk UB3LYP/CC-pVTZ Freq\\methy
 l with imposed symmetry and cc-pVTZ basis set\\0,2\C,0.,0.,-0.00000007
 04\H,0.,0.,1.0777416905\H,0.9333549176,0.,-0.53887081\H,-0.9333549176,
 0.,-0.53887081\\Version=EM64L-G09RevA.02\State=2-A"\HF=-39.8586717\S2=
 0.753614\S2-1=0.\S2A=0.750006\RMSD=1.022e-09\RMSF=9.279e-05\ZeroPoint=
 0.0296746\Thermal=0.0327283\Dipole=0.,0.,0.0000005\DipoleDeriv=0.02391
 28,0.,0.,0.,-0.4345537,0.,0.,0.,0.0238905,0.0437771,0.,0.,0.,0.1448901
 ,0.,0.,0.,-0.0597151,-0.033845,0.,0.0448131,0.,0.1448318,0.,0.0448079,
 0.,0.0179123,-0.033845,0.,-0.0448131,0.,0.1448318,0.,-0.0448079,0.,0.0
 179123\Polar=14.0182878,0.,10.3541616,0.,0.,14.0183342\PG=CS [SG(C1H3)
 ]\NImag=0\\0.61282936,0.,0.02513869,-0.00000002,0.,0.61282680,-0.05412
 898,0.,0.,0.04532070,0.,-0.00840295,0.,0.,0.00275946,0.,0.,-0.35443294
 ,0.,0.,0.36863005,-0.27935020,0.,0.13002194,0.00440414,0.,-0.00375443,
 0.28779650,0.,-0.00836787,0.,0.,0.00282175,0.,0.,0.00270017,0.13002311
 ,0.,-0.12919694,0.02367444,0.,-0.00709856,-0.13998253,0.,0.12614214,-0
 .27935018,0.,-0.13002192,0.00440414,0.,0.00375442,-0.01285044,0.,-0.01
 371501,0.28779647,0.,-0.00836787,0.,0.,0.00282175,0.,0.,0.00284595,0.,
 0.,0.00270017,-0.13002308,0.,-0.12919692,-0.02367444,0.,-0.00709856,0.
 01371501,0.,0.01015335,0.13998251,0.,0.12614212\\0.,0.,0.00000103,0.,0
 .,-0.00018573,-0.00016088,0.,0.00009235,0.00016088,0.,0.00009235\\\@


 A BIRD IN THE HAND IS SAFER THAN ONE OVERHEAD.

                       -- NEWTON'S SEVENTH LAW
 Job cpu time:  0 days  0 hours  2 minutes 24.7 seconds.
 File lengths (MBytes):  RWF=     10 Int=      0 D2E=      0 Chk=      2 Scr=      1
 Normal termination of Gaussian 09 at Sat Aug 17 23:34:31 2024.
