 Entering Gaussian System, Link 0=/programs/64bit/g09/g09-gfortran/bin/g09
 Input=ch3_Pople631.com
 Output=ch3_Pople631.log
 Initial command:
 /programs/64bit/g09/g09-gfortran/bin/l1.exe /home/ospite/Desktop/MMfP/Project6/CH3/g09/DFT/Gau-8717.inp -scrdir=/home/ospite/Desktop/MMfP/Project6/CH3/g09/DFT/
 Entering Link 1 = /programs/64bit/g09/g09-gfortran/bin/l1.exe PID=      8720.
  
 Copyright (c) 1988,1990,1992,1993,1995,1998,2003,2009, Gaussian, Inc.
                  All Rights Reserved.
  
 This is part of the Gaussian(R) 09 program.  It is based on
 the Gaussian(R) 03 system (copyright 2003, Gaussian, Inc.),
 the Gaussian(R) 98 system (copyright 1998, Gaussian, Inc.),
 the Gaussian(R) 94 system (copyright 1995, Gaussian, Inc.),
 the Gaussian 92(TM) system (copyright 1992, Gaussian, Inc.),
 the Gaussian 90(TM) system (copyright 1990, Gaussian, Inc.),
 the Gaussian 88(TM) system (copyright 1988, Gaussian, Inc.),
 the Gaussian 86(TM) system (copyright 1986, Carnegie Mellon
 University), and the Gaussian 82(TM) system (copyright 1983,
 Carnegie Mellon University). Gaussian is a federally registered
 trademark of Gaussian, Inc.
  
 This software contains proprietary and confidential information,
 including trade secrets, belonging to Gaussian, Inc.
  
 This software is provided under written license and may be
 used, copied, transmitted, or stored only in accord with that
 written license.
  
 The following legend is applicable only to US Government
 contracts under FAR:
  
                    RESTRICTED RIGHTS LEGEND
  
 Use, reproduction and disclosure by the US Government is
 subject to restrictions as set forth in subparagraphs (a)
 and (c) of the Commercial Computer Software - Restricted
 Rights clause in FAR 52.227-19.
  
 Gaussian, Inc.
 340 Quinnipiac St., Bldg. 40, Wallingford CT 06492
  
  
 ---------------------------------------------------------------
 Warning -- This program may not be used in any manner that
 competes with the business of Gaussian, Inc. or will provide
 assistance to any competitor of Gaussian, Inc.  The licensee
 of this program is prohibited from giving any competitor of
 Gaussian, Inc. access to this program.  By using this program,
 the user acknowledges that Gaussian, Inc. is engaged in the
 business of creating and licensing software in the field of
 computational chemistry and represents and warrants to the
 licensee that it is not a competitor of Gaussian, Inc. and that
 it will not use this program in any manner prohibited above.
 ---------------------------------------------------------------
  

 Cite this work as:
 Gaussian 09, Revision A.02,
 M. J. Frisch, G. W. Trucks, H. B. Schlegel, G. E. Scuseria, 
 M. A. Robb, J. R. Cheeseman, G. Scalmani, V. Barone, B. Mennucci, 
 G. A. Petersson, H. Nakatsuji, M. Caricato, X. Li, H. P. Hratchian, 
 A. F. Izmaylov, J. Bloino, G. Zheng, J. L. Sonnenberg, M. Hada, 
 M. Ehara, K. Toyota, R. Fukuda, J. Hasegawa, M. Ishida, T. Nakajima, 
 Y. Honda, O. Kitao, H. Nakai, T. Vreven, J. A. Montgomery, Jr., 
 J. E. Peralta, F. Ogliaro, M. Bearpark, J. J. Heyd, E. Brothers, 
 K. N. Kudin, V. N. Staroverov, R. Kobayashi, J. Normand, 
 K. Raghavachari, A. Rendell, J. C. Burant, S. S. Iyengar, J. Tomasi, 
 M. Cossi, N. Rega, J. M. Millam, M. Klene, J. E. Knox, J. B. Cross, 
 V. Bakken, C. Adamo, J. Jaramillo, R. Gomperts, R. E. Stratmann, 
 O. Yazyev, A. J. Austin, R. Cammi, C. Pomelli, J. W. Ochterski, 
 R. L. Martin, K. Morokuma, V. G. Zakrzewski, G. A. Voth, 
 P. Salvador, J. J. Dannenberg, S. Dapprich, A. D. Daniels, 
 O. Farkas, J. B. Foresman, J. V. Ortiz, J. Cioslowski, 
 and D. J. Fox, Gaussian, Inc., Wallingford CT, 2009.
 
 ******************************************
 Gaussian 09:  EM64L-G09RevA.02 11-Jun-2009
                17-Aug-2024 
 ******************************************
 %mem=100MB
 -----------------------------------------------------------------
 #p b3lyp/6-31G opt freq symmetry=(follow,pg=C3v) pop=full gfinput
 -----------------------------------------------------------------
 1/14=-1,18=20,19=15,26=3,38=1/1,3;
 2/9=110,12=2,17=6,18=5,19=2314885530821997379,40=1/2;
 3/5=1,6=6,11=2,16=1,24=10,25=1,30=1,71=1,74=-5/1,2,3;
 4//1;
 5/5=2,38=5/2;
 6/7=3,28=1/1;
 7//1,2,3,16;
 1/14=-1,18=20,19=15/3(2);
 2/9=110,15=5,19=2314885530821997379/2;
 99//99;
 2/9=110,15=5,19=2314885530821997379/2;
 3/5=1,6=6,11=2,16=1,25=1,30=1,71=1,74=-5/1,2,3;
 4/5=5,16=3/1;
 5/5=2,38=5/2;
 7//1,2,3,16;
 1/14=-1,18=20,19=15/3(-5);
 2/9=110,15=5,19=2314885530821997379/2;
 6/7=3,19=2,28=1/1;
 99/9=1/99;
 Leave Link    1 at Sat Aug 17 17:57:04 2024, MaxMem=   13107200 cpu:       0.1
 (Enter /programs/64bit/g09/g09-gfortran/bin/l101.exe)
 -----------------------------------------------------------
 methyl with imposed symmetry Td and hf/6-31G basis function
 -----------------------------------------------------------
 Symbolic Z-matrix:
 Charge =  0 Multiplicity = 2
 C1
 H2                   1    d
 H3                   1    d        2    a
 H4                   1    d        2    -a       3    t        0
       Variables:
  d                     1.09                     
  a                   120.                       
  t                     0.                       
 
 NAtoms=      4 NQM=      4 NQMF=      0 NMic=      0 NMicF=      0 NTot=      4.
                    Isotopes and Nuclear Properties:
 (Nuclear quadrupole moments (NQMom) in fm**2, nuclear magnetic moments (NMagM)
  in nuclear magnetons)

  Atom         1           2           3           4
 IAtWgt=          12           1           1           1
 AtmWgt=  12.0000000   1.0078250   1.0078250   1.0078250
 NucSpn=           0           1           1           1
 AtZEff=   0.0000000   0.0000000   0.0000000   0.0000000
 NQMom=    0.0000000   0.0000000   0.0000000   0.0000000
 NMagM=    0.0000000   2.7928460   2.7928460   2.7928460
 Leave Link  101 at Sat Aug 17 17:57:04 2024, MaxMem=   13107200 cpu:       0.1
 (Enter /programs/64bit/g09/g09-gfortran/bin/l103.exe)

 GradGradGradGradGradGradGradGradGradGradGradGradGradGradGradGradGradGrad
 Berny optimization.
 Initialization pass.
                           ----------------------------
                           !    Initial Parameters    !
                           ! (Angstroms and Degrees)  !
 --------------------------                            --------------------------
 ! Name  Definition              Value          Derivative Info.                !
 --------------------------------------------------------------------------------
 ! R1    R(1,2)                  1.09           estimate D2E/DX2                !
 ! R2    R(1,3)                  1.09           estimate D2E/DX2                !
 ! R3    R(1,4)                  1.09           estimate D2E/DX2                !
 ! A1    A(2,1,3)              120.0            estimate D2E/DX2                !
 ! A2    A(2,1,4)              120.0            estimate D2E/DX2                !
 ! A3    A(3,1,4)              120.0            estimate D2E/DX2                !
 ! D1    D(2,1,4,3)            180.0            estimate D2E/DX2                !
 --------------------------------------------------------------------------------
 Trust Radius=3.00D-01 FncErr=1.00D-07 GrdErr=1.00D-06
 Number of steps in this run=  20 maximum allowed number of steps= 100.
 GradGradGradGradGradGradGradGradGradGradGradGradGradGradGradGradGradGrad

 Leave Link  103 at Sat Aug 17 17:57:04 2024, MaxMem=   13107200 cpu:       0.0
 (Enter /programs/64bit/g09/g09-gfortran/bin/l202.exe)
                          Input orientation:                          
 ---------------------------------------------------------------------
 Center     Atomic      Atomic             Coordinates (Angstroms)
 Number     Number       Type             X           Y           Z
 ---------------------------------------------------------------------
      1          6           0        0.000000    0.000000    0.000000
      2          1           0        0.000000    0.000000    1.090000
      3          1           0        0.943968    0.000000   -0.545000
      4          1           0       -0.943968    0.000000   -0.545000
 ---------------------------------------------------------------------
                    Distance matrix (angstroms):
                    1          2          3          4
     1  C    0.000000
     2  H    1.090000   0.000000
     3  H    1.090000   1.887935   0.000000
     4  H    1.090000   1.887935   1.887935   0.000000
 Symm:  InNGrp=C3V  InAxis=0.
 This structure is nearly, but not quite of a higher symmetry.
 Consider Symm=Loose if the higher symmetry is desired.
 Stoichiometry    CH3(2)
 Framework group  C2[C2(CH),X(H2)]
 Deg. of freedom     3
 Full point group                 C2      NOp   2
 Largest Abelian subgroup         C2      NOp   2
 Largest concise Abelian subgroup C2      NOp   2
                         Standard orientation:                         
 ---------------------------------------------------------------------
 Center     Atomic      Atomic             Coordinates (Angstroms)
 Number     Number       Type             X           Y           Z
 ---------------------------------------------------------------------
      1          6           0        0.000000    0.000000    0.000000
      2          1           0        0.000000    0.000000    1.090000
      3          1           0        0.000000    0.943968   -0.545000
      4          1           0       -0.000000   -0.943968   -0.545000
 ---------------------------------------------------------------------
 Rotational constants (GHZ):    281.3764836    281.3764836    140.6882418
 Leave Link  202 at Sat Aug 17 17:57:04 2024, MaxMem=   13107200 cpu:       0.0
 (Enter /programs/64bit/g09/g09-gfortran/bin/l301.exe)
 Standard basis: 6-31G (6D, 7F)
 Ernie: Thresh=  0.10000D-02 Tol=  0.10000D-05 Strict=F.
 AO basis set in the form of general basis input (Overlap normalization):
      1 0
 S   6 1.00       0.000000000000
      0.3047524880D+04  0.1834737132D-02
      0.4573695180D+03  0.1403732281D-01
      0.1039486850D+03  0.6884262226D-01
      0.2921015530D+02  0.2321844432D+00
      0.9286662960D+01  0.4679413484D+00
      0.3163926960D+01  0.3623119853D+00
 SP   3 1.00       0.000000000000
      0.7868272350D+01 -0.1193324198D+00  0.6899906659D-01
      0.1881288540D+01 -0.1608541517D+00  0.3164239610D+00
      0.5442492580D+00  0.1143456438D+01  0.7443082909D+00
 SP   1 1.00       0.000000000000
      0.1687144782D+00  0.1000000000D+01  0.1000000000D+01
 ****
      2 0
 S   3 1.00       0.000000000000
      0.1873113696D+02  0.3349460434D-01
      0.2825394365D+01  0.2347269535D+00
      0.6401216923D+00  0.8137573261D+00
 S   1 1.00       0.000000000000
      0.1612777588D+00  0.1000000000D+01
 ****
      3 0
 S   3 1.00       0.000000000000
      0.1873113696D+02  0.3349460434D-01
      0.2825394365D+01  0.2347269535D+00
      0.6401216923D+00  0.8137573261D+00
 S   1 1.00       0.000000000000
      0.1612777588D+00  0.1000000000D+01
 ****
      4 0
 S   3 1.00       0.000000000000
      0.1873113696D+02  0.3349460434D-01
      0.2825394365D+01  0.2347269535D+00
      0.6401216923D+00  0.8137573261D+00
 S   1 1.00       0.000000000000
      0.1612777588D+00  0.1000000000D+01
 ****

 There are     9 symmetry adapted basis functions of A   symmetry.
 There are     6 symmetry adapted basis functions of B   symmetry.
 Integral buffers will be    131072 words long.
 Raffenetti 2 integral format.
 Two-electron integral symmetry is turned on.
    15 basis functions,    34 primitive gaussians,    15 cartesian basis functions
     5 alpha electrons        4 beta electrons
       nuclear repulsion energy         9.5795885928 Hartrees.
 IExCor=  402 DFT=T Ex+Corr=B3LYP ExCW=0 ScaHFX=  0.200000
 ScaDFX=  0.800000  0.720000  1.000000  0.810000 ScalE2=  1.000000  1.000000
 IRadAn=      0 IRanWt=     -1 IRanGd=            0 ICorTp=0
 NAtoms=    4 NActive=    4 NUniq=    3 SFac= 1.33D+00 NAtFMM=   80 NAOKFM=F Big=F
 Leave Link  301 at Sat Aug 17 17:57:04 2024, MaxMem=   13107200 cpu:       0.1
 (Enter /programs/64bit/g09/g09-gfortran/bin/l302.exe)
 NPDir=0 NMtPBC=     1 NCelOv=     1 NCel=       1 NClECP=     1 NCelD=      1
         NCelK=      1 NCelE2=     1 NClLst=     1 CellRange=     0.0.
 One-electron integrals computed using PRISM.
 One-electron integral symmetry used in STVInt
 NBasis=    15 RedAO= T  NBF=     9     6
 NBsUse=    15 1.00D-06 NBFU=     9     6
 Precomputing XC quadrature grid using
 IXCGrd= 2 IRadAn=           0 IRanWt=          -1 IRanGd=           0 AccXCQ= 1.00D-10.
 NRdTot=     243 NPtTot=       30652 NUsed=       32418 NTot=       32450
 NSgBfM=    15    15    15    15    15 NAtAll=     4     4.
 Leave Link  302 at Sat Aug 17 17:57:04 2024, MaxMem=   13107200 cpu:       0.2
 (Enter /programs/64bit/g09/g09-gfortran/bin/l303.exe)
 DipDrv:  MaxL=1.
 Leave Link  303 at Sat Aug 17 17:57:04 2024, MaxMem=   13107200 cpu:       0.0
 (Enter /programs/64bit/g09/g09-gfortran/bin/l401.exe)
 Harris functional with IExCor=  402 diagonalized for initial guess.
 ExpMin= 1.61D-01 ExpMax= 3.05D+03 ExpMxC= 4.57D+02 IAcc=1 IRadAn=         1 AccDes= 0.00D+00
 HarFok:  IExCor=  402 AccDes= 0.00D+00 IRadAn=         1 IDoV= 1
 ScaDFX=  1.000000  1.000000  1.000000  1.000000
 FoFCou: FMM=F IPFlag=           0 FMFlag=      100000 FMFlg1=           0
         NFxFlg=           0 DoJE=T BraDBF=F KetDBF=T FulRan=T
         Omega=  0.000000  0.000000  1.000000  0.000000  0.000000 ICntrl=     500 IOpCl=  0
         NMat0=    1 NMatS0=    1 NMatT0=    0 NMatD0=    1 NMtDS0=    0 NMtDT0=    0
         I1Cent=           4 NGrid=           0.
 Petite list used in FoFCou.
 Harris En= -39.8257377711768    
 Initial guess orbital symmetries:
 Alpha Orbitals:
       Occupied  (A) (A) (B) (A) (B)
       Virtual   (A) (A) (B) (B) (B) (A) (A) (A) (B) (A)
 Beta  Orbitals:
       Occupied  (A) (A) (B) (A)
       Virtual   (B) (A) (A) (B) (B) (B) (A) (A) (A) (B) (A)
 The electronic state of the initial guess is 2-B.
 Initial guess <Sx>= 0.0000 <Sy>= 0.0000 <Sz>= 0.5000 <S**2>= 0.7500 S= 0.5000
 Leave Link  401 at Sat Aug 17 17:57:04 2024, MaxMem=   13107200 cpu:       0.2
 (Enter /programs/64bit/g09/g09-gfortran/bin/l502.exe)
 UHF open shell SCF:
 Requested convergence on RMS density matrix=1.00D-08 within 128 cycles.
 Requested convergence on MAX density matrix=1.00D-06.
 Requested convergence on             energy=1.00D-06.
 No special actions if energy rises.
 Using DIIS extrapolation, IDIIS=  1040.
 Integral symmetry usage will be decided dynamically.
        32369 words used for storage of precomputed grid.
 Keep R1 and R2 ints in memory in canonical form, NReq=924409.
 IEnd=       52146 IEndB=       52146 NGot=    13107200 MDV=    13057609
 LenX=    13057609 LenY=    13056727
 Symmetry not used in FoFDir.
 MinBra= 0 MaxBra= 1 Meth= 1.
 IRaf=       0 NMat=   1 IRICut=       1 DoRegI=T DoRafI=F ISym2E= 0 JSym2E=0.
 Integral accuracy reduced to 1.0D-05 until final iterations.

 Cycle   1  Pass 0  IDiag  1:
 E= -39.7885686443920    
 DIIS: error= 5.30D-02 at cycle   1 NSaved=   1.
 NSaved= 1 IEnMin= 1 EnMin= -39.7885686443920     IErMin= 1 ErrMin= 5.30D-02
 ErrMax= 5.30D-02 EMaxC= 1.00D-01 BMatC= 1.37D-01 BMatP= 1.37D-01
 IDIUse=3 WtCom= 4.70D-01 WtEn= 5.30D-01
 Coeff-Com:  0.100D+01
 Coeff-En:   0.100D+01
 Coeff:      0.100D+01
 Gap=     0.274 Goal=   None    Shift=    0.000
 Gap=     0.382 Goal=   None    Shift=    0.000
 GapD=    0.274 DampG=1.000 DampE=0.500 DampFc=0.5000 IDamp=-1.
 Damping current iteration by 5.00D-01
 RMSDP=2.25D-02 MaxDP=1.51D-01              OVMax= 1.40D-01

 Cycle   2  Pass 0  IDiag  1:
 E= -39.8097935482558     Delta-E=       -0.021224903864 Rises=F Damp=T
 DIIS: error= 6.37D-03 at cycle   2 NSaved=   2.
 NSaved= 2 IEnMin= 2 EnMin= -39.8097935482558     IErMin= 2 ErrMin= 6.37D-03
 ErrMax= 6.37D-03 EMaxC= 1.00D-01 BMatC= 2.51D-03 BMatP= 1.37D-01
 IDIUse=3 WtCom= 9.36D-01 WtEn= 6.37D-02
 Coeff-Com: -0.247D-02 0.100D+01
 Coeff-En:   0.000D+00 0.100D+01
 Coeff:     -0.232D-02 0.100D+01
 Gap=     0.331 Goal=   None    Shift=    0.000
 Gap=     0.354 Goal=   None    Shift=    0.000
 RMSDP=2.57D-03 MaxDP=1.60D-02 DE=-2.12D-02 OVMax= 6.05D-02

 Cycle   3  Pass 0  IDiag  1:
 E= -39.8310109425021     Delta-E=       -0.021217394246 Rises=F Damp=F
 DIIS: error= 1.15D-03 at cycle   3 NSaved=   3.
 NSaved= 3 IEnMin= 3 EnMin= -39.8310109425021     IErMin= 3 ErrMin= 1.15D-03
 ErrMax= 1.15D-03 EMaxC= 1.00D-01 BMatC= 7.29D-05 BMatP= 2.51D-03
 IDIUse=3 WtCom= 9.88D-01 WtEn= 1.15D-02
 Coeff-Com: -0.132D-02-0.129D-01 0.101D+01
 Coeff-En:   0.000D+00 0.000D+00 0.100D+01
 Coeff:     -0.130D-02-0.127D-01 0.101D+01
 Gap=     0.335 Goal=   None    Shift=    0.000
 Gap=     0.355 Goal=   None    Shift=    0.000
 RMSDP=4.93D-04 MaxDP=2.58D-03 DE=-2.12D-02 OVMax= 2.49D-03

 Cycle   4  Pass 0  IDiag  1:
 E= -39.8310611973852     Delta-E=       -0.000050254883 Rises=F Damp=F
 DIIS: error= 4.10D-04 at cycle   4 NSaved=   4.
 NSaved= 4 IEnMin= 4 EnMin= -39.8310611973852     IErMin= 4 ErrMin= 4.10D-04
 ErrMax= 4.10D-04 EMaxC= 1.00D-01 BMatC= 9.51D-06 BMatP= 7.29D-05
 IDIUse=3 WtCom= 9.96D-01 WtEn= 4.10D-03
 Coeff-Com: -0.696D-03-0.208D-01-0.425D+00 0.145D+01
 Coeff-En:   0.000D+00 0.000D+00 0.000D+00 0.100D+01
 Coeff:     -0.693D-03-0.208D-01-0.424D+00 0.145D+01
 Gap=     0.336 Goal=   None    Shift=    0.000
 Gap=     0.355 Goal=   None    Shift=    0.000
 RMSDP=2.68D-04 MaxDP=1.30D-03 DE=-5.03D-05 OVMax= 1.55D-03

 Cycle   5  Pass 0  IDiag  1:
 E= -39.8310692921977     Delta-E=       -0.000008094813 Rises=F Damp=F
 DIIS: error= 3.72D-05 at cycle   5 NSaved=   5.
 NSaved= 5 IEnMin= 5 EnMin= -39.8310692921977     IErMin= 5 ErrMin= 3.72D-05
 ErrMax= 3.72D-05 EMaxC= 1.00D-01 BMatC= 7.18D-08 BMatP= 9.51D-06
 IDIUse=1 WtCom= 1.00D+00 WtEn= 0.00D+00
 Coeff-Com: -0.454D-04 0.258D-02 0.294D-02-0.104D+00 0.110D+01
 Coeff:     -0.454D-04 0.258D-02 0.294D-02-0.104D+00 0.110D+01
 Gap=     0.336 Goal=   None    Shift=    0.000
 Gap=     0.355 Goal=   None    Shift=    0.000
 RMSDP=2.39D-05 MaxDP=1.24D-04 DE=-8.09D-06 OVMax= 1.50D-04

 Cycle   6  Pass 0  IDiag  1:
 E= -39.8310693534456     Delta-E=       -0.000000061248 Rises=F Damp=F
 DIIS: error= 3.80D-06 at cycle   6 NSaved=   6.
 NSaved= 6 IEnMin= 6 EnMin= -39.8310693534456     IErMin= 6 ErrMin= 3.80D-06
 ErrMax= 3.80D-06 EMaxC= 1.00D-01 BMatC= 3.96D-10 BMatP= 7.18D-08
 IDIUse=1 WtCom= 1.00D+00 WtEn= 0.00D+00
 Coeff-Com:  0.217D-04-0.316D-03 0.283D-02 0.363D-02-0.160D+00 0.115D+01
 Coeff:      0.217D-04-0.316D-03 0.283D-02 0.363D-02-0.160D+00 0.115D+01
 Gap=     0.336 Goal=   None    Shift=    0.000
 Gap=     0.355 Goal=   None    Shift=    0.000
 RMSDP=1.90D-06 MaxDP=1.52D-05 DE=-6.12D-08 OVMax= 1.24D-05

 Initial convergence to 1.0D-05 achieved.  Increase integral accuracy.
 Cycle   7  Pass 1  IDiag  1:
 E= -39.8310727206731     Delta-E=       -0.000003367227 Rises=F Damp=F
 DIIS: error= 1.36D-06 at cycle   1 NSaved=   1.
 NSaved= 1 IEnMin= 1 EnMin= -39.8310727206731     IErMin= 1 ErrMin= 1.36D-06
 ErrMax= 1.36D-06 EMaxC= 1.00D-01 BMatC= 1.23D-10 BMatP= 1.23D-10
 IDIUse=1 WtCom= 1.00D+00 WtEn= 0.00D+00
 Coeff-Com:  0.100D+01
 Coeff:      0.100D+01
 Gap=     0.336 Goal=   None    Shift=    0.000
 Gap=     0.355 Goal=   None    Shift=    0.000
 RMSDP=1.90D-06 MaxDP=1.52D-05 DE=-3.37D-06 OVMax= 5.19D-06

 Cycle   8  Pass 1  IDiag  1:
 E= -39.8310727207213     Delta-E=       -0.000000000048 Rises=F Damp=F
 DIIS: error= 6.67D-07 at cycle   2 NSaved=   2.
 NSaved= 2 IEnMin= 2 EnMin= -39.8310727207213     IErMin= 2 ErrMin= 6.67D-07
 ErrMax= 6.67D-07 EMaxC= 1.00D-01 BMatC= 2.51D-11 BMatP= 1.23D-10
 IDIUse=1 WtCom= 1.00D+00 WtEn= 0.00D+00
 Coeff-Com:  0.245D+00 0.755D+00
 Coeff:      0.245D+00 0.755D+00
 Gap=     0.336 Goal=   None    Shift=    0.000
 Gap=     0.355 Goal=   None    Shift=    0.000
 RMSDP=2.21D-07 MaxDP=1.54D-06 DE=-4.82D-11 OVMax= 1.50D-06

 Cycle   9  Pass 1  IDiag  1:
 E= -39.8310727207271     Delta-E=       -0.000000000006 Rises=F Damp=F
 DIIS: error= 3.51D-07 at cycle   3 NSaved=   3.
 NSaved= 3 IEnMin= 3 EnMin= -39.8310727207271     IErMin= 3 ErrMin= 3.51D-07
 ErrMax= 3.51D-07 EMaxC= 1.00D-01 BMatC= 6.11D-12 BMatP= 2.51D-11
 IDIUse=1 WtCom= 1.00D+00 WtEn= 0.00D+00
 Coeff-Com: -0.206D-01 0.317D+00 0.703D+00
 Coeff:     -0.206D-01 0.317D+00 0.703D+00
 Gap=     0.336 Goal=   None    Shift=    0.000
 Gap=     0.355 Goal=   None    Shift=    0.000
 RMSDP=7.34D-08 MaxDP=5.58D-07 DE=-5.71D-12 OVMax= 4.70D-07

 Cycle  10  Pass 1  IDiag  1:
 E= -39.8310727207288     Delta-E=       -0.000000000002 Rises=F Damp=F
 DIIS: error= 3.45D-08 at cycle   4 NSaved=   4.
 NSaved= 4 IEnMin= 4 EnMin= -39.8310727207288     IErMin= 4 ErrMin= 3.45D-08
 ErrMax= 3.45D-08 EMaxC= 1.00D-01 BMatC= 4.02D-14 BMatP= 6.11D-12
 IDIUse=1 WtCom= 1.00D+00 WtEn= 0.00D+00
 Coeff-Com: -0.774D-02 0.422D-01 0.133D+00 0.833D+00
 Coeff:     -0.774D-02 0.422D-01 0.133D+00 0.833D+00
 Gap=     0.336 Goal=   None    Shift=    0.000
 Gap=     0.355 Goal=   None    Shift=    0.000
 RMSDP=1.12D-08 MaxDP=5.64D-08 DE=-1.72D-12 OVMax= 7.74D-08

 Cycle  11  Pass 1  IDiag  1:
 E= -39.8310727207288     Delta-E=       -0.000000000000 Rises=F Damp=F
 DIIS: error= 7.48D-09 at cycle   5 NSaved=   5.
 NSaved= 5 IEnMin= 5 EnMin= -39.8310727207288     IErMin= 5 ErrMin= 7.48D-09
 ErrMax= 7.48D-09 EMaxC= 1.00D-01 BMatC= 1.51D-15 BMatP= 4.02D-14
 IDIUse=1 WtCom= 1.00D+00 WtEn= 0.00D+00
 Coeff-Com:  0.204D-02-0.207D-01-0.531D-01-0.190D+00 0.126D+01
 Coeff:      0.204D-02-0.207D-01-0.531D-01-0.190D+00 0.126D+01
 Gap=     0.336 Goal=   None    Shift=    0.000
 Gap=     0.355 Goal=   None    Shift=    0.000
 RMSDP=3.64D-09 MaxDP=1.95D-08 DE=-1.42D-14 OVMax= 2.96D-08

 SCF Done:  E(UB3LYP) =  -39.8310727207     A.U. after   11 cycles
             Convg  =    0.3639D-08             -V/T =  2.0066
 <Sx>= 0.0000 <Sy>= 0.0000 <Sz>= 0.5000 <S**2>= 0.7535 S= 0.5017
 <L.S>=  0.00000000000    
 KE= 3.956877200020D+01 PE=-1.110568527223D+02 EE= 2.207741940859D+01
 Annihilation of the first spin contaminant:
 S**2 before annihilation     0.7535,   after     0.7500
 Leave Link  502 at Sat Aug 17 17:57:06 2024, MaxMem=   13107200 cpu:       1.4
 (Enter /programs/64bit/g09/g09-gfortran/bin/l601.exe)
 Copying SCF densities to generalized density rwf, IOpCl= 1 IROHF=0.

 **********************************************************************

            Population analysis using the SCF density.

 **********************************************************************

 Orbital symmetries:
 Alpha Orbitals:
       Occupied  (A) (A) (B) (A) (B)
       Virtual   (A) (B) (A) (B) (B) (A) (A) (B) (A) (A)
 Beta  Orbitals:
       Occupied  (A) (A) (B) (A)
       Virtual   (B) (A) (B) (A) (B) (A) (B) (A) (B) (A) (A)
 The electronic state is 2-B.
 Alpha  occ. eigenvalues --  -10.18771  -0.68175  -0.41659  -0.41659  -0.22462
 Alpha virt. eigenvalues --    0.11153   0.17881   0.17881   0.53643   0.55957
 Alpha virt. eigenvalues --    0.55957   0.72244   0.94999   0.94999   0.96195
  Beta  occ. eigenvalues --  -10.17329  -0.63887  -0.40634  -0.40634
  Beta virt. eigenvalues --   -0.05093   0.12718   0.18451   0.18451   0.56850
  Beta virt. eigenvalues --    0.56851   0.61293   0.73979   0.95271   0.95271
  Beta virt. eigenvalues --    0.98818
     Alpha Molecular Orbital Coefficients:
                           1         2         3         4         5
                           O         O         O         O         O
     Eigenvalues --   -10.18771  -0.68175  -0.41659  -0.41659  -0.22462
   1 1   C  1S          0.99497  -0.20481   0.00000  -0.00000   0.00000
   2        2S          0.03473   0.40617   0.00000  -0.00000   0.00000
   3        2PX         0.00000   0.00000  -0.00000   0.00000   0.60220
   4        2PY         0.00000   0.00000   0.46044   0.00000   0.00000
   5        2PZ         0.00000  -0.00000   0.00000   0.46044   0.00000
   6        3S         -0.02228   0.39403   0.00000   0.00000   0.00000
   7        3PX         0.00000   0.00000   0.00000   0.00000   0.52585
   8        3PY         0.00000   0.00000   0.18906   0.00000   0.00000
   9        3PZ        -0.00000   0.00000   0.00000   0.18906   0.00000
  10 2   H  1S         -0.00125   0.14596   0.00000   0.28492   0.00000
  11        2S          0.00499   0.04217   0.00000   0.22227   0.00000
  12 3   H  1S         -0.00125   0.14596   0.24675  -0.14246   0.00000
  13        2S          0.00499   0.04217   0.19249  -0.11113  -0.00000
  14 4   H  1S         -0.00125   0.14596  -0.24675  -0.14246  -0.00000
  15        2S          0.00499   0.04217  -0.19249  -0.11113   0.00000
                           6         7         8         9        10
                           V         V         V         V         V
     Eigenvalues --     0.11153   0.17881   0.17881   0.53643   0.55957
   1 1   C  1S         -0.15054   0.00000   0.00000   0.00000   0.00000
   2        2S          0.23143   0.00000  -0.00000   0.00000   0.00000
   3        2PX         0.00000   0.00000   0.00000  -1.05736   0.00000
   4        2PY         0.00000  -0.40841   0.00000  -0.00000  -0.80746
   5        2PZ        -0.00000   0.00000  -0.40841   0.00000   0.00000
   6        3S          2.14640   0.00000  -0.00002   0.00000   0.00000
   7        3PX         0.00000   0.00000   0.00000   1.09733  -0.00000
   8        3PY         0.00000  -1.42931   0.00000  -0.00000   1.84448
   9        3PZ        -0.00001   0.00000  -1.42931   0.00000   0.00000
  10 2   H  1S         -0.07832   0.00000   0.09571   0.00000   0.00000
  11        2S         -1.07442   0.00000   1.86359   0.00000   0.00000
  12 3   H  1S         -0.07832   0.08288  -0.04785   0.00000  -0.39204
  13        2S         -1.07445   1.61391  -0.93178   0.00000  -0.53164
  14 4   H  1S         -0.07832  -0.08288  -0.04785  -0.00000   0.39204
  15        2S         -1.07445  -1.61391  -0.93178  -0.00000   0.53164
                          11        12        13        14        15
                           V         V         V         V         V
     Eigenvalues --     0.55957   0.72244   0.94999   0.94999   0.96195
   1 1   C  1S         -0.00000  -0.06168   0.00000   0.00000   0.04526
   2        2S         -0.00000  -0.91076   0.00000  -0.00006  -1.88786
   3        2PX         0.00000   0.00000   0.00000   0.00000   0.00000
   4        2PY         0.00000   0.00000   0.82049   0.00000   0.00000
   5        2PZ        -0.80746   0.00000   0.00000   0.82049  -0.00003
   6        3S          0.00000   1.85379   0.00000   0.00012   3.58128
   7        3PX         0.00000   0.00000   0.00000   0.00000   0.00000
   8        3PY         0.00000   0.00000  -0.99360   0.00000   0.00000
   9        3PZ         1.84448  -0.00000   0.00000  -0.99360   0.00003
  10 2   H  1S         -0.45269  -0.65476   0.00000  -1.01415   0.40086
  11        2S         -0.61389  -0.04793   0.00000   1.52664  -1.15250
  12 3   H  1S          0.22634  -0.65476  -0.87829   0.50710   0.40081
  13        2S          0.30694  -0.04793   1.32214  -0.76338  -1.15243
  14 4   H  1S          0.22634  -0.65476   0.87829   0.50710   0.40081
  15        2S          0.30694  -0.04793  -1.32214  -0.76338  -1.15243
     Beta Molecular Orbital Coefficients:
                           1         2         3         4         5
                           O         O         O         O         V
     Eigenvalues --   -10.17329  -0.63887  -0.40634  -0.40634  -0.05093
   1 1   C  1S          0.99526  -0.19595   0.00000   0.00000   0.00000
   2        2S          0.03315   0.38763   0.00000  -0.00000   0.00000
   3        2PX         0.00000   0.00000  -0.00000   0.00000   0.50632
   4        2PY         0.00000   0.00000   0.44090   0.00000   0.00000
   5        2PZ         0.00000   0.00000   0.00000   0.44090   0.00000
   6        3S         -0.02169   0.31843   0.00000   0.00000   0.00000
   7        3PX         0.00000   0.00000  -0.00000   0.00000   0.62084
   8        3PY         0.00000   0.00000   0.16789   0.00000   0.00000
   9        3PZ        -0.00000   0.00000   0.00000   0.16789   0.00000
  10 2   H  1S         -0.00106   0.16457   0.00000   0.29806   0.00000
  11        2S          0.00483   0.07341   0.00000   0.24848   0.00000
  12 3   H  1S         -0.00106   0.16457   0.25813  -0.14903   0.00000
  13        2S          0.00483   0.07341   0.21520  -0.12424  -0.00000
  14 4   H  1S         -0.00106   0.16457  -0.25813  -0.14903  -0.00000
  15        2S          0.00483   0.07341  -0.21520  -0.12424   0.00000
                           6         7         8         9        10
                           V         V         V         V         V
     Eigenvalues --     0.12718   0.18451   0.18451   0.56850   0.56851
   1 1   C  1S         -0.15680   0.00000   0.00000   0.00000  -0.00000
   2        2S          0.22966   0.00000  -0.00000   0.00000  -0.00001
   3        2PX         0.00000   0.00000   0.00000   0.00000   0.00000
   4        2PY         0.00000  -0.40778   0.00000  -0.79593   0.00000
   5        2PZ        -0.00000   0.00000  -0.40778   0.00000  -0.79593
   6        3S          2.19351   0.00000  -0.00002   0.00000   0.00001
   7        3PX         0.00000   0.00000   0.00000  -0.00000   0.00000
   8        3PY         0.00000  -1.45133   0.00000   1.82041   0.00000
   9        3PZ        -0.00001   0.00000  -1.45133   0.00000   1.82041
  10 2   H  1S         -0.05798   0.00000   0.08243   0.00000  -0.46933
  11        2S         -1.08893   0.00000   1.87426   0.00000  -0.57923
  12 3   H  1S         -0.05798   0.07138  -0.04121  -0.40645   0.23466
  13        2S         -1.08895   1.62315  -0.93712  -0.50162   0.28961
  14 4   H  1S         -0.05798  -0.07138  -0.04121   0.40645   0.23466
  15        2S         -1.08895  -1.62315  -0.93712   0.50162   0.28961
                          11        12        13        14        15
                           V         V         V         V         V
     Eigenvalues --     0.61293   0.73979   0.95271   0.95271   0.98818
   1 1   C  1S          0.00000  -0.06952   0.00000   0.00000   0.04555
   2        2S          0.00000  -0.78918   0.00000  -0.00001  -1.94585
   3        2PX         1.10647   0.00000   0.00000   0.00000   0.00000
   4        2PY         0.00000   0.00000   0.84252   0.00000   0.00000
   5        2PZ         0.00000   0.00000   0.00000   0.84251  -0.00000
   6        3S          0.00000   1.67523   0.00000   0.00001   3.64762
   7        3PX        -1.04652   0.00000   0.00000   0.00000   0.00000
   8        3PY        -0.00000   0.00000  -1.00974   0.00000   0.00000
   9        3PZ         0.00000  -0.00001   0.00000  -1.00974   0.00000
  10 2   H  1S          0.00000  -0.67526   0.00000  -1.00394   0.36108
  11        2S          0.00000   0.00665   0.00000   1.52311  -1.13817
  12 3   H  1S          0.00000  -0.67527  -0.86944   0.50197   0.36108
  13        2S          0.00000   0.00665   1.31906  -0.76156  -1.13816
  14 4   H  1S         -0.00000  -0.67527   0.86944   0.50197   0.36108
  15        2S         -0.00000   0.00665  -1.31906  -0.76156  -1.13816
     Alpha Density Matrix:
                           1         2         3         4         5
   1 1   C  1S          1.03191
   2        2S         -0.04863   0.16618
   3        2PX         0.00000   0.00000   0.36264
   4        2PY         0.00000   0.00000  -0.00000   0.21200
   5        2PZ         0.00000  -0.00000   0.00000   0.00000   0.21200
   6        3S         -0.10287   0.15927   0.00000   0.00000   0.00000
   7        3PX         0.00000   0.00000   0.31666   0.00000   0.00000
   8        3PY         0.00000   0.00000   0.00000   0.08705   0.00000
   9        3PZ        -0.00000   0.00000   0.00000   0.00000   0.08705
  10 2   H  1S         -0.03114   0.05924   0.00000   0.00000   0.13119
  11        2S         -0.00367   0.01730   0.00000   0.00000   0.10234
  12 3   H  1S         -0.03114   0.05924  -0.00000   0.11361  -0.06559
  13        2S         -0.00367   0.01730  -0.00000   0.08863  -0.05117
  14 4   H  1S         -0.03114   0.05924   0.00000  -0.11361  -0.06559
  15        2S         -0.00367   0.01730   0.00000  -0.08863  -0.05117
                           6         7         8         9        10
   6        3S          0.15576
   7        3PX         0.00000   0.27651
   8        3PY         0.00000   0.00000   0.03574
   9        3PZ         0.00000   0.00000   0.00000   0.03574
  10 2   H  1S          0.05754   0.00000   0.00000   0.05387   0.10249
  11        2S          0.01651   0.00000   0.00000   0.04202   0.06948
  12 3   H  1S          0.05754   0.00000   0.04665  -0.02693  -0.01929
  13        2S          0.01651  -0.00000   0.03639  -0.02101  -0.02552
  14 4   H  1S          0.05754  -0.00000  -0.04665  -0.02693  -0.01929
  15        2S          0.01651   0.00000  -0.03639  -0.02101  -0.02552
                          11        12        13        14        15
  11        2S          0.05121
  12 3   H  1S         -0.02552   0.10249
  13        2S         -0.02290   0.06948   0.05121
  14 4   H  1S         -0.02552  -0.01929  -0.02552   0.10249
  15        2S         -0.02290  -0.02552  -0.02290   0.06948   0.05121
     Beta Density Matrix:
                           1         2         3         4         5
   1 1   C  1S          1.02894
   2        2S         -0.04296   0.15136
   3        2PX         0.00000   0.00000   0.00000
   4        2PY         0.00000   0.00000  -0.00000   0.19439
   5        2PZ        -0.00000  -0.00000   0.00000   0.00000   0.19439
   6        3S         -0.08398   0.12271   0.00000   0.00000   0.00000
   7        3PX         0.00000   0.00000   0.00000  -0.00000   0.00000
   8        3PY         0.00000   0.00000  -0.00000   0.07402   0.00000
   9        3PZ        -0.00000   0.00000   0.00000   0.00000   0.07402
  10 2   H  1S         -0.03330   0.06376   0.00000   0.00000   0.13141
  11        2S         -0.00958   0.02862   0.00000   0.00000   0.10956
  12 3   H  1S         -0.03330   0.06376  -0.00000   0.11381  -0.06571
  13        2S         -0.00958   0.02862  -0.00000   0.09488  -0.05478
  14 4   H  1S         -0.03330   0.06376   0.00000  -0.11381  -0.06571
  15        2S         -0.00958   0.02862   0.00000  -0.09488  -0.05478
                           6         7         8         9        10
   6        3S          0.10187
   7        3PX         0.00000   0.00000
   8        3PY         0.00000  -0.00000   0.02819
   9        3PZ         0.00000   0.00000   0.00000   0.02819
  10 2   H  1S          0.05243   0.00000   0.00000   0.05004   0.11592
  11        2S          0.02327   0.00000   0.00000   0.04172   0.08614
  12 3   H  1S          0.05243  -0.00000   0.04334  -0.02502  -0.01733
  13        2S          0.02327  -0.00000   0.03613  -0.02086  -0.02496
  14 4   H  1S          0.05243   0.00000  -0.04334  -0.02502  -0.01733
  15        2S          0.02327   0.00000  -0.03613  -0.02086  -0.02496
                          11        12        13        14        15
  11        2S          0.06716
  12 3   H  1S         -0.02496   0.11592
  13        2S         -0.02546   0.08614   0.06716
  14 4   H  1S         -0.02496  -0.01733  -0.02496   0.11592
  15        2S         -0.02546  -0.02496  -0.02546   0.08614   0.06716
    Full Mulliken population analysis:
                           1         2         3         4         5
   1 1   C  1S          2.06085
   2        2S         -0.02006   0.31753
   3        2PX         0.00000   0.00000   0.36264
   4        2PY         0.00000   0.00000   0.00000   0.40639
   5        2PZ         0.00000   0.00000   0.00000   0.00000   0.40639
   6        3S         -0.03443   0.22905   0.00000   0.00000   0.00000
   7        3PX         0.00000   0.00000   0.18042   0.00000   0.00000
   8        3PY         0.00000   0.00000   0.00000   0.09177   0.00000
   9        3PZ         0.00000   0.00000   0.00000   0.00000   0.09177
  10 2   H  1S         -0.00211   0.03366   0.00000   0.00000   0.09699
  11        2S         -0.00122   0.02186   0.00000   0.00000   0.05631
  12 3   H  1S         -0.00211   0.03366   0.00000   0.07274   0.02425
  13        2S         -0.00122   0.02186  -0.00000   0.04223   0.01408
  14 4   H  1S         -0.00211   0.03366  -0.00000   0.07274   0.02425
  15        2S         -0.00122   0.02186  -0.00000   0.04223   0.01408
                           6         7         8         9        10
   6        3S          0.25763
   7        3PX         0.00000   0.27651
   8        3PY         0.00000   0.00000   0.06393
   9        3PZ         0.00000   0.00000   0.00000   0.06393
  10 2   H  1S          0.04146   0.00000   0.00000   0.05351   0.21841
  11        2S          0.02802   0.00000   0.00000   0.04879   0.10244
  12 3   H  1S          0.04146  -0.00000   0.04014   0.01338  -0.00043
  13        2S          0.02802   0.00000   0.03659   0.01220  -0.00626
  14 4   H  1S          0.04146   0.00000   0.04014   0.01338  -0.00043
  15        2S          0.02802  -0.00000   0.03659   0.01220  -0.00626
                          11        12        13        14        15
  11        2S          0.11836
  12 3   H  1S         -0.00626   0.21841
  13        2S         -0.01733   0.10244   0.11836
  14 4   H  1S         -0.00626  -0.00043  -0.00626   0.21841
  15        2S         -0.01733  -0.00626  -0.01733   0.10244   0.11836
     Gross orbital populations:
                         Total     Alpha     Beta      Spin
   1 1   C  1S          1.99636   0.99823   0.99813   0.00010
   2        2S          0.69309   0.35825   0.33485   0.02340
   3        2PX         0.54307   0.54307   0.00000   0.54307
   4        2PY         0.72812   0.37508   0.35305   0.02203
   5        2PZ         0.72813   0.37508   0.35305   0.02203
   6        3S          0.66070   0.36614   0.29456   0.07159
   7        3PX         0.45693   0.45693   0.00000   0.45693
   8        3PY         0.30916   0.16368   0.14548   0.01820
   9        3PZ         0.30916   0.16368   0.14548   0.01820
  10 2   H  1S          0.53101   0.25453   0.27648  -0.02194
  11        2S          0.32741   0.14542   0.18199  -0.03657
  12 3   H  1S          0.53101   0.25453   0.27648  -0.02194
  13        2S          0.32741   0.14542   0.18199  -0.03657
  14 4   H  1S          0.53101   0.25453   0.27648  -0.02194
  15        2S          0.32741   0.14542   0.18199  -0.03657
          Condensed to atoms (all electrons):
              1          2          3          4
     1  C    5.292857   0.377293   0.377293   0.377293
     2  H    0.377293   0.541656  -0.030264  -0.030264
     3  H    0.377293  -0.030264   0.541658  -0.030264
     4  H    0.377293  -0.030264  -0.030264   0.541658
 Mulliken atomic charges:
              1
     1  C   -0.424735
     2  H    0.141580
     3  H    0.141578
     4  H    0.141578
 Sum of Mulliken atomic charges =  -0.00000
 Mulliken charges with hydrogens summed into heavy atoms:
              1
     1  C   -0.000000
 Sum of Mulliken charges with hydrogens summed into heavy atoms =  -0.00000
          Atomic-Atomic Spin Densities.
              1          2          3          4
     1  C    1.201639  -0.008701  -0.008701  -0.008701
     2  H   -0.008701  -0.051324   0.000757   0.000757
     3  H   -0.008701   0.000757  -0.051325   0.000757
     4  H   -0.008701   0.000757   0.000757  -0.051325
 Mulliken atomic spin densities:
              1
     1  C    1.175536
     2  H   -0.058511
     3  H   -0.058512
     4  H   -0.058512
 Sum of Mulliken atomic spin densities =   1.00000
 Electronic spatial extent (au):  <R**2>=             29.6605
 Charge=             -0.0000 electrons
 Dipole moment (field-independent basis, Debye):
    X=             -0.0000    Y=              0.0000    Z=              0.0000  Tot=              0.0000
 Quadrupole moment (field-independent basis, Debye-Ang):
   XX=             -8.6851   YY=             -7.0447   ZZ=             -7.0447
   XY=              0.0000   XZ=              0.0000   YZ=             -0.0000
 Traceless Quadrupole moment (field-independent basis, Debye-Ang):
   XX=             -1.0936   YY=              0.5468   ZZ=              0.5468
   XY=              0.0000   XZ=              0.0000   YZ=             -0.0000
 Octapole moment (field-independent basis, Debye-Ang**2):
  XXX=              0.0000  YYY=             -0.0000  ZZZ=              0.7736  XYY=             -0.0000
  XXY=             -0.0000  XXZ=              0.0000  XZZ=              0.0000  YZZ=              0.0000
  YYZ=             -0.7736  XYZ=             -0.0000
 Hexadecapole moment (field-independent basis, Debye-Ang**3):
 XXXX=             -8.9942 YYYY=            -14.2047 ZZZZ=            -14.2046 XXXY=              0.0000
 XXXZ=             -0.0000 YYYX=              0.0000 YYYZ=              0.0000 ZZZX=             -0.0000
 ZZZY=              0.0000 XXYY=             -4.1847 XXZZ=             -4.1847 YYZZ=             -4.7349
 XXYZ=             -0.0000 YYXZ=              0.0000 ZZXY=              0.0000
 N-N= 9.579588592757D+00 E-N=-1.635837843730D+02  KE= 5.872659323018D+01
 Symmetry A    KE= 5.467205150868D+01
 Symmetry B    KE= 4.054541721499D+00
 Orbital energies and kinetic energies (alpha):
                                 1                 2
   1         O               -10.187710         15.956550
   2         O                -0.681754          1.339216
   3         O                -0.416595          0.985018
   4         O                -0.416595          0.985018
   5         O                -0.224619          1.145149
   6         V                 0.111534          0.995753
   7         V                 0.178811          0.851896
   8         V                 0.178812          0.851896
   9         V                 0.536432          2.069184
  10         V                 0.559569          1.590360
  11         V                 0.559570          1.590361
  12         V                 0.722436          1.712715
  13         V                 0.949992          2.752152
  14         V                 0.949993          2.752150
  15         V                 0.961945          2.638183
 Orbital energies and kinetic energies (beta):
                                 1                 2
   1         O               -10.173289         15.969690
   2         O                -0.638871          1.263755
   3         O                -0.406336          0.962188
   4         O                -0.406336          0.962189
   5         V                -0.050933          0.957829
   6         V                 0.127182          1.025922
   7         V                 0.184514          0.853929
   8         V                 0.184515          0.853930
   9         V                 0.568505          1.582280
  10         V                 0.568506          1.582281
  11         V                 0.612931          2.256503
  12         V                 0.739793          1.735674
  13         V                 0.952706          2.781029
  14         V                 0.952706          2.781027
  15         V                 0.988179          2.647377
 Total kinetic energy from orbitals= 3.956877200020D+01
                          Isotropic Fermi Contact Couplings
        Atom                 a.u.       MegaHertz       Gauss      10(-4) cm-1
     1  C(13)              0.15124     170.02217      60.66814      56.71329
     2  H(1)              -0.01740     -77.76353     -27.74796     -25.93912
     3  H(1)              -0.01740     -77.76466     -27.74836     -25.93950
     4  H(1)              -0.01740     -77.76466     -27.74836     -25.93950
 --------------------------------------------------------
       Center         ----  Spin Dipole Couplings  ----
                      3XX-RR        3YY-RR        3ZZ-RR
 --------------------------------------------------------
     1   Atom        1.076584     -0.538291     -0.538292
     2   Atom       -0.009977     -0.072600      0.082577
     3   Atom       -0.009977      0.043783     -0.033806
     4   Atom       -0.009977      0.043783     -0.033806
 --------------------------------------------------------
                        XY            XZ            YZ
 --------------------------------------------------------
     1   Atom        0.000000      0.000000      0.000000
     2   Atom        0.000000     -0.000000     -0.000000
     3   Atom       -0.000000      0.000000     -0.067194
     4   Atom       -0.000000     -0.000000      0.067194
 --------------------------------------------------------


 ---------------------------------------------------------------------------------
              Anisotropic Spin Dipole Couplings in Principal Axis System
 ---------------------------------------------------------------------------------

       Atom             a.u.   MegaHertz   Gauss  10(-4) cm-1        Axes

              Baa    -0.5383   -72.234   -25.775   -24.095  0.0000  0.0000  1.0000
     1 C(13)  Bbb    -0.5383   -72.234   -25.775   -24.095 -0.0000  1.0000 -0.0000
              Bcc     1.0766   144.467    51.549    48.189  1.0000  0.0000 -0.0000
 
              Baa    -0.0726   -38.736   -13.822   -12.921 -0.0000  1.0000 -0.0000
     2 H(1)   Bbb    -0.0100    -5.323    -1.899    -1.776  1.0000  0.0000  0.0000
              Bcc     0.0826    44.059    15.721    14.696  0.0000  0.0000  1.0000
 
              Baa    -0.0726   -38.736   -13.822   -12.921 -0.0000  0.5000  0.8660
     3 H(1)   Bbb    -0.0100    -5.323    -1.899    -1.776  1.0000  0.0000  0.0000
              Bcc     0.0826    44.059    15.721    14.697 -0.0000  0.8660 -0.5000
 
              Baa    -0.0726   -38.736   -13.822   -12.921  0.0000 -0.5000  0.8660
     4 H(1)   Bbb    -0.0100    -5.323    -1.899    -1.776  1.0000  0.0000 -0.0000
              Bcc     0.0826    44.059    15.721    14.697 -0.0000  0.8660  0.5000
 

 ---------------------------------------------------------------------------------

 No NMR shielding tensors so no spin-rotation constants.
 Leave Link  601 at Sat Aug 17 17:57:06 2024, MaxMem=   13107200 cpu:       0.2
 (Enter /programs/64bit/g09/g09-gfortran/bin/l701.exe)
 Compute integral first derivatives.
 ... and contract with generalized density number  0.
 Leave Link  701 at Sat Aug 17 17:57:06 2024, MaxMem=   13107200 cpu:       0.1
 (Enter /programs/64bit/g09/g09-gfortran/bin/l702.exe)
 L702 exits ... SP integral derivatives will be done elsewhere.
 Leave Link  702 at Sat Aug 17 17:57:06 2024, MaxMem=   13107200 cpu:       0.0
 (Enter /programs/64bit/g09/g09-gfortran/bin/l703.exe)
 Compute integral first derivatives, UseDBF=F ICtDFT=           0.
 Integral derivatives from FoFDir, PRISM(SPDF).
 Calling FoFJK, ICntrl=      2127 FMM=F ISym2X=1 I1Cent= 0 IOpClX= 1 NMat=1 NMatS=1 NMatT=0.
 FoFCou: FMM=F IPFlag=           0 FMFlag=      100000 FMFlg1=         800
         NFxFlg=           0 DoJE=F BraDBF=F KetDBF=F FulRan=T
         Omega=  0.000000  0.000000  1.000000  0.000000  0.000000 ICntrl=    2127 IOpCl=  1
         NMat0=    1 NMatS0=    1 NMatT0=    0 NMatD0=    1 NMtDS0=    0 NMtDT0=    0
         I1Cent=           0 NGrid=           0.
 Petite list used in FoFCou.
 Leave Link  703 at Sat Aug 17 17:57:07 2024, MaxMem=   13107200 cpu:       0.4
 (Enter /programs/64bit/g09/g09-gfortran/bin/l716.exe)
 Dipole        =-2.43642944D-17 0.00000000D+00 1.15940969D-06
 ***** Axes restored to original set *****
 -------------------------------------------------------------------
 Center     Atomic                   Forces (Hartrees/Bohr)
 Number     Number              X              Y              Z
 -------------------------------------------------------------------
      1        6           0.000000000    0.000000000   -0.000000414
      2        1          -0.000000000    0.000000000   -0.004960069
      3        1          -0.004294220   -0.000000000    0.002480242
      4        1           0.004294220    0.000000000    0.002480242
 -------------------------------------------------------------------
 Cartesian Forces:  Max     0.004960069 RMS     0.002479686
 Leave Link  716 at Sat Aug 17 17:57:07 2024, MaxMem=   13107200 cpu:       0.0
 (Enter /programs/64bit/g09/g09-gfortran/bin/l103.exe)

 GradGradGradGradGradGradGradGradGradGradGradGradGradGradGradGradGradGrad
 Berny optimization.
 Internal  Forces:  Max     0.004960069 RMS     0.003246672
 Search for a local minimum.
 Step number   1 out of a maximum of   20
 All quantities printed in internal units (Hartrees-Bohrs-Radians)
 RMS Force = .32467D-02 SwitMx=.10000D-02 MixMth= 1
 Mixed Optimization -- RFO/linear search
 Second derivative matrix not updated -- first step.
 The second derivative matrix:
                          R1        R2        R3        A1        A2
           R1           0.34813
           R2           0.00000   0.34813
           R3           0.00000   0.00000   0.34813
           A1           0.00000   0.00000   0.00000   0.16000
           A2           0.00000   0.00000   0.00000   0.00000   0.16000
           A3           0.00000   0.00000   0.00000   0.00000   0.00000
           D1           0.00000   0.00000   0.00000   0.00000   0.00000
                          A3        D1
           A3           0.16000
           D1           0.00000   0.00235
     Eigenvalues ---    0.00235   0.16000   0.16000   0.34813   0.34813
     Eigenvalues ---    0.348131000.00000
 RFO step:  Lambda=-2.11823210D-04 EMin= 2.34830060D-03
 Linear search not attempted -- first point.
 Iteration  1 RMS(Cart)=  0.00932046 RMS(Int)=  0.00000002
 Iteration  2 RMS(Cart)=  0.00000002 RMS(Int)=  0.00000000
 ClnCor:  largest displacement from symmetrization is 2.35D-11 for atom     1.
 Variable       Old X    -DE/DX   Delta X   Delta X   Delta X     New X
                                 (Linear)    (Quad)   (Total)
    R1        2.05980  -0.00496   0.00000  -0.01424  -0.01424   2.04556
    R2        2.05980  -0.00496   0.00000  -0.01424  -0.01424   2.04557
    R3        2.05980  -0.00496   0.00000  -0.01424  -0.01424   2.04557
    A1        2.09440  -0.00000   0.00000  -0.00000  -0.00000   2.09439
    A2        2.09440  -0.00000   0.00000  -0.00000  -0.00000   2.09439
    A3        2.09440   0.00000   0.00000   0.00001   0.00001   2.09440
    D1        3.14159   0.00000   0.00000   0.00000   0.00000   3.14159
         Item               Value     Threshold  Converged?
 Maximum Force            0.004960     0.000450     NO 
 RMS     Force            0.003247     0.000300     NO 
 Maximum Displacement     0.014242     0.001800     NO 
 RMS     Displacement     0.009320     0.001200     NO 
 Predicted change in Energy=-1.059760D-04
 GradGradGradGradGradGradGradGradGradGradGradGradGradGradGradGradGradGrad

 Leave Link  103 at Sat Aug 17 17:57:07 2024, MaxMem=   13107200 cpu:       0.0
 (Enter /programs/64bit/g09/g09-gfortran/bin/l202.exe)
                          Input orientation:                          
 ---------------------------------------------------------------------
 Center     Atomic      Atomic             Coordinates (Angstroms)
 Number     Number       Type             X           Y           Z
 ---------------------------------------------------------------------
      1          6           0        0.000000   -0.000000   -0.000001
      2          1           0        0.000000    0.000000    1.082464
      3          1           0        0.937445   -0.000000   -0.541231
      4          1           0       -0.937445    0.000000   -0.541231
 ---------------------------------------------------------------------
                    Distance matrix (angstroms):
                    1          2          3          4
     1  C    0.000000
     2  H    1.082465   0.000000
     3  H    1.082467   1.874884   0.000000
     4  H    1.082467   1.874884   1.874891   0.000000
 Stoichiometry    CH3(2)
 Framework group  C2[C2(CH),X(H2)]
 Deg. of freedom     3
 Prev. full point group           C2      NOp   2
 Prev. largest Abelian subgroup   C2      NOp   2
       concise Abelian subgroup   C2      NOp   2
                   Standard orientation:
 ---------------------------------------------------------------------
 Center     Atomic                     Coordinates (Angstroms)
 Number     Number                        X           Y           Z
 ---------------------------------------------------------------------
      1          6                    0.000000    0.000000   -0.000001
      2          1                    0.000000    0.000000    1.082464
      3          1                    0.000000    0.937445   -0.541230
      4          1                    0.000000   -0.937445   -0.541230
 ---------------------------------------------------------------------
 Rotational constants (GHZ):    285.3083722    285.3054369    142.6534523
 Leave Link  202 at Sat Aug 17 17:57:07 2024, MaxMem=   13107200 cpu:       0.0
 (Enter /programs/64bit/g09/g09-gfortran/bin/l301.exe)
 Standard basis: 6-31G (6D, 7F)
 Ernie: Thresh=  0.10000D-02 Tol=  0.10000D-05 Strict=F.
 There are     9 symmetry adapted basis functions of A   symmetry.
 There are     6 symmetry adapted basis functions of B   symmetry.
 Integral buffers will be    131072 words long.
 Raffenetti 2 integral format.
 Two-electron integral symmetry is turned on.
    15 basis functions,    34 primitive gaussians,    15 cartesian basis functions
     5 alpha electrons        4 beta electrons
       nuclear repulsion energy         9.6462630349 Hartrees.
 IExCor=  402 DFT=T Ex+Corr=B3LYP ExCW=0 ScaHFX=  0.200000
 ScaDFX=  0.800000  0.720000  1.000000  0.810000 ScalE2=  1.000000  1.000000
 IRadAn=      0 IRanWt=     -1 IRanGd=            0 ICorTp=0
 NAtoms=    4 NActive=    4 NUniq=    3 SFac= 1.33D+00 NAtFMM=   80 NAOKFM=F Big=F
 Leave Link  301 at Sat Aug 17 17:57:07 2024, MaxMem=   13107200 cpu:       0.1
 (Enter /programs/64bit/g09/g09-gfortran/bin/l302.exe)
 NPDir=0 NMtPBC=     1 NCelOv=     1 NCel=       1 NClECP=     1 NCelD=      1
         NCelK=      1 NCelE2=     1 NClLst=     1 CellRange=     0.0.
 One-electron integrals computed using PRISM.
 One-electron integral symmetry used in STVInt
 NBasis=    15 RedAO= T  NBF=     9     6
 NBsUse=    15 1.00D-06 NBFU=     9     6
 Precomputing XC quadrature grid using
 IXCGrd= 2 IRadAn=           0 IRanWt=          -1 IRanGd=           0 AccXCQ= 1.00D-10.
 NRdTot=     243 NPtTot=       30652 NUsed=       32418 NTot=       32450
 NSgBfM=    15    15    15    15    15 NAtAll=     4     4.
 Leave Link  302 at Sat Aug 17 17:57:07 2024, MaxMem=   13107200 cpu:       0.2
 (Enter /programs/64bit/g09/g09-gfortran/bin/l303.exe)
 DipDrv:  MaxL=1.
 Leave Link  303 at Sat Aug 17 17:57:07 2024, MaxMem=   13107200 cpu:       0.0
 (Enter /programs/64bit/g09/g09-gfortran/bin/l401.exe)
 Initial guess read from the read-write file.
 B after Tr=     0.000000    0.000000    0.000000
         Rot=    1.000000    0.000000    0.000000    0.000000 Ang=   0.00 deg.
 Guess basis will be translated and rotated to current coordinates.
 Initial guess orbital symmetries:
 Alpha Orbitals:
       Occupied  (A) (A) (B) (A) (B)
       Virtual   (A) (B) (A) (B) (B) (A) (A) (B) (A) (A)
 Beta  Orbitals:
       Occupied  (A) (A) (B) (A)
       Virtual   (B) (A) (B) (A) (B) (A) (B) (A) (B) (A) (A)
 The electronic state of the initial guess is 2-B.
 Initial guess <Sx>= 0.0000 <Sy>= 0.0000 <Sz>= 0.5000 <S**2>= 0.7534 S= 0.5017
 Leave Link  401 at Sat Aug 17 17:57:07 2024, MaxMem=   13107200 cpu:       0.1
 (Enter /programs/64bit/g09/g09-gfortran/bin/l502.exe)
 UHF open shell SCF:
 Requested convergence on RMS density matrix=1.00D-08 within 128 cycles.
 Requested convergence on MAX density matrix=1.00D-06.
 Requested convergence on             energy=1.00D-06.
 No special actions if energy rises.
 Using DIIS extrapolation, IDIIS=  1040.
 Integral symmetry usage will be decided dynamically.
        32369 words used for storage of precomputed grid.
 Keep R1 and R2 ints in memory in canonical form, NReq=924409.
 IEnd=       52146 IEndB=       52146 NGot=    13107200 MDV=    13057609
 LenX=    13057609 LenY=    13056727
 Symmetry not used in FoFDir.
 MinBra= 0 MaxBra= 1 Meth= 1.
 IRaf=       0 NMat=   1 IRICut=       1 DoRegI=T DoRafI=F ISym2E= 0 JSym2E=0.

 Cycle   1  Pass 1  IDiag  1:
 E= -39.8311493982919    
 DIIS: error= 1.02D-03 at cycle   1 NSaved=   1.
 NSaved= 1 IEnMin= 1 EnMin= -39.8311493982919     IErMin= 1 ErrMin= 1.02D-03
 ErrMax= 1.02D-03 EMaxC= 1.00D-01 BMatC= 6.74D-05 BMatP= 6.74D-05
 IDIUse=3 WtCom= 9.90D-01 WtEn= 1.02D-02
 Coeff-Com:  0.100D+01
 Coeff-En:   0.100D+01
 Coeff:      0.100D+01
 Gap=     0.340 Goal=   None    Shift=    0.000
 Gap=     0.357 Goal=   None    Shift=    0.000
 GapD=    0.340 DampG=1.000 DampE=1.000 DampFc=1.0000 IDamp=-1.
 RMSDP=4.14D-04 MaxDP=2.22D-03              OVMax= 2.78D-03

 Cycle   2  Pass 1  IDiag  1:
 E= -39.8311643228381     Delta-E=       -0.000014924546 Rises=F Damp=F
 DIIS: error= 8.34D-04 at cycle   2 NSaved=   2.
 NSaved= 2 IEnMin= 2 EnMin= -39.8311643228381     IErMin= 2 ErrMin= 8.34D-04
 ErrMax= 8.34D-04 EMaxC= 1.00D-01 BMatC= 3.22D-05 BMatP= 6.74D-05
 IDIUse=3 WtCom= 9.92D-01 WtEn= 8.34D-03
 Coeff-Com:  0.392D+00 0.608D+00
 Coeff-En:   0.108D+00 0.892D+00
 Coeff:      0.389D+00 0.611D+00
 Gap=     0.339 Goal=   None    Shift=    0.000
 Gap=     0.357 Goal=   None    Shift=    0.000
 RMSDP=2.03D-04 MaxDP=1.70D-03 DE=-1.49D-05 OVMax= 1.34D-03

 Cycle   3  Pass 1  IDiag  1:
 E= -39.8311732083880     Delta-E=       -0.000008885550 Rises=F Damp=F
 DIIS: error= 1.83D-04 at cycle   3 NSaved=   3.
 NSaved= 3 IEnMin= 3 EnMin= -39.8311732083880     IErMin= 3 ErrMin= 1.83D-04
 ErrMax= 1.83D-04 EMaxC= 1.00D-01 BMatC= 1.66D-06 BMatP= 3.22D-05
 IDIUse=3 WtCom= 9.98D-01 WtEn= 1.83D-03
 Coeff-Com:  0.189D-01 0.193D+00 0.789D+00
 Coeff-En:   0.000D+00 0.000D+00 0.100D+01
 Coeff:      0.189D-01 0.192D+00 0.789D+00
 Gap=     0.339 Goal=   None    Shift=    0.000
 Gap=     0.357 Goal=   None    Shift=    0.000
 RMSDP=3.26D-05 MaxDP=2.23D-04 DE=-8.89D-06 OVMax= 2.21D-04

 Cycle   4  Pass 1  IDiag  1:
 E= -39.8311736684754     Delta-E=       -0.000000460087 Rises=F Damp=F
 DIIS: error= 1.02D-05 at cycle   4 NSaved=   4.
 NSaved= 4 IEnMin= 4 EnMin= -39.8311736684754     IErMin= 4 ErrMin= 1.02D-05
 ErrMax= 1.02D-05 EMaxC= 1.00D-01 BMatC= 2.51D-09 BMatP= 1.66D-06
 IDIUse=1 WtCom= 1.00D+00 WtEn= 0.00D+00
 Coeff-Com: -0.591D-02-0.234D-01-0.905D-01 0.112D+01
 Coeff:     -0.591D-02-0.234D-01-0.905D-01 0.112D+01
 Gap=     0.339 Goal=   None    Shift=    0.000
 Gap=     0.357 Goal=   None    Shift=    0.000
 RMSDP=3.42D-06 MaxDP=4.27D-05 DE=-4.60D-07 OVMax= 3.35D-05

 Cycle   5  Pass 1  IDiag  1:
 E= -39.8311736702635     Delta-E=       -0.000000001788 Rises=F Damp=F
 DIIS: error= 1.19D-06 at cycle   5 NSaved=   5.
 NSaved= 5 IEnMin= 5 EnMin= -39.8311736702635     IErMin= 5 ErrMin= 1.19D-06
 ErrMax= 1.19D-06 EMaxC= 1.00D-01 BMatC= 9.19D-11 BMatP= 2.51D-09
 IDIUse=1 WtCom= 1.00D+00 WtEn= 0.00D+00
 Coeff-Com:  0.124D-02 0.299D-02 0.111D-01-0.283D+00 0.127D+01
 Coeff:      0.124D-02 0.299D-02 0.111D-01-0.283D+00 0.127D+01
 Gap=     0.339 Goal=   None    Shift=    0.000
 Gap=     0.357 Goal=   None    Shift=    0.000
 RMSDP=7.11D-07 MaxDP=5.27D-06 DE=-1.79D-09 OVMax= 4.14D-06

 Cycle   6  Pass 1  IDiag  1:
 E= -39.8311736703390     Delta-E=       -0.000000000075 Rises=F Damp=F
 DIIS: error= 2.49D-07 at cycle   6 NSaved=   6.
 NSaved= 6 IEnMin= 6 EnMin= -39.8311736703390     IErMin= 6 ErrMin= 2.49D-07
 ErrMax= 2.49D-07 EMaxC= 1.00D-01 BMatC= 3.40D-12 BMatP= 9.19D-11
 IDIUse=1 WtCom= 1.00D+00 WtEn= 0.00D+00
 Coeff-Com: -0.255D-03-0.315D-03-0.106D-02 0.656D-01-0.454D+00 0.139D+01
 Coeff:     -0.255D-03-0.315D-03-0.106D-02 0.656D-01-0.454D+00 0.139D+01
 Gap=     0.339 Goal=   None    Shift=    0.000
 Gap=     0.357 Goal=   None    Shift=    0.000
 RMSDP=1.80D-07 MaxDP=8.85D-07 DE=-7.55D-11 OVMax= 1.05D-06

 Cycle   7  Pass 1  IDiag  1:
 E= -39.8311736703420     Delta-E=       -0.000000000003 Rises=F Damp=F
 DIIS: error= 1.28D-08 at cycle   7 NSaved=   7.
 NSaved= 7 IEnMin= 7 EnMin= -39.8311736703420     IErMin= 7 ErrMin= 1.28D-08
 ErrMax= 1.28D-08 EMaxC= 1.00D-01 BMatC= 7.12D-15 BMatP= 3.40D-12
 IDIUse=1 WtCom= 1.00D+00 WtEn= 0.00D+00
 Coeff-Com:  0.254D-04 0.165D-04 0.482D-04-0.681D-02 0.529D-01-0.192D+00
 Coeff-Com:  0.115D+01
 Coeff:      0.254D-04 0.165D-04 0.482D-04-0.681D-02 0.529D-01-0.192D+00
 Coeff:      0.115D+01
 Gap=     0.339 Goal=   None    Shift=    0.000
 Gap=     0.357 Goal=   None    Shift=    0.000
 RMSDP=7.48D-09 MaxDP=2.82D-08 DE=-3.03D-12 OVMax= 3.59D-08

 SCF Done:  E(UB3LYP) =  -39.8311736703     A.U. after    7 cycles
             Convg  =    0.7477D-08             -V/T =  2.0059
 <Sx>= 0.0000 <Sy>= 0.0000 <Sz>= 0.5000 <S**2>= 0.7534 S= 0.5017
 <L.S>=  0.00000000000    
 KE= 3.959878233461D+01 PE=-1.112100198408D+02 EE= 2.213380080090D+01
 Annihilation of the first spin contaminant:
 S**2 before annihilation     0.7534,   after     0.7500
 Leave Link  502 at Sat Aug 17 17:57:09 2024, MaxMem=   13107200 cpu:       1.3
 (Enter /programs/64bit/g09/g09-gfortran/bin/l701.exe)
 Compute integral first derivatives.
 ... and contract with generalized density number  0.
 Leave Link  701 at Sat Aug 17 17:57:09 2024, MaxMem=   13107200 cpu:       0.1
 (Enter /programs/64bit/g09/g09-gfortran/bin/l702.exe)
 L702 exits ... SP integral derivatives will be done elsewhere.
 Leave Link  702 at Sat Aug 17 17:57:09 2024, MaxMem=   13107200 cpu:       0.0
 (Enter /programs/64bit/g09/g09-gfortran/bin/l703.exe)
 Compute integral first derivatives, UseDBF=F ICtDFT=           0.
 Integral derivatives from FoFDir, PRISM(SPDF).
 Calling FoFJK, ICntrl=      2127 FMM=F ISym2X=1 I1Cent= 0 IOpClX= 1 NMat=1 NMatS=1 NMatT=0.
 FoFCou: FMM=F IPFlag=           0 FMFlag=      100000 FMFlg1=         800
         NFxFlg=           0 DoJE=F BraDBF=F KetDBF=F FulRan=T
         Omega=  0.000000  0.000000  1.000000  0.000000  0.000000 ICntrl=    2127 IOpCl=  1
         NMat0=    1 NMatS0=    1 NMatT0=    0 NMatD0=    1 NMtDS0=    0 NMtDT0=    0
         I1Cent=           0 NGrid=           0.
 Petite list used in FoFCou.
 Leave Link  703 at Sat Aug 17 17:57:09 2024, MaxMem=   13107200 cpu:       0.4
 (Enter /programs/64bit/g09/g09-gfortran/bin/l716.exe)
 Dipole        = 0.00000000D+00 1.37045930D-12 2.07651534D-06
 ***** Axes restored to original set *****
 -------------------------------------------------------------------
 Center     Atomic                   Forces (Hartrees/Bohr)
 Number     Number              X              Y              Z
 -------------------------------------------------------------------
      1        6           0.000000000   -0.000000000   -0.000000959
      2        1           0.000000000   -0.000000000    0.000270390
      3        1           0.000234094   -0.000000000   -0.000134715
      4        1          -0.000234094    0.000000000   -0.000134715
 -------------------------------------------------------------------
 Cartesian Forces:  Max     0.000270390 RMS     0.000135095
 Leave Link  716 at Sat Aug 17 17:57:09 2024, MaxMem=   13107200 cpu:       0.0
 (Enter /programs/64bit/g09/g09-gfortran/bin/l103.exe)

 GradGradGradGradGradGradGradGradGradGradGradGradGradGradGradGradGradGrad
 Berny optimization.
 Using GEDIIS/GDIIS optimizer.
 Internal  Forces:  Max     0.000270390 RMS     0.000176881
 Search for a local minimum.
 Step number   2 out of a maximum of   20
 All quantities printed in internal units (Hartrees-Bohrs-Radians)
 RMS Force = .17688D-03 SwitMx=.10000D-02 MixMth= 2
 Mixed Optimization -- En-DIIS/RFO-DIIS
 Update second derivatives using D2CorX and points    1    2
 DE= -1.01D-04 DEPred=-1.06D-04 R= 9.53D-01
 SS=  1.41D+00  RLast= 2.47D-02 DXNew= 5.0454D-01 7.3979D-02
 Trust test= 9.53D-01 RLast= 2.47D-02 DXMaxT set to 3.00D-01
 The second derivative matrix:
                          R1        R2        R3        A1        A2
           R1           0.35453
           R2           0.00640   0.35452
           R3           0.00640   0.00639   0.35452
           A1          -0.00001  -0.00001  -0.00001   0.16000
           A2          -0.00001  -0.00001  -0.00001  -0.00000   0.16000
           A3           0.00001   0.00001   0.00001   0.00000   0.00000
           D1          -0.00000  -0.00000  -0.00000  -0.00000  -0.00000
                          A3        D1
           A3           0.16000
           D1           0.00000   0.00235
 Use linear search instead of GDIIS.
     Eigenvalues ---    0.00235   0.16000   0.16000   0.34813   0.34813
     Eigenvalues ---    0.367321000.00000
 RFO step:  Lambda= 0.00000000D+00 EMin= 2.34830060D-03
 Quartic linear search produced a step of -0.05062.
 Iteration  1 RMS(Cart)=  0.00047180 RMS(Int)=  0.00000000
 Iteration  2 RMS(Cart)=  0.00000000 RMS(Int)=  0.00000000
 ClnCor:  largest displacement from symmetrization is 4.80D-11 for atom     4.
 Variable       Old X    -DE/DX   Delta X   Delta X   Delta X     New X
                                 (Linear)    (Quad)   (Total)
    R1        2.04556   0.00027   0.00072   0.00000   0.00072   2.04628
    R2        2.04557   0.00027   0.00072  -0.00000   0.00072   2.04629
    R3        2.04557   0.00027   0.00072  -0.00000   0.00072   2.04629
    A1        2.09439  -0.00000   0.00000  -0.00000  -0.00000   2.09439
    A2        2.09439  -0.00000   0.00000  -0.00000  -0.00000   2.09439
    A3        2.09440   0.00000  -0.00000   0.00000   0.00000   2.09441
    D1        3.14159  -0.00000   0.00000  -0.00000   0.00000   3.14159
         Item               Value     Threshold  Converged?
 Maximum Force            0.000270     0.000450     YES
 RMS     Force            0.000177     0.000300     YES
 Maximum Displacement     0.000720     0.001800     YES
 RMS     Displacement     0.000472     0.001200     YES
 Predicted change in Energy=-2.979964D-07
 Optimization completed.
    -- Stationary point found.
                           ----------------------------
                           !   Optimized Parameters   !
                           ! (Angstroms and Degrees)  !
 --------------------------                            --------------------------
 ! Name  Definition              Value          Derivative Info.                !
 --------------------------------------------------------------------------------
 ! R1    R(1,2)                  1.0825         -DE/DX =    0.0003              !
 ! R2    R(1,3)                  1.0825         -DE/DX =    0.0003              !
 ! R3    R(1,4)                  1.0825         -DE/DX =    0.0003              !
 ! A1    A(2,1,3)              119.9998         -DE/DX =    0.0                 !
 ! A2    A(2,1,4)              119.9998         -DE/DX =    0.0                 !
 ! A3    A(3,1,4)              120.0004         -DE/DX =    0.0                 !
 ! D1    D(2,1,4,3)            180.0            -DE/DX =    0.0                 !
 --------------------------------------------------------------------------------
 GradGradGradGradGradGradGradGradGradGradGradGradGradGradGradGradGradGrad

 Largest change from initial coordinates is atom    2       0.008 Angstoms.
 Leave Link  103 at Sat Aug 17 17:57:09 2024, MaxMem=   13107200 cpu:       0.0
 (Enter /programs/64bit/g09/g09-gfortran/bin/l202.exe)
                          Input orientation:                          
 ---------------------------------------------------------------------
 Center     Atomic      Atomic             Coordinates (Angstroms)
 Number     Number       Type             X           Y           Z
 ---------------------------------------------------------------------
      1          6           0        0.000000    0.000000   -0.000001
      2          1           0        0.000000    0.000000    1.082464
      3          1           0        0.937445    0.000000   -0.541231
      4          1           0       -0.937445    0.000000   -0.541231
 ---------------------------------------------------------------------
                    Distance matrix (angstroms):
                    1          2          3          4
     1  C    0.000000
     2  H    1.082465   0.000000
     3  H    1.082467   1.874884   0.000000
     4  H    1.082467   1.874884   1.874891   0.000000
 Stoichiometry    CH3(2)
 Framework group  C2[C2(CH),X(H2)]
 Deg. of freedom     3
 Prev. full point group           C2      NOp   2
 Prev. largest Abelian subgroup   C2      NOp   2
       concise Abelian subgroup   C2      NOp   2
                   Standard orientation:
 ---------------------------------------------------------------------
 Center     Atomic                     Coordinates (Angstroms)
 Number     Number                        X           Y           Z
 ---------------------------------------------------------------------
      1          6                    0.000000    0.000000   -0.000001
      2          1                    0.000000   -0.000000    1.082464
      3          1                    0.000000    0.937446   -0.541230
      4          1                    0.000000   -0.937445   -0.541231
 ---------------------------------------------------------------------
 TstSym:  Max error for IOp=  2 IAt=    2 Err= 1.17D-06
 TstSym:  IOp=  3 I=    5 IP=    3 Err= 1.17D-06
  CI=  0.000000000000D+00  0.000000000000D+00  0.000000000000D+00
   T=  7.178527226052D-23  5.861712316604D-07  2.045561163570D+00
 CIP=  0.000000000000D+00  1.771515454851D+00 -1.022776811334D+00
 Unable to use previous symmetry information.  Redetermining point group.
 No symmetry information on checkpoint file.  Reassigning symmetry.
 Symm:  InNGrp=C3V  InAxis=0.
 Stoichiometry    CH3(2)
 Framework group  C1[X(CH3)]
 Deg. of freedom     6
 Full point group                 C1      NOp   1
 Omega: Change in point group or standard orientation.

 Old FWG=C02  [C2(C1H1),X(H2)]
 New FWG=C01  [X(C1H3)]
 Largest Abelian subgroup         C1      NOp   1
 Largest concise Abelian subgroup C1      NOp   1
                         Standard orientation:                         
 ---------------------------------------------------------------------
 Center     Atomic      Atomic             Coordinates (Angstroms)
 Number     Number       Type             X           Y           Z
 ---------------------------------------------------------------------
      1          6           0        0.000000    0.000001    0.000000
      2          1           0       -0.000000   -1.082464   -0.000000
      3          1           0       -0.937445    0.541231   -0.000000
      4          1           0        0.937446    0.541230    0.000000
 ---------------------------------------------------------------------
 Rotational constants (GHZ):    285.3083722    285.3054369    142.6534523
 Leave Link  202 at Sat Aug 17 17:57:10 2024, MaxMem=   13107200 cpu:       0.0
 (Enter /programs/64bit/g09/g09-gfortran/bin/l601.exe)
 Copying SCF densities to generalized density rwf, IOpCl= 1 IROHF=0.

 **********************************************************************

            Population analysis using the SCF density.

 **********************************************************************

 Orbital symmetries:
 Alpha Orbitals:
       Occupied  (A) (A) (A) (A) (A)
       Virtual   (A) (A) (A) (A) (A) (A) (A) (A) (A) (A)
 Beta  Orbitals:
       Occupied  (A) (A) (A) (A)
       Virtual   (A) (A) (A) (A) (A) (A) (A) (A) (A) (A) (A)
 The electronic state is 2-A.
 Alpha  occ. eigenvalues --  -10.18554  -0.68373  -0.41816  -0.41816  -0.22457
 Alpha virt. eigenvalues --    0.11432   0.18103   0.18103   0.53686   0.55684
 Alpha virt. eigenvalues --    0.55684   0.72291   0.95697   0.95697   0.96815
  Beta  occ. eigenvalues --  -10.17115  -0.64096  -0.40783  -0.40783
  Beta virt. eigenvalues --   -0.05101   0.12982   0.18663   0.18663   0.56568
  Beta virt. eigenvalues --    0.56568   0.61332   0.74106   0.95989   0.95989
  Beta virt. eigenvalues --    0.99414
     Alpha Molecular Orbital Coefficients:
                           1         2         3         4         5
                           O         O         O         O         O
     Eigenvalues --   -10.18554  -0.68373  -0.41816  -0.41816  -0.22457
   1 1   C  1S          0.99496  -0.20501   0.00000   0.00000   0.00000
   2        2S          0.03483   0.40631   0.00000  -0.00000   0.00000
   3        2PX         0.00000   0.00000  -0.00000   0.00000   0.60189
   4        2PY         0.00000   0.00000   0.46173   0.00000   0.00000
   5        2PZ         0.00000   0.00000   0.00000   0.46173   0.00000
   6        3S         -0.02250   0.39161   0.00000  -0.00000   0.00000
   7        3PX         0.00000   0.00000  -0.00000   0.00000   0.52617
   8        3PY         0.00000   0.00000   0.18786   0.00000   0.00000
   9        3PZ        -0.00000   0.00000   0.00000   0.18786   0.00000
  10 2   H  1S         -0.00128   0.14680   0.00000   0.28552   0.00000
  11        2S          0.00506   0.04180   0.00000   0.22094   0.00000
  12 3   H  1S         -0.00128   0.14680   0.24727  -0.14276  -0.00000
  13        2S          0.00506   0.04180   0.19134  -0.11047  -0.00000
  14 4   H  1S         -0.00128   0.14680  -0.24727  -0.14276   0.00000
  15        2S          0.00506   0.04180  -0.19134  -0.11047   0.00000
                           6         7         8         9        10
                           V         V         V         V         V
     Eigenvalues --     0.11432   0.18103   0.18103   0.53686   0.55684
   1 1   C  1S         -0.15018   0.00000   0.00000   0.00000  -0.00000
   2        2S          0.23022   0.00000  -0.00000   0.00000   0.00000
   3        2PX         0.00000   0.00000   0.00000  -1.05753   0.00000
   4        2PY         0.00000  -0.40602   0.00000  -0.00000   0.00000
   5        2PZ        -0.00001   0.00000  -0.40602   0.00000  -0.79932
   6        3S          2.18081   0.00000  -0.00004   0.00000   0.00001
   7        3PX         0.00000   0.00000   0.00000   1.09718   0.00000
   8        3PY         0.00000  -1.44483   0.00000   0.00000   0.00000
   9        3PZ        -0.00002   0.00000  -1.44482   0.00000   1.84860
  10 2   H  1S         -0.07532   0.00000   0.09381   0.00000  -0.45577
  11        2S         -1.08783   0.00000   1.88993   0.00000  -0.61971
  12 3   H  1S         -0.07532   0.08124  -0.04690  -0.00000   0.22789
  13        2S         -1.08787   1.63672  -0.94494  -0.00000   0.30985
  14 4   H  1S         -0.07532  -0.08124  -0.04690   0.00000   0.22789
  15        2S         -1.08787  -1.63672  -0.94494   0.00000   0.30985
                          11        12        13        14        15
                           V         V         V         V         V
     Eigenvalues --     0.55684   0.72291   0.95697   0.95697   0.96815
   1 1   C  1S          0.00000  -0.06235   0.00000   0.00000   0.04610
   2        2S          0.00000  -0.92811  -0.00021   0.00000  -1.88399
   3        2PX         0.00000   0.00000   0.00000  -0.00000   0.00000
   4        2PY        -0.79932   0.00000   0.00000   0.83291   0.00000
   5        2PZ         0.00000  -0.00000   0.83291   0.00000  -0.00009
   6        3S          0.00000   1.93117   0.00040   0.00000   3.58559
   7        3PX        -0.00000   0.00000   0.00000   0.00000   0.00000
   8        3PY         1.84862   0.00000   0.00000  -1.00505   0.00000
   9        3PZ         0.00000   0.00002  -1.00506   0.00000   0.00012
  10 2   H  1S          0.00000  -0.65075  -1.01506   0.00000   0.41123
  11        2S          0.00000  -0.07598   1.53425   0.00000  -1.15956
  12 3   H  1S         -0.39471  -0.65076   0.50759  -0.87910   0.41106
  13        2S         -0.53670  -0.07595  -0.76731   1.32880  -1.15930
  14 4   H  1S          0.39471  -0.65076   0.50759   0.87910   0.41106
  15        2S          0.53670  -0.07595  -0.76731  -1.32880  -1.15930
     Beta Molecular Orbital Coefficients:
                           1         2         3         4         5
                           O         O         O         O         V
     Eigenvalues --   -10.17115  -0.64096  -0.40783  -0.40783  -0.05101
   1 1   C  1S          0.99525  -0.19624   0.00000   0.00000   0.00000
   2        2S          0.03325   0.38802   0.00000  -0.00000   0.00000
   3        2PX         0.00000   0.00000  -0.00000   0.00000   0.50619
   4        2PY         0.00000   0.00000   0.44244   0.00000   0.00000
   5        2PZ         0.00000   0.00000   0.00000   0.44244   0.00000
   6        3S         -0.02191   0.31538   0.00000  -0.00000   0.00000
   7        3PX         0.00000   0.00000  -0.00000   0.00000   0.62097
   8        3PY         0.00000   0.00000   0.16687   0.00000   0.00000
   9        3PZ        -0.00000   0.00000   0.00000   0.16687   0.00000
  10 2   H  1S         -0.00108   0.16541   0.00000   0.29856   0.00000
  11        2S          0.00490   0.07304   0.00000   0.24699   0.00000
  12 3   H  1S         -0.00108   0.16541   0.25856  -0.14928  -0.00000
  13        2S          0.00490   0.07304   0.21390  -0.12350  -0.00000
  14 4   H  1S         -0.00108   0.16541  -0.25856  -0.14928   0.00000
  15        2S          0.00490   0.07304  -0.21390  -0.12350   0.00000
                           6         7         8         9        10
                           V         V         V         V         V
     Eigenvalues --     0.12982   0.18663   0.18663   0.56568   0.56568
   1 1   C  1S         -0.15628   0.00000   0.00000  -0.00000   0.00000
   2        2S          0.22835   0.00000  -0.00000  -0.00000   0.00000
   3        2PX         0.00000   0.00000   0.00000   0.00000  -0.00000
   4        2PY         0.00000  -0.40536   0.00000   0.00000  -0.78788
   5        2PZ        -0.00001   0.00000  -0.40536  -0.78787   0.00000
   6        3S          2.22691   0.00000  -0.00004   0.00001   0.00000
   7        3PX         0.00000   0.00000   0.00000   0.00000   0.00000
   8        3PY         0.00000  -1.46643   0.00000   0.00000   1.82514
   9        3PZ        -0.00002   0.00000  -1.46642   1.82512   0.00000
  10 2   H  1S         -0.05478   0.00000   0.08060  -0.47190   0.00000
  11        2S         -1.10230   0.00000   1.90064  -0.58596   0.00000
  12 3   H  1S         -0.05478   0.06980  -0.04030   0.23595  -0.40868
  13        2S         -1.10234   1.64599  -0.95029   0.29297  -0.50747
  14 4   H  1S         -0.05478  -0.06980  -0.04030   0.23595   0.40868
  15        2S         -1.10234  -1.64599  -0.95029   0.29297   0.50747
                          11        12        13        14        15
                           V         V         V         V         V
     Eigenvalues --     0.61332   0.74106   0.95989   0.95989   0.99414
   1 1   C  1S          0.00000  -0.07019   0.00000   0.00000   0.04652
   2        2S          0.00000  -0.81014   0.00000  -0.00006  -1.94164
   3        2PX         1.10654   0.00000  -0.00000   0.00000   0.00000
   4        2PY        -0.00000   0.00000   0.85433   0.00000   0.00000
   5        2PZ         0.00000  -0.00000   0.00000   0.85433  -0.00002
   6        3S          0.00000   1.75950   0.00000   0.00011   3.65251
   7        3PX        -1.04645   0.00000   0.00000   0.00000   0.00000
   8        3PY         0.00000   0.00000  -1.02028   0.00000   0.00000
   9        3PZ         0.00000   0.00002   0.00000  -1.02028   0.00003
  10 2   H  1S          0.00000  -0.67115   0.00000  -1.00506   0.37274
  11        2S          0.00000  -0.02333   0.00000   1.53040  -1.14639
  12 3   H  1S         -0.00000  -0.67116  -0.87041   0.50254   0.37270
  13        2S         -0.00000  -0.02331   1.32539  -0.76525  -1.14632
  14 4   H  1S          0.00000  -0.67116   0.87041   0.50254   0.37270
  15        2S          0.00000  -0.02331  -1.32539  -0.76525  -1.14632
     Alpha Density Matrix:
                           1         2         3         4         5
   1 1   C  1S          1.03198
   2        2S         -0.04865   0.16630
   3        2PX         0.00000   0.00000   0.36227
[...]


 ---------------------------------------------------------------------------------
              Anisotropic Spin Dipole Couplings in Principal Axis System
 ---------------------------------------------------------------------------------

       Atom             a.u.   MegaHertz   Gauss  10(-4) cm-1        Axes

              Baa    -0.5382   -72.219   -25.769   -24.090  0.0000  1.0000 -0.0000
     1 C(13)  Bbb    -0.5382   -72.219   -25.769   -24.090  1.0000 -0.0000  0.0000
              Bcc     1.0764   144.437    51.539    48.179  0.0000  0.0000  1.0000
 
              Baa    -0.0735   -39.203   -13.989   -13.077  1.0000 -0.0000  0.0000
     2 H(1)   Bbb    -0.0094    -5.020    -1.791    -1.674  0.0000  0.0000  1.0000
              Bcc     0.0829    44.223    15.780    14.751  0.0000  1.0000 -0.0000
 
              Baa    -0.0735   -39.203   -13.989   -13.077 -0.5000  0.8660  0.0000
     3 H(1)   Bbb    -0.0094    -5.020    -1.791    -1.675  0.0000  0.0000  1.0000
              Bcc     0.0829    44.223    15.780    14.751  0.8660  0.5000 -0.0000
 
              Baa    -0.0735   -39.203   -13.989   -13.077  0.5000  0.8660  0.0000
     4 H(1)   Bbb    -0.0094    -5.020    -1.791    -1.675  0.0000  0.0000  1.0000
              Bcc     0.0829    44.223    15.780    14.751  0.8660 -0.5000  0.0000
 

 ---------------------------------------------------------------------------------

 No NMR shielding tensors so no spin-rotation constants.
 Leave Link  601 at Sat Aug 17 17:57:16 2024, MaxMem=   13107200 cpu:       0.2
 (Enter /programs/64bit/g09/g09-gfortran/bin/l701.exe)
 Compute integral second derivatives.
 ... and contract with generalized density number  0.
 Leave Link  701 at Sat Aug 17 17:57:16 2024, MaxMem=   13107200 cpu:       0.1
 (Enter /programs/64bit/g09/g09-gfortran/bin/l702.exe)
 L702 exits ... SP integral derivatives will be done elsewhere.
 Leave Link  702 at Sat Aug 17 17:57:16 2024, MaxMem=   13107200 cpu:       0.0
 (Enter /programs/64bit/g09/g09-gfortran/bin/l703.exe)
 Compute integral second derivatives, UseDBF=F ICtDFT=           0.
 Integral derivatives from FoFDir, PRISM(SPDF).
 Calling FoFJK, ICntrl=    100127 FMM=F ISym2X=1 I1Cent= 0 IOpClX= 1 NMat=1 NMatS=1 NMatT=0.
 FoFCou: FMM=F IPFlag=           0 FMFlag=      100000 FMFlg1=         800
         NFxFlg=           0 DoJE=F BraDBF=F KetDBF=F FulRan=T
         Omega=  0.000000  0.000000  1.000000  0.000000  0.000000 ICntrl=  100127 IOpCl=  1
         NMat0=    1 NMatS0=    1 NMatT0=    0 NMatD0=    1 NMtDS0=    0 NMtDT0=    0
         I1Cent=           0 NGrid=           0.
 Petite list used in FoFCou.
 Leave Link  703 at Sat Aug 17 17:57:17 2024, MaxMem=   13107200 cpu:       1.6
 (Enter /programs/64bit/g09/g09-gfortran/bin/l716.exe)
 Dipole        =-3.30552252D-12-2.07391040D-06-4.35786742D-34
 Polarizability= 1.16481346D+01 9.35002632D-10 1.16483555D+01
                 6.75498883D-12-7.18343393D-12 4.47708101D+00
 Full mass-weighted force constant matrix:
 Low frequencies ---  -63.8201  -61.5866  -57.9185   -0.0012    0.0010    0.0011
 Low frequencies ---  538.4384 1438.2317 1438.3123
 Diagonal vibrational polarizability:
        0.0865932       0.0866195       9.9742287
 Harmonic frequencies (cm**-1), IR intensities (KM/Mole), Raman scattering
 activities (A**4/AMU), depolarization ratios for plane and unpolarized
 incident light, reduced masses (AMU), force constants (mDyne/A),
 and normal coordinates:
                     1                      2                      3
                    A"                     A'                     A'
 Frequencies --   538.4384              1438.2317              1438.3123
 Red. masses --     1.2356                 1.1034                 1.1034
 Frc consts  --     0.2111                 1.3448                 1.3449
 IR Inten    --   107.4529                 4.6326                 4.6352
  Atom  AN      X      Y      Z        X      Y      Z        X      Y      Z
     1   6    -0.00   0.00   0.14    -0.09   0.00  -0.00     0.00   0.09  -0.00
     2   1     0.00   0.00  -0.57     0.81  -0.00   0.00     0.00   0.07   0.00
     3   1     0.00  -0.00  -0.57     0.15  -0.38   0.00     0.38  -0.59   0.00
     4   1    -0.00  -0.00  -0.57     0.15   0.38   0.00    -0.38  -0.59   0.00
                     4                      5                      6
                    A'                     A'                     A'
 Frequencies --  3137.0560              3326.1262              3326.1657
 Red. masses --     1.0078                 1.1169                 1.1169
 Frc consts  --     5.8436                 7.2805                 7.2807
 IR Inten    --     0.0000                10.8212                10.8215
  Atom  AN      X      Y      Z        X      Y      Z        X      Y      Z
     1   6     0.00  -0.00   0.00     0.10  -0.00   0.00     0.00   0.10   0.00
     2   1    -0.00  -0.58  -0.00     0.02   0.00  -0.00     0.00  -0.81  -0.00
     3   1     0.50   0.29  -0.00    -0.60  -0.36  -0.00    -0.36  -0.19  -0.00
     4   1    -0.50   0.29  -0.00    -0.60   0.36  -0.00     0.36  -0.19  -0.00

 -------------------
 - Thermochemistry -
 -------------------
 Temperature   298.150 Kelvin.  Pressure   1.00000 Atm.
 Atom     1 has atomic number  6 and mass  12.00000
 Atom     2 has atomic number  1 and mass   1.00783
 Atom     3 has atomic number  1 and mass   1.00783
 Atom     4 has atomic number  1 and mass   1.00783
 Molecular mass:    15.02348 amu.
 Principal axes and moments of inertia in atomic units:
                           1         2         3
     Eigenvalues --     6.32558   6.32565  12.65123
           X            1.00000   0.00000   0.00000
           Y           -0.00000   1.00000   0.00000
           Z            0.00000  -0.00000   1.00000
 This molecule is an asymmetric top.
 Rotational symmetry number  1.
 Rotational temperatures (Kelvin)     13.69263    13.69249     6.84628
 Rotational constants (GHZ):         285.30837   285.30544   142.65345
 Zero-point vibrational energy      78979.4 (Joules/Mol)
                                   18.87654 (Kcal/Mol)
 Warning -- explicit consideration of   1 degrees of freedom as
           vibrations may cause significant error
 Vibrational temperatures:    774.69  2069.29  2069.41  4513.52  4785.55
          (Kelvin)           4785.60
 
 Zero-point correction=                           0.030082 (Hartree/Particle)
 Thermal correction to Energy=                    0.033124
 Thermal correction to Enthalpy=                  0.034068
 Thermal correction to Gibbs Free Energy=         0.010295
 Sum of electronic and zero-point Energies=            -39.801092
 Sum of electronic and thermal Energies=               -39.798050
 Sum of electronic and thermal Enthalpies=             -39.797105
 Sum of electronic and thermal Free Energies=          -39.820878
 
                     E (Thermal)             CV                S
                      KCal/Mol        Cal/Mol-Kelvin    Cal/Mol-Kelvin
 Total                   20.786              7.313             50.034
 Electronic               0.000              0.000              1.377
 Translational            0.889              2.981             34.068
 Rotational               0.889              2.981             13.990
 Vibrational             19.008              1.351              0.599
 Vibration     1          0.893              1.165              0.569
                       Q            Log10(Q)             Ln(Q)
 Total Bot       0.183862D-04         -4.735509        -10.903912
 Total V=0       0.126204D+10          9.101073         20.955995
 Vib (Bot)       0.157701D-13        -13.802165        -31.780660
 Vib (Bot)    1  0.294683D+00         -0.530644         -1.221854
 Vib (V=0)       0.108247D+01          0.034417          0.079247
 Vib (V=0)    1  0.108038D+01          0.033576          0.077311
 Electronic      0.200000D+01          0.301030          0.693147
 Translational   0.228882D+07          6.359611         14.643545
 Rotational      0.254692D+03          2.406015          5.540055
 
                                     methyl with imposed symmetry Td and hf/6-31G
  basis function
                                                             IR Spectrum
 
      3      3                                                                1                                                      
      3      1                                                                4                                 5                    
      2      3                                                                3                                 3                    
      6      7                                                                8                                 8                    
 
      X                                                                       X                                 X                    
      X                                                                       X                                 X                    
      X                                                                                                         X                    
      X                                                                                                         X                    
                                                                                                                X                    
                                                                                                                X                    
                                                                                                                X                    
                                                                                                                X                    
                                                                                                                X                    
                                                                                                                X                    
                                                                                                                X                    
                                                                                                                X                    
                                                                                                                X                    
                                                                                                                X                    
                                                                                                                X                    
                                                                                                                X                    
                                                                                                                X                    
                                                                                                                X                    
                                                                                                                X                    
                                                                                                                X                    
 
 ***** Axes restored to original set *****
 -------------------------------------------------------------------
 Center     Atomic                   Forces (Hartrees/Bohr)
 Number     Number              X              Y              Z
 -------------------------------------------------------------------
      1        6           0.000000000   -0.000000000   -0.000000960
      2        1          -0.000000000   -0.000000000    0.000270390
      3        1           0.000234094   -0.000000000   -0.000134715
      4        1          -0.000234094    0.000000000   -0.000134715
 -------------------------------------------------------------------
 Cartesian Forces:  Max     0.000270390 RMS     0.000135095
 Force constants in Cartesian coordinates: 
                1             2             3             4             5 
      1  0.624699D+00
      2  0.000000D+00  0.264960D-01
      3  0.000000D+00  0.000000D+00  0.624712D+00
      4 -0.552079D-01  0.000000D+00  0.000000D+00  0.473959D-01
      5  0.000000D+00 -0.883032D-02  0.000000D+00  0.000000D+00  0.284644D-02
      6  0.000000D+00  0.000000D+00 -0.361264D+00  0.000000D+00  0.000000D+00
      7 -0.284746D+00  0.000000D+00  0.132517D+00  0.390597D-02  0.000000D+00
      8  0.000000D+00 -0.883285D-02  0.000000D+00  0.000000D+00  0.299194D-02
      9  0.132517D+00  0.000000D+00 -0.131724D+00  0.251860D-01  0.000000D+00
     10 -0.284746D+00  0.000000D+00 -0.132517D+00  0.390597D-02  0.000000D+00
     11  0.000000D+00 -0.883285D-02  0.000000D+00  0.000000D+00  0.299194D-02
     12 -0.132517D+00  0.000000D+00 -0.131724D+00 -0.251860D-01  0.000000D+00
                6             7             8             9            10 
      6  0.376594D+00
      7 -0.514736D-02  0.294291D+00
      8  0.000000D+00  0.000000D+00  0.284278D-02
      9 -0.766482D-02 -0.142537D+00  0.000000D+00  0.129697D+00
     10  0.514736D-02 -0.134509D-01  0.000000D+00 -0.151668D-01  0.294291D+00
     11  0.000000D+00  0.000000D+00  0.299813D-02  0.000000D+00  0.000000D+00
     12 -0.766482D-02  0.151668D-01  0.000000D+00  0.969129D-02  0.142537D+00
               11            12 
     11  0.284278D-02
     12  0.000000D+00  0.129697D+00
 Force constants in internal coordinates: 
                1             2             3             4             5 
      1  0.376594D+00
      2 -0.625364D-03  0.376583D+00
      3 -0.625364D-03 -0.623772D-03  0.376583D+00
      4  0.628098D-02  0.627911D-02 -0.125609D-01  0.662961D-01
      5  0.628098D-02 -0.125609D-01  0.627911D-02 -0.331453D-01  0.662961D-01
      6 -0.125620D-01  0.628179D-02  0.628179D-02 -0.331509D-01 -0.331509D-01
      7  0.000000D+00  0.000000D+00  0.000000D+00  0.000000D+00  0.000000D+00
                6             7 
      6  0.663017D-01
      7  0.000000D+00  0.937715D-02
 Leave Link  716 at Sat Aug 17 17:57:18 2024, MaxMem=   13107200 cpu:       0.0
 (Enter /programs/64bit/g09/g09-gfortran/bin/l103.exe)

 GradGradGradGradGradGradGradGradGradGradGradGradGradGradGradGradGradGrad
 Berny optimization.
 Internal  Forces:  Max     0.000270390 RMS     0.000176880
 Search for a local minimum.
 Step number   1 out of a maximum of    2
 All quantities printed in internal units (Hartrees-Bohrs-Radians)
 Second derivative matrix not updated -- analytic derivatives used.
 The second derivative matrix:
                          R1        R2        R3        A1        A2
           R1           0.37659
           R2          -0.00063   0.37658
           R3          -0.00063  -0.00062   0.37658
           A1           0.00628   0.00628  -0.01256   0.06630
           A2           0.00628  -0.01256   0.00628  -0.03315   0.06630
           A3          -0.01256   0.00628   0.00628  -0.03315  -0.03315
           D1           0.00000  -0.00000   0.00000   0.00000   0.00000
                          A3        D1
           A3           0.06630
           D1          -0.00000   0.00938
     Eigenvalues ---    0.00938   0.09817   0.09818   0.37534   0.37848
     Eigenvalues ---    0.378491000.00000
 Angle between quadratic step and forces=   0.22 degrees.
 Linear search not attempted -- first point.
 Iteration  1 RMS(Cart)=  0.00047126 RMS(Int)=  0.00000000
 Iteration  2 RMS(Cart)=  0.00000000 RMS(Int)=  0.00000000
 ClnCor:  largest displacement from symmetrization is 5.48D-12 for atom     1.
 Variable       Old X    -DE/DX   Delta X   Delta X   Delta X     New X
                                 (Linear)    (Quad)   (Total)
    R1        2.04556   0.00027   0.00000   0.00072   0.00072   2.04628
    R2        2.04557   0.00027   0.00000   0.00072   0.00072   2.04628
    R3        2.04557   0.00027   0.00000   0.00072   0.00072   2.04628
    A1        2.09439  -0.00000   0.00000  -0.00000  -0.00000   2.09439
    A2        2.09439  -0.00000   0.00000  -0.00000  -0.00000   2.09439
    A3        2.09440   0.00000   0.00000   0.00001   0.00001   2.09441
    D1        3.14159  -0.00000   0.00000  -0.00000   0.00000   3.14159
         Item               Value     Threshold  Converged?
 Maximum Force            0.000270     0.000450     YES
 RMS     Force            0.000177     0.000300     YES
 Maximum Displacement     0.000718     0.001800     YES
 RMS     Displacement     0.000471     0.001200     YES
 Predicted change in Energy=-2.917484D-07
 Optimization completed.
    -- Stationary point found.
                           ----------------------------
                           !   Optimized Parameters   !
                           ! (Angstroms and Degrees)  !
 --------------------------                            --------------------------
 ! Name  Definition              Value          Derivative Info.                !
 --------------------------------------------------------------------------------
 ! R1    R(1,2)                  1.0825         -DE/DX =    0.0003              !
 ! R2    R(1,3)                  1.0825         -DE/DX =    0.0003              !
 ! R3    R(1,4)                  1.0825         -DE/DX =    0.0003              !
 ! A1    A(2,1,3)              119.9998         -DE/DX =    0.0                 !
 ! A2    A(2,1,4)              119.9998         -DE/DX =    0.0                 !
 ! A3    A(3,1,4)              120.0004         -DE/DX =    0.0                 !
 ! D1    D(2,1,4,3)            180.0            -DE/DX =    0.0                 !
 --------------------------------------------------------------------------------
 GradGradGradGradGradGradGradGradGradGradGradGradGradGradGradGradGradGrad

 Leave Link  103 at Sat Aug 17 17:57:18 2024, MaxMem=   13107200 cpu:       0.0
 (Enter /programs/64bit/g09/g09-gfortran/bin/l9999.exe)
 1\1\GINC-MOLMOD\Freq\UB3LYP\6-31G\C1H3(2)\OSPITE\17-Aug-2024\0\\#P Geo
 m=AllCheck Guess=TCheck SCRF=Check GenChk UB3LYP/6-31G Freq\\methyl wi
 th imposed symmetry Td and hf/6-31G basis function\\0,2\C,0.,0.,-0.000
 001295\H,0.,0.,1.0824636271\H,0.9374454483,0.,-0.5412311661\H,-0.93744
 54483,0.,-0.5412311661\\Version=EM64L-G09RevA.02\State=2-A"\HF=-39.831
 1737\S2=0.753405\S2-1=0.\S2A=0.750007\RMSD=3.380e-10\RMSF=1.351e-04\Ze
 roPoint=0.0300817\Thermal=0.0331241\Dipole=0.,0.,0.0000021\DipoleDeriv
 =0.0457469,0.,0.,0.,-0.5159316,0.,0.,0.,0.0457262,0.0557082,0.,0.,0.,0
 .1719978,0.,0.,0.,-0.0862064,-0.0507276,0.,0.0614513,0.,0.1719669,0.,0
 .0614424,0.,0.0202401,-0.0507276,0.,-0.0614513,0.,0.1719669,0.,-0.0614
 423,0.,0.0202401\Polar=11.6481346,0.,4.477081,0.,0.,11.6483555\PG=CS [
 SG(C1H3)]\NImag=0\\0.62469949,0.,0.02649603,0.,0.,0.62471226,-0.055207
 88,0.,0.,0.04739594,0.,-0.00883032,0.,0.,0.00284644,0.,0.,-0.36126447,
 0.,0.,0.37659411,-0.28474580,0.,0.13251707,0.00390597,0.,-0.00514736,0
 .29429072,0.,-0.00883285,0.,0.,0.00299194,0.,0.,0.00284278,0.13251731,
 0.,-0.13172389,0.02518599,0.,-0.00766482,-0.14253651,0.,0.12969743,-0.
 28474580,0.,-0.13251707,0.00390597,0.,0.00514736,-0.01345089,0.,-0.015
 16679,0.29429072,0.,-0.00883285,0.,0.,0.00299194,0.,0.,0.00299813,0.,0
 .,0.00284278,-0.13251731,0.,-0.13172389,-0.02518599,0.,-0.00766482,0.0
 1516679,0.,0.00969129,0.14253651,0.,0.12969742\\0.,0.,0.00000096,0.,0.
 ,-0.00027039,-0.00023409,0.,0.00013471,0.00023409,0.,0.00013471\\\@


 EVERYTHING'S GOT A MORAL, IF ONLY YOU CAN FIND IT.

                                    -- LEWIS CARROL, ALICE IN WONDERLAND
 Job cpu time:  0 days  0 hours  0 minutes  7.5 seconds.
 File lengths (MBytes):  RWF=      5 Int=      0 D2E=      0 Chk=      1 Scr=      1
 Normal termination of Gaussian 09 at Sat Aug 17 17:57:18 2024.
