 Entering Gaussian System, Link 0=/programs/64bit/g09/g09-gfortran/bin/g09
 Input=ch3_cc-pVDZ.com
 Output=ch3_cc-pVDZ.log
 Initial command:
 /programs/64bit/g09/g09-gfortran/bin/l1.exe /home/ospite/Desktop/MMfP/Project6/CH3/g09/DFT/B3LYP/Gau-17480.inp -scrdir=/home/ospite/Desktop/MMfP/Project6/CH3/g09/DFT/B3LYP/
 Entering Link 1 = /programs/64bit/g09/g09-gfortran/bin/l1.exe PID=     17483.
  
 Copyright (c) 1988,1990,1992,1993,1995,1998,2003,2009, Gaussian, Inc.
                  All Rights Reserved.
  
 This is part of the Gaussian(R) 09 program.  It is based on
 the Gaussian(R) 03 system (copyright 2003, Gaussian, Inc.),
 the Gaussian(R) 98 system (copyright 1998, Gaussian, Inc.),
 the Gaussian(R) 94 system (copyright 1995, Gaussian, Inc.),
 the Gaussian 92(TM) system (copyright 1992, Gaussian, Inc.),
 the Gaussian 90(TM) system (copyright 1990, Gaussian, Inc.),
 the Gaussian 88(TM) system (copyright 1988, Gaussian, Inc.),
 the Gaussian 86(TM) system (copyright 1986, Carnegie Mellon
 University), and the Gaussian 82(TM) system (copyright 1983,
 Carnegie Mellon University). Gaussian is a federally registered
 trademark of Gaussian, Inc.
  
 This software contains proprietary and confidential information,
 including trade secrets, belonging to Gaussian, Inc.
  
 This software is provided under written license and may be
 used, copied, transmitted, or stored only in accord with that
 written license.
  
 The following legend is applicable only to US Government
 contracts under FAR:
  
                    RESTRICTED RIGHTS LEGEND
  
 Use, reproduction and disclosure by the US Government is
 subject to restrictions as set forth in subparagraphs (a)
 and (c) of the Commercial Computer Software - Restricted
 Rights clause in FAR 52.227-19.
  
 Gaussian, Inc.
 340 Quinnipiac St., Bldg. 40, Wallingford CT 06492
  
  
 ---------------------------------------------------------------
 Warning -- This program may not be used in any manner that
 competes with the business of Gaussian, Inc. or will provide
 assistance to any competitor of Gaussian, Inc.  The licensee
 of this program is prohibited from giving any competitor of
 Gaussian, Inc. access to this program.  By using this program,
 the user acknowledges that Gaussian, Inc. is engaged in the
 business of creating and licensing software in the field of
 computational chemistry and represents and warrants to the
 licensee that it is not a competitor of Gaussian, Inc. and that
 it will not use this program in any manner prohibited above.
 ---------------------------------------------------------------
  

 Cite this work as:
 Gaussian 09, Revision A.02,
 M. J. Frisch, G. W. Trucks, H. B. Schlegel, G. E. Scuseria, 
 M. A. Robb, J. R. Cheeseman, G. Scalmani, V. Barone, B. Mennucci, 
 G. A. Petersson, H. Nakatsuji, M. Caricato, X. Li, H. P. Hratchian, 
 A. F. Izmaylov, J. Bloino, G. Zheng, J. L. Sonnenberg, M. Hada, 
 M. Ehara, K. Toyota, R. Fukuda, J. Hasegawa, M. Ishida, T. Nakajima, 
 Y. Honda, O. Kitao, H. Nakai, T. Vreven, J. A. Montgomery, Jr., 
 J. E. Peralta, F. Ogliaro, M. Bearpark, J. J. Heyd, E. Brothers, 
 K. N. Kudin, V. N. Staroverov, R. Kobayashi, J. Normand, 
 K. Raghavachari, A. Rendell, J. C. Burant, S. S. Iyengar, J. Tomasi, 
 M. Cossi, N. Rega, J. M. Millam, M. Klene, J. E. Knox, J. B. Cross, 
 V. Bakken, C. Adamo, J. Jaramillo, R. Gomperts, R. E. Stratmann, 
 O. Yazyev, A. J. Austin, R. Cammi, C. Pomelli, J. W. Ochterski, 
 R. L. Martin, K. Morokuma, V. G. Zakrzewski, G. A. Voth, 
 P. Salvador, J. J. Dannenberg, S. Dapprich, A. D. Daniels, 
 O. Farkas, J. B. Foresman, J. V. Ortiz, J. Cioslowski, 
 and D. J. Fox, Gaussian, Inc., Wallingford CT, 2009.
 
 ******************************************
 Gaussian 09:  EM64L-G09RevA.02 11-Jun-2009
                17-Aug-2024 
 ******************************************
 %mem=100MB
 -------------------------------------------------------------------
 #p b3lyp/cc-pVDZ opt freq symmetry=(follow,pg=C3v) pop=full gfinput
 -------------------------------------------------------------------
 1/14=-1,18=20,19=15,26=3,38=1/1,3;
 2/9=110,12=2,17=6,18=5,19=2314885530821997379,40=1/2;
 3/5=16,11=2,16=1,24=10,25=1,30=1,71=1,74=-5/1,2,3;
 4//1;
 5/5=2,38=5/2;
 6/7=3,28=1/1;
 7//1,2,3,16;
 1/14=-1,18=20,19=15/3(2);
 2/9=110,15=5,19=2314885530821997379/2;
 99//99;
 2/9=110,15=5,19=2314885530821997379/2;
 3/5=16,11=2,16=1,25=1,30=1,71=1,74=-5/1,2,3;
 4/5=5,16=3/1;
 5/5=2,38=5/2;
 7//1,2,3,16;
 1/14=-1,18=20,19=15/3(-5);
 2/9=110,15=5,19=2314885530821997379/2;
 6/7=3,19=2,28=1/1;
 99/9=1/99;
 Leave Link    1 at Sat Aug 17 23:28:33 2024, MaxMem=   13107200 cpu:       0.1
 (Enter /programs/64bit/g09/g09-gfortran/bin/l101.exe)
 --------------------------------------------------
 methyl with imposed symmetry and cc-pVDZ basis set
 --------------------------------------------------
 Symbolic Z-matrix:
 Charge =  0 Multiplicity = 2
 C1
 H2                   1    d
 H3                   1    d        2    a
 H4                   1    d        2    -a       3    t        0
       Variables:
  d                     1.09                     
  a                   120.                       
  t                     0.                       
 
 NAtoms=      4 NQM=      4 NQMF=      0 NMic=      0 NMicF=      0 NTot=      4.
                    Isotopes and Nuclear Properties:
 (Nuclear quadrupole moments (NQMom) in fm**2, nuclear magnetic moments (NMagM)
  in nuclear magnetons)

  Atom         1           2           3           4
 IAtWgt=          12           1           1           1
 AtmWgt=  12.0000000   1.0078250   1.0078250   1.0078250
 NucSpn=           0           1           1           1
 AtZEff=   0.0000000   0.0000000   0.0000000   0.0000000
 NQMom=    0.0000000   0.0000000   0.0000000   0.0000000
 NMagM=    0.0000000   2.7928460   2.7928460   2.7928460
 Leave Link  101 at Sat Aug 17 23:28:33 2024, MaxMem=   13107200 cpu:       0.1
 (Enter /programs/64bit/g09/g09-gfortran/bin/l103.exe)

 GradGradGradGradGradGradGradGradGradGradGradGradGradGradGradGradGradGrad
 Berny optimization.
 Initialization pass.
                           ----------------------------
                           !    Initial Parameters    !
                           ! (Angstroms and Degrees)  !
 --------------------------                            --------------------------
 ! Name  Definition              Value          Derivative Info.                !
 --------------------------------------------------------------------------------
 ! R1    R(1,2)                  1.09           estimate D2E/DX2                !
 ! R2    R(1,3)                  1.09           estimate D2E/DX2                !
 ! R3    R(1,4)                  1.09           estimate D2E/DX2                !
 ! A1    A(2,1,3)              120.0            estimate D2E/DX2                !
 ! A2    A(2,1,4)              120.0            estimate D2E/DX2                !
 ! A3    A(3,1,4)              120.0            estimate D2E/DX2                !
 ! D1    D(2,1,4,3)            180.0            estimate D2E/DX2                !
 --------------------------------------------------------------------------------
 Trust Radius=3.00D-01 FncErr=1.00D-07 GrdErr=1.00D-06
 Number of steps in this run=  20 maximum allowed number of steps= 100.
 GradGradGradGradGradGradGradGradGradGradGradGradGradGradGradGradGradGrad

 Leave Link  103 at Sat Aug 17 23:28:33 2024, MaxMem=   13107200 cpu:       0.0
 (Enter /programs/64bit/g09/g09-gfortran/bin/l202.exe)
                          Input orientation:                          
 ---------------------------------------------------------------------
 Center     Atomic      Atomic             Coordinates (Angstroms)
 Number     Number       Type             X           Y           Z
 ---------------------------------------------------------------------
      1          6           0        0.000000    0.000000    0.000000
      2          1           0        0.000000    0.000000    1.090000
      3          1           0        0.943968    0.000000   -0.545000
      4          1           0       -0.943968    0.000000   -0.545000
 ---------------------------------------------------------------------
                    Distance matrix (angstroms):
                    1          2          3          4
     1  C    0.000000
     2  H    1.090000   0.000000
     3  H    1.090000   1.887935   0.000000
     4  H    1.090000   1.887935   1.887935   0.000000
 Symm:  InNGrp=C3V  InAxis=0.
 This structure is nearly, but not quite of a higher symmetry.
 Consider Symm=Loose if the higher symmetry is desired.
 Stoichiometry    CH3(2)
 Framework group  C2[C2(CH),X(H2)]
 Deg. of freedom     3
 Full point group                 C2      NOp   2
 Largest Abelian subgroup         C2      NOp   2
 Largest concise Abelian subgroup C2      NOp   2
                         Standard orientation:                         
 ---------------------------------------------------------------------
 Center     Atomic      Atomic             Coordinates (Angstroms)
 Number     Number       Type             X           Y           Z
 ---------------------------------------------------------------------
      1          6           0        0.000000    0.000000    0.000000
      2          1           0        0.000000    0.000000    1.090000
      3          1           0        0.000000    0.943968   -0.545000
      4          1           0       -0.000000   -0.943968   -0.545000
 ---------------------------------------------------------------------
 Rotational constants (GHZ):    281.3764836    281.3764836    140.6882418
 Leave Link  202 at Sat Aug 17 23:28:33 2024, MaxMem=   13107200 cpu:       0.0
 (Enter /programs/64bit/g09/g09-gfortran/bin/l301.exe)
 Standard basis: CC-pVDZ (5D, 7F)
 Ernie: Thresh=  0.10000D-02 Tol=  0.10000D-05 Strict=F.
 Ernie:  2 primitive shells out of 37 were deleted.
 AO basis set in the form of general basis input (Overlap normalization):
      1 0
 S   7 1.00       0.000000000000
      0.6665000000D+04  0.6935163173D-03
      0.1000000000D+04  0.5341502433D-02
      0.2280000000D+03  0.2713667141D-01
      0.6471000000D+02  0.1019923853D+00
      0.2106000000D+02  0.2755086365D+00
      0.7495000000D+01  0.4510864331D+00
      0.2797000000D+01  0.2875657448D+00
 S   7 1.00       0.000000000000
      0.6665000000D+04  0.7733547404D-05
      0.2280000000D+03  0.2780721367D-03
      0.6471000000D+02 -0.2578756542D-02
      0.2106000000D+02 -0.8950876838D-02
      0.7495000000D+01 -0.1060588547D+00
      0.2797000000D+01 -0.1315176856D+00
      0.5215000000D+00  0.1099486598D+01
 S   1 1.00       0.000000000000
      0.1596000000D+00  0.1000000000D+01
 P   3 1.00       0.000000000000
      0.9439000000D+01  0.5697925159D-01
      0.2002000000D+01  0.3132072115D+00
      0.5456000000D+00  0.7603767417D+00
 P   1 1.00       0.000000000000
      0.1517000000D+00  0.1000000000D+01
 D   1 1.00       0.000000000000
      0.5500000000D+00  0.1000000000D+01
 ****
      2 0
 S   3 1.00       0.000000000000
      0.1301000000D+02  0.3349872639D-01
      0.1962000000D+01  0.2348008012D+00
      0.4446000000D+00  0.8136829579D+00
 S   1 1.00       0.000000000000
      0.1220000000D+00  0.1000000000D+01
 P   1 1.00       0.000000000000
      0.7270000000D+00  0.1000000000D+01
 ****
      3 0
 S   3 1.00       0.000000000000
      0.1301000000D+02  0.3349872639D-01
      0.1962000000D+01  0.2348008012D+00
      0.4446000000D+00  0.8136829579D+00
 S   1 1.00       0.000000000000
      0.1220000000D+00  0.1000000000D+01
 P   1 1.00       0.000000000000
      0.7270000000D+00  0.1000000000D+01
 ****
      4 0
 S   3 1.00       0.000000000000
      0.1301000000D+02  0.3349872639D-01
      0.1962000000D+01  0.2348008012D+00
      0.4446000000D+00  0.8136829579D+00
 S   1 1.00       0.000000000000
      0.1220000000D+00  0.1000000000D+01
 P   1 1.00       0.000000000000
      0.7270000000D+00  0.1000000000D+01
 ****

 There are    16 symmetry adapted basis functions of A   symmetry.
 There are    13 symmetry adapted basis functions of B   symmetry.
 Integral buffers will be    131072 words long.
 Raffenetti 2 integral format.
 Two-electron integral symmetry is turned on.
    29 basis functions,    54 primitive gaussians,    30 cartesian basis functions
     5 alpha electrons        4 beta electrons
       nuclear repulsion energy         9.5795885928 Hartrees.
 IExCor=  402 DFT=T Ex+Corr=B3LYP ExCW=0 ScaHFX=  0.200000
 ScaDFX=  0.800000  0.720000  1.000000  0.810000 ScalE2=  1.000000  1.000000
 IRadAn=      0 IRanWt=     -1 IRanGd=            0 ICorTp=0
 NAtoms=    4 NActive=    4 NUniq=    3 SFac= 1.33D+00 NAtFMM=   80 NAOKFM=F Big=F
 Leave Link  301 at Sat Aug 17 23:28:34 2024, MaxMem=   13107200 cpu:       0.1
 (Enter /programs/64bit/g09/g09-gfortran/bin/l302.exe)
 NPDir=0 NMtPBC=     1 NCelOv=     1 NCel=       1 NClECP=     1 NCelD=      1
         NCelK=      1 NCelE2=     1 NClLst=     1 CellRange=     0.0.
 One-electron integrals computed using PRISM.
 One-electron integral symmetry used in STVInt
 NBasis=    29 RedAO= T  NBF=    16    13
 NBsUse=    29 1.00D-06 NBFU=    16    13
 Precomputing XC quadrature grid using
 IXCGrd= 2 IRadAn=           0 IRanWt=          -1 IRanGd=           0 AccXCQ= 1.00D-10.
 NRdTot=     246 NPtTot=       30798 NUsed=       32585 NTot=       32617
 NSgBfM=    30    30    30    30    30 NAtAll=     4     4.
 Leave Link  302 at Sat Aug 17 23:28:34 2024, MaxMem=   13107200 cpu:       0.2
 (Enter /programs/64bit/g09/g09-gfortran/bin/l303.exe)
 DipDrv:  MaxL=1.
 Leave Link  303 at Sat Aug 17 23:28:34 2024, MaxMem=   13107200 cpu:       0.0
 (Enter /programs/64bit/g09/g09-gfortran/bin/l401.exe)
 Harris functional with IExCor=  402 diagonalized for initial guess.
 ExpMin= 1.22D-01 ExpMax= 6.66D+03 ExpMxC= 2.28D+02 IAcc=1 IRadAn=         1 AccDes= 0.00D+00
 HarFok:  IExCor=  402 AccDes= 0.00D+00 IRadAn=         1 IDoV= 1
 ScaDFX=  1.000000  1.000000  1.000000  1.000000
 FoFCou: FMM=F IPFlag=           0 FMFlag=      100000 FMFlg1=           0
         NFxFlg=           0 DoJE=T BraDBF=F KetDBF=T FulRan=T
         Omega=  0.000000  0.000000  1.000000  0.000000  0.000000 ICntrl=     500 IOpCl=  0
         NMat0=    1 NMatS0=    1 NMatT0=    0 NMatD0=    1 NMtDS0=    0 NMtDT0=    0
         I1Cent=           4 NGrid=           0.
 Petite list used in FoFCou.
 Harris En= -39.8315308085889    
 Initial guess orbital symmetries:
 Alpha Orbitals:
       Occupied  (A) (A) (B) (A) (B)
       Virtual   (A) (A) (B) (B) (A) (A) (B) (A) (B) (A) (A) (B)
                 (B) (B) (A) (A) (B) (A) (B) (B) (A) (A) (B) (A)
 Beta  Orbitals:
       Occupied  (A) (A) (B) (A)
       Virtual   (B) (A) (A) (B) (B) (A) (A) (B) (A) (B) (A) (A)
                 (B) (B) (B) (A) (A) (B) (A) (B) (B) (A) (A) (B)
                 (A)
 The electronic state of the initial guess is 2-B.
 Initial guess <Sx>= 0.0000 <Sy>= 0.0000 <Sz>= 0.5000 <S**2>= 0.7500 S= 0.5000
 Leave Link  401 at Sat Aug 17 23:28:34 2024, MaxMem=   13107200 cpu:       0.3
 (Enter /programs/64bit/g09/g09-gfortran/bin/l502.exe)
 UHF open shell SCF:
 Requested convergence on RMS density matrix=1.00D-08 within 128 cycles.
 Requested convergence on MAX density matrix=1.00D-06.
 Requested convergence on             energy=1.00D-06.
 No special actions if energy rises.
 Using DIIS extrapolation, IDIIS=  1040.
 Integral symmetry usage will be decided dynamically.
        32536 words used for storage of precomputed grid.
 Keep R1 and R2 ints in memory in canonical form, NReq=1129225.
 IEnd=       53838 IEndB=       53838 NGot=    13107200 MDV=    12854215
 LenX=    12854215 LenY=    12852874
 Symmetry not used in FoFDir.
 MinBra= 0 MaxBra= 2 Meth= 1.
 IRaf=       0 NMat=   1 IRICut=       1 DoRegI=T DoRafI=F ISym2E= 0 JSym2E=0.
 Integral accuracy reduced to 1.0D-05 until final iterations.

 Cycle   1  Pass 0  IDiag  1:
 E= -39.7968718878984    
 DIIS: error= 4.45D-02 at cycle   1 NSaved=   1.
 NSaved= 1 IEnMin= 1 EnMin= -39.7968718878984     IErMin= 1 ErrMin= 4.45D-02
 ErrMax= 4.45D-02 EMaxC= 1.00D-01 BMatC= 1.32D-01 BMatP= 1.32D-01
 IDIUse=3 WtCom= 5.55D-01 WtEn= 4.45D-01
 Coeff-Com:  0.100D+01
 Coeff-En:   0.100D+01
 Coeff:      0.100D+01
 Gap=     0.237 Goal=   None    Shift=    0.000
 Gap=     0.370 Goal=   None    Shift=    0.000
 GapD=    0.237 DampG=1.000 DampE=0.500 DampFc=0.5000 IDamp=-1.
 Damping current iteration by 5.00D-01
 RMSDP=1.12D-02 MaxDP=1.52D-01              OVMax= 1.44D-01

 Cycle   2  Pass 0  IDiag  1:
 E= -39.8176959177293     Delta-E=       -0.020824029831 Rises=F Damp=T
 DIIS: error= 8.43D-03 at cycle   2 NSaved=   2.
 NSaved= 2 IEnMin= 2 EnMin= -39.8176959177293     IErMin= 2 ErrMin= 8.43D-03
 ErrMax= 8.43D-03 EMaxC= 1.00D-01 BMatC= 3.32D-03 BMatP= 1.32D-01
 IDIUse=3 WtCom= 9.16D-01 WtEn= 8.43D-02
 Coeff-Com:  0.690D-02 0.993D+00
 Coeff-En:   0.000D+00 0.100D+01
 Coeff:      0.632D-02 0.994D+00
 Gap=     0.298 Goal=   None    Shift=    0.000
 Gap=     0.344 Goal=   None    Shift=    0.000
 RMSDP=1.33D-03 MaxDP=1.43D-02 DE=-2.08D-02 OVMax= 6.90D-02

 Cycle   3  Pass 0  IDiag  1:
 E= -39.8390053004530     Delta-E=       -0.021309382724 Rises=F Damp=F
 DIIS: error= 1.27D-03 at cycle   3 NSaved=   3.
 NSaved= 3 IEnMin= 3 EnMin= -39.8390053004530     IErMin= 3 ErrMin= 1.27D-03
 ErrMax= 1.27D-03 EMaxC= 1.00D-01 BMatC= 7.55D-05 BMatP= 3.32D-03
 IDIUse=3 WtCom= 9.87D-01 WtEn= 1.27D-02
 Coeff-Com: -0.458D-02-0.198D-01 0.102D+01
 Coeff-En:   0.000D+00 0.000D+00 0.100D+01
 Coeff:     -0.452D-02-0.196D-01 0.102D+01
 Gap=     0.302 Goal=   None    Shift=    0.000
 Gap=     0.346 Goal=   None    Shift=    0.000
 RMSDP=2.29D-04 MaxDP=2.97D-03 DE=-2.13D-02 OVMax= 3.21D-03

 Cycle   4  Pass 0  IDiag  1:
 E= -39.8390515242198     Delta-E=       -0.000046223767 Rises=F Damp=F
 DIIS: error= 3.55D-04 at cycle   4 NSaved=   4.
 NSaved= 4 IEnMin= 4 EnMin= -39.8390515242198     IErMin= 4 ErrMin= 3.55D-04
 ErrMax= 3.55D-04 EMaxC= 1.00D-01 BMatC= 7.86D-06 BMatP= 7.55D-05
 IDIUse=3 WtCom= 9.96D-01 WtEn= 3.55D-03
 Coeff-Com: -0.138D-02-0.950D-02-0.285D+00 0.130D+01
 Coeff-En:   0.000D+00 0.000D+00 0.000D+00 0.100D+01
 Coeff:     -0.137D-02-0.947D-02-0.284D+00 0.129D+01
 Gap=     0.303 Goal=   None    Shift=    0.000
 Gap=     0.346 Goal=   None    Shift=    0.000
 RMSDP=1.01D-04 MaxDP=1.06D-03 DE=-4.62D-05 OVMax= 1.40D-03

 Cycle   5  Pass 0  IDiag  1:
 E= -39.8390577562300     Delta-E=       -0.000006232010 Rises=F Damp=F
 DIIS: error= 6.63D-05 at cycle   5 NSaved=   5.
 NSaved= 5 IEnMin= 5 EnMin= -39.8390577562300     IErMin= 5 ErrMin= 6.63D-05
 ErrMax= 6.63D-05 EMaxC= 1.00D-01 BMatC= 2.70D-07 BMatP= 7.86D-06
 IDIUse=1 WtCom= 1.00D+00 WtEn= 0.00D+00
 Coeff-Com:  0.680D-03 0.353D-02 0.840D-02-0.262D+00 0.125D+01
 Coeff:      0.680D-03 0.353D-02 0.840D-02-0.262D+00 0.125D+01
 Gap=     0.303 Goal=   None    Shift=    0.000
 Gap=     0.346 Goal=   None    Shift=    0.000
 RMSDP=2.17D-05 MaxDP=2.07D-04 DE=-6.23D-06 OVMax= 2.99D-04

 Cycle   6  Pass 0  IDiag  1:
 E= -39.8390579862637     Delta-E=       -0.000000230034 Rises=F Damp=F
 DIIS: error= 5.72D-06 at cycle   6 NSaved=   6.
 NSaved= 6 IEnMin= 6 EnMin= -39.8390579862637     IErMin= 6 ErrMin= 5.72D-06
 ErrMax= 5.72D-06 EMaxC= 1.00D-01 BMatC= 1.71D-09 BMatP= 2.70D-07
 IDIUse=1 WtCom= 1.00D+00 WtEn= 0.00D+00
 Coeff-Com: -0.435D-04-0.405D-03 0.444D-02 0.910D-02-0.153D+00 0.114D+01
 Coeff:     -0.435D-04-0.405D-03 0.444D-02 0.910D-02-0.153D+00 0.114D+01
 Gap=     0.303 Goal=   None    Shift=    0.000
 Gap=     0.346 Goal=   None    Shift=    0.000
 RMSDP=1.77D-06 MaxDP=1.72D-05 DE=-2.30D-07 OVMax= 2.49D-05

 Initial convergence to 1.0D-05 achieved.  Increase integral accuracy.
 Cycle   7  Pass 1  IDiag  1:
 E= -39.8390638090633     Delta-E=       -0.000005822800 Rises=F Damp=F
 DIIS: error= 2.30D-06 at cycle   1 NSaved=   1.
 NSaved= 1 IEnMin= 1 EnMin= -39.8390638090633     IErMin= 1 ErrMin= 2.30D-06
 ErrMax= 2.30D-06 EMaxC= 1.00D-01 BMatC= 4.74D-10 BMatP= 4.74D-10
 IDIUse=1 WtCom= 1.00D+00 WtEn= 0.00D+00
 Coeff-Com:  0.100D+01
 Coeff:      0.100D+01
 Gap=     0.303 Goal=   None    Shift=    0.000
 Gap=     0.346 Goal=   None    Shift=    0.000
 RMSDP=1.77D-06 MaxDP=1.72D-05 DE=-5.82D-06 OVMax= 6.41D-06

 Cycle   8  Pass 1  IDiag  1:
 E= -39.8390638091717     Delta-E=       -0.000000000108 Rises=F Damp=F
 DIIS: error= 6.72D-07 at cycle   2 NSaved=   2.
 NSaved= 2 IEnMin= 2 EnMin= -39.8390638091717     IErMin= 2 ErrMin= 6.72D-07
 ErrMax= 6.72D-07 EMaxC= 1.00D-01 BMatC= 4.33D-11 BMatP= 4.74D-10
 IDIUse=1 WtCom= 1.00D+00 WtEn= 0.00D+00
 Coeff-Com:  0.126D+00 0.874D+00
 Coeff:      0.126D+00 0.874D+00
 Gap=     0.303 Goal=   None    Shift=    0.000
 Gap=     0.346 Goal=   None    Shift=    0.000
 RMSDP=1.65D-07 MaxDP=2.96D-06 DE=-1.08D-10 OVMax= 2.43D-06

 Cycle   9  Pass 1  IDiag  1:
 E= -39.8390638091781     Delta-E=       -0.000000000006 Rises=F Damp=F
 DIIS: error= 5.70D-07 at cycle   3 NSaved=   3.
 NSaved= 3 IEnMin= 3 EnMin= -39.8390638091781     IErMin= 3 ErrMin= 5.70D-07
 ErrMax= 5.70D-07 EMaxC= 1.00D-01 BMatC= 2.42D-11 BMatP= 4.33D-11
 IDIUse=1 WtCom= 1.00D+00 WtEn= 0.00D+00
 Coeff-Com: -0.259D-01 0.422D+00 0.603D+00
 Coeff:     -0.259D-01 0.422D+00 0.603D+00
 Gap=     0.303 Goal=   None    Shift=    0.000
 Gap=     0.346 Goal=   None    Shift=    0.000
 RMSDP=7.16D-08 MaxDP=9.65D-07 DE=-6.35D-12 OVMax= 9.39D-07

 Cycle  10  Pass 1  IDiag  1:
 E= -39.8390638091848     Delta-E=       -0.000000000007 Rises=F Damp=F
 DIIS: error= 2.32D-08 at cycle   4 NSaved=   4.
 NSaved= 4 IEnMin= 4 EnMin= -39.8390638091848     IErMin= 4 ErrMin= 2.32D-08
 ErrMax= 2.32D-08 EMaxC= 1.00D-01 BMatC= 5.61D-14 BMatP= 2.42D-11
 IDIUse=1 WtCom= 1.00D+00 WtEn= 0.00D+00
 Coeff-Com: -0.505D-02 0.546D-01 0.880D-01 0.862D+00
 Coeff:     -0.505D-02 0.546D-01 0.880D-01 0.862D+00
 Gap=     0.303 Goal=   None    Shift=    0.000
 Gap=     0.346 Goal=   None    Shift=    0.000
 RMSDP=5.67D-09 MaxDP=6.82D-08 DE=-6.76D-12 OVMax= 9.70D-08

 SCF Done:  E(UB3LYP) =  -39.8390638092     A.U. after   10 cycles
             Convg  =    0.5674D-08             -V/T =  2.0096
 <Sx>= 0.0000 <Sy>= 0.0000 <Sz>= 0.5000 <S**2>= 0.7537 S= 0.5018
 <L.S>=  0.00000000000    
 KE= 3.945998231872D+01 PE=-1.109392610346D+02 EE= 2.206062631395D+01
 Annihilation of the first spin contaminant:
 S**2 before annihilation     0.7537,   after     0.7500
 Leave Link  502 at Sat Aug 17 23:28:38 2024, MaxMem=   13107200 cpu:       2.9
 (Enter /programs/64bit/g09/g09-gfortran/bin/l601.exe)
 Copying SCF densities to generalized density rwf, IOpCl= 1 IROHF=0.

 **********************************************************************

            Population analysis using the SCF density.

 **********************************************************************

 Orbital symmetries:
 Alpha Orbitals:
       Occupied  (A) (A) (B) (A) (B)
       Virtual   (A) (B) (A) (B) (A) (B) (A) (B) (A) (A) (B) (A)
                 (B) (B) (A) (A) (B) (A) (B) (B) (A) (A) (B) (A)
 Beta  Orbitals:
       Occupied  (A) (A) (B) (A)
       Virtual   (B) (A) (B) (A) (B) (A) (A) (B) (B) (A) (A) (A)
                 (B) (B) (B) (A) (A) (B) (A) (B) (B) (A) (A) (B)
                 (A)
 The electronic state is 2-B.
 Alpha  occ. eigenvalues --  -10.19859  -0.68203  -0.41617  -0.41617  -0.22973
 Alpha virt. eigenvalues --    0.07318   0.14191   0.14191   0.43600   0.43600
 Alpha virt. eigenvalues --    0.47349   0.48824   0.65560   0.65560   0.85522
 Alpha virt. eigenvalues --    0.96128   0.96128   1.35680   1.45214   1.45214
 Alpha virt. eigenvalues --    1.48692   1.59626   1.83915   1.83915   2.08226
 Alpha virt. eigenvalues --    2.08226   2.44710   2.49540   2.49541
  Beta  occ. eigenvalues --  -10.18432  -0.64126  -0.40611  -0.40611
  Beta virt. eigenvalues --   -0.05990   0.08382   0.14603   0.14603   0.43901
  Beta virt. eigenvalues --    0.43901   0.51648   0.54797   0.66320   0.66320
  Beta virt. eigenvalues --    0.88381   0.99901   0.99901   1.35320   1.45542
  Beta virt. eigenvalues --    1.45542   1.55202   1.60795   1.86952   1.86952
  Beta virt. eigenvalues --    2.08529   2.08529   2.45280   2.50298   2.50298
     Alpha Molecular Orbital Coefficients:
                           1         2         3         4         5
                           O         O         O         O         O
     Eigenvalues --   -10.19859  -0.68203  -0.41617  -0.41617  -0.22973
   1 1   C  1S          0.99624  -0.19665   0.00000   0.00000   0.00000
   2        2S          0.03035   0.39826   0.00000  -0.00000   0.00000
   3        3S         -0.01242   0.30226   0.00000  -0.00000   0.00000
   4        4PX         0.00000   0.00000  -0.00000   0.00000   0.61365
   5        4PY         0.00000   0.00000   0.45175   0.00000   0.00000
   6        4PZ         0.00000  -0.00000   0.00000   0.45175   0.00000
   7        5PX         0.00000   0.00000  -0.00000   0.00000   0.50795
   8        5PY         0.00000   0.00000   0.16572   0.00000   0.00000
   9        5PZ        -0.00000   0.00000   0.00000   0.16572   0.00000
  10        6D 0        0.00087  -0.00763   0.00000   0.01548   0.00000
  11        6D+1        0.00000   0.00000  -0.00000   0.00000  -0.00000
  12        6D-1        0.00000   0.00000  -0.01788   0.00000  -0.00000
  13        6D+2       -0.00151   0.01321   0.00000   0.00894   0.00000
  14        6D-2       -0.00000  -0.00000   0.00000   0.00000   0.00000
  15 2   H  1S         -0.00242   0.19452   0.00000   0.36512   0.00000
  16        2S          0.00233   0.02750   0.00000   0.14769   0.00000
  17        3PX         0.00000   0.00000  -0.00000   0.00000   0.01955
  18        3PY         0.00000   0.00000   0.01437   0.00000  -0.00000
  19        3PZ         0.00234  -0.02721   0.00000  -0.01401   0.00000
  20 3   H  1S         -0.00242   0.19452   0.31620  -0.18256  -0.00000
  21        2S          0.00233   0.02750   0.12791  -0.07385  -0.00000
  22        3PX        -0.00000   0.00000  -0.00000  -0.00000   0.01955
  23        3PY         0.00203  -0.02356  -0.00692   0.01229   0.00000
  24        3PZ        -0.00117   0.01360   0.01229   0.00728  -0.00000
  25 4   H  1S         -0.00242   0.19452  -0.31620  -0.18256   0.00000
  26        2S          0.00233   0.02750  -0.12791  -0.07385   0.00000
  27        3PX         0.00000  -0.00000  -0.00000   0.00000   0.01955
  28        3PY        -0.00203   0.02356  -0.00692  -0.01229   0.00000
  29        3PZ        -0.00117   0.01360  -0.01229   0.00728   0.00000
                           6         7         8         9        10
                           V         V         V         V         V
     Eigenvalues --     0.07318   0.14191   0.14191   0.43600   0.43600
   1 1   C  1S         -0.13284   0.00000   0.00000   0.00000  -0.00000
   2        2S          0.20142   0.00000  -0.00000   0.00000   0.00000
   3        3S          1.98393   0.00000  -0.00000   0.00000   0.00001
   4        4PX         0.00000   0.00000   0.00000   0.00000   0.00000
   5        4PY         0.00000  -0.38461   0.00000  -0.28740   0.00000
   6        4PZ         0.00000   0.00000  -0.38461   0.00000  -0.28740
   7        5PX         0.00000   0.00000   0.00000  -0.00000   0.00000
   8        5PY         0.00000  -1.29582   0.00000   1.34843   0.00000
   9        5PZ        -0.00001   0.00000  -1.29583   0.00000   1.34842
  10        6D 0       -0.00015   0.00000   0.00004   0.00000  -0.12186
  11        6D+1        0.00000   0.00000   0.00000  -0.00000   0.00000
  12        6D-1        0.00000  -0.00005   0.00000   0.14071   0.00000
  13        6D+2        0.00026   0.00000   0.00003   0.00000  -0.07035
  14        6D-2        0.00000   0.00000   0.00000   0.00000  -0.00000
  15 2   H  1S         -0.08406   0.00000   0.08376   0.00000  -0.78189
  16        2S         -0.95861   0.00000   1.98585   0.00000  -0.10646
  17        3PX         0.00000   0.00000   0.00000   0.00000   0.00000
  18        3PY         0.00000  -0.01282   0.00000   0.07952   0.00000
  19        3PZ         0.00067   0.00000  -0.00292   0.00000  -0.00863
  20 3   H  1S         -0.08407   0.07254  -0.04188  -0.67713   0.39093
  21        2S         -0.95862   1.71979  -0.99292  -0.09221   0.05324
  22        3PX         0.00000   0.00000   0.00000   0.00000  -0.00000
  23        3PY         0.00058  -0.00539  -0.00429   0.01341   0.03817
  24        3PZ        -0.00033  -0.00429  -0.01034   0.03817   0.05749
  25 4   H  1S         -0.08407  -0.07254  -0.04188   0.67713   0.39093
  26        2S         -0.95862  -1.71979  -0.99292   0.09221   0.05324
  27        3PX        -0.00000   0.00000  -0.00000   0.00000   0.00000
  28        3PY        -0.00058  -0.00539   0.00429   0.01341  -0.03817
  29        3PZ        -0.00033   0.00429  -0.01034  -0.03817   0.05749
                          11        12        13        14        15
                           V         V         V         V         V
     Eigenvalues --     0.47349   0.48824   0.65560   0.65560   0.85522
   1 1   C  1S          0.00000   0.07245   0.00000  -0.00000  -0.01601
   2        2S          0.00000   0.00084   0.00000  -0.00000  -1.83148
   3        3S          0.00000  -0.26989   0.00000   0.00000   4.06058
   4        4PX        -0.99260   0.00000   0.00000   0.00000   0.00000
   5        4PY        -0.00000   0.00000  -0.86685   0.00000   0.00000
   6        4PZ         0.00000  -0.00000   0.00000   0.86685  -0.00000
   7        5PX         1.08185   0.00000  -0.00000   0.00000   0.00000
   8        5PY         0.00000   0.00000   1.83032   0.00000   0.00000
   9        5PZ         0.00000   0.00001   0.00000  -1.83032   0.00000
  10        6D 0        0.00000   0.13408   0.00000  -0.24443   0.00191
  11        6D+1        0.00000   0.00000   0.00000   0.00000   0.00000
  12        6D-1        0.00000   0.00000  -0.28224   0.00000   0.00000
  13        6D+2        0.00000  -0.23224   0.00000  -0.14112  -0.00331
  14        6D-2        0.00000   0.00000   0.00000   0.00000   0.00000
  15 2   H  1S          0.00000   0.67924   0.00000  -0.40599  -0.07319
  16        2S          0.00000  -0.36390   0.00000   1.87610  -0.98729
  17        3PX        -0.03368   0.00000   0.00000   0.00000   0.00000
  18        3PY         0.00000   0.00000  -0.04534   0.00000   0.00000
  19        3PZ         0.00000   0.10035   0.00000  -0.23493   0.16335
  20 3   H  1S         -0.00000   0.67925   0.35160   0.20299  -0.07319
  21        2S         -0.00000  -0.36390  -1.62475  -0.93805  -0.98729
  22        3PX        -0.03368   0.00000  -0.00000   0.00000   0.00000
  23        3PY         0.00000   0.08690   0.16486   0.12136   0.14146
  24        3PZ         0.00000  -0.05017  -0.12136  -0.02473  -0.08167
  25 4   H  1S          0.00000   0.67925  -0.35160   0.20299  -0.07319
  26        2S          0.00000  -0.36390   1.62475  -0.93805  -0.98729
  27        3PX        -0.03368  -0.00000  -0.00000  -0.00000  -0.00000
  28        3PY         0.00000  -0.08690   0.16486  -0.12136  -0.14146
  29        3PZ        -0.00000  -0.05017   0.12136  -0.02473  -0.08167
                          16        17        18        19        20
                           V         V         V         V         V
     Eigenvalues --     0.96128   0.96128   1.35680   1.45214   1.45214
   1 1   C  1S          0.00000  -0.00000   0.00000   0.00000  -0.00000
   2        2S          0.00000   0.00000   0.00000   0.00000  -0.00001
   3        3S          0.00000  -0.00000   0.00000   0.00000   0.00002
   4        4PX         0.00000   0.00000  -0.00000  -0.00000   0.00000
   5        4PY         0.00000   0.00000  -0.00000  -0.02473   0.00000
   6        4PZ         0.00000  -0.00000   0.00000   0.00000  -0.02473
   7        5PX        -0.00000   0.00000  -0.00000  -0.00000   0.00000
   8        5PY        -0.00000   0.00000  -0.00000   1.23083   0.00000
   9        5PZ         0.00000   0.00000   0.00000   0.00000   1.23083
  10        6D 0        0.00000  -0.00000   0.00000   0.00000   0.47814
  11        6D+1        0.64595   0.00000  -0.00000  -0.00000   0.00000
  12        6D-1        0.00000   0.00000   0.00000  -0.55210   0.00000
  13        6D+2        0.00000  -0.00000   0.00000   0.00000   0.27604
  14        6D-2        0.00000   0.64595   0.00000   0.00000   0.00000
  15 2   H  1S          0.00000   0.00000   0.00000   0.00000  -0.76395
  16        2S          0.00000   0.00000   0.00000   0.00000  -0.36077
  17        3PX         0.39832   0.00000   0.00000   0.00000   0.00000
  18        3PY         0.00000   0.00000   0.59393  -0.54883   0.00000
  19        3PZ         0.00000  -0.00000   0.00000   0.00000  -0.25310
  20 3   H  1S         -0.00000  -0.00000   0.00000  -0.66159   0.38197
  21        2S          0.00000   0.00000   0.00000  -0.31244   0.18038
  22        3PX        -0.19916   0.34496   0.00000   0.00000  -0.00000
  23        3PY        -0.00000  -0.00000  -0.29697  -0.32703  -0.12806
  24        3PZ        -0.00000   0.00000  -0.51436  -0.12806  -0.47490
  25 4   H  1S          0.00000  -0.00000  -0.00000   0.66159   0.38197
  26        2S         -0.00000   0.00000  -0.00000   0.31244   0.18038
  27        3PX        -0.19916  -0.34496   0.00000   0.00000   0.00000
  28        3PY        -0.00000   0.00000  -0.29697  -0.32703   0.12806
  29        3PZ         0.00000   0.00000   0.51436   0.12806  -0.47490
                          21        22        23        24        25
                           V         V         V         V         V
     Eigenvalues --     1.48692   1.59626   1.83915   1.83915   2.08226
   1 1   C  1S         -0.05837   0.00000   0.00000   0.00000   0.00000
   2        2S         -0.63652   0.00000  -0.00000   0.00000   0.00000
   3        3S          1.53569   0.00000  -0.00000   0.00000   0.00000
   4        4PX         0.00000  -0.25628   0.00000   0.00000   0.00000
   5        4PY         0.00000  -0.00000   0.00000  -0.00000  -0.60883
   6        4PZ         0.00000   0.00000   0.00000   0.00000   0.00000
   7        5PX         0.00000  -0.44644   0.00000  -0.00000   0.00000
   8        5PY         0.00000  -0.00000   0.00000  -0.00000  -0.69519
   9        5PZ        -0.00001   0.00000  -0.00000   0.00000   0.00000
  10        6D 0        0.52514   0.00000   0.00000   0.00000   0.00000
  11        6D+1        0.00000  -0.00000   0.00000   1.01208  -0.00000
  12        6D-1        0.00000  -0.00000   0.00000  -0.00000  -0.62154
  13        6D+2       -0.90958   0.00000   0.00000   0.00000   0.00000
  14        6D-2       -0.00000   0.00000   1.01208   0.00000   0.00000
  15 2   H  1S         -0.54605   0.00000   0.00000   0.00000   0.00000
  16        2S         -0.14227   0.00000   0.00000   0.00000   0.00000
  17        3PX         0.00000   0.66754   0.00000  -0.90104   0.00000
  18        3PY         0.00000   0.00000   0.00000   0.00000   0.83008
  19        3PZ        -0.13128   0.00000  -0.00000   0.00000   0.00000
  20 3   H  1S         -0.54607   0.00000   0.00000  -0.00000   0.05764
  21        2S         -0.14227  -0.00000  -0.00000   0.00000   0.62463
  22        3PX         0.00000   0.66754  -0.78032   0.45052  -0.00000
  23        3PY        -0.11370   0.00000   0.00000  -0.00000  -0.25599
  24        3PZ         0.06565   0.00000   0.00000   0.00000   0.62704
  25 4   H  1S         -0.54607  -0.00000   0.00000   0.00000  -0.05764
  26        2S         -0.14227   0.00000  -0.00000  -0.00000  -0.62463
  27        3PX        -0.00000   0.66754   0.78032   0.45052  -0.00000
  28        3PY         0.11370   0.00000  -0.00000  -0.00000  -0.25599
  29        3PZ         0.06565  -0.00000   0.00000  -0.00000  -0.62704
                          26        27        28        29
                           V         V         V         V
     Eigenvalues --     2.08226   2.44710   2.49540   2.49541
   1 1   C  1S         -0.00000  -0.05808   0.00000  -0.00000
   2        2S          0.00000   1.28397   0.00000   0.00001
   3        3S          0.00000   1.89280   0.00000   0.00002
   4        4PX         0.00000   0.00000   0.00000   0.00000
   5        4PY         0.00000   0.00000  -1.28422   0.00000
   6        4PZ        -0.60883   0.00001   0.00000  -1.28422
   7        5PX         0.00000   0.00000   0.00000   0.00000
   8        5PY         0.00000   0.00000  -0.74699   0.00000
   9        5PZ        -0.69519   0.00001   0.00000  -0.74699
  10        6D 0        0.53827   0.45882   0.00000  -1.41091
  11        6D+1        0.00000   0.00000  -0.00000   0.00000
  12        6D-1        0.00000   0.00000   1.62919   0.00000
  13        6D+2        0.31077  -0.79468   0.00000  -0.81460
  14        6D-2       -0.00000   0.00000   0.00000   0.00000
  15 2   H  1S          0.06655  -0.89433   0.00000   1.45114
  16        2S          0.72126  -0.42156   0.00000   0.49750
  17        3PX         0.00000   0.00000   0.00000   0.00000
  18        3PY         0.00000   0.00000  -0.49330   0.00000
  19        3PZ        -0.61801   0.99274   0.00000  -1.23737
  20 3   H  1S         -0.03328  -0.89431   1.25673  -0.72558
  21        2S         -0.36063  -0.42155   0.43085  -0.24876
  22        3PX         0.00000  -0.00000  -0.00000  -0.00000
  23        3PY         0.62704   0.85973  -1.05136   0.32220
  24        3PZ         0.46806  -0.49636   0.32219  -0.67932
  25 4   H  1S         -0.03328  -0.89431  -1.25673  -0.72558
  26        2S         -0.36063  -0.42155  -0.43085  -0.24876
  27        3PX        -0.00000   0.00000  -0.00000   0.00000
  28        3PY        -0.62704  -0.85973  -1.05136  -0.32220
  29        3PZ         0.46806  -0.49636  -0.32219  -0.67932
     Beta Molecular Orbital Coefficients:
                           1         2         3         4         5
                           O         O         O         O         V
     Eigenvalues --   -10.18432  -0.64126  -0.40611  -0.40611  -0.05990
   1 1   C  1S          0.99648  -0.18979   0.00000   0.00000   0.00000
   2        2S          0.02842   0.37282   0.00000   0.00000   0.00000
   3        3S         -0.01141   0.26644   0.00000  -0.00000   0.00000
   4        4PX         0.00000   0.00000  -0.00000   0.00000   0.50879
   5        4PY         0.00000   0.00000   0.43247   0.00000   0.00000
   6        4PZ         0.00000   0.00000   0.00000   0.43247   0.00000
   7        5PX         0.00000   0.00000  -0.00000   0.00000   0.60595
   8        5PY         0.00000   0.00000   0.14462   0.00000   0.00000
   9        5PZ        -0.00000   0.00000   0.00000   0.14462   0.00000
  10        6D 0        0.00117   0.00640   0.00000   0.01394   0.00000
  11        6D+1        0.00000   0.00000   0.00000   0.00000   0.00000
  12        6D-1        0.00000   0.00000  -0.01609   0.00000  -0.00000
  13        6D+2       -0.00203  -0.01108   0.00000   0.00805   0.00000
  14        6D-2       -0.00000  -0.00000   0.00000  -0.00000   0.00000
  15 2   H  1S         -0.00240   0.21010   0.00000   0.38228   0.00000
  16        2S          0.00216   0.04186   0.00000   0.17040   0.00000
  17        3PX         0.00000   0.00000   0.00000   0.00000   0.02570
  18        3PY         0.00000   0.00000   0.01552   0.00000  -0.00000
  19        3PZ         0.00217  -0.02619   0.00000  -0.01463   0.00000
  20 3   H  1S         -0.00240   0.21010   0.33107  -0.19114  -0.00000
  21        2S          0.00216   0.04186   0.14757  -0.08520  -0.00000
  22        3PX        -0.00000   0.00000   0.00000   0.00000   0.02571
  23        3PY         0.00188  -0.02268  -0.00709   0.01305   0.00000
  24        3PZ        -0.00109   0.01310   0.01305   0.00798  -0.00000
  25 4   H  1S         -0.00240   0.21010  -0.33107  -0.19114   0.00000
  26        2S          0.00216   0.04186  -0.14757  -0.08520   0.00000
  27        3PX         0.00000  -0.00000   0.00000  -0.00000   0.02571
  28        3PY        -0.00188   0.02268  -0.00709  -0.01305   0.00000
  29        3PZ        -0.00109   0.01310  -0.01305   0.00798   0.00000
                           6         7         8         9        10
                           V         V         V         V         V
     Eigenvalues --     0.08382   0.14603   0.14603   0.43901   0.43901
   1 1   C  1S         -0.13706   0.00000   0.00000   0.00000  -0.00000
   2        2S          0.18447   0.00000  -0.00000   0.00000  -0.00000
   3        3S          2.04485   0.00000  -0.00000   0.00000   0.00001
   4        4PX         0.00000   0.00000   0.00000   0.00000   0.00000
   5        4PY         0.00000  -0.38008   0.00000  -0.26826   0.00000
   6        4PZ         0.00000   0.00000  -0.38008   0.00000  -0.26826
   7        5PX         0.00000   0.00000   0.00000  -0.00000   0.00000
   8        5PY         0.00000  -1.31199   0.00000   1.32454   0.00000
   9        5PZ        -0.00001   0.00000  -1.31199   0.00000   1.32454
  10        6D 0        0.01318   0.00000  -0.00236   0.00000  -0.12094
  11        6D+1        0.00000  -0.00000   0.00000   0.00000   0.00000
  12        6D-1        0.00000   0.00272   0.00000   0.13965   0.00000
  13        6D+2       -0.02283   0.00000  -0.00136   0.00000  -0.06982
  14        6D-2       -0.00000   0.00000   0.00000   0.00000   0.00000
  15 2   H  1S         -0.06310   0.00000   0.06636   0.00000  -0.78967
  16        2S         -0.98076   0.00000   2.00141   0.00000  -0.08181
  17        3PX         0.00000   0.00000   0.00000   0.00000   0.00000
  18        3PY         0.00000  -0.01423   0.00000   0.08354   0.00000
  19        3PZ         0.00173   0.00000  -0.00206   0.00000  -0.01100
  20 3   H  1S         -0.06310   0.05746  -0.03318  -0.68387   0.39483
  21        2S         -0.98077   1.73327  -1.00070  -0.07085   0.04090
  22        3PX         0.00000   0.00000   0.00000  -0.00000  -0.00000
  23        3PY         0.00150  -0.00510  -0.00527   0.01264   0.04094
  24        3PZ        -0.00086  -0.00527  -0.01119   0.04094   0.05991
  25 4   H  1S         -0.06310  -0.05746  -0.03318   0.68387   0.39483
  26        2S         -0.98077  -1.73327  -1.00070   0.07085   0.04090
  27        3PX        -0.00000   0.00000  -0.00000  -0.00000   0.00000
  28        3PY        -0.00150  -0.00510   0.00527   0.01264  -0.04094
  29        3PZ        -0.00086   0.00527  -0.01119  -0.04094   0.05991
                          11        12        13        14        15
                           V         V         V         V         V
     Eigenvalues --     0.51648   0.54797   0.66320   0.66320   0.88381
   1 1   C  1S          0.08525   0.00000   0.00000   0.00000  -0.01664
   2        2S         -0.03798   0.00000   0.00000   0.00000  -1.82045
   3        3S         -0.32262   0.00000   0.00000  -0.00001   4.05345
   4        4PX         0.00000   1.04530   0.00000   0.00000   0.00000
   5        4PY         0.00000   0.00000  -0.87433   0.00000   0.00000
   6        4PZ        -0.00000   0.00000   0.00000   0.87433   0.00000
   7        5PX         0.00000  -1.03150  -0.00000   0.00000   0.00000
   8        5PY         0.00000  -0.00000   1.83655   0.00000   0.00000
   9        5PZ         0.00001   0.00000   0.00000  -1.83655  -0.00000
  10        6D 0        0.11045   0.00000   0.00000  -0.24316  -0.00086
  11        6D+1        0.00000   0.00000  -0.00000   0.00000   0.00000
  12        6D-1        0.00000  -0.00000  -0.28077   0.00000   0.00000
  13        6D+2       -0.19130   0.00000   0.00000  -0.14038   0.00148
  14        6D-2        0.00000   0.00000   0.00000   0.00000   0.00000
  15 2   H  1S          0.69773   0.00000   0.00000  -0.38776  -0.09271
  16        2S         -0.34742   0.00000   0.00000   1.85927  -0.97258
  17        3PX         0.00000   0.04311  -0.00000   0.00000   0.00000
  18        3PY         0.00000  -0.00000  -0.04493   0.00000   0.00000
  19        3PZ         0.10804   0.00000   0.00000  -0.24144   0.16903
  20 3   H  1S          0.69774   0.00000   0.33581   0.19388  -0.09271
  21        2S         -0.34742   0.00000  -1.61018  -0.92963  -0.97258
  22        3PX         0.00000   0.04311   0.00000   0.00000   0.00000
  23        3PY         0.09357  -0.00000   0.16985   0.12400   0.14639
  24        3PZ        -0.05402  -0.00000  -0.12400  -0.02666  -0.08452
  25 4   H  1S          0.69774  -0.00000  -0.33581   0.19388  -0.09271
  26        2S         -0.34742  -0.00000   1.61018  -0.92963  -0.97258
  27        3PX        -0.00000   0.04311   0.00000  -0.00000  -0.00000
  28        3PY        -0.09357  -0.00000   0.16985  -0.12400  -0.14639
  29        3PZ        -0.05402   0.00000   0.12400  -0.02666  -0.08452
                          16        17        18        19        20
                           V         V         V         V         V
     Eigenvalues --     0.99901   0.99901   1.35320   1.45542   1.45542
   1 1   C  1S         -0.00000   0.00000   0.00000   0.00000  -0.00000
   2        2S          0.00000   0.00000   0.00000   0.00000  -0.00000
   3        3S         -0.00000   0.00000   0.00000   0.00000   0.00001
   4        4PX         0.00000  -0.00000  -0.00000   0.00000   0.00000
   5        4PY         0.00000  -0.00000  -0.00000  -0.02944   0.00000
   6        4PZ        -0.00000   0.00000   0.00000   0.00000  -0.02944
   7        5PX         0.00000   0.00000  -0.00000   0.00000   0.00000
   8        5PY         0.00000  -0.00000  -0.00000   1.23575   0.00000
   9        5PZ         0.00000   0.00000   0.00000   0.00000   1.23575
  10        6D 0        0.00000   0.00000   0.00000   0.00000   0.46690
  11        6D+1        0.00000   0.61092   0.00000   0.00000   0.00000
  12        6D-1        0.00000   0.00000   0.00000  -0.53912   0.00000
  13        6D+2       -0.00000   0.00000   0.00000   0.00000   0.26956
  14        6D-2        0.61092   0.00000   0.00000   0.00000   0.00000
  15 2   H  1S         -0.00000   0.00000   0.00000   0.00000  -0.75267
  16        2S         -0.00000   0.00000   0.00000   0.00000  -0.36677
  17        3PX         0.00000   0.42893   0.00000  -0.00000   0.00000
  18        3PY         0.00000  -0.00000   0.59394  -0.55645   0.00000
  19        3PZ        -0.00000   0.00000   0.00000   0.00000  -0.25710
  20 3   H  1S         -0.00000   0.00000   0.00000  -0.65183   0.37633
  21        2S          0.00000  -0.00000   0.00000  -0.31763   0.18338
  22        3PX         0.37147  -0.21447   0.00000  -0.00000  -0.00000
  23        3PY        -0.00000   0.00000  -0.29697  -0.33194  -0.12963
  24        3PZ        -0.00000   0.00000  -0.51436  -0.12963  -0.48162
  25 4   H  1S         -0.00000  -0.00000  -0.00000   0.65183   0.37633
  26        2S          0.00000   0.00000  -0.00000   0.31763   0.18338
  27        3PX        -0.37147  -0.21447   0.00000  -0.00000   0.00000
  28        3PY         0.00000   0.00000  -0.29697  -0.33194   0.12963
  29        3PZ        -0.00000  -0.00000   0.51436   0.12963  -0.48162
                          21        22        23        24        25
                           V         V         V         V         V
     Eigenvalues --     1.55202   1.60795   1.86952   1.86952   2.08529
   1 1   C  1S         -0.04912   0.00000  -0.00000   0.00000   0.00000
   2        2S         -0.67026   0.00000  -0.00000   0.00000   0.00000
   3        3S          1.49030   0.00000   0.00000   0.00000   0.00000
   4        4PX         0.00000  -0.27564   0.00000  -0.00000   0.00000
   5        4PY         0.00000  -0.00000   0.00000  -0.00000  -0.61819
   6        4PZ         0.00000   0.00000  -0.00000   0.00000   0.00000
   7        5PX         0.00000  -0.44336   0.00000  -0.00000   0.00000
   8        5PY         0.00000   0.00000   0.00000  -0.00000  -0.69109
   9        5PZ        -0.00001   0.00000  -0.00000   0.00000   0.00000
  10        6D 0        0.52633   0.00000   0.00000   0.00000   0.00000
  11        6D+1        0.00000  -0.00000   0.00000   1.03360   0.00000
  12        6D-1        0.00000  -0.00000   0.00000   0.00000  -0.61990
  13        6D+2       -0.91163   0.00000   0.00000   0.00000   0.00000
  14        6D-2       -0.00000   0.00000   1.03360   0.00000   0.00000
  15 2   H  1S         -0.51261   0.00000   0.00000   0.00000   0.00000
  16        2S         -0.14295   0.00000   0.00000   0.00000   0.00000
  17        3PX         0.00000   0.66679   0.00000  -0.88688  -0.00000
  18        3PY         0.00000  -0.00000   0.00000  -0.00000   0.82486
  19        3PZ        -0.13370   0.00000  -0.00000   0.00000   0.00000
  20 3   H  1S         -0.51261  -0.00000  -0.00000   0.00000   0.06136
  21        2S         -0.14296  -0.00000  -0.00000   0.00000   0.62283
  22        3PX         0.00000   0.66679  -0.76806   0.44344  -0.00000
  23        3PY        -0.11579  -0.00000   0.00000  -0.00000  -0.26099
  24        3PZ         0.06685   0.00000   0.00000   0.00000   0.62692
  25 4   H  1S         -0.51261   0.00000  -0.00000  -0.00000  -0.06136
  26        2S         -0.14296   0.00000  -0.00000  -0.00000  -0.62283
  27        3PX        -0.00000   0.66679   0.76806   0.44344  -0.00000
  28        3PY         0.11579  -0.00000  -0.00000  -0.00000  -0.26099
  29        3PZ         0.06685  -0.00000   0.00000  -0.00000  -0.62692
                          26        27        28        29
                           V         V         V         V
     Eigenvalues --     2.08529   2.45280   2.50298   2.50298
   1 1   C  1S          0.00000  -0.05815   0.00000  -0.00000
   2        2S          0.00000   1.29213   0.00000   0.00001
   3        3S         -0.00000   1.87661   0.00000   0.00001
   4        4PX         0.00000   0.00000   0.00000   0.00000
   5        4PY         0.00000   0.00000  -1.28670   0.00000
   6        4PZ        -0.61819   0.00001   0.00000  -1.28670
   7        5PX         0.00000   0.00000   0.00000   0.00000
   8        5PY         0.00000   0.00000  -0.74628   0.00000
   9        5PZ        -0.69109   0.00001   0.00000  -0.74628
  10        6D 0        0.53685   0.46357   0.00000  -1.41553
  11        6D+1        0.00000   0.00000  -0.00000   0.00000
  12        6D-1        0.00000   0.00000   1.63451   0.00000
  13        6D+2        0.30995  -0.80290   0.00000  -0.81726
  14        6D-2       -0.00000   0.00000   0.00000   0.00000
  15 2   H  1S          0.07085  -0.89628   0.00000   1.45408
  16        2S          0.71918  -0.41727   0.00000   0.49433
  17        3PX         0.00000   0.00000   0.00000   0.00000
  18        3PY         0.00000   0.00000  -0.49282   0.00000
  19        3PZ        -0.62294   0.99068   0.00000  -1.23278
  20 3   H  1S         -0.03542  -0.89626   1.25927  -0.72705
  21        2S         -0.35959  -0.41727   0.42810  -0.24717
  22        3PX         0.00000  -0.00000  -0.00000  -0.00000
  23        3PY         0.62692   0.85795  -1.04780   0.32042
  24        3PZ         0.46291  -0.49533   0.32042  -0.67782
  25 4   H  1S         -0.03542  -0.89626  -1.25927  -0.72705
  26        2S         -0.35959  -0.41727  -0.42810  -0.24717
  27        3PX        -0.00000   0.00000  -0.00000   0.00000
  28        3PY        -0.62692  -0.85795  -1.04780  -0.32042
  29        3PZ         0.46291  -0.49533  -0.32042  -0.67782
     Alpha Density Matrix:
                           1         2         3         4         5
   1 1   C  1S          1.03118
   2        2S         -0.04808   0.15953
   3        3S         -0.07181   0.12000   0.09152
   4        4PX         0.00000   0.00000   0.00000   0.37656
   5        4PY         0.00000   0.00000   0.00000   0.00000   0.20408
   6        4PZ         0.00000  -0.00000  -0.00000   0.00000   0.00000
   7        5PX         0.00000   0.00000   0.00000   0.31170   0.00000
   8        5PY         0.00000   0.00000   0.00000   0.00000   0.07486
   9        5PZ        -0.00000   0.00000   0.00000   0.00000   0.00000
  10        6D 0        0.00237  -0.00301  -0.00232   0.00000   0.00000
  11        6D+1        0.00000   0.00000   0.00000  -0.00000  -0.00000
  12        6D-1        0.00000   0.00000   0.00000  -0.00000  -0.00808
  13        6D+2       -0.00410   0.00521   0.00401   0.00000   0.00000
  14        6D-2       -0.00000  -0.00000  -0.00000   0.00000   0.00000
  15 2   H  1S         -0.04066   0.07740   0.05883   0.00000   0.00000
  16        2S         -0.00309   0.01102   0.00828   0.00000   0.00000
  17        3PX         0.00000   0.00000   0.00000   0.01200   0.00000
  18        3PY         0.00000   0.00000   0.00000  -0.00000   0.00649
  19        3PZ         0.00768  -0.01077  -0.00825   0.00000   0.00000
  20 3   H  1S         -0.04066   0.07740   0.05883  -0.00000   0.14285
  21        2S         -0.00309   0.01102   0.00828  -0.00000   0.05778
  22        3PX        -0.00000   0.00000   0.00000   0.01200  -0.00000
  23        3PY         0.00666  -0.00932  -0.00715   0.00000  -0.00312
  24        3PZ        -0.00384   0.00538   0.00413  -0.00000   0.00555
  25 4   H  1S         -0.04066   0.07740   0.05883   0.00000  -0.14285
  26        2S         -0.00309   0.01102   0.00828   0.00000  -0.05778
  27        3PX         0.00000  -0.00000  -0.00000   0.01200  -0.00000
  28        3PY        -0.00666   0.00932   0.00715   0.00000  -0.00312
  29        3PZ        -0.00384   0.00538   0.00413   0.00000  -0.00555
                           6         7         8         9        10
   6        4PZ         0.20408
   7        5PX         0.00000   0.25802
   8        5PY         0.00000   0.00000   0.02746
   9        5PZ         0.07486   0.00000   0.00000   0.02746
  10        6D 0        0.00699   0.00000   0.00000   0.00257   0.00030
  11        6D+1        0.00000  -0.00000  -0.00000   0.00000   0.00000
  12        6D-1        0.00000  -0.00000  -0.00296   0.00000   0.00000
  13        6D+2        0.00404   0.00000   0.00000   0.00148   0.00004
  14        6D-2        0.00000   0.00000   0.00000   0.00000   0.00000
  15 2   H  1S          0.16494   0.00000   0.00000   0.06051   0.00417
  16        2S          0.06672   0.00000   0.00000   0.02447   0.00208
  17        3PX         0.00000   0.00993   0.00000   0.00000   0.00000
  18        3PY         0.00000  -0.00000   0.00238   0.00000   0.00000
  19        3PZ        -0.00633   0.00000   0.00000  -0.00232  -0.00001
  20 3   H  1S         -0.08247  -0.00000   0.05240  -0.03025  -0.00431
  21        2S         -0.03336  -0.00000   0.02120  -0.01224  -0.00135
  22        3PX        -0.00000   0.00993   0.00000  -0.00000  -0.00000
  23        3PY         0.00555   0.00000  -0.00115   0.00204   0.00037
  24        3PZ         0.00329  -0.00000   0.00204   0.00121   0.00001
  25 4   H  1S         -0.08247   0.00000  -0.05240  -0.03025  -0.00431
  26        2S         -0.03336   0.00000  -0.02120  -0.01224  -0.00135
  27        3PX         0.00000   0.00993   0.00000   0.00000   0.00000
  28        3PY        -0.00555   0.00000  -0.00115  -0.00204  -0.00037
  29        3PZ         0.00329   0.00000  -0.00204   0.00121   0.00001
                          11        12        13        14        15
  11        6D+1        0.00000
  12        6D-1        0.00000   0.00032
  13        6D+2        0.00000   0.00000   0.00026
  14        6D-2        0.00000   0.00000   0.00000   0.00000
  15 2   H  1S          0.00000   0.00000   0.00584  -0.00000   0.17116
  16        2S          0.00000   0.00000   0.00168   0.00000   0.05927
  17        3PX        -0.00000  -0.00000   0.00000   0.00000   0.00000
  18        3PY        -0.00000  -0.00026   0.00000   0.00000   0.00000
  19        3PZ         0.00000   0.00000  -0.00049  -0.00000  -0.01041
  20 3   H  1S         -0.00000  -0.00565   0.00094  -0.00000  -0.02881
  21        2S         -0.00000  -0.00229  -0.00030  -0.00000  -0.02162
  22        3PX        -0.00000  -0.00000   0.00000   0.00000   0.00000
  23        3PY         0.00000   0.00012  -0.00020   0.00000  -0.00010
  24        3PZ        -0.00000  -0.00022   0.00025   0.00000   0.00531
  25 4   H  1S          0.00000   0.00565   0.00094  -0.00000  -0.02881
  26        2S          0.00000   0.00229  -0.00030  -0.00000  -0.02162
  27        3PX        -0.00000  -0.00000  -0.00000  -0.00000  -0.00000
  28        3PY         0.00000   0.00012   0.00020  -0.00000   0.00010
  29        3PZ         0.00000   0.00022   0.00025   0.00000   0.00531
                          16        17        18        19        20
  16        2S          0.02257
  17        3PX         0.00000   0.00038
  18        3PY         0.00000  -0.00000   0.00021
  19        3PZ        -0.00281   0.00000   0.00000   0.00094
  20 3   H  1S         -0.02162  -0.00000   0.00454  -0.00274   0.17116
  21        2S         -0.01014  -0.00000   0.00184   0.00029   0.05927
  22        3PX         0.00000   0.00038  -0.00000  -0.00000   0.00000
  23        3PY         0.00117   0.00000  -0.00010   0.00047  -0.00902
  24        3PZ         0.00145  -0.00000   0.00018  -0.00047   0.00521
  25 4   H  1S         -0.02162   0.00000  -0.00454  -0.00274  -0.02881
  26        2S         -0.01014   0.00000  -0.00184   0.00029  -0.02162
  27        3PX        -0.00000   0.00038  -0.00000   0.00000  -0.00000
  28        3PY        -0.00117   0.00000  -0.00010  -0.00047   0.00465
  29        3PZ         0.00145   0.00000  -0.00018  -0.00047  -0.00257
                          21        22        23        24        25
  21        2S          0.02258
  22        3PX        -0.00000   0.00038
  23        3PY        -0.00244   0.00000   0.00076
  24        3PZ         0.00141  -0.00000  -0.00032   0.00039
  25 4   H  1S         -0.02162   0.00000  -0.00465  -0.00257   0.17116
  26        2S         -0.01014   0.00000  -0.00067  -0.00174   0.05927
  27        3PX        -0.00000   0.00038   0.00000  -0.00000  -0.00000
  28        3PY         0.00067   0.00000  -0.00066   0.00015   0.00902
  29        3PZ        -0.00174   0.00000  -0.00015   0.00009   0.00521
                          26        27        28        29
  26        2S          0.02258
  27        3PX         0.00000   0.00038
  28        3PY         0.00244   0.00000   0.00076
  29        3PZ         0.00141   0.00000   0.00032   0.00039
     Beta Density Matrix:
                           1         2         3         4         5
   1 1   C  1S          1.02898
   2        2S         -0.04244   0.13980
   3        3S         -0.06193   0.09901   0.07112
   4        4PX         0.00000   0.00000   0.00000   0.00000
   5        4PY         0.00000   0.00000   0.00000  -0.00000   0.18703
   6        4PZ        -0.00000   0.00000   0.00000   0.00000   0.00000
   7        5PX         0.00000   0.00000   0.00000   0.00000  -0.00000
   8        5PY         0.00000   0.00000   0.00000  -0.00000   0.06254
   9        5PZ        -0.00000   0.00000   0.00000   0.00000   0.00000
  10        6D 0       -0.00004   0.00242   0.00169   0.00000   0.00000
  11        6D+1        0.00000   0.00000   0.00000  -0.00000   0.00000
  12        6D-1        0.00000   0.00000   0.00000   0.00000  -0.00696
  13        6D+2        0.00008  -0.00419  -0.00293   0.00000   0.00000
  14        6D-2       -0.00000  -0.00000  -0.00000   0.00000   0.00000
  15 2   H  1S         -0.04227   0.07826   0.05601   0.00000   0.00000
  16        2S         -0.00580   0.01567   0.01113   0.00000   0.00000
  17        3PX         0.00000   0.00000   0.00000  -0.00000   0.00000
  18        3PY         0.00000   0.00000   0.00000  -0.00000   0.00671
  19        3PZ         0.00713  -0.00970  -0.00700   0.00000   0.00000
  20 3   H  1S         -0.04227   0.07826   0.05601  -0.00000   0.14317
  21        2S         -0.00580   0.01567   0.01113  -0.00000   0.06382
  22        3PX        -0.00000   0.00000   0.00000  -0.00000   0.00000
  23        3PY         0.00618  -0.00840  -0.00607   0.00000  -0.00307
  24        3PZ        -0.00357   0.00485   0.00350  -0.00000   0.00565
  25 4   H  1S         -0.04227   0.07826   0.05601   0.00000  -0.14317
  26        2S         -0.00580   0.01567   0.01113   0.00000  -0.06382
  27        3PX         0.00000  -0.00000  -0.00000  -0.00000   0.00000
  28        3PY        -0.00618   0.00840   0.00607   0.00000  -0.00307
  29        3PZ        -0.00357   0.00485   0.00350   0.00000  -0.00565
                           6         7         8         9        10
   6        4PZ         0.18703
   7        5PX         0.00000   0.00000
   8        5PY         0.00000  -0.00000   0.02092
   9        5PZ         0.06254   0.00000   0.00000   0.02092
  10        6D 0        0.00603   0.00000   0.00000   0.00202   0.00024
  11        6D+1        0.00000  -0.00000   0.00000   0.00000   0.00000
  12        6D-1        0.00000   0.00000  -0.00233   0.00000   0.00000
  13        6D+2        0.00348   0.00000   0.00000   0.00116   0.00004
  14        6D-2       -0.00000   0.00000   0.00000  -0.00000  -0.00000
  15 2   H  1S          0.16532   0.00000   0.00000   0.05529   0.00667
  16        2S          0.07369   0.00000   0.00000   0.02464   0.00265
  17        3PX         0.00000  -0.00000   0.00000   0.00000   0.00000
  18        3PY         0.00000  -0.00000   0.00224   0.00000   0.00000
  19        3PZ        -0.00633   0.00000   0.00000  -0.00212  -0.00037
  20 3   H  1S         -0.08266  -0.00000   0.04788  -0.02764  -0.00132
  21        2S         -0.03685  -0.00000   0.02134  -0.01232  -0.00092
  22        3PX         0.00000  -0.00000   0.00000   0.00000   0.00000
  23        3PY         0.00565   0.00000  -0.00103   0.00189   0.00004
  24        3PZ         0.00345  -0.00000   0.00189   0.00115   0.00019
  25 4   H  1S         -0.08266   0.00000  -0.04788  -0.02764  -0.00132
  26        2S         -0.03685   0.00000  -0.02134  -0.01232  -0.00092
  27        3PX        -0.00000  -0.00000   0.00000  -0.00000  -0.00000
  28        3PY        -0.00565   0.00000  -0.00103  -0.00189  -0.00004
  29        3PZ         0.00345   0.00000  -0.00189   0.00115   0.00019
                          11        12        13        14        15
  11        6D+1        0.00000
  12        6D-1       -0.00000   0.00026
  13        6D+2        0.00000   0.00000   0.00019
  14        6D-2        0.00000   0.00000   0.00000   0.00000
  15 2   H  1S          0.00000   0.00000   0.00075  -0.00000   0.19029
  16        2S          0.00000   0.00000   0.00090  -0.00000   0.07393
  17        3PX         0.00000  -0.00000   0.00000   0.00000   0.00000
  18        3PY         0.00000  -0.00025   0.00000   0.00000   0.00000
  19        3PZ         0.00000   0.00000   0.00017   0.00000  -0.01110
  20 3   H  1S          0.00000  -0.00533  -0.00386   0.00000  -0.02892
  21        2S          0.00000  -0.00238  -0.00115   0.00000  -0.02378
  22        3PX         0.00000  -0.00000  -0.00000   0.00000   0.00000
  23        3PY        -0.00000   0.00011   0.00035  -0.00000   0.00022
  24        3PZ         0.00000  -0.00021  -0.00008  -0.00000   0.00581
  25 4   H  1S         -0.00000   0.00533  -0.00386   0.00000  -0.02892
  26        2S         -0.00000   0.00238  -0.00115   0.00000  -0.02378
  27        3PX         0.00000  -0.00000   0.00000  -0.00000  -0.00000
  28        3PY        -0.00000   0.00011  -0.00035   0.00000  -0.00022
  29        3PZ        -0.00000   0.00021  -0.00008  -0.00000   0.00581
                          16        17        18        19        20
  16        2S          0.03079
  17        3PX         0.00000   0.00000
  18        3PY         0.00000   0.00000   0.00024
  19        3PZ        -0.00358   0.00000   0.00000   0.00090
  20 3   H  1S         -0.02378   0.00000   0.00514  -0.00271   0.19029
  21        2S         -0.01276   0.00000   0.00229   0.00015   0.07393
  22        3PX         0.00000   0.00000   0.00000  -0.00000   0.00000
  23        3PY         0.00128  -0.00000  -0.00011   0.00041  -0.00961
  24        3PZ         0.00191   0.00000   0.00020  -0.00046   0.00555
  25 4   H  1S         -0.02378  -0.00000  -0.00514  -0.00271  -0.02892
  26        2S         -0.01276  -0.00000  -0.00229   0.00015  -0.02378
  27        3PX        -0.00000   0.00000   0.00000   0.00000  -0.00000
  28        3PY        -0.00128  -0.00000  -0.00011  -0.00041   0.00492
  29        3PZ         0.00191  -0.00000  -0.00020  -0.00046  -0.00309
                          21        22        23        24        25
  21        2S          0.03079
  22        3PX         0.00000   0.00000
  23        3PY        -0.00310  -0.00000   0.00074
  24        3PZ         0.00179   0.00000  -0.00029   0.00041
  25 4   H  1S         -0.02378   0.00000  -0.00492  -0.00309   0.19029
  26        2S         -0.01276  -0.00000  -0.00101  -0.00206   0.07393
  27        3PX         0.00000  -0.00000   0.00000  -0.00000  -0.00000
  28        3PY         0.00101   0.00000  -0.00064   0.00010   0.00961
  29        3PZ        -0.00206   0.00000  -0.00010   0.00007   0.00555
                          26        27        28        29
  26        2S          0.03079
  27        3PX        -0.00000   0.00000
  28        3PY         0.00310  -0.00000   0.00074
  29        3PZ         0.00179  -0.00000   0.00029   0.00041
    Full Mulliken population analysis:
                           1         2         3         4         5
   1 1   C  1S          2.06016
   2        2S         -0.01866   0.29934
   3        3S         -0.02402   0.17530   0.16264
   4        4PX         0.00000   0.00000   0.00000   0.37656
   5        4PY         0.00000   0.00000   0.00000   0.00000   0.39111
   6        4PZ         0.00000   0.00000   0.00000   0.00000   0.00000
   7        5PX         0.00000   0.00000   0.00000   0.16544   0.00000
   8        5PY         0.00000   0.00000   0.00000   0.00000   0.07293
   9        5PZ         0.00000   0.00000   0.00000   0.00000   0.00000
  10        6D 0        0.00000   0.00000   0.00000   0.00000   0.00000
  11        6D+1        0.00000   0.00000   0.00000   0.00000   0.00000
  12        6D-1        0.00000   0.00000   0.00000   0.00000   0.00000
  13        6D+2        0.00000   0.00000   0.00000   0.00000   0.00000
  14        6D-2        0.00000   0.00000   0.00000   0.00000   0.00000
  15 2   H  1S         -0.00435   0.05273   0.05273   0.00000   0.00000
  16        2S         -0.00080   0.01263   0.01428   0.00000   0.00000
  17        3PX         0.00000   0.00000   0.00000   0.00266   0.00000
  18        3PY         0.00000   0.00000   0.00000   0.00000   0.00293
  19        3PZ        -0.00148   0.00826   0.00373   0.00000   0.00000
  20 3   H  1S         -0.00435   0.05273   0.05273  -0.00000   0.09763
  21        2S         -0.00080   0.01263   0.01428   0.00000   0.02203
  22        3PX         0.00000   0.00000   0.00000   0.00266  -0.00000
  23        3PY        -0.00111   0.00619   0.00280  -0.00000   0.00157
  24        3PZ        -0.00037   0.00206   0.00093   0.00000   0.00308
  25 4   H  1S         -0.00435   0.05273   0.05273  -0.00000   0.09763
  26        2S         -0.00080   0.01263   0.01428  -0.00000   0.02203
  27        3PX         0.00000  -0.00000  -0.00000   0.00266  -0.00000
  28        3PY        -0.00111   0.00619   0.00280  -0.00000   0.00157
  29        3PZ        -0.00037   0.00206   0.00093  -0.00000   0.00308
                           6         7         8         9        10
   6        4PZ         0.39111
   7        5PX         0.00000   0.25802
   8        5PY         0.00000   0.00000   0.04838
   9        5PZ         0.07293   0.00000   0.00000   0.04838
  10        6D 0        0.00000   0.00000   0.00000   0.00000   0.00054
  11        6D+1        0.00000   0.00000   0.00000   0.00000   0.00000
  12        6D-1        0.00000   0.00000   0.00000   0.00000   0.00000
  13        6D+2        0.00000   0.00000   0.00000   0.00000   0.00000
  14        6D-2        0.00000   0.00000   0.00000   0.00000   0.00000
  15 2   H  1S          0.13017   0.00000   0.00000   0.06529   0.00438
  16        2S          0.02938   0.00000   0.00000   0.02613   0.00037
  17        3PX         0.00000   0.00290   0.00000   0.00000   0.00000
  18        3PY         0.00000   0.00000   0.00135   0.00000   0.00000
  19        3PZ         0.00522   0.00000   0.00000   0.00008   0.00006
  20 3   H  1S          0.03254   0.00000   0.04897   0.01632   0.00028
  21        2S          0.00734   0.00000   0.01960   0.00653   0.00002
  22        3PX        -0.00000   0.00290   0.00000  -0.00000  -0.00000
  23        3PY         0.00308   0.00000  -0.00013   0.00053  -0.00006
  24        3PZ         0.00043   0.00000   0.00053   0.00051  -0.00006
  25 4   H  1S          0.03254  -0.00000   0.04897   0.01632   0.00028
  26        2S          0.00734  -0.00000   0.01960   0.00653   0.00002
  27        3PX         0.00000   0.00290  -0.00000   0.00000  -0.00000
  28        3PY         0.00308  -0.00000  -0.00013   0.00053  -0.00006
  29        3PZ         0.00043  -0.00000   0.00053   0.00051  -0.00006
                          11        12        13        14        15
  11        6D+1        0.00000
  12        6D-1        0.00000   0.00058
  13        6D+2        0.00000   0.00000   0.00045
  14        6D-2        0.00000   0.00000   0.00000   0.00000
  15 2   H  1S          0.00000   0.00000   0.00000   0.00000   0.36145
  16        2S          0.00000   0.00000   0.00000   0.00000   0.09122
  17        3PX        -0.00000   0.00000   0.00000   0.00000   0.00000
  18        3PY         0.00000  -0.00023   0.00000   0.00000   0.00000
  19        3PZ         0.00000   0.00000   0.00000   0.00000   0.00000
  20 3   H  1S          0.00000   0.00333   0.00077   0.00000  -0.00241
  21        2S         -0.00000   0.00028   0.00007   0.00000  -0.00896
  22        3PX         0.00000  -0.00000  -0.00000   0.00000   0.00000
  23        3PY        -0.00000   0.00005  -0.00000  -0.00000  -0.00000
  24        3PZ        -0.00000  -0.00006  -0.00004  -0.00000   0.00053
  25 4   H  1S         -0.00000   0.00333   0.00077   0.00000  -0.00241
  26        2S         -0.00000   0.00028   0.00007   0.00000  -0.00896
  27        3PX         0.00000  -0.00000   0.00000   0.00000  -0.00000
  28        3PY        -0.00000   0.00005  -0.00000   0.00000  -0.00000
  29        3PZ         0.00000  -0.00006  -0.00004  -0.00000   0.00053
                          16        17        18        19        20
  16        2S          0.05337
  17        3PX         0.00000   0.00038
  18        3PY         0.00000   0.00000   0.00045
  19        3PZ         0.00000   0.00000   0.00000   0.00185
  20 3   H  1S         -0.00896   0.00000   0.00026   0.00026   0.36145
  21        2S         -0.01054   0.00000   0.00028  -0.00005   0.09122
  22        3PX         0.00000   0.00000   0.00000  -0.00000   0.00000
  23        3PY        -0.00017   0.00000   0.00000   0.00003   0.00000
  24        3PZ         0.00039   0.00000   0.00001   0.00005   0.00000
  25 4   H  1S         -0.00896  -0.00000   0.00026   0.00026  -0.00241
  26        2S         -0.01054  -0.00000   0.00028  -0.00005  -0.00896
  27        3PX        -0.00000   0.00000   0.00000  -0.00000  -0.00000
  28        3PY        -0.00017  -0.00000   0.00000   0.00003   0.00052
  29        3PZ         0.00039  -0.00000   0.00001   0.00005   0.00000
                          21        22        23        24        25
  21        2S          0.05337
  22        3PX         0.00000   0.00038
  23        3PY         0.00000   0.00000   0.00150
  24        3PZ         0.00000   0.00000   0.00000   0.00080
  25 4   H  1S         -0.00896   0.00000   0.00052   0.00000   0.36145
  26        2S         -0.01054   0.00000   0.00023   0.00000   0.09122
  27        3PX        -0.00000   0.00000   0.00000   0.00000   0.00000
  28        3PY         0.00023   0.00000   0.00011   0.00000   0.00000
  29        3PZ         0.00000   0.00000   0.00000   0.00000   0.00000
                          26        27        28        29
  26        2S          0.05337
  27        3PX         0.00000   0.00038
  28        3PY         0.00000   0.00000   0.00150
  29        3PZ         0.00000   0.00000   0.00000   0.00080
     Gross orbital populations:
                         Total     Alpha     Beta      Spin
   1 1   C  1S          1.99761   0.99884   0.99877   0.00007
   2        2S          0.67683   0.35301   0.32382   0.02919
   3        3S          0.52614   0.28005   0.24610   0.03395
   4        4PX         0.55000   0.55000   0.00000   0.55000
   5        4PY         0.71558   0.36835   0.34724   0.02111
   6        4PZ         0.71558   0.36835   0.34724   0.02111
   7        5PX         0.43215   0.43215   0.00000   0.43215
   8        5PY         0.26060   0.13901   0.12158   0.01743
   9        5PZ         0.26060   0.13901   0.12158   0.01743
  10        6D 0        0.00572   0.00249   0.00323  -0.00073
  11        6D+1        0.00000   0.00000   0.00000   0.00000
  12        6D-1        0.00756   0.00390   0.00365   0.00025
  13        6D+2        0.00206  -0.00032   0.00237  -0.00269
  14        6D-2        0.00000   0.00000   0.00000  -0.00000
  15 2   H  1S          0.73193   0.35323   0.37870  -0.02547
  16        2S          0.18804   0.08366   0.10439  -0.02073
  17        3PX         0.00595   0.00595  -0.00000   0.00595
  18        3PY         0.00563   0.00274   0.00288  -0.00014
  19        3PZ         0.01831   0.00948   0.00884   0.00064
  20 3   H  1S          0.73193   0.35323   0.37870  -0.02547
  21        2S          0.18804   0.08366   0.10439  -0.02073
  22        3PX         0.00595   0.00595   0.00000   0.00595
  23        3PY         0.01514   0.00779   0.00735   0.00044
  24        3PZ         0.00880   0.00443   0.00437   0.00005
  25 4   H  1S          0.73193   0.35323   0.37870  -0.02547
  26        2S          0.18804   0.08366   0.10439  -0.02073
  27        3PX         0.00595   0.00595   0.00000   0.00595
  28        3PY         0.01514   0.00779   0.00735   0.00044
  29        3PZ         0.00880   0.00443   0.00437   0.00005
          Condensed to atoms (all electrons):
              1          2          3          4
     1  C    4.925079   0.408446   0.408446   0.408446
     2  H    0.408446   0.599939  -0.029263  -0.029263
     3  H    0.408446  -0.029263   0.599940  -0.029263
     4  H    0.408446  -0.029263  -0.029263   0.599940
 Mulliken atomic charges:
              1
     1  C   -0.150417
     2  H    0.050140
     3  H    0.050139
     4  H    0.050139
 Sum of Mulliken atomic charges =  -0.00000
 Mulliken charges with hydrogens summed into heavy atoms:
              1
     1  C   -0.000000
 Sum of Mulliken charges with hydrogens summed into heavy atoms =  -0.00000
          Atomic-Atomic Spin Densities.
              1          2          3          4
     1  C    1.109054   0.003403   0.003402   0.003402
     2  H    0.003403  -0.047045   0.001945   0.001945
     3  H    0.003402   0.001945  -0.047045   0.001944
     4  H    0.003402   0.001945   0.001944  -0.047045
 Mulliken atomic spin densities:
              1
     1  C    1.119261
     2  H   -0.039753
     3  H   -0.039754
     4  H   -0.039754
 Sum of Mulliken atomic spin densities =   1.00000
 Electronic spatial extent (au):  <R**2>=             29.7856
 Charge=              0.0000 electrons
 Dipole moment (field-independent basis, Debye):
    X=             -0.0000    Y=              0.0000    Z=              0.0000  Tot=              0.0000
 Quadrupole moment (field-independent basis, Debye-Ang):
   XX=             -8.6993   YY=             -7.1217   ZZ=             -7.1217
   XY=              0.0000   XZ=              0.0000   YZ=              0.0000
 Traceless Quadrupole moment (field-independent basis, Debye-Ang):
   XX=             -1.0517   YY=              0.5259   ZZ=              0.5259
   XY=              0.0000   XZ=              0.0000   YZ=              0.0000
 Octapole moment (field-independent basis, Debye-Ang**2):
  XXX=              0.0000  YYY=              0.0000  ZZZ=              0.7647  XYY=              0.0000
  XXY=             -0.0000  XXZ=              0.0000  XZZ=              0.0000  YZZ=              0.0000
  YYZ=             -0.7647  XYZ=             -0.0000
 Hexadecapole moment (field-independent basis, Debye-Ang**3):
 XXXX=             -9.4242 YYYY=            -14.5291 ZZZZ=            -14.5291 XXXY=              0.0000
 XXXZ=             -0.0000 YYYX=              0.0000 YYYZ=             -0.0000 ZZZX=             -0.0000
 ZZZY=              0.0000 XXYY=             -4.3505 XXZZ=             -4.3505 YYZZ=             -4.8430
 XXYZ=              0.0000 YYXZ=              0.0000 ZZXY=              0.0000
 N-N= 9.579588592757D+00 E-N=-1.634412842759D+02  KE= 5.857408012637D+01
 Symmetry A    KE= 5.457993119182D+01
 Symmetry B    KE= 3.994148934554D+00
 Orbital energies and kinetic energies (alpha):
                                 1                 2
   1         O               -10.198592         15.957908
   2         O                -0.682026          1.317703
   3         O                -0.416169          0.968773
   4         O                -0.416169          0.968773
   5         O                -0.229732          1.132728
   6         V                 0.073176          0.768394
   7         V                 0.141911          0.687860
   8         V                 0.141911          0.687859
   9         V                 0.436000          1.125179
  10         V                 0.436001          1.125179
  11         V                 0.473494          1.884085
  12         V                 0.488241          1.541874
  13         V                 0.655603          2.101673
  14         V                 0.655603          2.101673
  15         V                 0.855221          1.985282
  16         V                 0.961277          1.711349
  17         V                 0.961277          1.711349
  18         V                 1.356795          1.978680
  19         V                 1.452138          2.231637
  20         V                 1.452138          2.231637
  21         V                 1.486919          2.345622
  22         V                 1.596264          2.267966
  23         V                 1.839147          2.530673
  24         V                 1.839148          2.530673
  25         V                 2.082258          3.044672
  26         V                 2.082258          3.044672
  27         V                 2.447096          3.957727
  28         V                 2.495404          4.267014
  29         V                 2.495405          4.267015
 Orbital energies and kinetic energies (beta):
                                 1                 2
   1         O               -10.184321         15.971097
   2         O                -0.641265          1.250352
   3         O                -0.406109          0.946324
   4         O                -0.406109          0.946325
   5         V                -0.059898          0.925238
   6         V                 0.083823          0.772255
   7         V                 0.146029          0.685841
   8         V                 0.146030          0.685841
   9         V                 0.439007          1.119734
  10         V                 0.439009          1.119734
  11         V                 0.516484          1.590810
  12         V                 0.547974          2.080190
  13         V                 0.663204          2.118118
  14         V                 0.663204          2.118118
  15         V                 0.883806          1.975097
  16         V                 0.999014          1.704935
  17         V                 0.999014          1.704935
  18         V                 1.353204          1.978680
  19         V                 1.455419          2.226371
  20         V                 1.455421          2.226370
  21         V                 1.552022          2.350381
  22         V                 1.607954          2.279351
  23         V                 1.869516          2.537087
  24         V                 1.869517          2.537087
[...]
 --------------------------------------------------------


 ---------------------------------------------------------------------------------
              Anisotropic Spin Dipole Couplings in Principal Axis System
 ---------------------------------------------------------------------------------

       Atom             a.u.   MegaHertz   Gauss  10(-4) cm-1        Axes

              Baa    -0.5508   -73.919   -26.376   -24.657 -0.0000  1.0000 -0.0000
     1 C(13)  Bbb    -0.5508   -73.918   -26.376   -24.657  1.0000  0.0000  0.0000
              Bcc     1.1017   147.837    52.752    49.313  0.0000  0.0000  1.0000
 
              Baa    -0.0748   -39.887   -14.233   -13.305  1.0000  0.0000  0.0000
     2 H(1)   Bbb    -0.0029    -1.537    -0.549    -0.513  0.0000  0.0000  1.0000
              Bcc     0.0776    41.424    14.781    13.818 -0.0000  1.0000 -0.0000
 
              Baa    -0.0748   -39.887   -14.233   -13.305 -0.5000  0.8660  0.0000
     3 H(1)   Bbb    -0.0029    -1.538    -0.549    -0.513  0.0000  0.0000  1.0000
              Bcc     0.0776    41.424    14.781    13.818  0.8660  0.5000  0.0000
 
              Baa    -0.0748   -39.887   -14.233   -13.305  0.5000  0.8660  0.0000
     4 H(1)   Bbb    -0.0029    -1.538    -0.549    -0.513  0.0000  0.0000  1.0000
              Bcc     0.0776    41.424    14.781    13.818  0.8660 -0.5000  0.0000
 

 ---------------------------------------------------------------------------------

 No NMR shielding tensors so no spin-rotation constants.
 Leave Link  601 at Sat Aug 17 23:29:19 2024, MaxMem=   13107200 cpu:       0.2
 (Enter /programs/64bit/g09/g09-gfortran/bin/l701.exe)
 Compute integral second derivatives.
 ... and contract with generalized density number  0.
 Leave Link  701 at Sat Aug 17 23:29:20 2024, MaxMem=   13107200 cpu:       0.2
 (Enter /programs/64bit/g09/g09-gfortran/bin/l702.exe)
 L702 exits ... SP integral derivatives will be done elsewhere.
 Leave Link  702 at Sat Aug 17 23:29:20 2024, MaxMem=   13107200 cpu:       0.0
 (Enter /programs/64bit/g09/g09-gfortran/bin/l703.exe)
 Compute integral second derivatives, UseDBF=F ICtDFT=           0.
 Integral derivatives from FoFDir, PRISM(SPDF).
 Calling FoFJK, ICntrl=    100127 FMM=F ISym2X=1 I1Cent= 0 IOpClX= 1 NMat=1 NMatS=1 NMatT=0.
 FoFCou: FMM=F IPFlag=           0 FMFlag=      100000 FMFlg1=         800
         NFxFlg=           0 DoJE=F BraDBF=F KetDBF=F FulRan=T
         Omega=  0.000000  0.000000  1.000000  0.000000  0.000000 ICntrl=  100127 IOpCl=  1
         NMat0=    1 NMatS0=    1 NMatT0=    0 NMatD0=    1 NMtDS0=    0 NMtDT0=    0
         I1Cent=           0 NGrid=           0.
 Petite list used in FoFCou.
 Leave Link  703 at Sat Aug 17 23:29:23 2024, MaxMem=   13107200 cpu:       3.2
 (Enter /programs/64bit/g09/g09-gfortran/bin/l716.exe)
 Dipole        = 2.85953075D-12 5.93433463D-07-1.97111648D-33
 Polarizability= 1.25678401D+01-1.03642689D-08 1.25679965D+01
                -1.52162264D-10 6.19276598D-11 6.82674462D+00
 Full mass-weighted force constant matrix:
 Low frequencies ---  -21.5512   -0.0007    0.0009    0.0013   14.4892   23.2731
 Low frequencies ---  462.5943 1370.5219 1370.5465
 Diagonal vibrational polarizability:
        0.0531691       0.0532130       8.5469528
 Harmonic frequencies (cm**-1), IR intensities (KM/Mole), Raman scattering
 activities (A**4/AMU), depolarization ratios for plane and unpolarized
 incident light, reduced masses (AMU), force constants (mDyne/A),
 and normal coordinates:
                     1                      2                      3
                    A"                     A'                     A'
 Frequencies --   462.5943              1370.5219              1370.5465
 Red. masses --     1.2356                 1.1021                 1.1021
 Frc consts  --     0.1558                 1.2197                 1.2198
 IR Inten    --    67.9640                 3.1040                 3.1069
  Atom  AN      X      Y      Z        X      Y      Z        X      Y      Z
     1   6    -0.00   0.00   0.14    -0.09  -0.00  -0.00    -0.00   0.09   0.00
     2   1     0.00  -0.00  -0.57     0.81  -0.00   0.00     0.00   0.07  -0.00
     3   1     0.00  -0.00  -0.57     0.15  -0.38   0.00     0.38  -0.59  -0.00
     4   1     0.00   0.00  -0.57     0.15   0.38   0.00    -0.38  -0.59  -0.00
                     4                      5                      6
                    A'                     A'                     A'
 Frequencies --  3101.0773              3294.1702              3294.1756
 Red. masses --     1.0078                 1.1183                 1.1183
 Frc consts  --     5.7103                 7.1500                 7.1499
 IR Inten    --     0.0000                 3.5072                 3.5087
  Atom  AN      X      Y      Z        X      Y      Z        X      Y      Z
     1   6    -0.00  -0.00   0.00     0.10   0.00   0.00    -0.00   0.10  -0.00
     2   1     0.00  -0.58  -0.00     0.02  -0.00  -0.00    -0.00  -0.81   0.00
     3   1     0.50   0.29  -0.00    -0.61  -0.36  -0.00    -0.36  -0.19   0.00
     4   1    -0.50   0.29  -0.00    -0.60   0.36  -0.00     0.36  -0.19   0.00

 -------------------
 - Thermochemistry -
 -------------------
 Temperature   298.150 Kelvin.  Pressure   1.00000 Atm.
 Atom     1 has atomic number  6 and mass  12.00000
 Atom     2 has atomic number  1 and mass   1.00783
 Atom     3 has atomic number  1 and mass   1.00783
 Atom     4 has atomic number  1 and mass   1.00783
 Molecular mass:    15.02348 amu.
 Principal axes and moments of inertia in atomic units:
                           1         2         3
     Eigenvalues --     6.42343   6.42343  12.84686
           X            1.00000   0.00001   0.00000
           Y           -0.00001   1.00000   0.00000
           Z            0.00000  -0.00000   1.00000
 This molecule is an oblate symmetric top.
 Rotational symmetry number  1.
 Rotational temperatures (Kelvin)     13.48404    13.48404     6.74202
 Rotational constants (GHZ):         280.96222   280.96217   140.48110
 Zero-point vibrational energy      77117.8 (Joules/Mol)
                                   18.43159 (Kcal/Mol)
 Warning -- explicit consideration of   1 degrees of freedom as
           vibrations may cause significant error
 Vibrational temperatures:    665.57  1971.87  1971.91  4461.75  4739.57
          (Kelvin)           4739.58
 
 Zero-point correction=                           0.029373 (Hartree/Particle)
 Thermal correction to Energy=                    0.032475
 Thermal correction to Enthalpy=                  0.033419
 Thermal correction to Gibbs Free Energy=         0.009530
 Sum of electronic and zero-point Energies=            -39.809692
 Sum of electronic and thermal Energies=               -39.806590
 Sum of electronic and thermal Enthalpies=             -39.805646
 Sum of electronic and thermal Free Energies=          -39.829535
 
                     E (Thermal)             CV                S
                      KCal/Mol        Cal/Mol-Kelvin    Cal/Mol-Kelvin
 Total                   20.379              7.529             50.280
 Electronic               0.000              0.000              1.377
 Translational            0.889              2.981             34.068
 Rotational               0.889              2.981             14.036
 Vibrational             18.601              1.567              0.799
 Vibration     1          0.820              1.333              0.759
                       Q            Log10(Q)             Ln(Q)
 Total Bot       0.413684D-04         -4.383331        -10.092993
 Total V=0       0.133999D+10          9.127103         21.015932
 Vib (Bot)       0.346750D-13        -13.459984        -30.992758
 Vib (Bot)    1  0.366893D+00         -0.435460         -1.002685
 Vib (V=0)       0.112318D+01          0.050450          0.116166
 Vib (V=0)    1  0.112017D+01          0.049284          0.113480
 Electronic      0.200000D+01          0.301030          0.693147
 Translational   0.228882D+07          6.359611         14.643545
 Rotational      0.260623D+03          2.416012          5.563073
 
                                          methyl with imposed symmetry and cc-pVD
 Z basis set
                                                             IR Spectrum
 
      3      3                                                                  1                                                    
      2      1                                                                  3                                  4                 
      9      0                                                                  7                                  6                 
      4      1                                                                  1                                  3                 
 
      X                                                                         X                                  X                 
      X                                                                         X                                  X                 
                                                                                                                   X                 
                                                                                                                   X                 
                                                                                                                   X                 
                                                                                                                   X                 
                                                                                                                   X                 
                                                                                                                   X                 
                                                                                                                   X                 
                                                                                                                   X                 
                                                                                                                   X                 
                                                                                                                   X                 
                                                                                                                   X                 
                                                                                                                   X                 
                                                                                                                   X                 
                                                                                                                   X                 
                                                                                                                   X                 
                                                                                                                   X                 
                                                                                                                   X                 
                                                                                                                   X                 
 
 ***** Axes restored to original set *****
 -------------------------------------------------------------------
 Center     Atomic                   Forces (Hartrees/Bohr)
 Number     Number              X              Y              Z
 -------------------------------------------------------------------
      1        6          -0.000000001    0.000000000    0.000000360
      2        1          -0.000000000    0.000000000   -0.000029547
      3        1          -0.000025768    0.000000000    0.000014593
      4        1           0.000025769   -0.000000000    0.000014593
 -------------------------------------------------------------------
 Cartesian Forces:  Max     0.000029547 RMS     0.000014796
 Force constants in Cartesian coordinates: 
                1             2             3             4             5 
      1  0.611180D+00
      2  0.000000D+00  0.195573D-01
      3  0.000000D+00  0.000000D+00  0.611090D+00
      4 -0.511711D-01  0.000000D+00  0.000000D+00  0.430408D-01
      5  0.000000D+00 -0.652293D-02  0.000000D+00  0.000000D+00  0.218092D-02
      6  0.000000D+00  0.000000D+00 -0.356257D+00  0.000000D+00  0.000000D+00
      7 -0.280005D+00  0.000000D+00  0.132084D+00  0.406517D-02  0.000000D+00
      8  0.000000D+00 -0.651719D-02  0.000000D+00  0.000000D+00  0.217100D-02
      9  0.132085D+00  0.000000D+00 -0.127416D+00  0.224927D-01  0.000000D+00
     10 -0.280005D+00  0.000000D+00 -0.132084D+00  0.406517D-02  0.000000D+00
     11  0.000000D+00 -0.651719D-02  0.000000D+00  0.000000D+00  0.217100D-02
     12 -0.132085D+00  0.000000D+00 -0.127416D+00 -0.224927D-01  0.000000D+00
                6             7             8             9            10 
      6  0.368687D+00
      7 -0.468774D-02  0.287296D+00
      8  0.000000D+00  0.000000D+00  0.216424D-02
      9 -0.621474D-02 -0.140987D+00  0.000000D+00  0.124427D+00
     10  0.468774D-02 -0.113569D-01  0.000000D+00 -0.135907D-01  0.287296D+00
     11  0.000000D+00  0.000000D+00  0.218195D-02  0.000000D+00  0.000000D+00
     12 -0.621474D-02  0.135907D-01  0.000000D+00  0.920375D-02  0.140987D+00
               11            12 
     11  0.216424D-02
     12  0.000000D+00  0.124427D+00
 Force constants in internal coordinates: 
                1             2             3             4             5 
      1  0.368687D+00
      2 -0.952316D-03  0.368677D+00
      3 -0.952316D-03 -0.951265D-03  0.368677D+00
      4  0.530859D-02  0.528684D-02 -0.106182D-01  0.609415D-01
      5  0.530858D-02 -0.106182D-01  0.528685D-02 -0.304693D-01  0.609415D-01
      6 -0.106172D-01  0.533136D-02  0.533135D-02 -0.304722D-01 -0.304722D-01
      7  0.000000D+00  0.000000D+00  0.000000D+00  0.000000D+00  0.000000D+00
                6             7 
      6  0.609443D-01
      7  0.000000D+00  0.690974D-02
 Leave Link  716 at Sat Aug 17 23:29:23 2024, MaxMem=   13107200 cpu:       0.0
 (Enter /programs/64bit/g09/g09-gfortran/bin/l103.exe)

 GradGradGradGradGradGradGradGradGradGradGradGradGradGradGradGradGradGrad
 Berny optimization.
 Internal  Forces:  Max     0.000029613 RMS     0.000019372
 Search for a local minimum.
 Step number   1 out of a maximum of    2
 All quantities printed in internal units (Hartrees-Bohrs-Radians)
 Second derivative matrix not updated -- analytic derivatives used.
 The second derivative matrix:
                          R1        R2        R3        A1        A2
           R1           0.36869
           R2          -0.00095   0.36868
           R3          -0.00095  -0.00095   0.36868
           A1           0.00531   0.00529  -0.01062   0.06094
           A2           0.00531  -0.01062   0.00529  -0.03047   0.06094
           A3          -0.01062   0.00533   0.00533  -0.03047  -0.03047
           D1           0.00000  -0.00000  -0.00000  -0.00000   0.00000
                          A3        D1
           A3           0.06094
           D1          -0.00000   0.00691
     Eigenvalues ---    0.00691   0.09050   0.09051   0.36678   0.37054
     Eigenvalues ---    0.370551000.00000
 Angle between quadratic step and forces=   1.38 degrees.
 Linear search not attempted -- first point.
 Iteration  1 RMS(Cart)=  0.00005284 RMS(Int)=  0.00000000
 Iteration  2 RMS(Cart)=  0.00000000 RMS(Int)=  0.00000000
 ClnCor:  largest displacement from symmetrization is 4.14D-12 for atom     1.
 Variable       Old X    -DE/DX   Delta X   Delta X   Delta X     New X
                                 (Linear)    (Quad)   (Total)
    R1        2.06132  -0.00003   0.00000  -0.00008  -0.00008   2.06124
    R2        2.06132  -0.00003   0.00000  -0.00008  -0.00008   2.06124
    R3        2.06132  -0.00003   0.00000  -0.00008  -0.00008   2.06124
    A1        2.09440   0.00000   0.00000   0.00000   0.00000   2.09440
    A2        2.09440   0.00000   0.00000   0.00000   0.00000   2.09440
    A3        2.09439  -0.00000   0.00000  -0.00000  -0.00000   2.09439
    D1        3.14159   0.00000   0.00000  -0.00000   0.00000   3.14159
         Item               Value     Threshold  Converged?
 Maximum Force            0.000030     0.000450     YES
 RMS     Force            0.000019     0.000300     YES
 Maximum Displacement     0.000079     0.001800     YES
 RMS     Displacement     0.000053     0.001200     YES
 Predicted change in Energy=-3.581937D-09
 Optimization completed.
    -- Stationary point found.
                           ----------------------------
                           !   Optimized Parameters   !
                           ! (Angstroms and Degrees)  !
 --------------------------                            --------------------------
 ! Name  Definition              Value          Derivative Info.                !
 --------------------------------------------------------------------------------
 ! R1    R(1,2)                  1.0908         -DE/DX =    0.0                 !
 ! R2    R(1,3)                  1.0908         -DE/DX =    0.0                 !
 ! R3    R(1,4)                  1.0908         -DE/DX =    0.0                 !
 ! A1    A(2,1,3)              120.0001         -DE/DX =    0.0                 !
 ! A2    A(2,1,4)              120.0001         -DE/DX =    0.0                 !
 ! A3    A(3,1,4)              119.9998         -DE/DX =    0.0                 !
 ! D1    D(2,1,4,3)            180.0            -DE/DX =    0.0                 !
 --------------------------------------------------------------------------------
 GradGradGradGradGradGradGradGradGradGradGradGradGradGradGradGradGradGrad

 Leave Link  103 at Sat Aug 17 23:29:23 2024, MaxMem=   13107200 cpu:       0.0
 (Enter /programs/64bit/g09/g09-gfortran/bin/l9999.exe)
 1\1\GINC-MOLMOD\Freq\UB3LYP\CC-pVDZ\C1H3(2)\OSPITE\17-Aug-2024\0\\#P G
 eom=AllCheck Guess=TCheck SCRF=Check GenChk UB3LYP/CC-pVDZ Freq\\methy
 l with imposed symmetry and cc-pVDZ basis set\\0,2\C,0.,0.,0.000001471
 1\H,0.,0.,1.0908027946\H,0.9446634247,0.,-0.5454021329\H,-0.9446634247
 ,0.,-0.5454021329\\Version=EM64L-G09RevA.02\State=2-A"\HF=-39.8390649\
 S2=0.753705\S2-1=0.\S2A=0.750007\RMSD=6.277e-10\RMSF=1.480e-05\ZeroPoi
 nt=0.0293726\Thermal=0.0324752\Dipole=0.,0.,0.0000006\DipoleDeriv=0.00
 85017,0.,0.,0.,-0.4103197,0.,0.,0.,0.0084733,0.0447968,0.,0.,0.,0.1367
 895,0.,0.,0.,-0.0504748,-0.0266492,0.,0.0412513,0.,0.1367651,0.,0.0412
 394,0.,0.0210007,-0.0266492,0.,-0.0412513,0.,0.1367651,0.,-0.0412394,0
 .,0.0210007\Polar=12.5678401,0.,6.8267446,0.,0.,12.5679965\PG=CS [SG(C
 1H3)]\NImag=0\\0.61118031,0.,0.01955731,0.,0.,0.61109009,-0.05117110,0
 .,0.,0.04304077,0.,-0.00652293,0.,0.,0.00218092,0.,0.,-0.35625749,0.,0
 .,0.36868698,-0.28000460,0.,0.13208411,0.00406517,0.,-0.00468774,0.287
 29638,0.,-0.00651719,0.,0.,0.00217100,0.,0.,0.00216424,0.13208508,0.,-
 0.12741630,0.02249269,0.,-0.00621474,-0.14098707,0.,0.12442729,-0.2800
 0460,0.,-0.13208412,0.00406517,0.,0.00468774,-0.01135694,0.,-0.0135906
 9,0.28729638,0.,-0.00651719,0.,0.,0.00217100,0.,0.,0.00218195,0.,0.,0.
 00216424,-0.13208508,0.,-0.12741630,-0.02249269,0.,-0.00621474,0.01359
 069,0.,0.00920375,0.14098708,0.,0.12442730\\0.,0.,-0.00000036,0.,0.,0.
 00002955,0.00002577,0.,-0.00001459,-0.00002577,0.,-0.00001459\\\@


 THAT'S WHAT MAKES US A GREAT COUNTRY.
 THE LITTLE THINGS ARE SERIOUS AND THE BIG ONES ARE NOT.
           WILL ROGERS
 Job cpu time:  0 days  0 hours  0 minutes 22.8 seconds.
 File lengths (MBytes):  RWF=      5 Int=      0 D2E=      0 Chk=      1 Scr=      1
 Normal termination of Gaussian 09 at Sat Aug 17 23:29:23 2024.
