 Entering Gaussian System, Link 0=/programs/64bit/g09/g09-gfortran/bin/g09
 Input=ch3_cc-pVQZ.com
 Output=ch3_cc-pVQZ.log
 Initial command:
 /programs/64bit/g09/g09-gfortran/bin/l1.exe /home/ospite/Desktop/MMfP/Project6/CH3/g09/DFT/B3LYP/Gau-6980.inp -scrdir=/home/ospite/Desktop/MMfP/Project6/CH3/g09/DFT/B3LYP/
 Entering Link 1 = /programs/64bit/g09/g09-gfortran/bin/l1.exe PID=      6981.
  
 Copyright (c) 1988,1990,1992,1993,1995,1998,2003,2009, Gaussian, Inc.
                  All Rights Reserved.
  
 This is part of the Gaussian(R) 09 program.  It is based on
 the Gaussian(R) 03 system (copyright 2003, Gaussian, Inc.),
 the Gaussian(R) 98 system (copyright 1998, Gaussian, Inc.),
 the Gaussian(R) 94 system (copyright 1995, Gaussian, Inc.),
 the Gaussian 92(TM) system (copyright 1992, Gaussian, Inc.),
 the Gaussian 90(TM) system (copyright 1990, Gaussian, Inc.),
 the Gaussian 88(TM) system (copyright 1988, Gaussian, Inc.),
 the Gaussian 86(TM) system (copyright 1986, Carnegie Mellon
 University), and the Gaussian 82(TM) system (copyright 1983,
 Carnegie Mellon University). Gaussian is a federally registered
 trademark of Gaussian, Inc.
  
 This software contains proprietary and confidential information,
 including trade secrets, belonging to Gaussian, Inc.
  
 This software is provided under written license and may be
 used, copied, transmitted, or stored only in accord with that
 written license.
  
 The following legend is applicable only to US Government
 contracts under FAR:
  
                    RESTRICTED RIGHTS LEGEND
  
 Use, reproduction and disclosure by the US Government is
 subject to restrictions as set forth in subparagraphs (a)
 and (c) of the Commercial Computer Software - Restricted
 Rights clause in FAR 52.227-19.
  
 Gaussian, Inc.
 340 Quinnipiac St., Bldg. 40, Wallingford CT 06492
  
  
 ---------------------------------------------------------------
 Warning -- This program may not be used in any manner that
 competes with the business of Gaussian, Inc. or will provide
 assistance to any competitor of Gaussian, Inc.  The licensee
 of this program is prohibited from giving any competitor of
 Gaussian, Inc. access to this program.  By using this program,
 the user acknowledges that Gaussian, Inc. is engaged in the
 business of creating and licensing software in the field of
 computational chemistry and represents and warrants to the
 licensee that it is not a competitor of Gaussian, Inc. and that
 it will not use this program in any manner prohibited above.
 ---------------------------------------------------------------
  

 Cite this work as:
 Gaussian 09, Revision A.02,
 M. J. Frisch, G. W. Trucks, H. B. Schlegel, G. E. Scuseria, 
 M. A. Robb, J. R. Cheeseman, G. Scalmani, V. Barone, B. Mennucci, 
 G. A. Petersson, H. Nakatsuji, M. Caricato, X. Li, H. P. Hratchian, 
 A. F. Izmaylov, J. Bloino, G. Zheng, J. L. Sonnenberg, M. Hada, 
 M. Ehara, K. Toyota, R. Fukuda, J. Hasegawa, M. Ishida, T. Nakajima, 
 Y. Honda, O. Kitao, H. Nakai, T. Vreven, J. A. Montgomery, Jr., 
 J. E. Peralta, F. Ogliaro, M. Bearpark, J. J. Heyd, E. Brothers, 
 K. N. Kudin, V. N. Staroverov, R. Kobayashi, J. Normand, 
 K. Raghavachari, A. Rendell, J. C. Burant, S. S. Iyengar, J. Tomasi, 
 M. Cossi, N. Rega, J. M. Millam, M. Klene, J. E. Knox, J. B. Cross, 
 V. Bakken, C. Adamo, J. Jaramillo, R. Gomperts, R. E. Stratmann, 
 O. Yazyev, A. J. Austin, R. Cammi, C. Pomelli, J. W. Ochterski, 
 R. L. Martin, K. Morokuma, V. G. Zakrzewski, G. A. Voth, 
 P. Salvador, J. J. Dannenberg, S. Dapprich, A. D. Daniels, 
 O. Farkas, J. B. Foresman, J. V. Ortiz, J. Cioslowski, 
 and D. J. Fox, Gaussian, Inc., Wallingford CT, 2009.
 
 ******************************************
 Gaussian 09:  EM64L-G09RevA.02 11-Jun-2009
                18-Aug-2024 
 ******************************************
 %mem=100MB
 -------------------------------------------------------------------
 #p b3lyp/cc-pVQZ opt freq symmetry=(follow,pg=C3v) pop=full gfinput
 -------------------------------------------------------------------
 1/14=-1,18=20,19=15,26=3,38=1/1,3;
 2/9=110,12=2,17=6,18=5,19=2314885530821997379,40=1/2;
 3/5=16,6=2,11=2,16=1,24=10,25=1,30=1,71=1,74=-5/1,2,3;
 4//1;
 5/5=2,38=5/2;
 6/7=3,28=1/1;
 7//1,2,3,16;
 1/14=-1,18=20,19=15/3(2);
 2/9=110,15=5,19=2314885530821997379/2;
 99//99;
 2/9=110,15=5,19=2314885530821997379/2;
 3/5=16,6=2,11=2,16=1,25=1,30=1,71=1,74=-5/1,2,3;
 4/5=5,16=3/1;
 5/5=2,38=5/2;
 7//1,2,3,16;
 1/14=-1,18=20,19=15/3(-5);
 2/9=110,15=5,19=2314885530821997379/2;
 6/7=3,19=2,28=1/1;
 99/9=1/99;
 Leave Link    1 at Sun Aug 18 14:14:09 2024, MaxMem=   13107200 cpu:       0.1
 (Enter /programs/64bit/g09/g09-gfortran/bin/l101.exe)
 --------------------------------------------------
 methyl with imposed symmetry and cc-pVQZ basis set
 --------------------------------------------------
 Symbolic Z-matrix:
 Charge =  0 Multiplicity = 2
 C1
 H2                   1    d
 H3                   1    d        2    a
 H4                   1    d        2    -a       3    t        0
       Variables:
  d                     1.09                     
  a                   120.                       
  t                     0.                       
 
 NAtoms=      4 NQM=      4 NQMF=      0 NMic=      0 NMicF=      0 NTot=      4.
                    Isotopes and Nuclear Properties:
 (Nuclear quadrupole moments (NQMom) in fm**2, nuclear magnetic moments (NMagM)
  in nuclear magnetons)

  Atom         1           2           3           4
 IAtWgt=          12           1           1           1
 AtmWgt=  12.0000000   1.0078250   1.0078250   1.0078250
 NucSpn=           0           1           1           1
 AtZEff=   0.0000000   0.0000000   0.0000000   0.0000000
 NQMom=    0.0000000   0.0000000   0.0000000   0.0000000
 NMagM=    0.0000000   2.7928460   2.7928460   2.7928460
 Leave Link  101 at Sun Aug 18 14:14:10 2024, MaxMem=   13107200 cpu:       0.1
 (Enter /programs/64bit/g09/g09-gfortran/bin/l103.exe)

 GradGradGradGradGradGradGradGradGradGradGradGradGradGradGradGradGradGrad
 Berny optimization.
 Initialization pass.
                           ----------------------------
                           !    Initial Parameters    !
                           ! (Angstroms and Degrees)  !
 --------------------------                            --------------------------
 ! Name  Definition              Value          Derivative Info.                !
 --------------------------------------------------------------------------------
 ! R1    R(1,2)                  1.09           estimate D2E/DX2                !
 ! R2    R(1,3)                  1.09           estimate D2E/DX2                !
 ! R3    R(1,4)                  1.09           estimate D2E/DX2                !
 ! A1    A(2,1,3)              120.0            estimate D2E/DX2                !
 ! A2    A(2,1,4)              120.0            estimate D2E/DX2                !
 ! A3    A(3,1,4)              120.0            estimate D2E/DX2                !
 ! D1    D(2,1,4,3)            180.0            estimate D2E/DX2                !
 --------------------------------------------------------------------------------
 Trust Radius=3.00D-01 FncErr=1.00D-07 GrdErr=1.00D-06
 Number of steps in this run=  20 maximum allowed number of steps= 100.
 GradGradGradGradGradGradGradGradGradGradGradGradGradGradGradGradGradGrad

 Leave Link  103 at Sun Aug 18 14:14:10 2024, MaxMem=   13107200 cpu:       0.0
 (Enter /programs/64bit/g09/g09-gfortran/bin/l202.exe)
                          Input orientation:                          
 ---------------------------------------------------------------------
 Center     Atomic      Atomic             Coordinates (Angstroms)
 Number     Number       Type             X           Y           Z
 ---------------------------------------------------------------------
      1          6           0        0.000000    0.000000    0.000000
      2          1           0        0.000000    0.000000    1.090000
      3          1           0        0.943968    0.000000   -0.545000
      4          1           0       -0.943968    0.000000   -0.545000
 ---------------------------------------------------------------------
                    Distance matrix (angstroms):
                    1          2          3          4
     1  C    0.000000
     2  H    1.090000   0.000000
     3  H    1.090000   1.887935   0.000000
     4  H    1.090000   1.887935   1.887935   0.000000
 Symm:  InNGrp=C3V  InAxis=0.
 This structure is nearly, but not quite of a higher symmetry.
 Consider Symm=Loose if the higher symmetry is desired.
 Stoichiometry    CH3(2)
 Framework group  C2[C2(CH),X(H2)]
 Deg. of freedom     3
 Full point group                 C2      NOp   2
 Largest Abelian subgroup         C2      NOp   2
 Largest concise Abelian subgroup C2      NOp   2
                         Standard orientation:                         
 ---------------------------------------------------------------------
 Center     Atomic      Atomic             Coordinates (Angstroms)
 Number     Number       Type             X           Y           Z
 ---------------------------------------------------------------------
      1          6           0        0.000000    0.000000    0.000000
      2          1           0        0.000000    0.000000    1.090000
      3          1           0        0.000000    0.943968   -0.545000
      4          1           0       -0.000000   -0.943968   -0.545000
 ---------------------------------------------------------------------
 Rotational constants (GHZ):    281.3764836    281.3764836    140.6882418
 Leave Link  202 at Sun Aug 18 14:14:10 2024, MaxMem=   13107200 cpu:       0.0
 (Enter /programs/64bit/g09/g09-gfortran/bin/l301.exe)
 Standard basis: CC-pVQZ (5D, 7F)
 Ernie: Thresh=  0.10000D-02 Tol=  0.10000D-05 Strict=F.
 Ernie:  3 primitive shells out of 69 were deleted.
 AO basis set in the form of general basis input (Overlap normalization):
      1 0
 S   8 1.00       0.000000000000
      0.3398000000D+05  0.1468124114D-03
      0.5089000000D+04  0.1116460016D-02
      0.1157000000D+04  0.5890887108D-02
      0.3266000000D+03  0.2421725547D-01
      0.1061000000D+03  0.8317163879D-01
      0.3811000000D+02  0.2205684777D+00
      0.1475000000D+02  0.4287314969D+00
      0.6035000000D+01  0.3643614225D+00
 S   7 1.00       0.000000000000
      0.5089000000D+04 -0.1002265364D-04
      0.3266000000D+03 -0.4365894368D-03
      0.1061000000D+03 -0.1932312730D-02
      0.3811000000D+02 -0.2148394772D-01
      0.1475000000D+02 -0.9030916566D-01
      0.6035000000D+01 -0.4187915117D+00
      0.2530000000D+01 -0.5318019058D+00
 S   1 1.00       0.000000000000
      0.7355000000D+00  0.1000000000D+01
 S   1 1.00       0.000000000000
      0.2905000000D+00  0.1000000000D+01
 S   1 1.00       0.000000000000
      0.1111000000D+00  0.1000000000D+01
 P   3 1.00       0.000000000000
      0.3451000000D+02  0.3168785521D-01
      0.7915000000D+01  0.2128943073D+00
      0.2368000000D+01  0.8395867520D+00
 P   1 1.00       0.000000000000
      0.8132000000D+00  0.1000000000D+01
 P   1 1.00       0.000000000000
      0.2890000000D+00  0.1000000000D+01
 P   1 1.00       0.000000000000
      0.1007000000D+00  0.1000000000D+01
 D   1 1.00       0.000000000000
      0.1848000000D+01  0.1000000000D+01
 D   1 1.00       0.000000000000
      0.6490000000D+00  0.1000000000D+01
 D   1 1.00       0.000000000000
      0.2280000000D+00  0.1000000000D+01
 F   1 1.00       0.000000000000
      0.1419000000D+01  0.1000000000D+01
 F   1 1.00       0.000000000000
      0.4850000000D+00  0.1000000000D+01
 G   1 1.00       0.000000000000
      0.1011000000D+01  0.1000000000D+01
 ****
      2 0
 S   3 1.00       0.000000000000
      0.8264000000D+02  0.2295075779D-01
      0.1241000000D+02  0.1755401181D+00
      0.2824000000D+01  0.8647035510D+00
 S   1 1.00       0.000000000000
      0.7977000000D+00  0.1000000000D+01
 S   1 1.00       0.000000000000
      0.2581000000D+00  0.1000000000D+01
 S   1 1.00       0.000000000000
      0.8989000000D-01  0.1000000000D+01
 P   1 1.00       0.000000000000
      0.2292000000D+01  0.1000000000D+01
 P   1 1.00       0.000000000000
      0.8380000000D+00  0.1000000000D+01
 P   1 1.00       0.000000000000
      0.2920000000D+00  0.1000000000D+01
 D   1 1.00       0.000000000000
      0.2062000000D+01  0.1000000000D+01
 D   1 1.00       0.000000000000
      0.6620000000D+00  0.1000000000D+01
 F   1 1.00       0.000000000000
      0.1397000000D+01  0.1000000000D+01
 ****
      3 0
 S   3 1.00       0.000000000000
      0.8264000000D+02  0.2295075779D-01
      0.1241000000D+02  0.1755401181D+00
      0.2824000000D+01  0.8647035510D+00
 S   1 1.00       0.000000000000
      0.7977000000D+00  0.1000000000D+01
 S   1 1.00       0.000000000000
      0.2581000000D+00  0.1000000000D+01
 S   1 1.00       0.000000000000
      0.8989000000D-01  0.1000000000D+01
 P   1 1.00       0.000000000000
      0.2292000000D+01  0.1000000000D+01
 P   1 1.00       0.000000000000
      0.8380000000D+00  0.1000000000D+01
 P   1 1.00       0.000000000000
      0.2920000000D+00  0.1000000000D+01
 D   1 1.00       0.000000000000
      0.2062000000D+01  0.1000000000D+01
 D   1 1.00       0.000000000000
      0.6620000000D+00  0.1000000000D+01
 F   1 1.00       0.000000000000
      0.1397000000D+01  0.1000000000D+01
 ****
      4 0
 S   3 1.00       0.000000000000
      0.8264000000D+02  0.2295075779D-01
      0.1241000000D+02  0.1755401181D+00
      0.2824000000D+01  0.8647035510D+00
 S   1 1.00       0.000000000000
      0.7977000000D+00  0.1000000000D+01
 S   1 1.00       0.000000000000
      0.2581000000D+00  0.1000000000D+01
 S   1 1.00       0.000000000000
      0.8989000000D-01  0.1000000000D+01
 P   1 1.00       0.000000000000
      0.2292000000D+01  0.1000000000D+01
 P   1 1.00       0.000000000000
      0.8380000000D+00  0.1000000000D+01
 P   1 1.00       0.000000000000
      0.2920000000D+00  0.1000000000D+01
 D   1 1.00       0.000000000000
      0.2062000000D+01  0.1000000000D+01
 D   1 1.00       0.000000000000
      0.6620000000D+00  0.1000000000D+01
 F   1 1.00       0.000000000000
      0.1397000000D+01  0.1000000000D+01
 ****

 There are    75 symmetry adapted basis functions of A   symmetry.
 There are    70 symmetry adapted basis functions of B   symmetry.
 Integral buffers will be    131072 words long.
 Raffenetti 2 integral format.
 Two-electron integral symmetry is turned on.
   145 basis functions,   200 primitive gaussians,   175 cartesian basis functions
     5 alpha electrons        4 beta electrons
       nuclear repulsion energy         9.5795885928 Hartrees.
 IExCor=  402 DFT=T Ex+Corr=B3LYP ExCW=0 ScaHFX=  0.200000
 ScaDFX=  0.800000  0.720000  1.000000  0.810000 ScalE2=  1.000000  1.000000
 IRadAn=      0 IRanWt=     -1 IRanGd=            0 ICorTp=0
 NAtoms=    4 NActive=    4 NUniq=    3 SFac= 1.33D+00 NAtFMM=   80 NAOKFM=F Big=F
 Leave Link  301 at Sun Aug 18 14:14:10 2024, MaxMem=   13107200 cpu:       0.1
 (Enter /programs/64bit/g09/g09-gfortran/bin/l302.exe)
 NPDir=0 NMtPBC=     1 NCelOv=     1 NCel=       1 NClECP=     1 NCelD=      1
         NCelK=      1 NCelE2=     1 NClLst=     1 CellRange=     0.0.
 One-electron integrals computed using PRISM.
 One-electron integral symmetry used in STVInt
 NBasis=   145 RedAO= T  NBF=    75    70
 NBsUse=   145 1.00D-06 NBFU=    75    70
 Precomputing XC quadrature grid using
 IXCGrd= 2 IRadAn=           0 IRanWt=          -1 IRanGd=           0 AccXCQ= 1.00D-10.
 NRdTot=     250 NPtTot=       31382 NUsed=       33197 NTot=       33229
 NSgBfM=   175   175   175   175   175 NAtAll=     4     4.
 Leave Link  302 at Sun Aug 18 14:14:10 2024, MaxMem=   13107200 cpu:       0.3
 (Enter /programs/64bit/g09/g09-gfortran/bin/l303.exe)
 DipDrv:  MaxL=1.
 Leave Link  303 at Sun Aug 18 14:14:10 2024, MaxMem=   13107200 cpu:       0.0
 (Enter /programs/64bit/g09/g09-gfortran/bin/l401.exe)
 Harris functional with IExCor=  402 diagonalized for initial guess.
 ExpMin= 8.99D-02 ExpMax= 3.40D+04 ExpMxC= 3.27D+02 IAcc=2 IRadAn=         0 AccDes= 0.00D+00
 HarFok:  IExCor=  402 AccDes= 0.00D+00 IRadAn=         0 IDoV= 1
 ScaDFX=  1.000000  1.000000  1.000000  1.000000
 FoFCou: FMM=F IPFlag=           0 FMFlag=      100000 FMFlg1=           0
         NFxFlg=           0 DoJE=T BraDBF=F KetDBF=T FulRan=T
         Omega=  0.000000  0.000000  1.000000  0.000000  0.000000 ICntrl=     500 IOpCl=  0
         NMat0=    1 NMatS0=    1 NMatT0=    0 NMatD0=    1 NMtDS0=    0 NMtDT0=    0
         I1Cent=           4 NGrid=           0.
 Petite list used in FoFCou.
 Harris En= -39.8606849628599    
 Initial guess orbital symmetries:
 Alpha Orbitals:
       Occupied  (A) (A) (A) (B) (B)
       Virtual   (A) (B) (A) (B) (A) (B) (A) (A) (A) (B) (A) (B)
                 (B) (A) (B) (A) (B) (B) (A) (B) (A) (A) (B) (A)
                 (A) (B) (A) (B) (B) (A) (A) (B) (B) (A) (A) (B)
                 (A) (B) (B) (A) (A) (B) (A) (B) (A) (B) (A) (A)
                 (B) (B) (A) (B) (A) (B) (A) (B) (A) (B) (A) (B)
                 (A) (B) (A) (A) (B) (A) (B) (B) (B) (A) (A) (A)
                 (B) (A) (B) (A) (B) (B) (A) (B) (B) (A) (B) (B)
                 (A) (B) (A) (B) (A) (A) (A) (B) (B) (A) (B) (B)
                 (A) (B) (A) (A) (B) (B) (A) (B) (A) (B) (A) (A)
                 (A) (B) (A) (B) (A) (B) (A) (A) (B) (B) (A) (A)
                 (B) (A) (B) (A) (B) (A) (B) (A) (A) (B) (A) (B)
                 (B) (B) (A) (A) (B) (B) (A) (A)
 Beta  Orbitals:
       Occupied  (A) (A) (A) (B)
       Virtual   (B) (A) (B) (A) (B) (A) (B) (A) (A) (A) (B) (A)
                 (B) (B) (A) (B) (A) (B) (B) (A) (B) (A) (A) (B)
                 (A) (A) (B) (A) (B) (B) (A) (A) (B) (B) (A) (A)
                 (B) (A) (B) (B) (A) (A) (B) (A) (B) (A) (B) (A)
                 (A) (B) (B) (A) (B) (A) (B) (A) (B) (A) (B) (A)
                 (B) (A) (B) (A) (A) (B) (A) (B) (B) (B) (A) (A)
                 (A) (B) (A) (B) (A) (B) (B) (A) (B) (B) (A) (B)
                 (B) (A) (B) (A) (B) (A) (A) (A) (B) (B) (A) (B)
                 (B) (A) (B) (A) (A) (B) (B) (A) (B) (A) (B) (A)
                 (A) (A) (B) (A) (B) (A) (B) (A) (A) (B) (B) (A)
                 (A) (B) (A) (B) (A) (B) (A) (B) (A) (A) (B) (A)
                 (B) (B) (B) (A) (A) (B) (B) (A) (A)
 The electronic state of the initial guess is 2-B.
 Initial guess <Sx>= 0.0000 <Sy>= 0.0000 <Sz>= 0.5000 <S**2>= 0.7500 S= 0.5000
 Leave Link  401 at Sun Aug 18 14:14:14 2024, MaxMem=   13107200 cpu:       3.9
 (Enter /programs/64bit/g09/g09-gfortran/bin/l502.exe)
 UHF open shell SCF:
 Requested convergence on RMS density matrix=1.00D-08 within 128 cycles.
 Requested convergence on MAX density matrix=1.00D-06.
 Requested convergence on             energy=1.00D-06.
 No special actions if energy rises.
 Using DIIS extrapolation, IDIIS=  1040.
 Integral symmetry usage will be decided dynamically.
        33148 words used for storage of precomputed grid.
 IEnd=      145657 IEndB=      145657 NGot=    13107200 MDV=    13008984
 LenX=    13008984 LenY=    12977918
 Fock matrices will be formed incrementally for  20 cycles.
 Integral accuracy reduced to 1.0D-05 until final iterations.

 Cycle   1  Pass 0  IDiag  1:
 FoFCou: FMM=F IPFlag=           0 FMFlag=      100000 FMFlg1=           0
         NFxFlg=           0 DoJE=F BraDBF=F KetDBF=F FulRan=T
         Omega=  0.000000  0.000000  1.000000  0.000000  0.000000 ICntrl=       0 IOpCl=  1
         NMat0=    1 NMatS0=    1 NMatT0=    0 NMatD0=    1 NMtDS0=    0 NMtDT0=    0
         I1Cent=           0 NGrid=           0.
 Petite list used in FoFCou.
 E= -39.8124981525120    
 DIIS: error= 3.37D-02 at cycle   1 NSaved=   1.
 NSaved= 1 IEnMin= 1 EnMin= -39.8124981525120     IErMin= 1 ErrMin= 3.37D-02
 ErrMax= 3.37D-02 EMaxC= 1.00D-01 BMatC= 1.91D-01 BMatP= 1.91D-01
 IDIUse=3 WtCom= 6.63D-01 WtEn= 3.37D-01
 Coeff-Com:  0.100D+01
 Coeff-En:   0.100D+01
 Coeff:      0.100D+01
 Gap=     0.193 Goal=   None    Shift=    0.000
 Gap=     0.365 Goal=   None    Shift=    0.000
 GapD=    0.193 DampG=1.000 DampE=0.500 DampFc=0.5000 IDamp=-1.
 Damping current iteration by 5.00D-01
 RMSDP=1.64D-03 MaxDP=1.27D-01              OVMax= 1.73D-01

 Cycle   2  Pass 0  IDiag  1:
 RMSU=  6.09D-04    CP:  9.58D-01
 E= -39.8357355348094     Delta-E=       -0.023237382297 Rises=F Damp=T
 DIIS: error= 6.44D-03 at cycle   2 NSaved=   2.
 NSaved= 2 IEnMin= 2 EnMin= -39.8357355348094     IErMin= 2 ErrMin= 6.44D-03
 ErrMax= 6.44D-03 EMaxC= 1.00D-01 BMatC= 7.67D-03 BMatP= 1.91D-01
 IDIUse=3 WtCom= 9.36D-01 WtEn= 6.44D-02
 Coeff-Com:  0.117D-01 0.988D+00
 Coeff-En:   0.359D-01 0.964D+00
 Coeff:      0.133D-01 0.987D+00
 Gap=     0.266 Goal=   None    Shift=    0.000
 Gap=     0.338 Goal=   None    Shift=    0.000
 RMSDP=2.24D-04 MaxDP=1.97D-02 DE=-2.32D-02 OVMax= 1.04D-01

 Cycle   3  Pass 0  IDiag  1:
 RMSU=  1.75D-04    CP:  9.64D-01  9.39D-01
 E= -39.8615409813480     Delta-E=       -0.025805446539 Rises=F Damp=F
 DIIS: error= 1.80D-03 at cycle   3 NSaved=   3.
 NSaved= 3 IEnMin= 3 EnMin= -39.8615409813480     IErMin= 3 ErrMin= 1.80D-03
 ErrMax= 1.80D-03 EMaxC= 1.00D-01 BMatC= 3.87D-04 BMatP= 7.67D-03
 IDIUse=3 WtCom= 9.82D-01 WtEn= 1.80D-02
 Coeff-Com: -0.377D-01 0.567D-01 0.981D+00
 Coeff-En:   0.000D+00 0.000D+00 0.100D+01
 Coeff:     -0.370D-01 0.556D-01 0.981D+00
 Gap=     0.269 Goal=   None    Shift=    0.000
 Gap=     0.338 Goal=   None    Shift=    0.000
 RMSDP=4.49D-05 MaxDP=3.61D-03 DE=-2.58D-02 OVMax= 5.22D-03

 Cycle   4  Pass 0  IDiag  1:
 RMSU=  1.89D-05    CP:  9.63D-01  9.69D-01  1.07D+00
 E= -39.8616618008063     Delta-E=       -0.000120819458 Rises=F Damp=F
 DIIS: error= 2.42D-04 at cycle   4 NSaved=   4.
 NSaved= 4 IEnMin= 4 EnMin= -39.8616618008063     IErMin= 4 ErrMin= 2.42D-04
 ErrMax= 2.42D-04 EMaxC= 1.00D-01 BMatC= 8.68D-06 BMatP= 3.87D-04
 IDIUse=3 WtCom= 9.98D-01 WtEn= 2.42D-03
 Coeff-Com:  0.438D-02-0.215D-01-0.161D+00 0.118D+01
 Coeff-En:   0.000D+00 0.000D+00 0.000D+00 0.100D+01
 Coeff:      0.437D-02-0.214D-01-0.161D+00 0.118D+01
 Gap=     0.269 Goal=   None    Shift=    0.000
 Gap=     0.338 Goal=   None    Shift=    0.000
 RMSDP=1.43D-05 MaxDP=8.50D-04 DE=-1.21D-04 OVMax= 1.22D-03

 Cycle   5  Pass 0  IDiag  1:
 RMSU=  5.12D-06    CP:  9.62D-01  9.70D-01  1.11D+00  1.28D+00
 E= -39.8616680297351     Delta-E=       -0.000006228929 Rises=F Damp=F
 DIIS: error= 5.40D-05 at cycle   5 NSaved=   5.
 NSaved= 5 IEnMin= 5 EnMin= -39.8616680297351     IErMin= 5 ErrMin= 5.40D-05
 ErrMax= 5.40D-05 EMaxC= 1.00D-01 BMatC= 5.56D-07 BMatP= 8.68D-06
 IDIUse=1 WtCom= 1.00D+00 WtEn= 0.00D+00
 Coeff-Com:  0.108D-02 0.297D-02-0.107D-01-0.265D+00 0.127D+01
 Coeff:      0.108D-02 0.297D-02-0.107D-01-0.265D+00 0.127D+01
 Gap=     0.270 Goal=   None    Shift=    0.000
 Gap=     0.338 Goal=   None    Shift=    0.000
 RMSDP=4.08D-06 MaxDP=2.09D-04 DE=-6.23D-06 OVMax= 3.66D-04

 Initial convergence to 1.0D-05 achieved.  Increase integral accuracy.
 Cycle   6  Pass 1  IDiag  1:
 E= -39.8616750770125     Delta-E=       -0.000007047277 Rises=F Damp=F
 DIIS: error= 1.54D-05 at cycle   1 NSaved=   1.
 NSaved= 1 IEnMin= 1 EnMin= -39.8616750770125     IErMin= 1 ErrMin= 1.54D-05
 ErrMax= 1.54D-05 EMaxC= 1.00D-01 BMatC= 1.22D-07 BMatP= 1.22D-07
 IDIUse=1 WtCom= 1.00D+00 WtEn= 0.00D+00
 Coeff-Com:  0.100D+01
 Coeff:      0.100D+01
 Gap=     0.270 Goal=   None    Shift=    0.000
 Gap=     0.338 Goal=   None    Shift=    0.000
 RMSDP=4.08D-06 MaxDP=2.09D-04 DE=-7.05D-06 OVMax= 7.83D-05

 Cycle   7  Pass 1  IDiag  1:
 RMSU=  1.59D-06    CP:  1.00D+00
 E= -39.8616750910408     Delta-E=       -0.000000014028 Rises=F Damp=F
 DIIS: error= 7.19D-06 at cycle   2 NSaved=   2.
 NSaved= 2 IEnMin= 2 EnMin= -39.8616750910408     IErMin= 2 ErrMin= 7.19D-06
 ErrMax= 7.19D-06 EMaxC= 1.00D-01 BMatC= 5.53D-09 BMatP= 1.22D-07
 IDIUse=1 WtCom= 1.00D+00 WtEn= 0.00D+00
 Coeff-Com:  0.145D-01 0.985D+00
 Coeff:      0.145D-01 0.985D+00
 Gap=     0.270 Goal=   None    Shift=    0.000
 Gap=     0.338 Goal=   None    Shift=    0.000
 RMSDP=2.96D-07 MaxDP=1.83D-05 DE=-1.40D-08 OVMax= 3.47D-05

 Cycle   8  Pass 1  IDiag  1:
 RMSU=  2.52D-07    CP:  1.00D+00  1.05D+00
 E= -39.8616750918823     Delta-E=       -0.000000000842 Rises=F Damp=F
 DIIS: error= 5.76D-06 at cycle   3 NSaved=   3.
 NSaved= 3 IEnMin= 3 EnMin= -39.8616750918823     IErMin= 3 ErrMin= 5.76D-06
 ErrMax= 5.76D-06 EMaxC= 1.00D-01 BMatC= 4.61D-09 BMatP= 5.53D-09
 IDIUse=1 WtCom= 1.00D+00 WtEn= 0.00D+00
 Coeff-Com: -0.295D-01 0.486D+00 0.543D+00
 Coeff:     -0.295D-01 0.486D+00 0.543D+00
 Gap=     0.270 Goal=   None    Shift=    0.000
 Gap=     0.338 Goal=   None    Shift=    0.000
 RMSDP=1.34D-07 MaxDP=1.01D-05 DE=-8.42D-10 OVMax= 1.49D-05

 Cycle   9  Pass 1  IDiag  1:
 RMSU=  5.24D-08    CP:  1.00D+00  1.06D+00  6.58D-01
 E= -39.8616750931077     Delta-E=       -0.000000001225 Rises=F Damp=F
 DIIS: error= 8.87D-07 at cycle   4 NSaved=   4.
 NSaved= 4 IEnMin= 4 EnMin= -39.8616750931077     IErMin= 4 ErrMin= 8.87D-07
 ErrMax= 8.87D-07 EMaxC= 1.00D-01 BMatC= 9.73D-11 BMatP= 4.61D-09
 IDIUse=1 WtCom= 1.00D+00 WtEn= 0.00D+00
 Coeff-Com:  0.523D-02-0.257D+00-0.158D+00 0.141D+01
 Coeff:      0.523D-02-0.257D+00-0.158D+00 0.141D+01
 Gap=     0.270 Goal=   None    Shift=    0.000
 Gap=     0.338 Goal=   None    Shift=    0.000
 RMSDP=5.30D-08 MaxDP=2.91D-06 DE=-1.23D-09 OVMax= 5.66D-06

 Cycle  10  Pass 1  IDiag  1:
 RMSU=  1.26D-08    CP:  1.00D+00  1.07D+00  7.65D-01  1.42D+00
 E= -39.8616750931764     Delta-E=       -0.000000000069 Rises=F Damp=F
 DIIS: error= 7.06D-08 at cycle   5 NSaved=   5.
 NSaved= 5 IEnMin= 5 EnMin= -39.8616750931764     IErMin= 5 ErrMin= 7.06D-08
 ErrMax= 7.06D-08 EMaxC= 1.00D-01 BMatC= 7.16D-13 BMatP= 9.73D-11
 IDIUse=1 WtCom= 1.00D+00 WtEn= 0.00D+00
 Coeff-Com:  0.177D-03 0.892D-02 0.369D-02-0.113D+00 0.110D+01
 Coeff:      0.177D-03 0.892D-02 0.369D-02-0.113D+00 0.110D+01
 Gap=     0.270 Goal=   None    Shift=    0.000
 Gap=     0.338 Goal=   None    Shift=    0.000
 RMSDP=4.99D-09 MaxDP=4.05D-07 DE=-6.88D-11 OVMax= 5.28D-07

 SCF Done:  E(UB3LYP) =  -39.8616750932     A.U. after   10 cycles
             Convg  =    0.4989D-08             -V/T =  2.0073
 <Sx>= 0.0000 <Sy>= 0.0000 <Sz>= 0.5000 <S**2>= 0.7537 S= 0.5019
 <L.S>=  0.00000000000    
 KE= 3.957359008588D+01 PE=-1.110697466614D+02 EE= 2.205489288963D+01
 Annihilation of the first spin contaminant:
 S**2 before annihilation     0.7537,   after     0.7500
 Leave Link  502 at Sun Aug 18 14:16:09 2024, MaxMem=   13107200 cpu:     114.6
 (Enter /programs/64bit/g09/g09-gfortran/bin/l601.exe)
 Copying SCF densities to generalized density rwf, IOpCl= 1 IROHF=0.

 **********************************************************************

            Population analysis using the SCF density.

 **********************************************************************

 Orbital symmetries:
 Alpha Orbitals:
       Occupied  (A) (A) (B) (A) (B)
       Virtual   (A) (B) (A) (B) (A) (B) (A) (A) (B) (A) (A) (B)
                 (B) (A) (B) (A) (B) (B) (A) (B) (A) (A) (B) (A)
                 (A) (B) (A) (B) (B) (A) (A) (B) (B) (A) (A) (B)
                 (A) (B) (B) (A) (A) (B) (A) (B) (A) (B) (A) (A)
                 (B) (B) (A) (B) (A) (B) (A) (B) (A) (B) (A) (B)
                 (A) (B) (A) (A) (B) (A) (B) (B) (A) (B) (A) (A)
                 (B) (A) (B) (A) (B) (B) (A) (B) (B) (A) (B) (B)
                 (A) (B) (A) (B) (A) (A) (A) (B) (B) (A) (B) (B)
                 (A) (B) (A) (A) (B) (B) (A) (A) (B) (A) (B) (A)
                 (A) (B) (A) (B) (A) (B) (A) (A) (B) (B) (A) (A)
                 (B) (B) (A) (A) (B) (A) (B) (A) (B) (A) (B) (A)
                 (B) (B) (A) (A) (B) (B) (A) (A)
 Beta  Orbitals:
       Occupied  (A) (A) (B) (A)
       Virtual   (B) (A) (B) (A) (B) (A) (B) (A) (A) (B) (A) (A)
                 (B) (B) (A) (B) (A) (B) (B) (A) (B) (A) (B) (A)
                 (A) (A) (B) (A) (B) (B) (A) (A) (B) (B) (A) (B)
                 (A) (A) (B) (B) (A) (A) (B) (A) (B) (A) (B) (A)
                 (A) (B) (B) (A) (B) (A) (B) (A) (B) (A) (B) (A)
                 (B) (A) (B) (A) (A) (B) (A) (B) (B) (A) (B) (A)
                 (A) (A) (B) (B) (A) (B) (B) (A) (B) (B) (A) (B)
                 (B) (A) (B) (A) (B) (A) (A) (B) (A) (B) (B) (A)
                 (A) (B) (B) (A) (A) (B) (A) (B) (A) (B) (B) (A)
                 (A) (B) (A) (A) (B) (A) (B) (A) (A) (B) (B) (A)
                 (A) (B) (B) (A) (A) (B) (A) (B) (A) (B) (A) (A)
                 (B) (B) (B) (A) (A) (B) (B) (A) (A)
 The electronic state is 2-B.
 Alpha  occ. eigenvalues --  -10.18730  -0.68699  -0.42313  -0.42313  -0.23695
 Alpha virt. eigenvalues --    0.03264   0.09995   0.09995   0.18507   0.18508
 Alpha virt. eigenvalues --    0.21693   0.26301   0.34717   0.38462   0.38462
 Alpha virt. eigenvalues --    0.40990   0.40990   0.62244   0.62896   0.65654
 Alpha virt. eigenvalues --    0.65654   0.72265   0.77103   0.77103   0.93624
 Alpha virt. eigenvalues --    0.93625   0.99298   1.00357   1.00357   1.19219
 Alpha virt. eigenvalues --    1.25611   1.32006   1.32006   1.56048   1.56049
 Alpha virt. eigenvalues --    1.65425   1.65425   1.74676   1.75821   1.81852
 Alpha virt. eigenvalues --    1.81852   1.86430   1.86430   1.87215   2.01293
 Alpha virt. eigenvalues --    2.02896   2.27197   2.27197   2.28904   2.28905
 Alpha virt. eigenvalues --    2.41228   2.42601   2.47490   2.47490   2.53436
 Alpha virt. eigenvalues --    2.53436   2.66993   2.79086   2.79086   2.81773
 Alpha virt. eigenvalues --    2.98711   3.02170   3.02171   3.36822   3.36822
 Alpha virt. eigenvalues --    3.36861   3.36861   3.56663   3.59022   3.73241
 Alpha virt. eigenvalues --    3.73241   4.05955   4.93485   4.94194   4.94194
 Alpha virt. eigenvalues --    5.12389   5.12537   5.22095   5.22095   5.49910
 Alpha virt. eigenvalues --    5.51274   5.51274   5.60695   5.60695   5.70005
 Alpha virt. eigenvalues --    5.84010   5.84010   5.87894   5.93671   5.94867
 Alpha virt. eigenvalues --    5.94867   6.00243   6.00244   6.17182   6.32940
 Alpha virt. eigenvalues --    6.37218   6.37218   6.43513   6.57086   6.57086
 Alpha virt. eigenvalues --    6.64408   6.64409   7.09246   7.09246   7.12590
 Alpha virt. eigenvalues --    7.12590   7.48230   7.48230   7.48818   7.50085
 Alpha virt. eigenvalues --    7.51157   7.51254   7.51254   7.67897   7.67897
 Alpha virt. eigenvalues --    7.93134   8.10732   8.15852   8.15853   8.17502
 Alpha virt. eigenvalues --    8.20343   8.20344   8.38546   8.38546   8.41419
 Alpha virt. eigenvalues --    8.41419   8.69839   8.71652   8.73576   8.94839
 Alpha virt. eigenvalues --    9.11863   9.11863   9.78530   9.78530   9.78778
 Alpha virt. eigenvalues --    9.78778   9.78816   9.83667  10.25591  10.46289
 Alpha virt. eigenvalues --   10.93697  10.93697  12.22405  12.22405  24.46391
  Beta  occ. eigenvalues --  -10.17293  -0.64748  -0.41389  -0.41389
  Beta virt. eigenvalues --   -0.07601   0.03843   0.10156   0.10156   0.18612
  Beta virt. eigenvalues --    0.18613   0.26187   0.29009   0.36006   0.38910
  Beta virt. eigenvalues --    0.38911   0.43158   0.43158   0.61999   0.64778
  Beta virt. eigenvalues --    0.65980   0.65980   0.73582   0.78196   0.78196
  Beta virt. eigenvalues --    0.93810   0.93810   1.00621   1.00621   1.00692
  Beta virt. eigenvalues --    1.19890   1.32859   1.33091   1.33091   1.57418
  Beta virt. eigenvalues --    1.57419   1.69267   1.69267   1.74685   1.80425
  Beta virt. eigenvalues --    1.83765   1.83765   1.88554   1.88554   1.91279
  Beta virt. eigenvalues --    2.01623   2.05111   2.27067   2.27067   2.29544
  Beta virt. eigenvalues --    2.29545   2.41984   2.44081   2.48471   2.48471
  Beta virt. eigenvalues --    2.53700   2.53700   2.66764   2.80272   2.80272
  Beta virt. eigenvalues --    2.82147   3.00337   3.02642   3.02642   3.37080
  Beta virt. eigenvalues --    3.37080   3.40090   3.40090   3.57245   3.63504
  Beta virt. eigenvalues --    3.73765   3.73765   4.06575   4.96881   4.96882
  Beta virt. eigenvalues --    4.97723   5.14065   5.17937   5.26344   5.26344
  Beta virt. eigenvalues --    5.49869   5.54428   5.54428   5.61933   5.61933
  Beta virt. eigenvalues --    5.78007   5.88874   5.88875   5.90161   5.93534
  Beta virt. eigenvalues --    5.95607   5.95607   6.00767   6.00767   6.21817
  Beta virt. eigenvalues --    6.33552   6.37952   6.37952   6.45158   6.57807
  Beta virt. eigenvalues --    6.57807   6.69940   6.69940   7.10101   7.10101
  Beta virt. eigenvalues --    7.13368   7.13368   7.49296   7.49296   7.49758
  Beta virt. eigenvalues --    7.50240   7.50894   7.50894   7.51098   7.68415
  Beta virt. eigenvalues --    7.68416   7.93590   8.10393   8.15614   8.15614
  Beta virt. eigenvalues --    8.17455   8.20107   8.20109   8.38389   8.38389
  Beta virt. eigenvalues --    8.41666   8.41666   8.70437   8.73076   8.74804
  Beta virt. eigenvalues --    8.94348   9.11667   9.11667   9.78814   9.78911
  Beta virt. eigenvalues --    9.78911   9.80457   9.80458   9.86405  10.25766
  Beta virt. eigenvalues --   10.47031  10.93654  10.93654  12.22304  12.22304
  Beta virt. eigenvalues --   24.48307
     Alpha Molecular Orbital Coefficients:
                           1         2         3         4         5
                           O         O         O         O         O
     Eigenvalues --   -10.18730  -0.68699  -0.42313  -0.42313  -0.23695
   1 1   C  1S          0.62597  -0.12369   0.00000   0.00000   0.00000
   2        2S         -0.39973   0.18839   0.00000  -0.00000   0.00000
   3        3S          0.04680   0.22981   0.00000  -0.00000   0.00000
   4        4S         -0.01494   0.42736   0.00000   0.00003   0.00000
   5        5S          0.00038   0.14650   0.00000   0.00003   0.00000
   6        6PX         0.00000   0.00000  -0.00000   0.00000   0.16267
   7        6PY         0.00000   0.00000   0.12664   0.00000  -0.00000
   8        6PZ         0.00000   0.00000   0.00000   0.12664   0.00000
   9        7PX         0.00000   0.00000  -0.00000   0.00000   0.30943
  10        7PY         0.00000   0.00000   0.22760   0.00000   0.00000
  11        7PZ        -0.00000  -0.00000   0.00000   0.22760   0.00000
  12        8PX         0.00000   0.00000  -0.00000   0.00000   0.38634
  13        8PY         0.00000   0.00000   0.24896   0.00000   0.00000
  14        8PZ         0.00000   0.00001   0.00000   0.24896   0.00000
  15        9PX         0.00000   0.00000  -0.00000   0.00000   0.32406
  16        9PY         0.00000   0.00000   0.09399   0.00000   0.00000
  17        9PZ         0.00000   0.00001   0.00000   0.09399   0.00000
  18       10D 0        0.00012   0.00026   0.00000   0.00490   0.00000
  19       10D+1        0.00000   0.00000  -0.00000   0.00000  -0.00000
  20       10D-1        0.00000   0.00000  -0.00566   0.00000   0.00000
  21       10D+2       -0.00020  -0.00045   0.00000   0.00283   0.00000
  22       10D-2       -0.00000   0.00000   0.00000  -0.00000   0.00000
  23       11D 0        0.00146   0.00097   0.00000   0.00801   0.00000
  24       11D+1        0.00000   0.00000   0.00000   0.00000   0.00000
  25       11D-1        0.00000   0.00000  -0.00925   0.00000  -0.00000
  26       11D+2       -0.00254  -0.00168   0.00000   0.00462   0.00000
  27       11D-2       -0.00000  -0.00000   0.00000   0.00000   0.00000
  28       12D 0       -0.00141  -0.00035   0.00000   0.01382   0.00000
  29       12D+1        0.00000   0.00000   0.00000   0.00000   0.00001
  30       12D-1        0.00000   0.00000  -0.01595   0.00000  -0.00000
  31       12D+2        0.00244   0.00061   0.00000   0.00797   0.00000
  32       12D-2       -0.00000  -0.00000   0.00000   0.00000   0.00000
  33       13F 0        0.00190   0.00186   0.00000  -0.00029   0.00000
  34       13F+1        0.00000   0.00000   0.00000   0.00000  -0.00108
  35       13F-1        0.00000   0.00000  -0.00012   0.00000   0.00000
  36       13F+2        0.00147   0.00144   0.00000   0.00037   0.00000
  37       13F-2       -0.00000   0.00000   0.00000  -0.00000   0.00000
  38       13F+3        0.00000   0.00000   0.00000   0.00000   0.00140
  39       13F-3        0.00000   0.00000   0.00046   0.00000  -0.00000
  40       14F 0       -0.00140   0.00349   0.00000  -0.00075   0.00000
  41       14F+1        0.00000   0.00000   0.00000   0.00000  -0.00332
  42       14F-1        0.00000   0.00000  -0.00030   0.00000   0.00000
  43       14F+2       -0.00108   0.00270   0.00000   0.00097   0.00000
  44       14F-2        0.00000   0.00000   0.00000  -0.00000   0.00000
  45       14F+3        0.00000   0.00000   0.00000   0.00000   0.00429
  46       14F-3        0.00000   0.00000   0.00118   0.00000  -0.00000
  47       15G 0        0.00016   0.00010   0.00000   0.00098   0.00000
  48       15G+1        0.00000   0.00000  -0.00000   0.00000  -0.00004
  49       15G-1        0.00000   0.00000   0.00146   0.00000   0.00000
  50       15G+2       -0.00024  -0.00015   0.00000   0.00108   0.00000
  51       15G-2       -0.00000  -0.00000   0.00000   0.00000   0.00000
  52       15G+3        0.00000   0.00000  -0.00000   0.00000  -0.00005
  53       15G-3        0.00000   0.00000   0.00033   0.00000   0.00000
  54       15G+4        0.00032   0.00020   0.00000   0.00032   0.00000
  55       15G-4        0.00000   0.00000   0.00000  -0.00000   0.00000
  56 2   H  1S          0.00077   0.03557   0.00000   0.06590   0.00000
  57        2S         -0.00107   0.08507   0.00000   0.17170   0.00000
  58        3S          0.00088   0.08134   0.00000   0.20998   0.00000
  59        4S         -0.00003   0.01084   0.00000   0.07760   0.00000
  60        5PX         0.00000   0.00000   0.00000   0.00000   0.00278
  61        5PY         0.00000   0.00000   0.00188   0.00000   0.00000
  62        5PZ        -0.00082  -0.00365   0.00000  -0.00345   0.00000
  63        6PX         0.00000   0.00000  -0.00000   0.00000   0.01366
  64        6PY         0.00000   0.00000   0.00549   0.00000  -0.00000
  65        6PZ         0.00391  -0.00933   0.00000  -0.01746   0.00000
  66        7PX         0.00000   0.00000   0.00000   0.00000   0.02127
  67        7PY         0.00000   0.00000   0.01185   0.00000   0.00000
  68        7PZ         0.00022  -0.00523   0.00000  -0.00638   0.00000
  69        8D 0       -0.00041   0.00102   0.00000   0.00182   0.00000
  70        8D+1        0.00000   0.00000   0.00000   0.00000  -0.00112
  71        8D-1        0.00000   0.00000  -0.00059   0.00000  -0.00000
  72        8D+2        0.00003  -0.00002   0.00000  -0.00001   0.00000
  73        8D-2       -0.00000   0.00000   0.00000   0.00000   0.00000
  74        9D 0       -0.00275   0.00179   0.00000   0.00522   0.00000
  75        9D+1        0.00000   0.00000   0.00000   0.00000  -0.00562
  76        9D-1        0.00000   0.00000  -0.00170   0.00000   0.00000
  77        9D+2        0.00019   0.00003   0.00000   0.00018   0.00000
  78        9D-2       -0.00000  -0.00000   0.00000   0.00000   0.00000
  79       10F 0        0.00100  -0.00028   0.00000  -0.00134   0.00000
  80       10F+1        0.00000   0.00000  -0.00000   0.00000   0.00101
  81       10F-1        0.00000   0.00000   0.00015   0.00000  -0.00000
  82       10F+2       -0.00017   0.00003   0.00000   0.00006   0.00000
  83       10F-2        0.00000   0.00000   0.00000   0.00000   0.00000
  84       10F+3        0.00000   0.00000  -0.00000   0.00000  -0.00000
  85       10F-3        0.00000   0.00000  -0.00001   0.00000  -0.00000
  86 3   H  1S          0.00077   0.03557   0.05707  -0.03295   0.00000
  87        2S         -0.00107   0.08507   0.14870  -0.08585  -0.00000
  88        3S          0.00088   0.08137   0.18187  -0.10502  -0.00000
  89        4S         -0.00003   0.01084   0.06721  -0.03881  -0.00000
  90        5PX        -0.00000  -0.00000  -0.00000   0.00000   0.00278
  91        5PY        -0.00071  -0.00316  -0.00212   0.00231  -0.00000
  92        5PZ         0.00041   0.00183   0.00231   0.00055   0.00000
  93        6PX         0.00000   0.00000   0.00000  -0.00000   0.01366
  94        6PY         0.00339  -0.00808  -0.01172   0.00994   0.00000
  95        6PZ        -0.00195   0.00466   0.00994  -0.00024  -0.00000
  96        7PX         0.00000   0.00000   0.00000  -0.00000   0.02128
  97        7PY         0.00019  -0.00454  -0.00183   0.00791   0.00000
  98        7PZ        -0.00011   0.00262   0.00790   0.00729  -0.00000
  99        8D 0        0.00003  -0.00012   0.00003   0.00049  -0.00000
 100        8D+1        0.00000  -0.00000  -0.00000  -0.00000   0.00056
 101        8D-1        0.00029  -0.00075  -0.00132   0.00042  -0.00000
 102        8D+2        0.00029  -0.00067  -0.00090   0.00081   0.00000
 103        8D-2       -0.00000   0.00000   0.00000  -0.00000  -0.00097
 104        9D 0        0.00022  -0.00024  -0.00003   0.00149   0.00000
 105        9D+1        0.00000   0.00000   0.00000  -0.00000   0.00281
 106        9D-1        0.00198  -0.00136  -0.00388   0.00126   0.00000
 107        9D+2        0.00190  -0.00115  -0.00248   0.00228   0.00000
 108        9D-2       -0.00000  -0.00000  -0.00000   0.00000  -0.00487
 109       10F 0        0.00031  -0.00010  -0.00046   0.00029   0.00000
 110       10F+1        0.00000  -0.00000   0.00000   0.00000   0.00007
 111       10F-1        0.00016  -0.00004  -0.00023  -0.00002   0.00000
 112       10F+2        0.00072  -0.00020  -0.00085   0.00045   0.00000
 113       10F-2       -0.00000  -0.00000  -0.00000   0.00000  -0.00069
 114       10F+3       -0.00000  -0.00000  -0.00000   0.00000  -0.00073
 115       10F-3       -0.00063   0.00016   0.00060  -0.00042  -0.00000
 116 4   H  1S          0.00077   0.03557  -0.05707  -0.03295  -0.00000
 117        2S         -0.00107   0.08507  -0.14870  -0.08585   0.00000
 118        3S          0.00088   0.08137  -0.18187  -0.10502   0.00000
 119        4S         -0.00003   0.01084  -0.06721  -0.03881   0.00000
 120        5PX         0.00000   0.00000  -0.00000  -0.00000   0.00278
 121        5PY         0.00071   0.00316  -0.00212  -0.00231  -0.00000
 122        5PZ         0.00041   0.00183  -0.00231   0.00055  -0.00000
 123        6PX        -0.00000  -0.00000   0.00000   0.00000   0.01366
 124        6PY        -0.00339   0.00808  -0.01172  -0.00994   0.00000
 125        6PZ        -0.00195   0.00466  -0.00994  -0.00024   0.00000
 126        7PX        -0.00000  -0.00000   0.00000   0.00000   0.02128
 127        7PY        -0.00019   0.00454  -0.00183  -0.00791   0.00000
 128        7PZ        -0.00011   0.00262  -0.00790   0.00729   0.00000
 129        8D 0        0.00003  -0.00012  -0.00003   0.00049   0.00000
 130        8D+1       -0.00000   0.00000  -0.00000   0.00000   0.00056
 131        8D-1       -0.00029   0.00075  -0.00132  -0.00042  -0.00000
 132        8D+2        0.00029  -0.00067   0.00090   0.00081  -0.00000
 133        8D-2       -0.00000   0.00000  -0.00000  -0.00000   0.00097
 134        9D 0        0.00022  -0.00024   0.00003   0.00149  -0.00000
 135        9D+1       -0.00000  -0.00000   0.00000   0.00000   0.00281
 136        9D-1       -0.00198   0.00136  -0.00388  -0.00126   0.00000
 137        9D+2        0.00190  -0.00115   0.00248   0.00228  -0.00000
 138        9D-2       -0.00000  -0.00000   0.00000   0.00000   0.00487
 139       10F 0        0.00031  -0.00010   0.00046   0.00029  -0.00000
 140       10F+1       -0.00000   0.00000   0.00000  -0.00000   0.00007
 141       10F-1       -0.00016   0.00004  -0.00023   0.00002   0.00000
 142       10F+2        0.00072  -0.00020   0.00085   0.00045  -0.00000
 143       10F-2       -0.00000  -0.00000   0.00000   0.00000   0.00069
 144       10F+3        0.00000   0.00000  -0.00000  -0.00000  -0.00073
 145       10F-3        0.00063  -0.00016   0.00060   0.00042  -0.00000
                           6         7         8         9        10
                           V         V         V         V         V
     Eigenvalues --     0.03264   0.09995   0.09995   0.18507   0.18508
   1 1   C  1S         -0.06129   0.00000  -0.00000   0.00000  -0.00000
   2        2S          0.09992   0.00000   0.00000   0.00000  -0.00000
   3        3S          0.05871   0.00000  -0.00001   0.00000   0.00012
   4        4S          1.11336   0.00000   0.00009   0.00000  -0.00110
   5        5S          3.60537   0.00000   0.00011   0.00000  -0.00175
   6        6PX         0.00000   0.00000   0.00000   0.00000   0.00000
   7        6PY         0.00000  -0.08622   0.00000  -0.03329   0.00000
   8        6PZ         0.00000   0.00000  -0.08622   0.00000   0.03329
   9        7PX         0.00000   0.00000   0.00000  -0.00000   0.00000
  10        7PY         0.00000  -0.14930   0.00000   0.01416   0.00000
  11        7PZ         0.00000   0.00000  -0.14930   0.00000  -0.01416
  12        8PX         0.00000   0.00000   0.00000   0.00000   0.00000
  13        8PY         0.00000  -0.38717   0.00000   1.83150   0.00000
  14        8PZ        -0.00001   0.00000  -0.38721   0.00000  -1.83143
  15        9PX         0.00000  -0.00000   0.00000  -0.00000   0.00000
  16        9PY         0.00000  -1.66052   0.00000   3.08054   0.00000
  17        9PZ        -0.00001   0.00000  -1.66056   0.00000  -3.08047
  18       10D 0       -0.00139   0.00000  -0.00066   0.00000   0.01606
  19       10D+1        0.00000   0.00000   0.00000   0.00000   0.00000
  20       10D-1        0.00000   0.00076   0.00000   0.01854   0.00000
  21       10D+2        0.00241   0.00000  -0.00038   0.00000   0.00927
  22       10D-2        0.00000   0.00000   0.00000   0.00000  -0.00000
  23       11D 0        0.01024   0.00000   0.03389   0.00000  -0.14637
  24       11D+1        0.00000  -0.00000   0.00000  -0.00000   0.00000
  25       11D-1        0.00000  -0.03914   0.00000  -0.16898   0.00000
  26       11D+2       -0.01775   0.00000   0.01956   0.00000  -0.08442
  27       11D-2       -0.00000   0.00000  -0.00000   0.00000   0.00000
  28       12D 0        0.11712   0.00000  -0.06578   0.00000  -0.90809
  29       12D+1        0.00000   0.00000   0.00000  -0.00000   0.00000
  30       12D-1        0.00000   0.07592   0.00000  -1.04848   0.00000
  31       12D+2       -0.20288   0.00000  -0.03799   0.00000  -0.52404
  32       12D-2        0.00000   0.00000   0.00000   0.00000   0.00000
  33       13F 0        0.00152   0.00000   0.00221   0.00000  -0.00120
  34       13F+1        0.00000   0.00000   0.00000   0.00000   0.00000
  35       13F-1        0.00000   0.00090   0.00000   0.00049   0.00000
  36       13F+2        0.00117   0.00000  -0.00285   0.00000   0.00154
  37       13F-2        0.00000   0.00000   0.00000   0.00000  -0.00000
  38       13F+3        0.00000  -0.00000   0.00000  -0.00000   0.00000
  39       13F-3        0.00000  -0.00349   0.00000  -0.00189   0.00000
  40       14F 0        0.01891   0.00000  -0.00089   0.00000  -0.06791
  41       14F+1        0.00000  -0.00000   0.00000   0.00000   0.00000
  42       14F-1        0.00000  -0.00036   0.00000   0.02772   0.00000
  43       14F+2        0.01465   0.00000   0.00116   0.00000   0.08759
  44       14F-2        0.00000   0.00000   0.00000   0.00000  -0.00000
  45       14F+3        0.00000   0.00000   0.00000  -0.00000   0.00000
  46       14F-3        0.00000   0.00142   0.00000  -0.10732   0.00000
  47       15G 0        0.00061   0.00000   0.00062   0.00000  -0.01430
  48       15G+1        0.00000  -0.00000   0.00000   0.00000   0.00000
  49       15G-1        0.00000  -0.00137   0.00000   0.00575   0.00000
  50       15G+2       -0.00091   0.00000  -0.00148   0.00000  -0.00115
  51       15G-2       -0.00000   0.00000   0.00000   0.00000   0.00000
  52       15G+3        0.00000  -0.00000   0.00000   0.00000   0.00000
  53       15G-3        0.00000   0.00166   0.00000   0.01461   0.00000
  54       15G+4        0.00121   0.00000  -0.00143   0.00000   0.00638
  55       15G-4        0.00000   0.00000  -0.00000   0.00000  -0.00000
  56 2   H  1S         -0.00583   0.00000   0.00171   0.00000   0.03135
  57        2S         -0.01658   0.00000   0.02171   0.00000   0.08810
  58        3S         -0.63781   0.00000   0.15339   0.00000   3.52478
  59        4S         -1.36040   0.00000   2.95361   0.00000   1.51426
  60        5PX         0.00000  -0.00000   0.00000  -0.00000   0.00000
  61        5PY         0.00000  -0.00029   0.00000   0.00566   0.00000
  62        5PZ        -0.00234   0.00000  -0.00295   0.00000   0.02004
  63        6PX         0.00000   0.00000   0.00000  -0.00000   0.00000
  64        6PY         0.00000  -0.01613   0.00000  -0.00081   0.00000
  65        6PZ        -0.00772   0.00000   0.05991   0.00000  -0.18298
  66        7PX         0.00000   0.00000   0.00000   0.00000   0.00000
  67        7PY         0.00000   0.03470   0.00000   0.21621   0.00000
  68        7PZ         0.30032   0.00000  -0.18101   0.00000  -0.92067
  69        8D 0        0.00286   0.00000  -0.00400   0.00000   0.00191
  70        8D+1        0.00000   0.00000   0.00000  -0.00000   0.00000
  71        8D-1        0.00000   0.00060   0.00000   0.00123   0.00000
  72        8D+2       -0.00133   0.00000  -0.00001   0.00000  -0.00390
  73        8D-2        0.00000   0.00000   0.00000   0.00000  -0.00000
  74        9D 0       -0.03117   0.00000   0.00769   0.00000   0.11815
  75        9D+1        0.00000  -0.00000   0.00000   0.00000   0.00000
  76        9D-1        0.00000  -0.00654   0.00000  -0.01446   0.00000
  77        9D+2        0.00794   0.00000   0.00107   0.00000   0.01646
  78        9D-2       -0.00000   0.00000  -0.00000   0.00000   0.00000
  79       10F 0        0.00185   0.00000   0.00134   0.00000  -0.01199
  80       10F+1        0.00000   0.00000   0.00000  -0.00000   0.00000
  81       10F-1        0.00000   0.00199   0.00000   0.00392   0.00000
  82       10F+2       -0.00036   0.00000   0.00009   0.00000   0.00154
  83       10F-2        0.00000   0.00000  -0.00000   0.00000   0.00000
  84       10F+3        0.00000   0.00000   0.00000   0.00000   0.00000
  85       10F-3        0.00000   0.00006   0.00000   0.00095   0.00000
  86 3   H  1S         -0.00583   0.00148  -0.00085  -0.02715  -0.01567
  87        2S         -0.01658   0.01880  -0.01085  -0.07630  -0.04406
  88        3S         -0.63787   0.13283  -0.07678  -3.05191  -1.76115
  89        4S         -1.36039   2.55789  -1.47683  -1.31121  -0.75672
  90        5PX        -0.00000   0.00000   0.00000   0.00000   0.00000
  91        5PY        -0.00202  -0.00228   0.00115  -0.01361  -0.01112
  92        5PZ         0.00117   0.00115  -0.00095   0.01113   0.00076
  93        6PX         0.00000  -0.00000   0.00000  -0.00000  -0.00000
  94        6PY        -0.00668   0.04090  -0.03292   0.13700   0.07952
  95        6PZ         0.00386  -0.03292   0.00288  -0.07956  -0.04511
  96        7PX        -0.00000   0.00000   0.00000  -0.00000  -0.00000
  97        7PY         0.26009  -0.12708   0.09342   0.74436   0.30464
  98        7PZ        -0.15017   0.09341  -0.01926  -0.30491  -0.39211
  99        8D 0        0.00051   0.00021  -0.00065  -0.00245  -0.00035
 100        8D+1        0.00000   0.00000   0.00000   0.00000   0.00000
 101        8D-1       -0.00157   0.00276  -0.00124   0.00009  -0.00066
 102        8D+2       -0.00269   0.00211  -0.00152   0.00292   0.00230
 103        8D-2        0.00000   0.00000   0.00000  -0.00000   0.00000
 104        9D 0       -0.00126   0.00102   0.00508   0.02747   0.00333
 105        9D+1        0.00000  -0.00000   0.00000  -0.00000  -0.00000
 106        9D-1        0.01994  -0.00703   0.00029   0.07926   0.05409
 107        9D+2        0.02521  -0.00233   0.00462   0.06066   0.02775
 108        9D-2       -0.00000  -0.00000  -0.00000   0.00000   0.00000
 109       10F 0        0.00055   0.00069  -0.00012   0.00359   0.00203
 110       10F+1        0.00000  -0.00000  -0.00000  -0.00000  -0.00000
 111       10F-1        0.00031  -0.00077  -0.00166  -0.00034   0.00430
 112       10F+2        0.00132   0.00070  -0.00075   0.00744   0.00434
 113       10F-2       -0.00000   0.00000  -0.00000   0.00000   0.00000
 114       10F+3       -0.00000  -0.00000  -0.00000   0.00000   0.00000
 115       10F-3       -0.00119  -0.00089  -0.00029  -0.00674  -0.00269
 116 4   H  1S         -0.00583  -0.00148  -0.00085   0.02715  -0.01567
 117        2S         -0.01658  -0.01880  -0.01085   0.07630  -0.04406
 118        3S         -0.63787  -0.13283  -0.07678   3.05191  -1.76115
 119        4S         -1.36039  -2.55789  -1.47683   1.31121  -0.75672
 120        5PX         0.00000   0.00000  -0.00000   0.00000  -0.00000
 121        5PY         0.00202  -0.00228  -0.00115  -0.01361   0.01112
 122        5PZ         0.00117  -0.00115  -0.00095  -0.01113   0.00076
 123        6PX        -0.00000  -0.00000  -0.00000  -0.00000   0.00000
 124        6PY         0.00668   0.04090   0.03292   0.13700  -0.07952
 125        6PZ         0.00386   0.03292   0.00288   0.07956  -0.04511
 126        7PX         0.00000   0.00000  -0.00000  -0.00000   0.00000
 127        7PY        -0.26009  -0.12708  -0.09342   0.74436  -0.30464
 128        7PZ        -0.15017  -0.09341  -0.01926   0.30491  -0.39211
 129        8D 0        0.00051  -0.00021  -0.00065   0.00245  -0.00035
 130        8D+1       -0.00000   0.00000  -0.00000   0.00000  -0.00000
 131        8D-1        0.00157   0.00276   0.00124   0.00009   0.00066
 132        8D+2       -0.00269  -0.00211  -0.00152  -0.00292   0.00230
 133        8D-2        0.00000  -0.00000   0.00000   0.00000   0.00000
 134        9D 0       -0.00126  -0.00102   0.00508  -0.02747   0.00333
 135        9D+1       -0.00000  -0.00000  -0.00000  -0.00000   0.00000
 136        9D-1       -0.01994  -0.00703  -0.00029   0.07926  -0.05409
 137        9D+2        0.02521   0.00233   0.00462  -0.06066   0.02775
 138        9D-2       -0.00000   0.00000  -0.00000  -0.00000   0.00000
 139       10F 0        0.00055  -0.00069  -0.00012  -0.00359   0.00203
 140       10F+1       -0.00000  -0.00000   0.00000  -0.00000   0.00000
 141       10F-1       -0.00031  -0.00077   0.00166  -0.00034  -0.00430
 142       10F+2        0.00132  -0.00070  -0.00075  -0.00744   0.00434
 143       10F-2       -0.00000  -0.00000  -0.00000  -0.00000   0.00000
 144       10F+3        0.00000  -0.00000   0.00000   0.00000  -0.00000
 145       10F-3        0.00119  -0.00089   0.00029  -0.00674   0.00269
                          11        12        13        14        15
                           V         V         V         V         V
     Eigenvalues --     0.21693   0.26301   0.34717   0.38462   0.38462
   1 1   C  1S          0.00000  -0.01720   0.08648   0.00000   0.00002
   2        2S          0.00000   0.04840  -0.12942   0.00000  -0.00003
   3        3S          0.00000  -0.10244  -0.66037   0.00000  -0.00011
   4        4S          0.00000   1.45674   4.03455   0.00000   0.00050
   5        5S          0.00000   3.43458  11.48514   0.00000   0.00219
   6        6PX        -0.13629   0.00000   0.00000   0.00000   0.00000
   7        6PY         0.00000   0.00000   0.00000  -0.13108   0.00000
   8        6PZ         0.00000   0.00000  -0.00002   0.00000   0.13108
   9        7PX        -0.14976   0.00000   0.00000  -0.00000   0.00000
  10        7PY        -0.00000   0.00000   0.00000  -0.26312   0.00000
  11        7PZ         0.00000  -0.00001  -0.00005   0.00000   0.26312
  12        8PX        -0.86434   0.00000   0.00000   0.00000   0.00000
  13        8PY        -0.00000   0.00000   0.00000   1.68420   0.00000
  14        8PZ         0.00000   0.00017   0.00079   0.00000  -1.68420
  15        9PX         1.38524   0.00000   0.00000   0.00000   0.00000
  16        9PY         0.00000   0.00000   0.00000   3.69598   0.00000
  17        9PZ         0.00000  -0.00012   0.00077   0.00000  -3.69598
  18       10D 0        0.00000  -0.01334  -0.00391   0.00000  -0.01001
  19       10D+1        0.00000   0.00000   0.00000  -0.00000   0.00000
  20       10D-1       -0.00000   0.00000   0.00000  -0.01156   0.00000
  21       10D+2        0.00000   0.02310   0.00678   0.00000  -0.00578
  22       10D-2        0.00000  -0.00000   0.00000   0.00000   0.00000
  23       11D 0        0.00000   0.06132   0.14394   0.00000  -0.08496
  24       11D+1        0.00001   0.00000   0.00000  -0.00000   0.00000
  25       11D-1        0.00000   0.00000   0.00000  -0.09812   0.00000
  26       11D+2        0.00000  -0.10619  -0.24922   0.00000  -0.04910
  27       11D-2        0.00000   0.00000  -0.00000   0.00000   0.00000
  28       12D 0        0.00000   0.04145   0.65650   0.00000  -1.08492
  29       12D+1        0.00007   0.00000   0.00000  -0.00000   0.00000
  30       12D-1        0.00000   0.00000   0.00000  -1.25285   0.00000
  31       12D+2        0.00000  -0.07169  -1.13631   0.00000  -0.62662
  32       12D-2        0.00000   0.00000   0.00000   0.00000   0.00000
  33       13F 0        0.00000   0.00952   0.01771   0.00000   0.00184
  34       13F+1       -0.00444   0.00000   0.00000  -0.00000   0.00000
  35       13F-1       -0.00000   0.00000   0.00000  -0.00075   0.00000
  36       13F+2        0.00000   0.00737   0.01372   0.00000  -0.00237
  37       13F-2        0.00000   0.00000   0.00000   0.00000  -0.00000
  38       13F+3        0.00573   0.00000   0.00000  -0.00000   0.00000
  39       13F-3        0.00000   0.00000   0.00000   0.00290   0.00000
  40       14F 0        0.00000   0.08359   0.16423   0.00000  -0.06364
  41       14F+1       -0.01611   0.00000   0.00000   0.00000   0.00000
  42       14F-1       -0.00000   0.00000   0.00000   0.02598   0.00000
  43       14F+2        0.00000   0.06473   0.12715   0.00000   0.08222
  44       14F-2        0.00000  -0.00000  -0.00000   0.00000  -0.00000
  45       14F+3        0.02083   0.00000   0.00000  -0.00000   0.00000
  46       14F-3        0.00000   0.00000   0.00000  -0.10067   0.00000
  47       15G 0        0.00000   0.00193   0.00425   0.00000  -0.01101
  48       15G+1       -0.01309   0.00000   0.00000   0.00000   0.00000
  49       15G-1       -0.00000   0.00000   0.00000   0.01100   0.00000
  50       15G+2        0.00000  -0.00287  -0.00632   0.00000  -0.00708
  51       15G-2        0.00000   0.00000   0.00000   0.00000   0.00000
  52       15G+3       -0.01485   0.00000   0.00000   0.00000   0.00000
  53       15G-3       -0.00000   0.00000   0.00000   0.00711   0.00000
  54       15G+4        0.00000   0.00379   0.00837   0.00000   0.00023
  55       15G-4        0.00000  -0.00000  -0.00000   0.00000  -0.00000
  56 2   H  1S          0.00000  -0.04490   0.02255   0.00000  -0.05085
  57        2S          0.00000  -0.06690   0.09260   0.00000  -0.05758
  58        3S          0.00000  -1.80459  -3.48962   0.00000   2.28913
  59        4S          0.00000  -0.19058  -2.44220   0.00000   3.98403
  60        5PX        -0.01036   0.00000   0.00000  -0.00000   0.00000
  61        5PY        -0.00000   0.00000   0.00000  -0.00996   0.00000
  62        5PZ         0.00000  -0.01860  -0.00751   0.00000  -0.01276
  63        6PX         0.04943   0.00000   0.00000  -0.00000   0.00000
  64        6PY         0.00000   0.00000   0.00000   0.00540   0.00000
  65        6PZ         0.00000   0.11733   0.13223   0.00000  -0.02465
  66        7PX        -0.06642   0.00000   0.00000  -0.00000   0.00000
  67        7PY         0.00000   0.00000   0.00000  -0.16719   0.00000
  68        7PZ         0.00000   0.30171   1.70793   0.00000  -1.45932
  69        8D 0        0.00000  -0.00150   0.00733   0.00000  -0.00701
  70        8D+1        0.00104   0.00000   0.00000  -0.00000   0.00000
  71        8D-1        0.00000   0.00000   0.00000   0.00172   0.00000
  72        8D+2        0.00000  -0.00106  -0.00593   0.00000  -0.00166
  73        8D-2        0.00000  -0.00000   0.00000   0.00000  -0.00000
  74        9D 0        0.00000  -0.06876  -0.18989   0.00000   0.10150
  75        9D+1       -0.02752   0.00000   0.00000   0.00000   0.00000
  76        9D-1       -0.00000   0.00000   0.00000   0.03346   0.00000
  77        9D+2        0.00000   0.00554   0.03063   0.00000   0.00339
  78        9D-2        0.00000   0.00000  -0.00000   0.00000  -0.00000
  79       10F 0        0.00000   0.00777   0.01392   0.00000  -0.00345
  80       10F+1        0.00560   0.00000   0.00000  -0.00000   0.00000
  81       10F-1        0.00000   0.00000   0.00000  -0.00710   0.00000
  82       10F+2        0.00000   0.00028  -0.00092   0.00000   0.00189
  83       10F-2        0.00000  -0.00000   0.00000   0.00000   0.00000
  84       10F+3        0.00048   0.00000   0.00000   0.00000   0.00000
  85       10F-3        0.00000   0.00000   0.00000   0.00041   0.00000
  86 3   H  1S         -0.00000  -0.04491   0.02253   0.04404   0.02543
  87        2S          0.00000  -0.06690   0.09260   0.04987   0.02880
  88        3S          0.00000  -1.80451  -3.48827  -1.98292  -1.14543
  89        4S          0.00000  -0.19054  -2.44097  -3.45068  -1.99272
  90        5PX        -0.01037  -0.00000  -0.00000  -0.00000   0.00000
  91        5PY         0.00000  -0.01611  -0.00650   0.00708   0.00984
  92        5PZ        -0.00000   0.00930   0.00375  -0.00984   0.00428
  93        6PX         0.04944  -0.00000   0.00000  -0.00000  -0.00000
  94        6PY        -0.00000   0.10160   0.11446   0.01985   0.00837
  95        6PZ         0.00000  -0.05866  -0.06609  -0.00835  -0.01023
  96        7PX        -0.06634  -0.00000  -0.00000  -0.00000   0.00000
  97        7PY        -0.00000   0.26119   1.47848   1.05288   0.70464
  98        7PZ         0.00000  -0.15084  -0.85368  -0.70442  -0.23966
  99        8D 0       -0.00000   0.00088   0.00293  -0.00234   0.00014
 100        8D+1       -0.00052   0.00000   0.00000   0.00000   0.00000
 101        8D-1       -0.00000   0.00159  -0.00293  -0.00474  -0.00373
 102        8D+2        0.00000   0.00031  -0.00846  -0.00342  -0.00111
 103        8D-2        0.00090  -0.00000  -0.00000  -0.00000   0.00000
 104        9D 0       -0.00000   0.00499   0.00382   0.00034   0.02918
 105        9D+1        0.01377  -0.00000  -0.00000  -0.00000  -0.00000
 106        9D-1       -0.00000   0.04917   0.12912   0.07558   0.02434
 107        9D+2       -0.00000   0.04811   0.14244   0.04803   0.04448
 108        9D-2       -0.02385   0.00000   0.00000   0.00000   0.00000
 109       10F 0       -0.00000   0.00361   0.00542  -0.00046   0.00107
 110       10F+1       -0.00000   0.00000   0.00000  -0.00000  -0.00000
 111       10F-1       -0.00000   0.00098   0.00201   0.00382  -0.00506
 112       10F+2       -0.00000   0.00566   0.01005   0.00281  -0.00009
 113       10F-2       -0.00409   0.00000  -0.00000   0.00000   0.00000
 114       10F+3       -0.00386   0.00000   0.00000   0.00000   0.00000
 115       10F-3        0.00000  -0.00380  -0.00776  -0.00125  -0.00389
 116 4   H  1S          0.00000  -0.04491   0.02253  -0.04404   0.02543
 117        2S         -0.00000  -0.06690   0.09260  -0.04987   0.02880
 118        3S         -0.00000  -1.80451  -3.48827   1.98292  -1.14543
 119        4S         -0.00000  -0.19054  -2.44097   3.45068  -1.99272
 120        5PX        -0.01037   0.00000   0.00000  -0.00000  -0.00000
 121        5PY         0.00000   0.01611   0.00650   0.00708  -0.00984
 122        5PZ         0.00000   0.00930   0.00375   0.00984   0.00428
 123        6PX         0.04944   0.00000  -0.00000  -0.00000   0.00000
 124        6PY        -0.00000  -0.10160  -0.11446   0.01985  -0.00837
 125        6PZ        -0.00000  -0.05866  -0.06609   0.00835  -0.01023
 126        7PX        -0.06634   0.00000   0.00000  -0.00000  -0.00000
 127        7PY        -0.00000  -0.26119  -1.47848   1.05288  -0.70464
 128        7PZ        -0.00000  -0.15084  -0.85368   0.70442  -0.23966
 129        8D 0        0.00000   0.00088   0.00293   0.00234   0.00014
 130        8D+1       -0.00052  -0.00000  -0.00000   0.00000  -0.00000
 131        8D-1       -0.00000  -0.00159   0.00293  -0.00474   0.00373
 132        8D+2       -0.00000   0.00031  -0.00846   0.00342  -0.00111
 133        8D-2       -0.00090  -0.00000  -0.00000   0.00000   0.00000
 134        9D 0        0.00000   0.00499   0.00382  -0.00034   0.02918
 135        9D+1        0.01377   0.00000   0.00000  -0.00000   0.00000
 136        9D-1       -0.00000  -0.04917  -0.12912   0.07558  -0.02434
 137        9D+2        0.00000   0.04811   0.14244  -0.04803   0.04448
 138        9D-2        0.02385   0.00000   0.00000  -0.00000   0.00000
 139       10F 0        0.00000   0.00361   0.00542   0.00046   0.00107
 140       10F+1       -0.00000  -0.00000  -0.00000  -0.00000   0.00000
 141       10F-1       -0.00000  -0.00098  -0.00201   0.00382   0.00506
 142       10F+2        0.00000   0.00566   0.01005  -0.00281  -0.00009
 143       10F-2        0.00409   0.00000  -0.00000  -0.00000   0.00000
 144       10F+3       -0.00386  -0.00000  -0.00000   0.00000  -0.00000
 145       10F-3        0.00000   0.00380   0.00776  -0.00125   0.00389
                          16        17        18        19        20
                           V         V         V         V         V
     Eigenvalues --     0.40990   0.40990   0.62244   0.62896   0.65654
   1 1   C  1S         -0.00000   0.00000   0.00000  -0.02382   0.00000
   2        2S          0.00000   0.00000   0.00000  -0.00864   0.00000
   3        3S         -0.00000   0.00000   0.00000  -0.86765   0.00000
   4        4S          0.00000   0.00000   0.00000   3.11054   0.00000
   5        5S         -0.00000   0.00000   0.00000   5.44006   0.00000
   6        6PX         0.00000   0.00000   0.00000   0.00000  -0.00000
   7        6PY         0.00000  -0.00000  -0.00000   0.00000  -0.08943
   8        6PZ        -0.00000   0.00000   0.00000   0.00002   0.00000
   9        7PX         0.00000   0.00001   0.00000   0.00000   0.00000
  10        7PY         0.00000  -0.00000   0.00000   0.00000  -0.03490
  11        7PZ        -0.00000   0.00000   0.00000   0.00001   0.00000
  12        8PX         0.00000   0.00002  -0.00000   0.00000  -0.00000
  13        8PY         0.00000  -0.00000   0.00007   0.00000  -4.84448
  14        8PZ        -0.00000   0.00000   0.00000   0.00096   0.00000
  15        9PX         0.00000  -0.00001  -0.00000   0.00000  -0.00000
  16        9PY         0.00000  -0.00000   0.00000   0.00000  -3.26168
  17        9PZ         0.00000   0.00000   0.00000   0.00057   0.00000
  18       10D 0        0.00000   0.00000   0.00000  -0.00039   0.00000
  19       10D+1        0.00000   0.03901   0.00000   0.00000  -0.00000
  20       10D-1        0.00000  -0.00000  -0.00000   0.00000  -0.00603
  21       10D+2        0.00000   0.00000   0.00000   0.00068   0.00000
  22       10D-2        0.03901   0.00000   0.00000  -0.00000   0.00000
  23       11D 0       -0.00000   0.00000   0.00000   0.10618   0.00000
  24       11D+1        0.00000  -0.06080  -0.00000   0.00000   0.00000
  25       11D-1        0.00000   0.00000   0.00000   0.00000   0.29890
  26       11D+2       -0.00000   0.00000   0.00000  -0.18378   0.00000
  27       11D-2       -0.06080   0.00000   0.00000  -0.00000   0.00000
  28       12D 0       -0.00000   0.00000   0.00000   1.09255   0.00000
  29       12D+1        0.00000   0.65813   0.00000   0.00000   0.00000
  30       12D-1        0.00000   0.00000   0.00002   0.00000   2.73564
  31       12D+2       -0.00000   0.00000   0.00000  -1.89126   0.00000
  32       12D-2        0.65814   0.00000   0.00000  -0.00000   0.00000
  33       13F 0        0.00000   0.00000   0.00000  -0.00292   0.00000
  34       13F+1        0.00000   0.00144   0.00000   0.00000  -0.00000
  35       13F-1        0.00000  -0.00000   0.01686   0.00000  -0.00045
  36       13F+2        0.00000   0.00000   0.00000  -0.00226   0.00000
  37       13F-2       -0.00183   0.00000   0.00000   0.00000   0.00000
  38       13F+3        0.00000   0.00112  -0.00000   0.00000  -0.00000
  39       13F-3        0.00000   0.00000   0.00435   0.00000   0.00174
  40       14F 0        0.00000   0.00000   0.00000   0.47318   0.00000
  41       14F+1        0.00000  -0.00368  -0.00000   0.00000  -0.00000
  42       14F-1        0.00000  -0.00000  -0.83237   0.00000  -0.07619
  43       14F+2        0.00000   0.00000   0.00000   0.36645   0.00000
  44       14F-2        0.00465   0.00000   0.00000   0.00000   0.00000
  45       14F+3        0.00000  -0.00285   0.00000   0.00000   0.00000
  46       14F-3        0.00000   0.00000  -0.21492   0.00000   0.29511
  47       15G 0       -0.00000   0.00000   0.00000   0.01585   0.00000
  48       15G+1        0.00000   0.00426  -0.00000   0.00000  -0.00000
  49       15G-1        0.00000  -0.00000   0.00000   0.00000  -0.04297
  50       15G+2       -0.00000   0.00000   0.00000  -0.02360   0.00000
  51       15G-2        0.00201   0.00000   0.00000  -0.00000   0.00000
  52       15G+3        0.00000  -0.00375  -0.00000   0.00000  -0.00000
  53       15G-3        0.00000  -0.00000   0.00000   0.00000  -0.05560
  54       15G+4        0.00000   0.00000   0.00000   0.03122   0.00000
  55       15G-4       -0.00531   0.00000   0.00000   0.00000   0.00000
  56 2   H  1S         -0.00000   0.00000   0.00000   0.01147   0.00000
  57        2S          0.00000   0.00000   0.00000  -0.37341   0.00000
  58        3S          0.00000   0.00000   0.00000  -2.92953   0.00000
  59        4S         -0.00000   0.00000   0.00000  -0.50333   0.00000
  60        5PX         0.00000   0.03305  -0.00000   0.00000   0.00000
  61        5PY         0.00000  -0.00000  -0.00429   0.00000   0.02356
  62        5PZ         0.00000   0.00000   0.00000  -0.02687   0.00000
  63        6PX         0.00000  -0.08832   0.00000   0.00000  -0.00000
  64        6PY         0.00000   0.00000   0.15548   0.00000  -0.04159
  65        6PZ        -0.00000   0.00000   0.00000   0.30651   0.00000
  66        7PX         0.00000   0.42105  -0.00000   0.00000   0.00000
  67        7PY         0.00000  -0.00000   1.20180   0.00000   0.41689
  68        7PZ        -0.00000   0.00000   0.00000   0.27712   0.00000
  69        8D 0        0.00000   0.00000   0.00000  -0.01400   0.00000
  70        8D+1        0.00000  -0.00497   0.00000   0.00000   0.00000
  71        8D-1        0.00000   0.00000   0.00979   0.00000  -0.00084
  72        8D+2       -0.00000   0.00000   0.00000   0.00070   0.00000
  73        8D-2        0.00176   0.00000   0.00000  -0.00000   0.00000
  74        9D 0        0.00000   0.00000   0.00000  -0.02758   0.00000
  75        9D+1        0.00000   0.00744  -0.00000   0.00000  -0.00000
  76        9D-1        0.00000  -0.00000  -0.29267   0.00000  -0.05686
  77        9D+2       -0.00000   0.00000   0.00000  -0.03725   0.00000
  78        9D-2       -0.00351   0.00000   0.00000  -0.00000   0.00000
  79       10F 0       -0.00000   0.00000   0.00000  -0.00456   0.00000
  80       10F+1        0.00000   0.01009   0.00000   0.00000   0.00000
  81       10F-1        0.00000   0.00000   0.03289   0.00000   0.01394
  82       10F+2        0.00000   0.00000   0.00000   0.00889   0.00000
  83       10F-2        0.00015   0.00000   0.00000   0.00000   0.00000
  84       10F+3        0.00000   0.00066   0.00000   0.00000  -0.00000
  85       10F-3        0.00000   0.00000   0.00616   0.00000  -0.00304
  86 3   H  1S          0.00000  -0.00000  -0.00000   0.01147  -0.01315
  87        2S         -0.00000   0.00000  -0.00000  -0.37335   0.17187
  88        3S         -0.00000   0.00000  -0.00004  -2.92756   5.84322
  89        4S          0.00000   0.00000  -0.00001  -0.50305   1.02101
  90        5PX         0.02862  -0.01653   0.00000  -0.00000   0.00000
  91        5PY        -0.00000   0.00000   0.00215  -0.02326   0.04099
  92        5PZ         0.00000  -0.00000   0.00372   0.01343  -0.01006
  93        6PX        -0.07649   0.04416  -0.00000   0.00000   0.00000
  94        6PY         0.00000  -0.00000  -0.07774   0.26534  -0.31597
  95        6PZ        -0.00000   0.00000  -0.13465  -0.15318   0.15842
  96        7PX         0.36464  -0.21054   0.00000  -0.00000   0.00000
  97        7PY         0.00000  -0.00000  -0.60088   0.23962  -0.88580
  98        7PZ        -0.00000   0.00000  -1.04083  -0.13841   0.75212
  99        8D 0        0.00000   0.00000   0.00734   0.00129  -0.00119
 100        8D+1        0.00291   0.00008  -0.00000   0.00000  -0.00000
 101        8D-1        0.00000  -0.00000  -0.00490   0.01019  -0.00978
 102        8D+2        0.00000  -0.00000   0.00424   0.00953  -0.00827
 103        8D-2       -0.00329   0.00291   0.00000   0.00000   0.00000
 104        9D 0        0.00000  -0.00000  -0.21951   0.02764   0.01976
 105        9D+1       -0.00474  -0.00077  -0.00000   0.00000   0.00000
 106        9D-1        0.00000  -0.00000   0.14634   0.03680  -0.07792
 107        9D+2        0.00000  -0.00000  -0.12673  -0.00540  -0.05853
 108        9D-2        0.00470  -0.00474  -0.00000  -0.00000  -0.00000
 109       10F 0        0.00000  -0.00000  -0.00120   0.00446   0.00484
 110       10F+1        0.00008  -0.00017  -0.00000  -0.00000   0.00000
 111       10F-1        0.00000   0.00000   0.03205  -0.00212  -0.00608
 112       10F+2        0.00000  -0.00000   0.00154  -0.00275  -0.00071
 113       10F-2       -0.00625   0.00370   0.00000  -0.00000  -0.00000
 114       10F+3       -0.00614   0.00345   0.00000  -0.00000  -0.00000
 115       10F-3       -0.00000   0.00000   0.00944   0.00824  -0.00190
 116 4   H  1S          0.00000   0.00000   0.00000   0.01147   0.01315
 117        2S         -0.00000  -0.00000   0.00000  -0.37335  -0.17187
 118        3S         -0.00000  -0.00000   0.00004  -2.92756  -5.84322
 119        4S          0.00000  -0.00000   0.00001  -0.50305  -1.02101
 120        5PX        -0.02862  -0.01653   0.00000   0.00000   0.00000
 121        5PY         0.00000   0.00000   0.00215   0.02326   0.04099
 122        5PZ         0.00000   0.00000  -0.00372   0.01343   0.01006
 123        6PX         0.07649   0.04416  -0.00000  -0.00000   0.00000
 124        6PY        -0.00000  -0.00000  -0.07774  -0.26534  -0.31597
 125        6PZ        -0.00000  -0.00000   0.13465  -0.15318  -0.15842
 126        7PX        -0.36464  -0.21054   0.00000   0.00000   0.00000
 127        7PY        -0.00000  -0.00000  -0.60088  -0.23962  -0.88580
 128        7PZ        -0.00000  -0.00000   1.04083  -0.13841  -0.75212
 129        8D 0        0.00000  -0.00000  -0.00734   0.00129   0.00119
 130        8D+1       -0.00291   0.00008  -0.00000  -0.00000  -0.00000
 131        8D-1       -0.00000  -0.00000  -0.00490  -0.01019  -0.00978
 132        8D+2        0.00000   0.00000  -0.00424   0.00953   0.00827
 133        8D-2       -0.00329  -0.00291  -0.00000   0.00000  -0.00000
 134        9D 0        0.00000   0.00000   0.21951   0.02764  -0.01976
 135        9D+1        0.00474  -0.00077  -0.00000  -0.00000   0.00000
 136        9D-1       -0.00000  -0.00000   0.14634  -0.03680  -0.07792
 137        9D+2        0.00000   0.00000   0.12673  -0.00540   0.05853
 138        9D-2        0.00470   0.00474   0.00000  -0.00000   0.00000
 139       10F 0        0.00000   0.00000   0.00120   0.00446  -0.00484
 140       10F+1       -0.00008  -0.00017  -0.00000   0.00000   0.00000
 141       10F-1       -0.00000   0.00000   0.03205   0.00212  -0.00608
 142       10F+2        0.00000   0.00000  -0.00154  -0.00275   0.00071
 143       10F-2       -0.00625  -0.00370  -0.00000  -0.00000   0.00000
 144       10F+3        0.00614   0.00345   0.00000   0.00000  -0.00000
 145       10F-3        0.00000   0.00000   0.00944  -0.00824  -0.00190
                          21        22        23        24        25
                           V         V         V         V         V
     Eigenvalues --     0.65654   0.72265   0.77103   0.77103   0.93624
   1 1   C  1S          0.00000   0.00000   0.00000  -0.00000   0.00000
   2        2S         -0.00002   0.00000   0.00000   0.00000   0.00000
   3        3S         -0.00010   0.00000   0.00000  -0.00000   0.00000
   4        4S         -0.00041   0.00000   0.00000   0.00000   0.00000
   5        5S          0.00081   0.00000   0.00000   0.00000   0.00000
   6        6PX         0.00000   0.06595  -0.00001   0.00000   0.00000
   7        6PY         0.00000  -0.00000   0.00000   0.00000  -0.07198
   8        6PZ        -0.08943   0.00000   0.00000  -0.00000   0.00000
   9        7PX         0.00000   0.10556  -0.00000   0.00000   0.00000
  10        7PY         0.00000   0.00000  -0.00000   0.00000  -0.31664
  11        7PZ        -0.03489   0.00000   0.00000   0.00000   0.00000
  12        8PX         0.00000   1.36051  -0.00022   0.00000  -0.00000
  13        8PY         0.00000   0.00000  -0.00000   0.00000  -8.74230
  14        8PZ        -4.84430   0.00000   0.00000   0.00000   0.00000
  15        9PX         0.00000   0.96743  -0.00017   0.00000   0.00000
  16        9PY         0.00000  -0.00000  -0.00000   0.00000  -2.35637
  17        9PZ        -3.26168   0.00000   0.00000   0.00000   0.00000
  18       10D 0        0.00522   0.00000   0.00000  -0.00000   0.00000
  19       10D+1        0.00000  -0.00000   0.00230   0.00000   0.00000
  20       10D-1        0.00000   0.00000  -0.00000   0.00000  -0.03471
  21       10D+2        0.00301   0.00000   0.00000   0.00000   0.00000
  22       10D-2       -0.00000   0.00000   0.00000   0.00230   0.00000
  23       11D 0       -0.25884   0.00000   0.00000   0.00000   0.00000
  24       11D+1        0.00000   0.00003   0.14626   0.00000  -0.00000
  25       11D-1        0.00000  -0.00000   0.00000   0.00000   0.72436
  26       11D+2       -0.14943   0.00000   0.00000  -0.00000   0.00000
  27       11D-2        0.00000   0.00000   0.00000   0.14625   0.00000
  28       12D 0       -2.36887   0.00000   0.00000   0.00000   0.00000
  29       12D+1        0.00000   0.00036   2.16948   0.00000  -0.00000
  30       12D-1        0.00000  -0.00000   0.00000   0.00000   5.24743
  31       12D+2       -1.36802   0.00000   0.00000  -0.00000   0.00000
  32       12D-2       -0.00000   0.00000   0.00000   2.16947   0.00000
  33       13F 0       -0.00111   0.00000   0.00000   0.00000   0.00000
  34       13F+1        0.00000  -0.00395  -0.00758   0.00000  -0.00000
  35       13F-1        0.00000   0.00000  -0.00000   0.00000  -0.00485
  36       13F+2        0.00142   0.00000   0.00000   0.00000   0.00000
  37       13F-2       -0.00000   0.00000   0.00000   0.00959   0.00000
  38       13F+3        0.00000   0.00510  -0.00588   0.00000   0.00000
  39       13F-3        0.00000  -0.00000   0.00000   0.00000   0.01876
  40       14F 0       -0.18656   0.00000   0.00000   0.00000   0.00000
  41       14F+1        0.00000   0.14675   0.27112   0.00000  -0.00000
  42       14F-1        0.00000  -0.00000  -0.00000   0.00000  -0.07380
  43       14F+2        0.24102   0.00000   0.00000   0.00000   0.00000
  44       14F-2       -0.00000   0.00000   0.00000  -0.34297   0.00000
  45       14F+3        0.00000  -0.18935   0.21005   0.00000   0.00000
  46       14F-3        0.00000  -0.00000   0.00000   0.00000   0.28585
  47       15G 0       -0.06484   0.00000   0.00000   0.00000   0.00000
  48       15G+1        0.00000   0.02984   0.04154   0.00000  -0.00000
  49       15G-1        0.00000   0.00000  -0.00000   0.00000  -0.02347
  50       15G+2       -0.02118   0.00000   0.00000  -0.00000   0.00000
  51       15G-2       -0.00000   0.00000   0.00000   0.01958   0.00000
  52       15G+3        0.00000   0.03381  -0.03665   0.00000  -0.00000
  53       15G-3        0.00000   0.00000  -0.00000   0.00000  -0.03938
  54       15G+4        0.01687   0.00000   0.00000   0.00000   0.00000
[...]
  10         V                 0.185252          0.449095
  11         V                 0.216981          0.806545
  12         V                 0.266231          0.754832
  13         V                 0.349609          1.125105
  14         V                 0.389228          1.189888
  15         V                 0.389228          1.189886
  16         V                 0.411264          0.753307
  17         V                 0.411266          0.753308
  18         V                 0.624974          0.872523
  19         V                 0.630315          0.907505
  20         V                 0.657768          1.134507
  21         V                 0.657771          1.134497
  22         V                 0.725418          1.067034
  23         V                 0.771878          0.994077
  24         V                 0.771880          0.994080
  25         V                 0.940571          1.313344
  26         V                 0.940574          1.313361
  27         V                 0.998712          1.988788
  28         V                 1.009475          1.571979
  29         V                 1.009476          1.571969
  30         V                 1.188832          1.942956
  31         V                 1.253975          2.690665
  32         V                 1.316158          1.930413
  33         V                 1.316162          1.930414
  34         V                 1.563886          2.632561
  35         V                 1.563893          2.632557
  36         V                 1.655547          2.449990
  37         V                 1.655548          2.449993
  38         V                 1.739344          2.240293
  39         V                 1.755219          2.431292
  40         V                 1.817144          2.405483
  41         V                 1.817145          2.405483
  42         V                 1.866259          2.315147
  43         V                 1.866263          2.315150
  44         V                 1.872356          2.347477
  45         V                 2.020693          2.386148
  46         V                 2.038464          3.133153
  47         V                 2.287230          2.987245
  48         V                 2.287237          2.987253
  49         V                 2.294701          2.741779
  50         V                 2.294704          2.741783
  51         V                 2.415311          2.882503
  52         V                 2.435386          3.895185
  53         V                 2.486394          3.028784
  54         V                 2.486398          3.028789
  55         V                 2.539740          2.998263
  56         V                 2.539741          2.998264
  57         V                 2.695348          3.135184
  58         V                 2.807147          3.199253
  59         V                 2.807148          3.199258
  60         V                 2.839369          3.392630
  61         V                 2.994145          3.786491
  62         V                 3.021707          3.666053
  63         V                 3.021716          3.666063
  64         V                 3.381721          4.532356
  65         V                 3.381723          4.532376
  66         V                 3.388220          4.064301
  67         V                 3.388221          4.064301
  68         V                 3.574530          4.758539
  69         V                 3.596177          4.951417
  70         V                 3.758989          4.678092
  71         V                 3.758995          4.678075
  72         V                 4.044490          4.605924
  73         V                 4.927394          7.837806
  74         V                 4.934085          6.184864
  75         V                 4.934085          6.184880
  76         V                 5.129462          6.124272
  77         V                 5.157926          5.945748
  78         V                 5.226035          6.433104
  79         V                 5.226037          6.433113
  80         V                 5.499179          6.568325
  81         V                 5.499180          6.568330
  82         V                 5.548069          6.648499
  83         V                 5.586151          7.793262
  84         V                 5.586162          7.793265
  85         V                 5.711025          7.453915
  86         V                 5.830071          7.114456
  87         V                 5.830073          7.114461
  88         V                 5.906913          7.357122
  89         V                 5.947038          6.527083
  90         V                 5.956711          6.645193
  91         V                 5.956713          6.645190
  92         V                 6.033192          7.005307
  93         V                 6.033196          7.005312
  94         V                 6.215379          7.851328
  95         V                 6.334528          7.942801
  96         V                 6.426068          8.180292
  97         V                 6.426074          8.180354
  98         V                 6.467369          7.551627
  99         V                 6.609407          8.113767
 100         V                 6.609412          8.113724
 101         V                 6.673481          8.514199
 102         V                 6.673489          8.514204
 103         V                 7.124045          8.107428
 104         V                 7.124054          8.107436
 105         V                 7.174167          7.886879
 106         V                 7.174185          7.886902
 107         V                 7.491418          8.189983
 108         V                 7.502941          8.682165
 109         V                 7.506221          8.683859
 110         V                 7.506223          8.683860
 111         V                 7.513817          8.672352
 112         V                 7.517268          8.635563
 113         V                 7.517270          8.635578
 114         V                 7.686497          8.729118
 115         V                 7.686500          8.729132
 116         V                 7.990458          8.881310
 117         V                 8.116182          8.904809
 118         V                 8.174778          9.168838
 119         V                 8.174782          9.168836
 120         V                 8.183089          9.042887
 121         V                 8.215122          9.064662
 122         V                 8.215131          9.064664
 123         V                 8.419015          9.327378
 124         V                 8.419015          9.327380
 125         V                 8.421418         10.511155
 126         V                 8.421430         10.511168
 127         V                 8.723421          9.900415
 128         V                 8.750211         10.724215
 129         V                 8.835223          9.706332
 130         V                 8.996143         10.202772
 131         V                 9.181219         10.390466
 132         V                 9.181236         10.390490
 133         V                 9.817474         11.285699
 134         V                 9.817474         11.285744
 135         V                 9.872110         11.025300
 136         V                 9.872124         11.025317
 137         V                 9.879454         12.688378
 138         V                 9.937664         11.792854
 139         V                10.362058         11.688180
 140         V                10.419458         13.697947
 141         V                11.064083         12.639535
 142         V                11.064127         12.639564
 143         V                12.354435         15.911120
 144         V                12.354442         15.911113
 145         V                24.685922         55.920304
 Orbital energies and kinetic energies (beta):
                                 1                 2
   1         O               -10.169098         15.948033
   2         O                -0.651120          1.284235
   3         O                -0.416561          0.992424
   4         O                -0.416560          0.992426
   5         V                -0.076155          0.857961
   6         V                 0.039804          0.460847
   7         V                 0.102937          0.459432
   8         V                 0.102938          0.459432
   9         V                 0.186325          0.447374
  10         V                 0.186328          0.447378
  11         V                 0.261729          0.969970
  12         V                 0.293743          0.736637
  13         V                 0.362638          1.168055
  14         V                 0.393635          1.195216
  15         V                 0.393635          1.195219
  16         V                 0.433204          0.747625
  17         V                 0.433206          0.747626
  18         V                 0.622564          0.872692
  19         V                 0.648723          0.894454
  20         V                 0.661023          1.141140
  21         V                 0.661027          1.141127
  22         V                 0.738809          1.079643
  23         V                 0.782622          0.992633
  24         V                 0.782624          0.992635
  25         V                 0.942522          1.305194
  26         V                 0.942525          1.305211
  27         V                 1.012229          1.590013
  28         V                 1.012230          1.590047
  29         V                 1.012943          2.023804
  30         V                 1.196225          1.941249
  31         V                 1.325942          2.765157
  32         V                 1.327205          1.935437
  33         V                 1.327209          1.935439
  34         V                 1.577016          2.632212
  35         V                 1.577024          2.632209
  36         V                 1.694269          2.445121
  37         V                 1.694272          2.445123
  38         V                 1.739471          2.240493
  39         V                 1.800305          2.406830
  40         V                 1.836908          2.398873
  41         V                 1.836910          2.398874
  42         V                 1.887291          2.314873
  43         V                 1.887295          2.314876
  44         V                 1.913090          2.350748
  45         V                 2.024213          2.385910
  46         V                 2.060523          3.105736
  47         V                 2.285892          2.990154
  48         V                 2.285900          2.990163
  49         V                 2.301229          2.741152
  50         V                 2.301232          2.741156
  51         V                 2.423172          2.878963
  52         V                 2.450369          3.907782
  53         V                 2.494838          3.033414
  54         V                 2.494843          3.033418
  55         V                 2.543846          2.993345
  56         V                 2.543846          2.993347
  57         V                 2.693252          3.135939
  58         V                 2.819308          3.200258
  59         V                 2.819308          3.200263
  60         V                 2.843138          3.401338
  61         V                 3.011246          3.792390
  62         V                 3.026483          3.666165
  63         V                 3.026492          3.666177
  64         V                 3.384365          4.537725
  65         V                 3.384368          4.537744
  66         V                 3.420516          4.071859
  67         V                 3.420518          4.071859
  68         V                 3.582639          4.890807
  69         V                 3.639964          4.871622
  70         V                 3.764408          4.686938
  71         V                 3.764413          4.686921
  72         V                 4.050549          4.605249
  73         V                 4.960651          6.173699
  74         V                 4.960656          6.173715
  75         V                 4.968917          7.779471
  76         V                 5.174880          5.944817
  77         V                 5.182854          6.117508
  78         V                 5.268710          6.413816
  79         V                 5.268714          6.413824
  80         V                 5.530389          6.556994
  81         V                 5.530393          6.556986
  82         V                 5.547726          6.647554
  83         V                 5.597235          7.732703
  84         V                 5.597246          7.732707
  85         V                 5.796376          7.372071
  86         V                 5.879421          7.153942
  87         V                 5.879425          7.153947
  88         V                 5.924448          7.442632
  89         V                 5.945887          6.527500
  90         V                 5.964536          6.653816
  91         V                 5.964539          6.653814
  92         V                 6.038900          7.019584
  93         V                 6.038903          7.019591
  94         V                 6.259627          7.890705
  95         V                 6.343537          7.904065
  96         V                 6.433419          8.196706
  97         V                 6.433422          8.196756
  98         V                 6.484136          7.599423
  99         V                 6.616708          8.086222
 100         V                 6.616711          8.086197
 101         V                 6.728341          8.521931
 102         V                 6.728343          8.521934
 103         V                 7.132611          8.123704
 104         V                 7.132616          8.123708
 105         V                 7.180963          7.888729
 106         V                 7.180979          7.888753
 107         V                 7.490732          8.191456
 108         V                 7.504541          8.681189
 109         V                 7.512519          8.624975
 110         V                 7.512521          8.624989
 111         V                 7.518039          8.695824
 112         V                 7.518041          8.695824
 113         V                 7.522833          8.671296
 114         V                 7.693553          8.725856
 115         V                 7.693558          8.725869
 116         V                 7.995179          8.883247
 117         V                 8.112896          8.903968
 118         V                 8.172790          9.164718
 119         V                 8.172794          9.164716
 120         V                 8.182891          9.031561
 121         V                 8.213145          9.066981
 122         V                 8.213154          9.066985
 123         V                 8.420076         10.521802
 124         V                 8.420091         10.521815
 125         V                 8.422023          9.327168
 126         V                 8.422024          9.327169
 127         V                 8.730051          9.903026
 128         V                 8.765325         10.743825
 129         V                 8.847929          9.706028
 130         V                 8.991329         10.202838
 131         V                 9.179683         10.389787
 132         V                 9.179699         10.389813
 133         V                 9.818737         11.289723
 134         V                 9.818742         11.289772
 135         V                 9.879707         12.696512
 136         V                 9.891562         11.027979
 137         V                 9.891587         11.027997
 138         V                 9.965370         11.805639
 139         V                10.363943         11.689035
 140         V                10.426573         13.680797
 141         V                11.063660         12.640114
 142         V                11.063706         12.640142
 143         V                12.353575         15.915010
 144         V                12.353582         15.915004
 145         V                24.704899         55.912917
 Total kinetic energy from orbitals= 3.962692150600D+01
  Exact polarizability:  14.793  -0.000  14.793   0.000  -0.000  12.605
 Approx polarizability:  17.871  -0.000  17.871   0.000   0.000  14.921
                          Isotropic Fermi Contact Couplings
        Atom                 a.u.       MegaHertz       Gauss      10(-4) cm-1
     1  C(13)              0.04976      55.94323      19.96194      18.66065
     2  H(1)              -0.01372     -61.32379     -21.88185     -20.45541
     3  H(1)              -0.01372     -61.32579     -21.88257     -20.45608
     4  H(1)              -0.01372     -61.32579     -21.88257     -20.45608
 --------------------------------------------------------
       Center         ----  Spin Dipole Couplings  ----
                      3XX-RR        3YY-RR        3ZZ-RR
 --------------------------------------------------------
     1   Atom       -0.599937     -0.599937      1.199875
     2   Atom       -0.076658      0.072729      0.003929
     3   Atom        0.035383     -0.039312      0.003928
     4   Atom        0.035383     -0.039312      0.003928
 --------------------------------------------------------
                        XY            XZ            YZ
 --------------------------------------------------------
     1   Atom       -0.000000     -0.000000     -0.000000
     2   Atom        0.000000     -0.000000     -0.000000
     3   Atom        0.064686     -0.000000     -0.000000
     4   Atom       -0.064686     -0.000000      0.000000
 --------------------------------------------------------


 ---------------------------------------------------------------------------------
              Anisotropic Spin Dipole Couplings in Principal Axis System
 ---------------------------------------------------------------------------------

       Atom             a.u.   MegaHertz   Gauss  10(-4) cm-1        Axes

              Baa    -0.5999   -80.506   -28.726   -26.854  0.0001  1.0000 -0.0000
     1 C(13)  Bbb    -0.5999   -80.506   -28.726   -26.854  1.0000 -0.0001  0.0000
              Bcc     1.1999   161.012    57.453    53.708  0.0000  0.0000  1.0000
 
              Baa    -0.0767   -40.901   -14.594   -13.643  1.0000 -0.0000 -0.0000
     2 H(1)   Bbb     0.0039     2.096     0.748     0.699  0.0000  0.0000  1.0000
              Bcc     0.0727    38.805    13.847    12.944  0.0000  1.0000 -0.0000
 
              Baa    -0.0767   -40.901   -14.594   -13.643 -0.5000  0.8660  0.0000
     3 H(1)   Bbb     0.0039     2.096     0.748     0.699  0.0000  0.0000  1.0000
              Bcc     0.0727    38.805    13.847    12.944  0.8660  0.5000 -0.0000
 
              Baa    -0.0767   -40.901   -14.594   -13.643  0.5000  0.8660  0.0000
     4 H(1)   Bbb     0.0039     2.096     0.748     0.699  0.0000  0.0000  1.0000
              Bcc     0.0727    38.805    13.847    12.944  0.8660 -0.5000 -0.0000
 

 ---------------------------------------------------------------------------------

 No NMR shielding tensors so no spin-rotation constants.
 Leave Link  601 at Sun Aug 18 14:31:20 2024, MaxMem=   13107200 cpu:       1.1
 (Enter /programs/64bit/g09/g09-gfortran/bin/l701.exe)
 Compute integral second derivatives.
 ... and contract with generalized density number  0.
 Insufficient memory in PRISM at phase 22 IEnd=     9338601 limit=     7380345.
 Error termination via Lnk1e in /programs/64bit/g09/g09-gfortran/bin/l701.exe at Sun Aug 18 14:31:21 2024.
 Job cpu time:  0 days  0 hours 11 minutes 29.4 seconds.
 File lengths (MBytes):  RWF=     26 Int=      0 D2E=      0 Chk=      3 Scr=      1
