
 Primary working directories    : /data/scratch
 Secondary working directories  : /data/scratch
 Wavefunction directory         : /home/ospite/wfu/
 Main file repository           : /data/scratch/

 ARCHNAME  : Linux/x86_64
 FC        : /usr/bin/gfortran
 FCVERSION : 4.8.5
 BLASLIB   : 
 id        : polimi

 Nodes     nprocs
 molmod       1

 Using default tuning parameters: mindgm=1; mindgv=20; mindgc=4; mindgr=1; noblas=0; mincuda=1000; minvec=7
 default implementation of scratch files=df  

 ***,methane with imposed symmetry and aug-cc-pVDZ basis set
 memory,100,m
 
 basis=aug-cc-pVDZ
 symmetry,y
 
 geometry={angstrom
 C
 H1, C, d
 H2, C, d, H1, a
 H3, C, d, H1, a, H2, t
 H4, C, d, H1, a, H2, -t
 }
 
 d=1.09 Ang
 a=109.47 Deg
 t=120.0 Deg
 
 {dfunc,b3lyp3}
 ks
 optg
 frequencies
 put,molden,ch4_aug-ccpVDZ.molpro

 Variables initialized (661), CPU time= 0.01 sec
 Commands  initialized (458), CPU time= 0.05 sec, 486 directives.
 Default parameters read. Elapsed time= 0.13 sec

 Checking input...
 Passed
1


                                         ***  PROGRAM SYSTEM MOLPRO  ***
                         Copyright, University College Cardiff Consultants Limited, 2008

                                    Version 2010.1 linked Mar  6 2018 16:01:50


 **********************************************************************************************************************************
 LABEL *   methane with imposed symmetry and aug-cc-pVDZ basis set                       
 Linux-3.10.0-1160.108.1.el7.x86_64/molmod(x86_64) 64 bit serial version                 DATE: 18-Aug-24          TIME: 12:26:01  
 **********************************************************************************************************************************

 SHA1:             d90fb18d49a3be29a79769f900c595ef3b8176e2
 **********************************************************************************************************************************

 Variable memory set to  100000000 words,  buffer space   230000 words

 SETTING BASIS          =    AUG-CC-PVDZ
 ZSYMEL=Y  

 SETTING D              =         1.09000000  ANG                             
 SETTING A              =       109.47000000  DEG                             
 SETTING T              =       120.00000000  DEG                             


 Recomputing integrals since basis changed


 Using spherical harmonics

 Library entry C      S aug-cc-pVDZ          selected for orbital group  1
 Library entry C      P aug-cc-pVDZ          selected for orbital group  1
 Library entry C      D aug-cc-pVDZ          selected for orbital group  1
 Library entry H      S aug-cc-pVDZ          selected for orbital group  2
 Library entry H      P aug-cc-pVDZ          selected for orbital group  2

1PROGRAM * SEWARD (Integral evaluation for generally contracted gaussian basis sets)     Author: Roland Lindh, 1990

 Geometry written to block  1 of record 700

 Orientation using atomic masses  
 Molecule type: Symmetric top,     Order of principal axis = 3
 User-specified symmetry elements: Y
 Symmetry elements: Y
 Rotational constants:     158.2574080    158.2574080    158.2538321 GHz  (calculated with average atomic masses)

 Point group  Cs  



 ATOMIC COORDINATES

 NR  ATOM    CHARGE       X              Y              Z

   1  C       6.00   -0.000000000    0.000000000   -0.000007798
   2  H1      1.00   -0.000000000    0.000000000    2.059793685
   3  H2      1.00    1.942014089    0.000000000   -0.686566920
   4  H3      1.00   -0.971007045   -1.681833536   -0.686566920
   5  H4      1.00   -0.971007045    1.681833536   -0.686566920

 Bond lengths in Bohr (Angstrom)

 1-2  2.059801483  1-3  2.059801483  1-4  2.059801483  1-5  2.059801483
     ( 1.090000000)     ( 1.090000000)     ( 1.090000000)     ( 1.090000000)

 Bond angles

  2-1-3  109.47000000   2-1-4  109.47000000   2-1-5  109.47000000   3-1-4  109.47244124

  3-1-5  109.47244124   4-1-5  109.47244124

 NUCLEAR CHARGE:                   10
 NUMBER OF PRIMITIVE AOS:          81
 NUMBER OF SYMMETRY AOS:           79
 NUMBER OF CONTRACTIONS:           59   (  39A'  +  20A"  )
 NUMBER OF CORE ORBITALS:           1   (   1A'  +   0A"  )
 NUMBER OF VALENCE ORBITALS:        8   (   6A'  +   2A"  )


 NUCLEAR REPULSION ENERGY   13.43538921


 Eigenvalues of metric

         1 0.834E-03 0.834E-03 0.985E-03 0.744E-02 0.755E-02 0.755E-02 0.191E-01 0.201E-01
         2 0.834E-03 0.755E-02 0.191E-01 0.201E-01 0.497E-01 0.823E-01 0.147E+00 0.148E+00


 Contracted 2-electron integrals neglected if value below      1.0D-11
 AO integral compression algorithm  1   Integral accuracy      1.0D-11

     5.505 MB (compressed) written to integral file ( 57.4%)


 NUMBER OF SORTED TWO-ELECTRON INTEGRALS:     818145.     BUFFER LENGTH:  32768
 NUMBER OF SEGMENTS:   1  SEGMENT LENGTH:     818145      RECORD LENGTH: 524288

 Memory used in sort:       1.38 MW

 SORT1 READ     1152246. AND WROTE      754747. INTEGRALS IN      3 RECORDS. CPU TIME:     0.04 SEC, REAL TIME:     0.06 SEC
 SORT2 READ      754747. AND WROTE      818145. INTEGRALS IN     21 RECORDS. CPU TIME:     0.28 SEC, REAL TIME:     0.43 SEC

 FILE SIZES:   FILE 1:     8.2 MBYTE,  FILE 4:    12.6 MBYTE,   TOTAL:     20.8 MBYTE

 OPERATOR DM      FOR CENTER  0  COORDINATES:    0.000000    0.000000    0.000000


 **********************************************************************************************************************************
 DATASETS  * FILE   NREC   LENGTH (MB)   RECORD NAMES
              1      19        6.51       500      610      700      900      950      970     1000      129      960     1100   
                                          VAR    BASINP    GEOM    SYMINP    ZMAT    AOBASIS   BASIS     P2S    ABASIS      S 
                                         1400     1410     1200     1210     1080     1600     1650     1300     1700   
                                           T        V       H0       H01     AOSYM     SMH    MOLCAS    ERIS     OPER   

 PROGRAMS   *        TOTAL       INT
 CPU TIMES  *         1.11      0.65
 REAL TIME  *         1.50 SEC
 DISK USED  *        21.33 MB      
 **********************************************************************************************************************************

 Density functional group B3LYP3=B88+DIRAC+LYP+VWN3
 Functional: B88(Automatically generated B88)                                  Gradient terms: 1
 Functional: DIRAC(Automatically generated DIRAC)                              Gradient terms: 0
 Functional: LYP(Lee-Yang-Parr gradient-corrected correlation energy (1988))   Gradient terms: 1
 Functional: VWN3(Automatically generated VWN3)                                Gradient terms: 0
 Use grid at  1800.2


 Exact exchange will be calculated, factor:  0.2000

 Functional: B88                       Factor:  0.7200
 Functional: DIRAC                     Factor:  0.0800
 Functional: LYP                       Factor:  0.8100
 Functional: VWN3                      Factor:  0.1900

 Generated new metagrid on record  1800.2 with target accuracy 1.0D-06 and 7496 points in CPU time    0.3
 Computed new grid on record 1800.1 in CPU time    0.3
   50797 words reserved for DFT integration

 PROGRAM * RKS-SCF (Restricted closed shell Kohn-Sham)     Authors: W. Meyer, H.-J. Werner, P.J. Knowles, 1993

 NUMBER OF ELECTRONS:       5+    5-
 CONVERGENCE THRESHOLDS:    1.00E-05 (Density)    1.00E-06 (Energy)
 MAX. NUMBER OF ITERATIONS:       60
 INTERPOLATION TYPE:            DIIS
 INTERPOLATION STEPS:              2 (START)      1 (STEP)
 LEVEL SHIFTS:                  0.00 (CLOSED)  0.00 (OPEN) 



 Use fine grid record 1800.2 for energy threshold 1.0D-06
 Orbital guess generated from atomic densities. Full valence occupancy:    7   2

 Molecular orbital dump at record        2100.2

 Initial alpha occupancy:   4   1
 Initial beta  occupancy:   4   1
 Wave function symmetry:    1

 ITERATION    DDIFF          GRAD             ENERGY        2-EL.EN.            DIPOLE MOMENTS         DIIS
    1      0.000D+00      0.000D+00       -40.44571558     66.249671   -0.00011    0.00000   -0.00006    0
    2      0.000D+00      0.167D-01       -40.41795390     59.009892   -0.00025    0.00000    0.00009    1
    3      0.534D-01      0.191D-01       -40.52045389     62.892688   -0.00022    0.00000   -0.00007    2
    4      0.276D-01      0.238D-03       -40.52047523     62.833358   -0.00022    0.00000   -0.00006    3
    5      0.707D-03      0.421D-04       -40.52047570     62.841284   -0.00023    0.00000   -0.00006    4
    6      0.752D-04      0.205D-05       -40.52047571     62.841579   -0.00022    0.00000   -0.00006    5
    7      0.464D-05      0.903D-07       -40.52047571     62.841606   -0.00022    0.00000   -0.00006    0

 Final occupancy:   4   1

 !RKS STATE 1.1 Energy                -40.520475705036
 Nuclear energy                        13.43538921
 One-electron energy                  -79.78967730
 Two-electron energy                   31.42080277
 SCF exchange energy                   -6.57582617     Factor=0.2000
 Density functional                    -5.58699038     B88=-6.56835984 DIRAC=-5.88525233 LYP=-0.29428388 VWN3=-0.78200614
 Virial quotient                       -1.00915560
 !RKS STATE 1.1 Dipole moment          -0.00022482     0.00000000    -0.00006162
 Dipole moment /Debye                  -0.00057140     0.00000000    -0.00015660

 Orbital energies:

         1.1          2.1          3.1          4.1          5.1          6.1
    -10.170125    -0.697610    -0.394572    -0.394561    -0.006037     0.031295

         1.2          2.2          3.2
     -0.394564     0.032773     0.096862


 **********************************************************************************************************************************
 DATASETS  * FILE   NREC   LENGTH (MB)   RECORD NAMES
              1      20        6.75       500      610      700      900      950      970     1000      129      960     1100   
                                          VAR    BASINP    GEOM    SYMINP    ZMAT    AOBASIS   BASIS     P2S    ABASIS      S 
                                         1400     1410     1200     1210     1080     1600     1650     1300     1700     1800   
                                           T        V       H0       H01     AOSYM     SMH    MOLCAS    ERIS     OPER     GRID   

              2       4        0.34       700     1000     1800     2100   
                                         GEOM     BASIS    GRID      RKS  

 PROGRAMS   *        TOTAL        KS       INT
 CPU TIMES  *         4.89      3.79      0.65
 REAL TIME  *         6.27 SEC
 DISK USED  *        21.33 MB      
 **********************************************************************************************************************************


 PROGRAM * OPT (Geometry optimization)     Authors: F. Eckert and H.-J. Werner


 BFGS update of hessian

 *** Long output written to logfile /home/ospite/Desktop/MMfP/Project6/CH4/molpro/DFT/B3LYP/ch4_aug-ccpVDZ.log ***


 Geometry optimization using default procedure for command KS-SCF

 Geometry written to block  1 of record 700

 Making model hessian for Z-matrix coordinates

 Quadratic Steepest Descent - Minimum Search

 Optimization point 1

 Variable                      Last           Current        Next           Gradient       Hessian

 E(KS-SCF000) / Hartree      0.00000000   -40.52047571     0.00000000
 D / ANG                     0.00000000     1.09000000     1.09507068    -0.03484788     6.87242182
 A / DEG                     0.00000000   109.47000000   109.46716179     0.00000066     0.00023257
 T / DEG                     0.00000000   120.00000000   120.01384916    -0.00000208     0.00014996
 Convergence:                0.00000000  (line search)     0.00958538     0.01844113  (total)

 Freezing grid

 Optimization point 2

 Variable                      Last           Current        Next           Gradient       Hessian

 E(KS-SCF000) / Hartree    -40.52047571   -40.52057387     0.00000000
 D / ANG                     1.09000000     1.09507068     1.09683304    -0.00897981     5.10108424
 A / DEG                   109.47000000   109.46716179   109.45229863     0.00000250     0.00022616
 T / DEG                   120.00000000   120.01384916   120.00250005     0.00000121     0.00014577
 Convergence:                0.00000000  (line search)     0.00334633     0.00475458  (total)

 Optimization point 3

 Variable                      Last           Current        Next           Gradient       Hessian

 E(KS-SCF000) / Hartree    -40.52057387   -40.52052097     0.00000000
 D / ANG                     1.09507068     1.09683304     1.09688460    -0.00021865     4.95502361
 A / DEG                   109.46716179   109.45229863   109.47149857    -0.00000425     0.00022642
 T / DEG                   120.01384916   120.00250005   120.00560608    -0.00000046     0.00014446
 Convergence:                0.00000000  (line search)     0.00035317     0.00027090  (total)

 Optimization point 4

 Variable                      Last           Current        Next           Gradient       Hessian

 E(KS-SCF000) / Hartree    -40.52052097   -40.52061547     0.00000000
 D / ANG                     1.09683304     1.09688460     1.09686142     0.00018408     5.36021630
 A / DEG                   109.45229863   109.47149857   109.46248294     0.00000377     0.00039663
 T / DEG                   120.00250005   120.00560608   120.00370680     0.00000053     0.00014757
 Convergence:                0.00000000  (line search)     0.00016666     0.00023889  (total)

 END OF GEOMETRY OPTIMIZATION.    TOTAL CPU:        24.4 SEC

 ITER.   ENERGY(OLD)    ENERGY(NEW)      DE          GRADMAX     GRADNORM    GRADRMS     STEPMAX     STEPLEN     STEPRMS
   1   -40.52047571   -40.52057387    -0.00009816  0.01844070  0.01844113  0.00614704  0.00958220  0.00958538  0.00319513
   2   -40.52057387   -40.52052097     0.00005290  0.00475191  0.00475458  0.00158486  0.00333037  0.00334633  0.00111544
   3   -40.52052097   -40.52061547    -0.00009449  0.00024352  0.00027090  0.00009030  0.00033510  0.00035317  0.00011772
   4   -40.52061547   -40.52052964     0.00008583  0.00021603  0.00023889  0.00007963  0.00015735  0.00016666  0.00005555

 Geometry written to block  1 of record 700


 **********************************************************************************************************************************
 DATASETS  * FILE   NREC   LENGTH (MB)   RECORD NAMES
              1      20        6.92       500      610      700      900      950      970     1000      129      960     1100   
                                          VAR    BASINP    GEOM    SYMINP    ZMAT    AOBASIS   BASIS     P2S    ABASIS      S 
                                         1400     1410     1200     1210     1080     1600     1650     1300     1700     1800   
                                           T        V       H0       H01     AOSYM     SMH    MOLCAS    ERIS     OPER     GRID   

              2       4        0.34       700     1000     1800     2100   
                                         GEOM     BASIS    GRID      RKS  

 PROGRAMS   *        TOTAL      OPTG        KS       INT
 CPU TIMES  *        29.32     24.43      3.79      0.65
 REAL TIME  *        40.37 SEC
 DISK USED  *        21.67 MB      
 **********************************************************************************************************************************


 PROGRAM * HESSIAN

 Computing numerical hessian using default procedure for command KS-SCF

 Symmetry elements for unique displacements: Y  

 Using no symmetry in wavefunction calculations

 Running default procedure: KS-SCF000


 Recomputing wavefunction at reference geometry

 Numerically approximating hessian using central gradient differences

 Task list generated. Total number of displacements:     21

    5 tasks completed, CPU=    58.65 sec, Elapsed=    76.21 sec
   10 tasks completed, CPU=   118.68 sec, Elapsed=   164.29 sec
   15 tasks completed, CPU=   178.14 sec, Elapsed=   249.83 sec
   20 tasks completed, CPU=   239.67 sec, Elapsed=   336.17 sec

 Numerical KS-SCF000 hessian completed. CPU-time:   251.26 sec, Elapsed:   349.89 sec

 KS-SCF hessian saved to record  5300.2

 FREQUENCIES * CALCULATION OF HARMONIC VIBRATIONAL SPECTRA FOR KS-SCF


 Permanent Dipole Moment [debye]
   1-  3    0.000795    0.000000    0.002774

 Dipole Moment Norm    0.0028853 [debye]

 Dipole Moment Derivatives [debye/ang]
                   1             2             3             4             5             6             7             8
         1     0.0677947     0.0000000     0.0002873     0.2913933     0.0000000    -0.0630208    -0.4943922     0.0000000
         2     0.0000000     0.0666358    -0.0000000     0.0000000     0.2961362    -0.0000000    -0.0000000     0.2942254
         3     0.0011232     0.0000000     0.0618925    -0.0634715     0.0000000    -0.6340290     0.3408818     0.0000000
                   9            10            11            12            13            14            15
         1     0.3394160     0.0675888    -0.3780643    -0.1383420     0.0675888     0.3780643    -0.1383420
         2    -0.0000000    -0.3785212    -0.3285213    -0.2286720     0.3785212    -0.3285213     0.2286720
         3     0.1500259    -0.1392620    -0.2294088     0.2110333    -0.1392620     0.2294088     0.2110333

 Projecting out rotations and translations

   Low Vibration      Wavenumber
        Nr             [1/cm] 
        1                0.00
        2                0.00
        3                0.00
        4                0.00
        5                0.00
        6                0.00

     Vibration        Wavenumber
        Nr             [1/cm] 
        1             1300.85
        2             1301.70
        3             1302.40
        4             1519.98
        5             1520.90
        6             3027.07
        7             3143.29
        8             3143.43
        9             3143.67

 FREQUENCIES * CALCULATION OF NORMAL MODES FOR KS-SCF


 Atomic Coordinates

  Nr  Atom  Charge       X              Y              Z

   1   C     6.00    0.000010028    0.000000000   -0.000056959
   2   H1    1.00    0.136565115    0.000000000    2.068207683
   3   H2    1.00    1.904595019    0.000000000   -0.817933434
   4   H3    1.00   -1.020639817   -1.692435745   -0.624797754
   5   H4    1.00   -1.020639817    1.692435745   -0.624797754

 Frequencies dumped to record   5400.2

 Gradient norm at reference geometry: 0.18412D-03

 Normal Modes

                              1 A`        2 A``       3 A`        4 A`        5 A``
 Wavenumbers [cm-1]         1300.85     1301.70     1302.40     1519.98     1520.90
 Intensities [km/mol]         10.71       10.70       10.72        0.00        0.00
 Intensities [relative]       48.49       48.43       48.52        0.00        0.00
           CX1             -0.06844     0.00000    -0.09239     0.00007    -0.00000
           CY1             -0.00000    -0.11499    -0.00000    -0.00000    -0.00057
           CZ1             -0.09240     0.00000     0.06845    -0.00069    -0.00000
           H1X2             0.29331    -0.00000     0.47182     0.49636    -0.00000
           H1Y2             0.00000     0.55852     0.00000    -0.00000    -0.49542
           H1Z2            -0.09083     0.00000     0.01487    -0.03341     0.00000
           H2X3             0.19476    -0.00000    -0.12525     0.19793    -0.00000
           H2Y3             0.00000     0.55385     0.00000     0.00000     0.50066
           H2Z3             0.50311    -0.00000    -0.08301     0.46015    -0.00000
           H3X4             0.16373    -0.25641     0.37722    -0.34757    -0.26125
           H3Y4            -0.28141     0.12894    -0.11208     0.28681     0.00078
           H3Z4             0.34441    -0.15985    -0.37379    -0.20927     0.42398
           H4X5             0.16373     0.25641     0.37722    -0.34757     0.26125
           H4Y5             0.28141     0.12894     0.11208    -0.28681     0.00078
           H4Z5             0.34441     0.15985    -0.37379    -0.20927    -0.42398

                              6 A`        7 A`        8 A``       9 A` 
 Wavenumbers [cm-1]         3027.07     3143.29     3143.43     3143.67
 Intensities [km/mol]          0.00       21.89       22.07       22.10
 Intensities [relative]        0.00       99.08       99.88      100.00
           CX1              0.00009    -0.01242     0.00000    -0.08688
           CY1             -0.00000     0.00000    -0.08775    -0.00000
           CZ1             -0.00012    -0.08686    -0.00000     0.01241
           H1X2             0.03287     0.05258     0.00000    -0.02255
           H1Y2             0.00000     0.00000    -0.01845    -0.00000
           H1Z2             0.49765     0.81687     0.00000    -0.06054
           H2X3             0.45683    -0.20423    -0.00000     0.72709
           H2Y3            -0.00000     0.00000    -0.01862    -0.00000
           H2Z3            -0.19604     0.06829     0.00000    -0.31751
           H3X4            -0.24538     0.14983     0.33771     0.16540
           H3Y4            -0.40669     0.25281     0.54138     0.30453
           H3Z4            -0.15008     0.07497     0.20662     0.11511
           H4X5            -0.24538     0.14983    -0.33771     0.16540
           H4Y5             0.40669    -0.25281     0.54138    -0.30453
           H4Z5            -0.15008     0.07497    -0.20662     0.11511


 Normal Modes of low/zero frequencies

                                  1           2           3           4           5
 Wavenumbers [cm-1]            0.00        0.00        0.00        0.00        0.00
 Intensities [km/mol]          0.00        0.00        0.00        0.00        0.00
 Intensities [relative]        0.00        0.00        0.00        0.00        0.00
           CX1              0.23771     0.03357     0.01056    -0.00527     0.01046
           CY1              0.06987    -0.02977    -0.05676     0.01894     0.03042
           CZ1             -0.00158     0.07257     0.22281     0.06097    -0.00339
           H1X2             0.20661    -0.07157     0.01814     0.21526     0.55903
           H1Y2             0.04073     0.10777     0.03062    -0.51052     0.27696
           H1Z2             0.00047     0.07951     0.22231     0.04641    -0.03961
           H2X3             0.25000     0.07515     0.00756    -0.09248    -0.20647
           H2Y3             0.02126     0.43958    -0.29278     0.32324    -0.00204
           H2Z3             0.02705     0.16939     0.21582    -0.14210    -0.50855
           H3X4             0.19514     0.51790    -0.16583     0.01013    -0.09905
           H3Y4             0.10874    -0.33321     0.01760     0.13141    -0.07657
           H3Z4            -0.03734     0.10335     0.30955    -0.26887     0.46535
           H4X5             0.29906    -0.38724     0.18236    -0.15390    -0.21145
           H4Y5             0.10874    -0.33321     0.01760     0.13141    -0.07657
           H4Z5             0.00349    -0.06198     0.14356     0.60847     0.06929

                                  6
 Wavenumbers [cm-1]            0.00
 Intensities [km/mol]          0.00
 Intensities [relative]        0.00
           CX1             -0.06674
           CY1              0.22817
           CZ1              0.06076
           H1X2            -0.16050
           H1Y2             0.28782
           H1Z2             0.06696
           H2X3            -0.02966
           H2Y3             0.22467
           H2Z3             0.14710
           H3X4            -0.02106
           H3Y4             0.20010
           H3Z4             0.06216
           H4X5            -0.05578
           H4Y5             0.20010
           H4Z5            -0.03317


 Zero point energy:  0.04420393 [H]     9701.64 [1/CM]      116.06 [KJ/MOL]
 Frequency information read from record  5400.2

 Dump information in style MOLDEN to ch4_aug-ccpvdz.molpro                                                           

 Molecular orbitals read from record     2101.2  Type=RKS/CANONICAL (state 1.1)
 Occupation numbers read from record     2101.2  Type=RKS/RHF (state 1.1)
 Orbital energies read from record       2101.2  Type=RKS/CANONICAL (state 1.1)
 Redundancy group numbers read from rec  2101.2  Type=RKS/RHF (state 1.1)

 DUMP ORBITAL  1.1 AS ORBITAL    1  occ=    2.0000  eig=  -10.1729  GROUP=   2
 DUMP ORBITAL  2.1 AS ORBITAL    2  occ=    2.0000  eig=   -0.6955  GROUP=   2
 DUMP ORBITAL  3.1 AS ORBITAL    3  occ=    2.0000  eig=   -0.3934  GROUP=   2
 DUMP ORBITAL  4.1 AS ORBITAL    4  occ=    2.0000  eig=   -0.3934  GROUP=   2
 DUMP ORBITAL  5.1 AS ORBITAL    5  occ=    2.0000  eig=   -0.3934  GROUP=   2

 Total charge:      10.000000
 Frequency information read from record  5400.2

 **********************************************************************************************************************************

        KS-SCF          KS-SCF          KS-SCF          KS-SCF          KS-SCF          KS-SCF          KS-SCF          KS-SCF  
    -40.52057367    -40.52056995    -40.52057044    -40.52056150    -40.52056150    -40.52056810    -40.52056769    -40.52056949
 **********************************************************************************************************************************
 Variable memory released
