[Molden Format]
[Molpro variables]
_NUMVAR=  693.0000000000000    
_EV2006= 0.3674930886769165E-01
_EV= 0.3674932534394180E-01
_KJOULE= 0.3808798324128737E-03
_KJOULE/MOL= 0.3808798324128737E-03
_CM= 0.4556335267302901E-05
_CM-1= 0.4556335267302901E-05
_KCAL= 0.1593601117815568E-02
_KCAL/MOL= 0.1593601117815568E-02
_KELVIN2006= 0.3166828861084835E-05
_KELVIN= 0.3166814820820034E-05
_HERTZ2006= 0.1519829850815779E-15
_HERTZ= 0.1519829846011223E-15
_HZ2006= 0.1519829850815779E-15
_HZ= 0.1519829846011223E-15
_TOA2006= 0.5291772490000000    
_TOA= 0.5291772090000000    
_TOANG2006= 0.5291772490000000    
_TOANG= 0.5291772090000000    
_TORAD= 0.1745329251994330E-01
_TOCM=  219474.6306700000    
_TODEBYE=  2.541580000000000    
_TOEV2006=  27.21139610000000    
_TOEV=  27.21138390000000    
_TOHERTZ2006=  6579683899900000.    
_TOHERTZ=  6579683920700000.    
_TOHZ2006=  6579683899900000.    
_TOHZ=  6579683920700000.    
_TOK2006=  315773.3000000000    
_TOK=  315774.7000000000    
_TOKCAL=  627.5096000000000    
_TOKELVIN2006=  315773.3000000000    
_TOKELVIN=  315774.7000000000    
_TOKJ=  2625.500000000000    
_TOKJOULE=  2625.500000000000    
_ANG2006=  1.889725988578923    
_ANG=  1.889726131421507    
_ANGSTROM2006=  1.889725988578923    
_ANGSTROM=  1.889726131421507    
_IGNORE_UNDEF=  2.000000000000000    
_STRICTCHECK=  0.000000000000000    
_SEW_ONEEL=  0.000000000000000    
_CPPDONE=FALSE
_DKROLL_DONE=  0.000000000000000    
_FOCKDONE=TRUE
_GRADONE=FALSE
_HESSDONE=TRUE
_INTDONE=TRUE
_SCFDONE=TRUE
_MODUL_CUDA=FALSE
_MODUL_SLATER=FALSE
_MODUL_MRCC=FALSE
_MRCC_EXEC=
_FITC_AO_SAVED=FALSE
_FITC_MO_SAVED=FALSE
_SHARED_FS=TRUE
_LSTYP=SEWARD
_INTYP=INTS
_GEOMTYP=ZMAT
_GRADTYP=ALASKA
_DIRECT=FALSE
_SYNCM=  0.000000000000000    
_DFTNAME=B3LYP3
_DFTFUNC=B88
_BASIS=AUG-CC-PVDZ
_ZSYMEL=
_ZORIENT=  1.000000000000000    
_NELEC=  10.00000000000000    
!SPIN=  0.000000000000000    
_OPTCONV= 0.1666647791552843E-03
_QSDSTEP=  0.000000000000000    
_QSDIRC=  0.000000000000000    
_PROGRAM=FREQ
_CPUSTEP=  0.000000000000000    
_SYSSTEP=  0.000000000000000    
_WALLSTEP=  0.000000000000000    
!DFSCF=  0.000000000000000    
!SCSGRD=  0.000000000000000    
_BASINP=  610.0000000000000    
_CPUTOT=  283.5400000000000    
_CPUSORT= 0.4399999999999977    
_SYSSORT= 0.4999999999999893E-01
_WALLSORT= 0.5400000000372529    
_DFTEXFAC= 0.2000000000000000    
_DFTFAC= 0.7200000000000000    
_DFTFUN= -5.579158634107690    
_DFTFUNS= -6.559126494136655    
_DMX=-0.1510132127377801E-03
_DMY= 0.3542483147100928E-12
_DMZ= 0.2767858926330043E-03
_FREQUENCIES= 0.4065771789316954E-04
_ENERGY= -40.52057367480265    
_ENUC=  13.35134406011134    
_FREQSTEP=  22.00000000000000    
_GRADENERG= -40.52056995012984    
_GRADEXFAC= 0.2000000000000000    
_GRADMETHOD=  1.000000000000000    
_VIRIAL= 0.2241588159137511E-02
_GRID=  1800.200000000000    
!GRID_FREEZE= -1.000000000000000    
_GRID_SPARSITY= 0.9593859929645232E-03
_GRID_RMAX=  6.401054154751846    
_ITERATIONS=  5.000000000000000    
_LASTNELEC=  10.00000000000000    
_LASTSPIN=  0.000000000000000    
_LASTSYM=  1.000000000000000    
_MPP_PROG=  0.000000000000000    
_NGRID=  13528.00000000000    
_NPROC_MPP=  1.000000000000000    
_NPROC_SMP=  1.000000000000000    
_NUMSTEP=  0.000000000000000    
_OPTCONVMX= 0.1573524627555209E-03
_OPTCONVRMS= 0.5555492638509477E-04
_OPTGRAD= 0.2388895533657513E-03
_OPTGRADMX= 0.2160276354713425E-03
_OPTGRADRMS= 0.7962985112191711E-04
_OPTSTEP=  4.000000000000000    
_ORBITAL=  2101.200000000000    
_PI=  3.141592653589793    
_SEIG_MIN= 0.8516735086684799E-03
_SEWPROP=TRUE
_STATUS=  1.000000000000000    
_SYSTOT=  10.54000000000000    
_VERSION=  2010001.000000000    
_WALLTOT=  403.8500000000000    
_ZPE= 0.4420393039697123E-01
_DATE=18-Aug-24
_LASTORB=RKS
_MACHINE=Linux-3.10.0-1160.108.1.el7.x86_64/molmod(x86_64) 64 bit serial version
_OUTPUT=/home/ospite/Desktop/MMfP/Project6/CH4/molpro/DFT/B3LYP/ch4_aug-ccpVDZ.xml
_PGROUP=C1
_TIME=12:26:01
_LIBMOL=/usr/local/molpro/molpros_2010_1_Linux_x86_64_i8/lib/
!SURFREC=  0.000000000000000    
!POLYREC=  0.000000000000000    
!DIPREC=  0.000000000000000    
!VSCFREC=  0.000000000000000    
!VCIREC=  0.000000000000000    
!PVCIREC=  0.000000000000000    
!VMP2REC=  0.000000000000000    
!VMCSCFREC=  0.000000000000000    
!GAREC=  0.000000000000000    
!SCFORB=  21002.00000000000    
!NEWMOL=  0.000000000000000    
!NEWSYM=  0.000000000000000    
_SLFILES=slscratch
_NGSSTO=  9.000000000000000    
_SIN=SIN
_COS=COS
_TAN=TAN
_ACOS=ACOS
_ASIN=ASIN
_ATAN=ATAN
_COSH=COSH
_SINH=SINH
_TANH=TANH
_ABS=ABS
_MOD=MOD
_ERF=ERF
_REFC=REFC
_ERFC=ERFC
_HYPOT=HYPOT
_J0=J0
_J1=J1
_JN=JN
_GAMMA=GAMMA
_LGAMMA=LGAMMA
_Y0=Y0
_Y1=Y1
_YN=YN
_EXP=EXP
_LOG=LOG
_LOG10=LOG10
_SQRT=SQRT
_INT=INT
_NINT=NINT
_MAX=MAX
_MIN=MIN
_COSMO=  0.000000000000000    
_COSMOIT=  0.000000000000000    
_COSMOES=  0.000000000000000    
_COSMOEDS=  0.000000000000000    
_COSMOEC=  0.000000000000000    
_COSMOEDCORR=  0.000000000000000    
_FEPSI=  1.000000000000000    
_SL_IsMM=  0.000000000000000    
_SL_NSYM=  0.000000000000000    
_SL_System_BitSw=  0.000000000000000    
_SL_Unique_atoms=  0.000000000000000    
_SL_GRAD=  0.000000000000000    
_SL_MAXUPD_Hess=  5.000000000000000    
_SL_N_PRINT_COD=  5.000000000000000    
_SL_PRINT_CODES=  0.000000000000000    
_SL_BasType=  0.000000000000000    
_SL_Energy_Pred=  0.000000000000000    
_SL_New_Coords=  0.000000000000000    
_SL_Total_Nuclea=  0.000000000000000    
_SL_Highest_Mltp=  0.000000000000000    
_SL_Ref_Geom=  0.000000000000000    
!LATTICE= -1.000000000000000    
!NEWLATTICE=  0.000000000000000    
!LATGRAD_VAR=FALSE
!SEW_LATTICE=  1.000000000000000    
!LOCAL=  0.000000000000000    
!SAVEOCC=  0.000000000000000    
!SAVEDOM= -1.000000000000000    
!RESTDOM= -1.000000000000000    
!SAVEDOM_HF= -1.000000000000000    
!RESTDOM_HF= -1.000000000000000    
!HESSREC=  5300.200000000000    
!FREQREC=  5400.200000000000    
!NMODREC=  5450.200000000000    
!GTASKS=  0.000000000000000    
!HTASKS=  5500.200000000000    
!THRCHG= 0.1000000000000000    
!DEBUG= -1.000000000000000    
!CFIT_CPHF=  0.000000000000000    
!RDOMAUX_CPHF=  5.000000000000000    
!THRAO_CPHF= 0.9999999999999999E-11
!THRMO_CPHF= 0.9999999999999999E-11
!THROV_CPHF= 0.1000000000000000E-11
!THRSW_CPHF= 0.1000000000000000E-09
!THRPROD_CPHF= 0.9999999999999999E-11
!THRAOPR_CPHF= 0.1000000000000000E-11
!CFIT_SCFGRD=  0.000000000000000    
!RDOMAUX_SCFGRD=  7.000000000000000    
!THRAO_SCFGRD= 0.9999999999999999E-11
!THRMO_SCFGRD= 0.9999999999999999E-11
!THROV_SCFGRD= 0.1000000000000000E-11
!THRSW_SCFGRD= 0.1000000000000000E-09
!THRPROD_SCFGRD= 0.9999999999999999E-11
!THRAOPR_SCFGRD= 0.1000000000000000E-11
!LOCFIT_SCF=  0.000000000000000    
!LOCFIT_MP2= -1.000000000000000    
_RIDOM=  0.000000000000000    
!CC2_METHOD=  0.000000000000000    
_BASIS2006=FALSE
_SVDDEL= -1.000000000000000    
_SVDDELA= -1.000000000000000    
_SVDDELP= -1.000000000000000    
_SVDDELF= -1.000000000000000    
_SVDDELS= -1.000000000000000    
_SVDDEL_ABS= -1.000000000000000    
_SVDDELA_ABS= -1.000000000000000    
_SVDDELP_ABS= -1.000000000000000    
_SVDDELF_ABS= -1.000000000000000    
_SVDDELS_ABS= -1.000000000000000    
_MAXBASIS=  0.000000000000000    
!OPT_CONICAL=  0.000000000000000    
!CLEARSP_JGRID=  0.000000000000000    
D=  1.096861423829999    
A=  109.4624829405234    
T=  120.0037068017905    
GX1= 0.1002818506778821E-04
GY1= -0.000000000000000    
GZ1=-0.5695863336004328E-04
GX2= 0.1365651153990074    
GY2= -0.000000000000000    
GZ2=  2.068207682618783    
GX3=  1.904595019496968    
GY3= -0.000000000000000    
GZ3=-0.8179334340055948    
GX4= -1.020639817299591    
GY4= -1.692435744665130    
GZ4=-0.6247977538354909    
GX5= -1.020639817299591    
GY5=  1.692435744665130    
GZ5=-0.6247977538354909    
CX1= 0.1002818506778795E-04
CY1=  0.000000000000000    
CZ1=-0.5695863336004255E-04
H1X2= 0.1365651153990074    
H1Y2=  0.000000000000000    
H1Z2=  2.068207682618783    
H2X3=  1.904595019496968    
H2Y3=  0.000000000000000    
H2Z3=-0.8179334340055948    
H3X4= -1.020639817299591    
H3Y4= -1.692435744665130    
H3Z4=-0.6247977538354909    
H4X5= -1.020639817299591    
H4Y5=  1.692435744665130    
H4Z5=-0.6247977538354909    
[Atoms] Angs
C     1    6         0.0000053067       -0.0000000000       -0.0000301412
H     2    1         0.0722671466       -0.0000000000        1.0944483691
H     3    1         1.0078682767       -0.0000000000       -0.4328317318
H     4    1        -0.5400993299       -0.8955984238       -0.3306287316
H     5    1        -0.5400993299        0.8955984238       -0.3306287316
[GTO]
  1 0
 s    9  1.00
  0.6665000000D+04  0.6920001793D-03
  0.1000000000D+04  0.5329001381D-02
  0.2280000000D+03  0.2707700701D-01
  0.6471000000D+02  0.1017180264D+00
  0.2106000000D+02  0.2747400712D+00
  0.7495000000D+01  0.4485641162D+00
  0.2797000000D+01  0.2850740738D+00
  0.5215000000D+00  0.1520400394D-01
  0.1596000000D+00 -0.3191000827D-02
 s    9  1.00
  0.6665000000D+04 -0.1460000642D-03
  0.1000000000D+04 -0.1154000508D-02
  0.2280000000D+03 -0.5725002519D-02
  0.6471000000D+02 -0.2331201026D-01
  0.2106000000D+02 -0.6395502813D-01
  0.7495000000D+01 -0.1499810660D+00
  0.2797000000D+01 -0.1272620560D+00
  0.5215000000D+00  0.5445292395D+00
  0.1596000000D+00  0.5804962554D+00
 s    9  1.00
  0.6665000000D+04  0.0000000000D+00
  0.1000000000D+04  0.0000000000D+00
  0.2280000000D+03  0.0000000000D+00
  0.6471000000D+02  0.0000000000D+00
  0.2106000000D+02  0.0000000000D+00
  0.7495000000D+01  0.0000000000D+00
  0.2797000000D+01  0.0000000000D+00
  0.5215000000D+00  0.0000000000D+00
  0.1596000000D+00  0.1000000000D+01
 s    1  1.00
  0.4690000000D-01  0.1000000000D+01
 p    4  1.00
  0.9439000000D+01  0.3810902127D-01
  0.2002000000D+01  0.2094801169D+00
  0.5456000000D+00  0.5085572839D+00
  0.1517000000D+00  0.4688422617D+00
 p    4  1.00
  0.9439000000D+01  0.0000000000D+00
  0.2002000000D+01  0.0000000000D+00
  0.5456000000D+00  0.0000000000D+00
  0.1517000000D+00  0.1000000000D+01
 p    1  1.00
  0.4041000000D-01  0.1000000000D+01
 d    1  1.00
  0.5500000000D+00  0.1000000000D+01
 d    1  1.00
  0.1510000000D+00  0.1000000000D+01
  
  2 0
 s    4  1.00
  0.1301000000D+02  0.1968498999D-01
  0.1962000000D+01  0.1379769298D+00
  0.4446000000D+00  0.4781477569D+00
  0.1220000000D+00  0.5012397451D+00
 s    4  1.00
  0.1301000000D+02  0.0000000000D+00
  0.1962000000D+01  0.0000000000D+00
  0.4446000000D+00  0.0000000000D+00
  0.1220000000D+00  0.1000000000D+01
 s    1  1.00
  0.2974000000D-01  0.1000000000D+01
 p    1  1.00
  0.7270000000D+00  0.1000000000D+01
 p    1  1.00
  0.1410000000D+00  0.1000000000D+01
  
  3 0
 s    4  1.00
  0.1301000000D+02  0.1968498999D-01
  0.1962000000D+01  0.1379769298D+00
  0.4446000000D+00  0.4781477569D+00
  0.1220000000D+00  0.5012397451D+00
 s    4  1.00
  0.1301000000D+02  0.0000000000D+00
  0.1962000000D+01  0.0000000000D+00
  0.4446000000D+00  0.0000000000D+00
  0.1220000000D+00  0.1000000000D+01
 s    1  1.00
  0.2974000000D-01  0.1000000000D+01
 p    1  1.00
  0.7270000000D+00  0.1000000000D+01
 p    1  1.00
  0.1410000000D+00  0.1000000000D+01
  
  4 0
 s    4  1.00
  0.1301000000D+02  0.1968498999D-01
  0.1962000000D+01  0.1379769298D+00
  0.4446000000D+00  0.4781477569D+00
  0.1220000000D+00  0.5012397451D+00
 s    4  1.00
  0.1301000000D+02  0.0000000000D+00
  0.1962000000D+01  0.0000000000D+00
  0.4446000000D+00  0.0000000000D+00
  0.1220000000D+00  0.1000000000D+01
 s    1  1.00
  0.2974000000D-01  0.1000000000D+01
 p    1  1.00
  0.7270000000D+00  0.1000000000D+01
 p    1  1.00
  0.1410000000D+00  0.1000000000D+01
  
  5 0
 s    4  1.00
  0.1301000000D+02  0.1968498999D-01
  0.1962000000D+01  0.1379769298D+00
  0.4446000000D+00  0.4781477569D+00
  0.1220000000D+00  0.5012397451D+00
 s    4  1.00
  0.1301000000D+02  0.0000000000D+00
  0.1962000000D+01  0.0000000000D+00
  0.4446000000D+00  0.0000000000D+00
  0.1220000000D+00  0.1000000000D+01
 s    1  1.00
  0.2974000000D-01  0.1000000000D+01
 p    1  1.00
  0.7270000000D+00  0.1000000000D+01
 p    1  1.00
  0.1410000000D+00  0.1000000000D+01


[MO]
 Sym=      1.1
 Ene=     -10.1729
 Spin= Alpha
 Occup=    2.000000
1 1.00895150889136
2 0.044353273266323
3 -0.085047471093985
4 -0.018452864257214
5 0.000000224669663
6 -0.000000000000003
7 0.000000297352692
8 -0.000001308512346
9 0.000000000000007
10 0.000002343751105
11 0.000000729208335
12 -0.000000000000001
13 0.000001744145059
14 0.000000550011051
15 0.000000089693769
16 -0.000000639704820
17 -0.000000000000001
18 -0.000000031158651
19 0.000000000000000
20 -0.000001304655339
21 -0.000000156724168
22 0.000001461379507
23 0.000000000000001
24 0.000000080776464
25 -0.000000000000001
26 -0.000937665546572
27 0.016134732498811
28 0.001792082824165
29 0.000112699930062
30 -0.000000000000000
31 0.001706363371532
32 -0.000340550260089
33 0.000000000000000
34 -0.005155658674224
35 -0.000937866521557
36 0.016148844260489
37 0.001794150889673
38 0.001571636590477
39 -0.000000000000000
40 -0.000674948410685
41 -0.004751610624918
42 -0.000000000000001
43 0.002040059580364
44 -0.000937779039771
45 0.016143707146157
46 0.001794951912826
47 -0.000842093274071
48 -0.001396432452830
49 -0.000515588576302
50 0.002545163908395
51 0.004220749181245
52 0.001557312331729
53 -0.000937779039772
54 0.016143707146150
55 0.001794951912825
56 -0.000842093274069
57 0.001396432452828
58 -0.000515588576302
59 0.002545163908391
60 -0.004220749181243
61 0.001557312331729
 Sym=      2.1
 Ene=      -0.6955
 Spin= Alpha
 Occup=    2.000000
1 -0.020512495689217
2 0.77973355609725
3 -0.33640126915863
4 0.030468298233097
5 0.000019861911050
6 0.000000000000380
7 0.000056357843475
8 -0.000703378932413
9 -0.000000000001448
10 -0.000238108292103
11 -0.000185859720720
12 -0.000000000000142
13 -0.000242408450133
14 -0.000013954286271
15 0.000009441681407
16 0.000004512604864
17 -0.000000000000019
18 0.000007965843833
19 -0.000000000000057
20 0.000024985591399
21 0.000066891666844
22 -0.000091877258243
23 0.000000000000317
24 0.000073524480211
25 0.000000000000223
26 0.31687139485751
27 -0.11487083007327
28 -0.001731573233739
29 -0.001592854778384
30 0.000000000000030
31 -0.024210752106532
32 -0.001200974076019
33 -0.000000000000147
34 -0.017731766568087
35 0.31685381432064
36 -0.11433593902464
37 -0.001831272754063
38 -0.022300285321708
39 0.000000000000009
40 0.009574903237635
41 -0.016610764440247
42 -0.000000000000107
43 0.007168225051017
44 0.31678919930269
45 -0.11598427274243
46 -0.002067064624774
47 0.011947304901764
48 0.019803743802369
49 0.007312824011531
50 0.008643865096081
51 0.014245392935935
52 0.005290978835835
53 0.31678919930339
54 -0.11598427273840
55 -0.002067064624712
56 0.011947304901865
57 -0.019803743802393
58 0.007312824011533
59 0.008643865096697
60 -0.014245392937291
61 0.005290978836223
 Sym=      3.1
 Ene=      -0.3934
 Spin= Alpha
 Occup=    2.000000
1 0.000029645336650
2 0.000094206710517
3 -0.000506412615324
4 0.000790613188606
5 0.66896273439015
6 -0.000000001681126
7 -0.002754859606655
8 -0.33360958217377
9 0.000000000837472
10 0.000299357079492
11 -0.032480812122385
12 0.000000000081741
13 -0.000910551390768
14 0.012090832316791
15 -0.014656886401872
16 0.002566054085081
17 0.000000000042627
18 -0.012303660953233
19 0.000000000026150
20 -0.037133163937065
21 0.045135593125866
22 -0.008002429188801
23 -0.000000000130735
24 0.037843546579673
25 -0.000000000080525
26 0.042741154209073
27 0.010653131517365
28 0.004872857930800
29 0.015229217753174
30 -0.000000000038578
31 -0.001861690575824
32 0.001374517966883
33 -0.000000000004669
34 -0.006833320321294
35 0.63603917892181
36 0.13438797102404
37 0.051576273547073
38 -0.009148612372802
39 -0.000000000038555
40 0.010448522065605
41 -0.083631373206012
42 -0.000000000005144
43 0.036934526501126
44 -0.33935123112947
45 -0.072602311725118
46 -0.028455797078778
47 0.008342700581913
48 -0.011621278445953
49 -0.004350678835384
50 -0.022728030408361
51 -0.040746523446620
52 -0.014894107487766
53 -0.33935123396496
54 -0.072602312323765
55 -0.028455797311760
56 0.008342700523340
57 0.011621278465931
58 -0.004350678871285
59 -0.022728030612908
60 0.040746523775393
61 -0.014894107611722
 Sym=      4.1
 Ene=      -0.3934
 Spin= Alpha
 Occup=    2.000000
1 0.000000000000061
2 0.000000000000122
3 0.000000000000233
4 0.000000000003696
5 0.000000001674967
6 0.66895370659436
7 -0.000000001460822
8 -0.000000000836512
9 -0.33277374983113
10 0.000000000723906
11 -0.000000000081961
12 -0.032452497685340
13 0.000000000068302
14 0.000000000053256
15 -0.000000000016999
16 -0.000000000036257
17 -0.016967783147230
18 -0.000000000037477
19 -0.010390237331887
20 -0.000000000163279
21 0.000000000052779
22 0.000000000110500
23 0.051919579403860
24 0.000000000115547
25 0.031969861939660
26 -0.000000001391407
27 -0.000000000287922
28 -0.000000000110775
29 0.000000000042236
30 0.015347199600368
31 0.000000000024743
32 0.000000000018231
33 0.001912927751876
34 0.000000000196341
35 0.000000002185248
36 0.000000000460869
37 0.000000000178523
38 -0.000000000045727
39 0.015341020604213
40 0.000000000002647
41 -0.000000000289327
42 0.002086934902356
43 0.000000000121749
44 -0.56418380773632
45 -0.11831754464029
46 -0.046325264150175
47 -0.011646237173324
48 -0.003973780250119
49 -0.007144963103045
50 -0.040578822370686
51 -0.065162407195230
52 -0.024590529717014
53 0.56418380694234
54 0.11831754446362
55 0.046325264081105
56 0.011646237233867
57 -0.003973780222949
58 0.007144963025916
59 0.040578822322386
60 -0.065162407097663
61 0.024590529673575
 Sym=      5.1
 Ene=      -0.3934
 Spin= Alpha
 Occup=    2.000000
1 -0.000017539880748
2 0.000013373010676
3 0.000363870086550
4 0.000182110485099
5 -0.002783705190632
6 -0.000000001453746
7 -0.66894749172501
8 0.001248059613811
9 0.000000000722159
10 0.33232729402166
11 -0.000002221380746
12 0.000000000070288
13 0.032310616323677
14 0.010565938850693
15 0.009076805612647
16 -0.019642744463340
17 0.000000000036865
18 -0.003029096929263
19 0.000000000022541
20 -0.032109943471299
21 -0.027914753513359
22 0.060024696984658
23 -0.000000000112587
24 0.009331370906837
25 -0.000000000069351
26 -0.68961179982403
27 -0.14388715719280
28 -0.056289453119853
29 0.001821925483702
30 -0.000000000033348
31 0.013532078400014
32 0.006793707300855
33 -0.000000000004249
34 0.097931987178706
35 0.27009696637854
36 0.055789111285378
37 0.022267833855712
38 -0.010464265330816
39 -0.000000000033338
40 -0.010864127937476
41 -0.036099135827749
42 -0.000000000004632
43 0.013175132772044
44 0.20974973505184
45 0.043666902074804
46 0.017142447444293
47 0.004259349460609
48 0.007178482001921
49 -0.012701065081170
50 0.015229144118962
51 0.024756857019265
52 0.007228820167846
53 0.20974973259977
54 0.043666901563781
55 0.017142447243310
56 0.004259349410050
57 -0.007178481984676
58 -0.012701065112230
59 0.015229143943068
60 -0.024756856737070
61 0.007228820061329
 Sym=      6.1
 Ene=      -0.0058
 Spin= Alpha
 Occup=    0.000000
1 0.006554846727634
2 -0.26542884513188
3 -0.52733731610293
4 -1.74292372758105
5 0.006814617603238
6 0.000000000000288
7 0.009627017610596
8 -0.045104094689158
9 -0.000000000003021
10 -0.041272455207569
11 -0.026119436729728
12 0.000000000004868
13 -0.042079265269630
14 -0.000176765781720
15 0.000365811841493
16 -0.000189046059773
17 0.000000000000004
18 0.000041549844104
19 0.000000000000023
20 0.000647984231030
21 0.008492706877741
22 -0.009140691108771
23 0.000000000001011
24 0.005892571713353
25 0.000000000000458
26 0.013049689787102
27 0.37190933004411
28 0.52204595419236
29 0.000518153158785
30 0.000000000000052
31 0.007437216923294
32 0.000071810059666
33 -0.000000000000798
34 -0.024605485688235
35 0.007454260280446
36 0.34217280202869
37 0.55687373766715
38 0.007741492494204
39 0.000000000000051
40 -0.003325844842272
41 -0.021711851125499
42 -0.000000000000941
43 0.013968774206889
44 -0.000050681886525
45 0.23509647912963
46 0.61976177982483
47 -0.004667249890484
48 -0.007942649861269
49 -0.002984737321098
50 0.001567770443577
51 -0.004890859666532
52 0.005084646492515
53 -0.000050681886028
54 0.23509647914122
55 0.61976177980407
56 -0.004667249890459
57 0.007942649861308
58 -0.002984737321061
59 0.001567770445020
60 0.004890859662023
61 0.005084646493664
 Sym=      7.1
 Ene=       0.0314
 Spin= Alpha
 Occup=    0.000000
1 0.000221622402433
2 -0.018437004959854
3 -0.017132438279988
4 -0.013177008970389
5 -0.19948871831603
6 0.000000000010676
7 -0.077764231003156
8 -0.074090184513739
9 0.000000000012554
10 -0.080001838142883
11 -0.95918360854554
12 0.000000000061445
13 -0.48978403835865
14 -0.000319284453344
15 0.000999976197685
16 -0.000680691744340
17 -0.000000000000043
18 0.000393059874089
19 -0.000000000000039
20 0.014734909004895
21 -0.022113283610053
22 0.007378374605159
23 -0.000000000000277
24 -0.013983688740263
25 -0.000000000000169
26 -0.018179899321600
27 0.13475465092378
28 1.93228788637641
29 -0.004143641617730
30 0.000000000000238
31 0.004963391981559
32 0.059027347457613
33 -0.000000000003607
34 -0.002777526495706
35 -0.042066563796240
36 0.037281991474219
37 2.81727789038819
38 0.006575796009741
39 0.000000000000238
40 -0.007037918547254
41 0.056304728968047
42 -0.000000000003600
43 0.036726388029479
44 0.031706964442762
45 -0.064898003590131
46 -2.35101738023472
47 -0.000301173311858
48 0.007202545771635
49 0.000605978468430
50 0.049915623959986
51 -0.025241972550102
52 0.024291118467172
53 0.031706964446326
54 -0.064898003624049
55 -2.35101738059338
56 -0.000301173311212
57 -0.007202545772181
58 0.000605978468806
59 0.049915623954566
60 0.025241972551469
61 0.024291118463939
 Sym=      8.1
 Ene=       0.0327
 Spin= Alpha
 Occup=    0.000000
1 -0.000840437260492
2 0.008111949972875
3 0.032279750462415
4 0.078094296911851
5 -0.080836471643363
6 -0.000000000005944
7 0.20256898986217
8 -0.049044017955247
9 0.000000000007426
10 0.047683780442390
11 -0.41454372700483
12 -0.000000000023937
13 0.92754881482188
14 -0.000879925993656
15 -0.000033257703447
16 0.000913183697103
17 0.000000000000040
18 0.000456347857104
19 0.000000000000028
20 0.022514877517900
21 0.007932964519300
22 -0.030447842037200
23 -0.000000000002714
24 -0.009545568069054
25 -0.000000000001635
26 0.053413792249457
27 -0.038561254935551
28 -3.62820667854394
29 -0.002987092353005
30 -0.000000000000192
31 -0.010145257539335
32 0.029508409805767
33 0.000000000002620
34 -0.060376029823237
35 -0.040248953095418
36 0.045268213863080
37 2.88893205613744
38 0.008777558149208
39 -0.000000000000192
40 0.000267458723697
41 0.006566028174295
42 0.000000000002649
43 -0.058466404802506
44 -0.007279251793031
45 -0.046563638976626
46 0.33411914304415
47 -0.002776231123218
48 -0.001408843598590
49 0.004229181601895
50 0.025041352059232
51 -0.006579352240955
52 -0.067493776567416
53 -0.007279251796301
54 -0.046563639005670
55 0.33411914321220
56 -0.002776231123621
57 0.001408843598852
58 0.004229181601655
59 0.025041352054854
60 0.006579352253737
61 -0.067493776570153
 Sym=      9.1
 Ene=       0.0329
 Spin= Alpha
 Occup=    0.000000
1 -0.000000000001038
2 -0.000000000006013
3 0.000000000026548
4 0.000000000036825
5 -0.000000000007874
6 -0.21778725858677
7 -0.000000000009069
8 -0.000000000017768
9 -0.10130709902676
10 -0.000000000016035
11 -0.000000000039104
12 -1.03631379780913
13 -0.000000000051392
14 0.000000000000034
15 0.000000000000001
16 -0.000000000000035
17 0.000916924580369
18 -0.000000000000017
19 0.000582118272483
20 -0.000000000000749
21 0.000000000002947
22 -0.000000000002198
23 -0.019354601513704
24 0.000000000001764
25 -0.012122305351792
26 -0.000000000001966
27 0.000000000021144
28 0.000000000189963
29 -0.000000000000011
30 -0.004877912151140
31 0.000000000000759
32 0.000000000000126
33 0.067323780079091
34 -0.000000000004037
35 -0.000000000000828
36 0.000000000010198
37 0.000000000061232
38 0.000000000000391
39 -0.004912338893266
40 -0.000000000000365
41 -0.000000000002009
42 0.067420429159888
43 0.000000000003442
44 0.045547243103405
45 -0.10437950106302
46 -3.31835478550736
47 0.006608798263344
48 0.005843625515647
49 0.003995787308755
50 -0.016977352854757
51 0.042620045167275
52 -0.009835204334472
53 -0.045547243101157
54 0.10437950099012
55 3.31835478524006
56 -0.006608798263319
57 0.005843625515349
58 -0.003995787308939
59 0.016977352845032
60 0.042620045186195
61 0.009835204332266
 Sym=     10.1
 Ene=       0.0893
 Spin= Alpha
 Occup=    0.000000
1 -0.000410144254662
2 0.015770505583396
3 0.021017907043364
4 -0.035017564809672
5 0.009712565769412
6 0.000000000000977
7 0.080527314315028
8 -0.049719508067507
9 -0.000000000024404
10 -1.30053442309601
11 -0.064222699841705
12 -0.000000000032505
13 -3.60597457697419
14 -0.010430862198880
15 -0.009171494781496
16 0.019602356980376
17 -0.000000000000163
18 0.001976273071594
19 -0.000000000000074
20 0.14051259281619
21 0.12785465431337
22 -0.26836724712956
23 0.000000000005042
24 -0.022103675385440
25 0.000000000002754
26 0.28123598836670
27 2.80635748078004
28 5.41011825185767
29 -0.000549761195078
30 0.000000000000032
31 -0.015976392471591
32 -0.053854092543625
33 -0.000000000001005
34 -0.57003408654023
35 -0.10533226165159
36 -1.01110885628348
37 -2.08883331195040
38 0.002243741775433
39 0.000000000000021
40 -0.009135525457206
41 0.16905124647464
42 -0.000000000001295
43 -0.065243351738650
44 -0.091138040355628
45 -0.92162452386138
46 -1.64757234695260
47 -0.000794021892732
48 -0.001856397387909
49 -0.009161616198614
50 -0.096684680240618
51 -0.15995322026629
52 -0.026196784557298
53 -0.091138040350674
54 -0.92162452377629
55 -1.64757234687672
56 -0.000794021892628
57 0.001856397387774
58 -0.009161616198527
59 -0.096684680229677
60 0.15995322024557
61 -0.026196784550062
 Sym=     11.1
 Ene=       0.0944
 Spin= Alpha
 Occup=    0.000000
1 0.002339534921278
2 0.029090543149378
3 -0.064777200624989
4 -0.28197510107300
5 0.072422506816350
6 -0.000000000001174
7 -0.004629498373932
8 -1.20343638144730
9 0.000000000019864
10 0.027281230629803
11 -3.50300707855350
12 0.000000000047218
13 0.086723043429457
14 0.013783353197481
15 -0.016094968843380
16 0.002311615645899
17 0.000000000000215
18 -0.012943075693865
19 0.000000000000176
20 -0.16249274866815
21 0.18998159308305
22 -0.027488844414901
23 -0.000000000003351
24 0.14812098754879
25 -0.000000000002498
26 0.009552494979994
27 0.15276639995309
28 0.27213202246369
29 -0.008570818805464
30 0.000000000000089
31 -0.001135865089035
32 0.008146791852014
33 0.000000000000463
34 -0.034488187017614
35 0.26466999017895
36 2.51876928712521
37 4.93142991823095
38 -0.014651046680618
39 0.000000000000082
40 0.003033370595317
41 -0.45705758812170
42 0.000000000000033
43 0.20353417989627
44 -0.14124351123064
45 -1.25878109687962
46 -2.50791879300911
47 -0.009498086723804
48 -0.001401545269222
49 -0.000473444968580
50 -0.12174633583016
51 -0.19110616907754
52 -0.073979143081007
53 -0.14124351123714
54 -1.25878109695007
55 -2.50791879312423
56 -0.009498086723902
57 0.001401545269553
58 -0.000473444968627
59 -0.12174633583846
60 0.19110616909100
61 -0.073979143085391
 Sym=     12.1
 Ene=       0.0978
 Spin= Alpha
 Occup=    0.000000
1 0.000000000002112
2 0.000000000013082
3 -0.000000000060573
4 -0.000000000144697
5 -0.000000000000347
6 -0.067191244220729
7 0.000000000000476
8 0.000000000045045
9 1.14559338925167
10 0.000000000008418
11 0.000000000051158
12 3.44166340711556
13 -0.000000000027769
14 -0.000000000000301
15 0.000000000000161
16 0.000000000000140
17 0.019671085652422
18 0.000000000000243
19 0.012049460314351
20 0.000000000005296
21 -0.000000000009356
22 0.000000000004061
23 -0.20732348316021
24 -0.000000000006439
25 -0.12713339351893
26 0.000000000001027
27 0.000000000006582
28 0.000000000062457
29 -0.000000000000103
30 0.008675775047845
31 -0.000000000000745
32 0.000000000003318
33 0.013623908995939
34 0.000000000002648
35 -0.000000000005777
36 -0.000000000054386
37 -0.000000000064087
38 -0.000000000000481
39 0.008757494750465
40 -0.000000000000027
41 0.000000000013764
42 0.012244507976690
43 -0.000000000002775
44 0.23686043513026
45 2.11672475121340
46 4.22765493715119
47 0.002135591971887
48 0.011975394341598
49 0.001207469500768
50 0.19355481227034
51 0.33903124624183
52 0.12023451706169
53 -0.23686043512645
54 -2.11672475104873
55 -4.22765493705722
56 -0.002135591971319
57 0.011975394340403
58 -0.001207469500714
59 -0.19355481224109
60 0.33903124620419
61 -0.12023451704434
 Sym=     13.1
 Ene=       0.1099
 Spin= Alpha
 Occup=    0.000000
1 -0.071113442751365
2 -0.60718845345516
3 2.02455189791627
4 7.28446004017439
5 0.007923747162759
6 0.000000000001087
7 0.004763736906496
8 -0.047152876303249
9 0.000000000040505
10 -0.023180054837235
11 -0.13887231536845
12 0.000000000058528
13 -0.057265095274498
14 0.000251226976210
15 -0.001246681326341
16 0.000995454350131
17 0.000000000000496
18 -0.000691871168163
19 0.000000000000287
20 -0.000869349405592
21 0.011230759770831
22 -0.010361410365239
23 -0.000000000009146
24 0.006275937797734
25 -0.000000000005013
26 0.046610150966806
27 -1.10582926508142
28 -1.14651070671296
29 0.001577376704672
30 0.000000000000023
31 0.027441547225944
32 0.014058711567292
33 0.000000000004099
34 0.31356282337724
35 0.049626928662426
36 -1.09633132178112
37 -1.08813012336115
38 0.024862917291680
39 0.000000000000055
40 -0.010826834010909
41 0.28588335924025
42 0.000000000004490
43 -0.13217093867241
44 0.030501350234088
45 -1.25692128944581
46 -1.34377276291780
47 -0.013898518116134
48 -0.022696559065922
49 -0.008385128226081
50 -0.17891071995416
51 -0.28827689046574
52 -0.11203549861132
53 0.030501350222748
54 -1.25692128959769
55 -1.34377276306537
56 -0.013898518116262
57 0.022696559066133
58 -0.008385128226131
59 -0.17891071996926
60 0.28827689050101
61 -0.11203549862153
 Sym=     14.1
 Ene=       0.1717
 Spin= Alpha
 Occup=    0.000000
1 -0.000051557850534
2 -0.000539967765002
3 -0.000085231608305
4 0.020034622230413
5 -0.18614050275664