
 Primary working directories    : /data/scratch
 Secondary working directories  : /data/scratch
 Wavefunction directory         : /home/ospite/wfu/
 Main file repository           : /data/scratch/

 ARCHNAME  : Linux/x86_64
 FC        : /usr/bin/gfortran
 FCVERSION : 4.8.5
 BLASLIB   : 
 id        : polimi

 Nodes     nprocs
 molmod       1

 Using default tuning parameters: mindgm=1; mindgv=20; mindgc=4; mindgr=1; noblas=0; mincuda=1000; minvec=7
 default implementation of scratch files=df  

 ***,methane with imposed symmetry and sto-g3 basis set
 memory,100,m
 
 basis=sto-3g
 symmetry,y
 
 geometry={angstrom
 C
 H1, C, d
 H2, C, d, H1, a
 H3, C, d, H1, a, H2, t
 H4, C, d, H1, a, H2, -t
 }
 
 d=1.09 Ang
 a=109.47 Deg
 t=120.0 Deg
 
 {dfunc,b3lyp3}
 ks
 optg
 frequencies
 put,molden,ch4_sto-3g.molpro

 Variables initialized (661), CPU time= 0.02 sec
 Commands  initialized (458), CPU time= 0.06 sec, 486 directives.
 Default parameters read. Elapsed time= 0.14 sec

 Checking input...
 Passed
1


                                         ***  PROGRAM SYSTEM MOLPRO  ***
                         Copyright, University College Cardiff Consultants Limited, 2008

                                    Version 2010.1 linked Mar  6 2018 16:01:50


 **********************************************************************************************************************************
 LABEL *   methane with imposed symmetry and sto-g3 basis set                            
 Linux-3.10.0-1160.108.1.el7.x86_64/molmod(x86_64) 64 bit serial version                 DATE: 18-Aug-24          TIME: 12:21:44  
 **********************************************************************************************************************************

 SHA1:             d90fb18d49a3be29a79769f900c595ef3b8176e2
 **********************************************************************************************************************************

 Variable memory set to  100000000 words,  buffer space   230000 words

 SETTING BASIS          =    STO-3G
 ZSYMEL=Y  

 SETTING D              =         1.09000000  ANG                             
 SETTING A              =       109.47000000  DEG                             
 SETTING T              =       120.00000000  DEG                             


 Recomputing integrals since basis changed


 Using spherical harmonics

 Library entry C      S STO-3G               selected for orbital group  1
 Library entry C      P STO-3G               selected for orbital group  1
 Library entry H      S STO-3G               selected for orbital group  2

1PROGRAM * SEWARD (Integral evaluation for generally contracted gaussian basis sets)     Author: Roland Lindh, 1990

 Geometry written to block  1 of record 700

 Orientation using atomic masses  
 Molecule type: Symmetric top,     Order of principal axis = 3
 User-specified symmetry elements: Y
 Symmetry elements: Y
 Rotational constants:     158.2574080    158.2574080    158.2538321 GHz  (calculated with average atomic masses)

 Point group  Cs  



 ATOMIC COORDINATES

 NR  ATOM    CHARGE       X              Y              Z

   1  C       6.00   -0.000000000    0.000000000   -0.000007798
   2  H1      1.00   -0.000000000    0.000000000    2.059793685
   3  H2      1.00    1.942014089    0.000000000   -0.686566920
   4  H3      1.00   -0.971007045   -1.681833536   -0.686566920
   5  H4      1.00   -0.971007045    1.681833536   -0.686566920

 Bond lengths in Bohr (Angstrom)

 1-2  2.059801483  1-3  2.059801483  1-4  2.059801483  1-5  2.059801483
     ( 1.090000000)     ( 1.090000000)     ( 1.090000000)     ( 1.090000000)

 Bond angles

  2-1-3  109.47000000   2-1-4  109.47000000   2-1-5  109.47000000   3-1-4  109.47244124

  3-1-5  109.47244124   4-1-5  109.47244124

 NUCLEAR CHARGE:                   10
 NUMBER OF PRIMITIVE AOS:          27
 NUMBER OF SYMMETRY AOS:           27
 NUMBER OF CONTRACTIONS:            9   (   7A'  +   2A"  )
 NUMBER OF CORE ORBITALS:           1   (   1A'  +   0A"  )
 NUMBER OF VALENCE ORBITALS:        8   (   6A'  +   2A"  )


 NUCLEAR REPULSION ENERGY   13.43538921


 Eigenvalues of metric

         1 0.221E+00 0.369E+00 0.369E+00 0.971E+00 0.146E+01 0.146E+01 0.232E+01
         2 0.369E+00 0.146E+01


 Contracted 2-electron integrals neglected if value below      1.0D-11
 AO integral compression algorithm  1   Integral accuracy      1.0D-11

     0.262 MB (compressed) written to integral file (100.0%)


 NUMBER OF SORTED TWO-ELECTRON INTEGRALS:        664.     BUFFER LENGTH:  32768
 NUMBER OF SEGMENTS:   1  SEGMENT LENGTH:        664      RECORD LENGTH: 524288

 Memory used in sort:       0.56 MW

 SORT1 READ         796. AND WROTE         590. INTEGRALS IN      1 RECORDS. CPU TIME:     0.00 SEC, REAL TIME:     0.01 SEC
 SORT2 READ         590. AND WROTE         664. INTEGRALS IN      1 RECORDS. CPU TIME:     0.00 SEC, REAL TIME:     0.01 SEC

 FILE SIZES:   FILE 1:     2.8 MBYTE,  FILE 4:     4.2 MBYTE,   TOTAL:      7.1 MBYTE

 OPERATOR DM      FOR CENTER  0  COORDINATES:    0.000000    0.000000    0.000000


 **********************************************************************************************************************************
 DATASETS  * FILE   NREC   LENGTH (MB)   RECORD NAMES
              1      19        2.58       500      610      700      900      950      970     1000      129      960     1100   
                                          VAR    BASINP    GEOM    SYMINP    ZMAT    AOBASIS   BASIS     P2S    ABASIS      S 
                                         1400     1410     1200     1210     1080     1600     1650     1300     1700   
                                           T        V       H0       H01     AOSYM     SMH    MOLCAS    ERIS     OPER   

 PROGRAMS   *        TOTAL       INT
 CPU TIMES  *         0.74      0.22
 REAL TIME  *         1.00 SEC
 DISK USED  *         7.58 MB      
 **********************************************************************************************************************************

 Density functional group B3LYP3=B88+DIRAC+LYP+VWN3
 Functional: B88(Automatically generated B88)                                  Gradient terms: 1
 Functional: DIRAC(Automatically generated DIRAC)                              Gradient terms: 0
 Functional: LYP(Lee-Yang-Parr gradient-corrected correlation energy (1988))   Gradient terms: 1
 Functional: VWN3(Automatically generated VWN3)                                Gradient terms: 0
 Use grid at  1800.2


 Exact exchange will be calculated, factor:  0.2000

 Functional: B88                       Factor:  0.7200
 Functional: DIRAC                     Factor:  0.0800
 Functional: LYP                       Factor:  0.8100
 Functional: VWN3                      Factor:  0.1900

 Generated new metagrid on record  1800.2 with target accuracy 1.0D-06 and 7496 points in CPU time    0.3
 Computed new grid on record 1800.1 in CPU time    0.3
   11047 words reserved for DFT integration

 PROGRAM * RKS-SCF (Restricted closed shell Kohn-Sham)     Authors: W. Meyer, H.-J. Werner, P.J. Knowles, 1993

 NUMBER OF ELECTRONS:       5+    5-
 CONVERGENCE THRESHOLDS:    1.00E-05 (Density)    1.00E-06 (Energy)
 MAX. NUMBER OF ITERATIONS:       60
 INTERPOLATION TYPE:            DIIS
 INTERPOLATION STEPS:              2 (START)      1 (STEP)
 LEVEL SHIFTS:                  0.00 (CLOSED)  0.00 (OPEN) 



 Use fine grid record 1800.2 for energy threshold 1.0D-06
 Orbital guess generated from atomic densities. Full valence occupancy:    7   2

 Molecular orbital dump at record        2100.2

 Initial alpha occupancy:   4   1
 Initial beta  occupancy:   4   1
 Wave function symmetry:    1

 ITERATION    DDIFF          GRAD             ENERGY        2-EL.EN.            DIPOLE MOMENTS         DIIS
    1      0.000D+00      0.000D+00       -40.03438658     63.745410    0.00000    0.00000    0.00001    0
    2      0.000D+00      0.211D-01       -40.03596488     62.620299    0.00000    0.00000   -0.00000    1
    3      0.477D-01      0.172D-01       -40.03877754     63.116973    0.00000    0.00000    0.00000    2
    4      0.212D-01      0.114D-03       -40.03877767     63.119538    0.00000    0.00000    0.00000    3
    5      0.166D-03      0.504D-05       -40.03877767     63.119641    0.00000    0.00000    0.00000    4
    6      0.843D-05      0.152D-08       -40.03877767     63.119641    0.00000    0.00000    0.00000    0

 Final occupancy:   4   1

 !RKS STATE 1.1 Energy                -40.038777671875
 Nuclear energy                        13.43538921
 One-electron energy                  -79.42889436
 Two-electron energy                   31.55982041
 SCF exchange energy                   -6.61521457     Factor=0.2000
 Density functional                    -5.60509293     B88=-6.58985932 DIRAC=-5.90879645 LYP=-0.29418685 VWN3=-0.78631136
 Virial quotient                       -1.01577023
 !RKS STATE 1.1 Dipole moment           0.00000144     0.00000000     0.00000241
 Dipole moment /Debye                   0.00000367     0.00000000     0.00000614

 Orbital energies:

         1.1          2.1          3.1          4.1          5.1          6.1
     -9.995845    -0.663617    -0.362067    -0.362061     0.460671     0.460685

         1.2          2.2
     -0.362065     0.460680


 **********************************************************************************************************************************
 DATASETS  * FILE   NREC   LENGTH (MB)   RECORD NAMES
              1      20        2.82       500      610      700      900      950      970     1000      129      960     1100   
                                          VAR    BASINP    GEOM    SYMINP    ZMAT    AOBASIS   BASIS     P2S    ABASIS      S 
                                         1400     1410     1200     1210     1080     1600     1650     1300     1700     1800   
                                           T        V       H0       H01     AOSYM     SMH    MOLCAS    ERIS     OPER     GRID   

              2       4        0.29       700     1000     1800     2100   
                                         GEOM     BASIS    GRID      RKS  

 PROGRAMS   *        TOTAL        KS       INT
 CPU TIMES  *         1.86      1.12      0.22
 REAL TIME  *         2.75 SEC
 DISK USED  *         7.58 MB      
 **********************************************************************************************************************************


 PROGRAM * OPT (Geometry optimization)     Authors: F. Eckert and H.-J. Werner


 BFGS update of hessian

 *** Long output written to logfile /home/ospite/Desktop/MMfP/Project6/CH4/molpro/DFT/B3LYP/ch4_sto-3g.log ***


 Geometry optimization using default procedure for command KS-SCF

 Geometry written to block  1 of record 700

 Making model hessian for Z-matrix coordinates

 Quadratic Steepest Descent - Minimum Search

 Optimization point 1

 Variable                      Last           Current        Next           Gradient       Hessian

 E(KS-SCF000) / Hartree      0.00000000   -40.03877767     0.00000000
 D / ANG                     0.00000000     1.09000000     1.09593591    -0.04079406     6.87242182
 A / DEG                     0.00000000   109.47000000   109.46925177     0.00000017     0.00023257
 T / DEG                     0.00000000   120.00000000   120.00519785    -0.00000078     0.00014996
 Convergence:                0.00000000  (line search)     0.01121761     0.02158734  (total)

 Optimization point 2

 Variable                      Last           Current        Next           Gradient       Hessian

 E(KS-SCF000) / Hartree    -40.03877767   -40.03891607     0.00000000
 D / ANG                     1.09000000     1.09593591     1.09680898    -0.00522871     5.99137006
 A / DEG                   109.47000000   109.46925177   109.46961422    -0.00000007     0.00022507
 T / DEG                   120.00000000   120.00519785   119.99521399     0.00000126     0.00014499
 Convergence:                0.00000000  (line search)     0.00165905     0.00276786  (total)

 Freezing grid

 Optimization point 3

 Variable                      Last           Current        Next           Gradient       Hessian

 E(KS-SCF000) / Hartree    -40.03891607   -40.03891722     0.00000000
 D / ANG                     1.09593591     1.09680898     1.09682863    -0.00010169     5.89083934
 A / DEG                   109.46925177   109.46961422   109.46961439     0.00000000     0.00022399
 T / DEG                   120.00519785   119.99521399   119.98646046     0.00000123     0.00014391
 Convergence:                0.00000000  (line search)     0.00015723     0.00008858  (total)

 END OF GEOMETRY OPTIMIZATION.    TOTAL CPU:         6.7 SEC

 ITER.   ENERGY(OLD)    ENERGY(NEW)      DE          GRADMAX     GRADNORM    GRADRMS     STEPMAX     STEPLEN     STEPRMS
   1   -40.03877767   -40.03891607    -0.00013840  0.02158729  0.02158734  0.00719578  0.01121724  0.01121761  0.00373920
   2   -40.03891607   -40.03891722    -0.00000115  0.00276691  0.00276786  0.00092262  0.00164986  0.00165905  0.00055302
   3   -40.03891722   -40.03891726    -0.00000004  0.00007037  0.00008858  0.00002953  0.00015278  0.00015723  0.00005241

 Geometry written to block  1 of record 700


 **********************************************************************************************************************************
 DATASETS  * FILE   NREC   LENGTH (MB)   RECORD NAMES
              1      20        2.82       500      610      700      900      950      970     1000      129      960     1100   
                                          VAR    BASINP    GEOM    SYMINP    ZMAT    AOBASIS   BASIS     P2S    ABASIS      S 
                                         1400     1410     1200     1210     1080     1600     1650     1300     1700     1800   
                                           T        V       H0       H01     AOSYM     SMH    MOLCAS    ERIS     OPER     GRID   

              2       4        0.29       700     1000     1800     2100   
                                         GEOM     BASIS    GRID      RKS  

 PROGRAMS   *        TOTAL      OPTG        KS       INT
 CPU TIMES  *         8.55      6.68      1.12      0.22
 REAL TIME  *        12.21 SEC
 DISK USED  *         7.61 MB      
 **********************************************************************************************************************************


 PROGRAM * HESSIAN

 Computing numerical hessian using default procedure for command KS-SCF

 Symmetry elements for unique displacements: Y  

 Using no symmetry in wavefunction calculations

 Running default procedure: KS-SCF000


 Recomputing wavefunction at reference geometry

 Numerically approximating hessian using central gradient differences

 Task list generated. Total number of displacements:     21

    5 tasks completed, CPU=    15.34 sec, Elapsed=    21.96 sec
   10 tasks completed, CPU=    30.55 sec, Elapsed=    41.52 sec
   15 tasks completed, CPU=    46.06 sec, Elapsed=    62.89 sec
   20 tasks completed, CPU=    60.56 sec, Elapsed=    78.45 sec

 Numerical KS-SCF000 hessian completed. CPU-time:    63.23 sec, Elapsed:    81.22 sec

 KS-SCF hessian saved to record  5300.2

 FREQUENCIES * CALCULATION OF HARMONIC VIBRATIONAL SPECTRA FOR KS-SCF


 Permanent Dipole Moment [debye]
   1-  3    0.000139    0.000000   -0.000004

 Dipole Moment Norm    0.0001387 [debye]

 Dipole Moment Derivatives [debye/ang]
                   1             2             3             4             5             6             7             8
         1    -0.5767368     0.0000000     0.0002459     0.2404985     0.0000000    -0.1584605     0.0287291     0.0000000
         2     0.0000000    -0.5766507    -0.0000000     0.0000000     0.3014288    -0.0000000    -0.0000000     0.3015448
         3     0.0002551     0.0000000    -0.5767950    -0.1584587     0.0000000    -0.1095899     0.2331951     0.0000000
                   9            10            11            12            13            14            15
         1     0.2333348     0.1537412    -0.2156260    -0.0375642     0.1537412     0.2156260    -0.0375642
         2     0.0000000    -0.2155379    -0.0131910    -0.0545824     0.2155379    -0.0131910     0.0545824
         3     0.1020176    -0.0374871    -0.0545134     0.2921519    -0.0374871     0.0545134     0.2921519

 Projecting out rotations and translations

   Low Vibration      Wavenumber
        Nr             [1/cm] 
        1                0.00
        2                0.00
        3                0.00
        4                0.00
        5                0.00
        6                0.00

     Vibration        Wavenumber
        Nr             [1/cm] 
        1             1535.38
        2             1535.47
        3             1535.65
        4             1762.32
        5             1762.51
        6             3283.37
        7             3521.04
        8             3521.30
        9             3521.78

 FREQUENCIES * CALCULATION OF NORMAL MODES FOR KS-SCF


 Atomic Coordinates

  Nr  Atom  Charge       X              Y              Z

   1   C     6.00   -0.000050610    0.000000000    0.000008424
   2   H1    1.00    0.744803669    0.000000000    1.934252755
   3   H2    1.00    1.575325436    0.000000000   -1.346950871
   4   H3    1.00   -1.159763008   -1.692604761   -0.293701135
   5   H4    1.00   -1.159763008    1.692604761   -0.293701135

 Frequencies dumped to record   5400.2

 Gradient norm at reference geometry: 0.10170D-03

 Normal Modes

                              1 A`        2 A`        3 A``       4 A`        5 A``
 Wavenumbers [cm-1]         1535.38     1535.47     1535.65     1762.32     1762.51
 Intensities [km/mol]         12.12       12.13       12.11        0.00        0.00
 Intensities [relative]       99.94      100.00       99.88        0.00        0.00
           CX1             -0.11220     0.01609    -0.00000     0.00008    -0.00000
           CY1              0.00000    -0.00000    -0.11333    -0.00000    -0.00009
           CZ1             -0.01609    -0.11220     0.00000     0.00001    -0.00000
           H1X2             0.43602    -0.28476     0.00000     0.46447    -0.00000
           H1Y2            -0.00000     0.00000     0.55687    -0.00000    -0.49762
           H1Z2            -0.22012     0.01620    -0.00000    -0.17877     0.00000
           H2X3             0.22169     0.29566     0.00000     0.32347    -0.00000
           H2Y3            -0.00000     0.00000     0.55606     0.00000     0.49851
           H2Z3             0.36083     0.23041     0.00000     0.37833    -0.00000
           H3X4             0.33967    -0.10134    -0.29990    -0.39446    -0.12245
           H3Y4            -0.30745    -0.03259     0.11880     0.28770     0.00007
           H3Z4             0.02554     0.54521    -0.07631    -0.09983     0.48270
           H4X5             0.33967    -0.10134     0.29990    -0.39446     0.12245
           H4Y5             0.30745     0.03259     0.11880    -0.28770     0.00007
           H4Z5             0.02554     0.54521     0.07631    -0.09983    -0.48270

                              6 A`        7 A`        8 A``       9 A` 
 Wavenumbers [cm-1]         3283.37     3521.04     3521.30     3521.78
 Intensities [km/mol]          0.00        0.84        0.84        0.84
 Intensities [relative]        0.00        6.95        6.92        6.95
           CX1              0.00004    -0.08376    -0.00000    -0.03255
           CY1              0.00000     0.00000    -0.08988    -0.00000
           CZ1              0.00013     0.03255     0.00000    -0.08376
           H1X2             0.17848    -0.00857    -0.00000     0.29475
           H1Y2             0.00000     0.00000    -0.00820    -0.00000
           H1Z2             0.46356     0.00055    -0.00000     0.76562
           H2X3             0.37887     0.58625     0.00000    -0.21030
           H2Y3             0.00000     0.00000    -0.00821    -0.00000
           H2Z3            -0.32390    -0.50476    -0.00000     0.16952
           H3X4            -0.27894     0.21022     0.37818     0.15169
           H3Y4            -0.40703     0.31796     0.54375     0.22569
           H3Z4            -0.07059     0.05818     0.09577     0.03150
           H4X5            -0.27894     0.21022    -0.37818     0.15169
           H4Y5             0.40703    -0.31796     0.54375    -0.22569
           H4Z5            -0.07059     0.05818    -0.09577     0.03150


 Normal Modes of low/zero frequencies

                                  1           2           3           4           5
 Wavenumbers [cm-1]            0.00        0.00        0.00        0.00        0.00
 Intensities [km/mol]          0.00        0.00        0.00        0.00        0.00
 Intensities [relative]        0.00        0.00        0.00        0.00        0.00
           CX1              0.04657     0.02422     0.00044     0.03296     0.07051
           CY1              0.19885     0.06534    -0.08025     0.09190     0.00157
           CZ1              0.06628    -0.01213     0.19248    -0.00361     0.13397
           H1X2            -0.17562     0.49650     0.09478     0.23628     0.07887
           H1Y2             0.37373     0.14093     0.22285     0.00642    -0.47153
           H1Z2             0.15184    -0.19400     0.15615    -0.08191     0.13075
           H2X3             0.20129    -0.30467    -0.06525    -0.10862     0.06468
           H2Y3             0.23292     0.30744    -0.27730    -0.36064     0.25947
           H2Z3             0.24724    -0.39679     0.11565    -0.16921     0.12716
           H3X4             0.20627     0.19074    -0.00255    -0.41181     0.01140
           H3Y4             0.09440    -0.09345    -0.13328     0.36081     0.10918
           H3Z4             0.03759     0.24544     0.50992     0.20287    -0.25275
           H4X5            -0.04566    -0.28573    -0.02521     0.41599     0.12708
           H4Y5             0.09440    -0.09345    -0.13328     0.36081     0.10918
           H4Z5            -0.17145     0.29663    -0.01183     0.03371     0.53071

                                  6
 Wavenumbers [cm-1]            0.00
 Intensities [km/mol]          0.00
 Intensities [relative]        0.00
           CX1              0.23134
           CY1             -0.06029
           CZ1             -0.05276
           H1X2             0.19494
           H1Y2             0.05239
           H1Z2            -0.03874
           H2X3             0.25670
           H2Y3            -0.10623
           H2Z3            -0.02310
           H3X4             0.26316
           H3Y4            -0.09365
           H3Z4             0.01389
           H4X5             0.21059
           H4Y5            -0.09365
           H4Z5            -0.16306


 Zero point energy:  0.05007144 [H]    10989.41 [1/CM]      131.46 [KJ/MOL]
 Frequency information read from record  5400.2

 Dump information in style MOLDEN to ch4_sto-3g.molpro                                                               

 Molecular orbitals read from record     2101.2  Type=RKS/CANONICAL (state 1.1)
 Occupation numbers read from record     2101.2  Type=RKS/RHF (state 1.1)
 Orbital energies read from record       2101.2  Type=RKS/CANONICAL (state 1.1)
 Redundancy group numbers read from rec  2101.2  Type=RKS/RHF (state 1.1)

 DUMP ORBITAL  1.1 AS ORBITAL    1  occ=    2.0000  eig=   -9.9963  GROUP=   2
 DUMP ORBITAL  2.1 AS ORBITAL    2  occ=    2.0000  eig=   -0.6608  GROUP=   2
 DUMP ORBITAL  3.1 AS ORBITAL    3  occ=    2.0000  eig=   -0.3600  GROUP=   2
 DUMP ORBITAL  4.1 AS ORBITAL    4  occ=    2.0000  eig=   -0.3599  GROUP=   2
 DUMP ORBITAL  5.1 AS ORBITAL    5  occ=    2.0000  eig=   -0.3599  GROUP=   2

 Total charge:      10.000000
 Frequency information read from record  5400.2

 **********************************************************************************************************************************

        KS-SCF          KS-SCF          KS-SCF          KS-SCF          KS-SCF          KS-SCF          KS-SCF          KS-SCF  
    -40.03891672    -40.03891345    -40.03891349    -40.03890145    -40.03890181    -40.03890829    -40.03890792    -40.03890607
 **********************************************************************************************************************************
 Variable memory released
