
 Primary working directories    : /data/scratch
 Secondary working directories  : /data/scratch
 Wavefunction directory         : /home/ospite/wfu/
 Main file repository           : /data/scratch/

 ARCHNAME  : Linux/x86_64
 FC        : /usr/bin/gfortran
 FCVERSION : 4.8.5
 BLASLIB   : 
 id        : polimi

 Nodes     nprocs
 molmod       1

 Using default tuning parameters: mindgm=1; mindgv=20; mindgc=4; mindgr=1; noblas=0; mincuda=1000; minvec=7
 default implementation of scratch files=df  

 ***,methane with imposed symmetry and 6-31++G basis set
 memory,100,m
 
 basis=6-31++G
 symmetry,y
 
 geometry={angstrom
 C
 H1, C, d
 H2, C, d, H1, a
 H3, C, d, H1, a, H2, t
 H4, C, d, H1, a, H2, -t
 }
 
 d=1.09 Ang
 a=109.47 Deg
 t=120.0 Deg
 
 {dfunc,b3lyp3}
 ks
 optg
 frequencies
 put,molden,ch4_6-31++G.molpro

 Variables initialized (661), CPU time= 0.01 sec
 Commands  initialized (458), CPU time= 0.06 sec, 486 directives.
 Default parameters read. Elapsed time= 0.27 sec

 Checking input...
 Passed
1


                                         ***  PROGRAM SYSTEM MOLPRO  ***
                         Copyright, University College Cardiff Consultants Limited, 2008

                                    Version 2010.1 linked Mar  6 2018 16:01:50


 **********************************************************************************************************************************
 LABEL *   methane with imposed symmetry and 6-31++G basis set                           
 Linux-3.10.0-1160.108.1.el7.x86_64/molmod(x86_64) 64 bit serial version                 DATE: 18-Aug-24          TIME: 12:18:49  
 **********************************************************************************************************************************

 SHA1:             d90fb18d49a3be29a79769f900c595ef3b8176e2
 **********************************************************************************************************************************

 Variable memory set to  100000000 words,  buffer space   230000 words

 SETTING BASIS          =    6-31++G
 ZSYMEL=Y  

 SETTING D              =         1.09000000  ANG                             
 SETTING A              =       109.47000000  DEG                             
 SETTING T              =       120.00000000  DEG                             


 Recomputing integrals since basis changed


 Using spherical harmonics

 Library entry C      S 6-31G                selected for orbital group  1
 Library entry C      S 6-31++G              selected for orbital group  1
 Library entry C      P 6-31G                selected for orbital group  1
 Library entry C      P 6-31++G              selected for orbital group  1
 Library entry H      S 6-31G                selected for orbital group  2
 Library entry H      S 6-31++G              selected for orbital group  2

1PROGRAM * SEWARD (Integral evaluation for generally contracted gaussian basis sets)     Author: Roland Lindh, 1990

 Geometry written to block  1 of record 700

 Orientation using atomic masses  
 Molecule type: Symmetric top,     Order of principal axis = 3
 User-specified symmetry elements: Y
 Symmetry elements: Y
 Rotational constants:     158.2574080    158.2574080    158.2538321 GHz  (calculated with average atomic masses)

 Point group  Cs  



 ATOMIC COORDINATES

 NR  ATOM    CHARGE       X              Y              Z

   1  C       6.00   -0.000000000    0.000000000   -0.000007798
   2  H1      1.00   -0.000000000    0.000000000    2.059793685
   3  H2      1.00    1.942014089    0.000000000   -0.686566920
   4  H3      1.00   -0.971007045   -1.681833536   -0.686566920
   5  H4      1.00   -0.971007045    1.681833536   -0.686566920

 Bond lengths in Bohr (Angstrom)

 1-2  2.059801483  1-3  2.059801483  1-4  2.059801483  1-5  2.059801483
     ( 1.090000000)     ( 1.090000000)     ( 1.090000000)     ( 1.090000000)

 Bond angles

  2-1-3  109.47000000   2-1-4  109.47000000   2-1-5  109.47000000   3-1-4  109.47244124

  3-1-5  109.47244124   4-1-5  109.47244124

 NUCLEAR CHARGE:                   10
 NUMBER OF PRIMITIVE AOS:          46
 NUMBER OF SYMMETRY AOS:           46
 NUMBER OF CONTRACTIONS:           25   (  19A'  +   6A"  )
 NUMBER OF CORE ORBITALS:           1   (   1A'  +   0A"  )
 NUMBER OF VALENCE ORBITALS:        8   (   6A'  +   2A"  )


 NUCLEAR REPULSION ENERGY   13.43538921


 Eigenvalues of metric

         1 0.438E-02 0.102E-01 0.102E-01 0.161E-01 0.701E-01 0.701E-01 0.224E+00 0.258E+00
         2 0.102E-01 0.701E-01 0.258E+00 0.577E+00 0.988E+00 0.286E+01


 Contracted 2-electron integrals neglected if value below      1.0D-11
 AO integral compression algorithm  1   Integral accuracy      1.0D-11

     0.524 MB (compressed) written to integral file ( 71.3%)


 NUMBER OF SORTED TWO-ELECTRON INTEGRALS:      30346.     BUFFER LENGTH:  32768
 NUMBER OF SEGMENTS:   1  SEGMENT LENGTH:      30346      RECORD LENGTH: 524288

 Memory used in sort:       0.59 MW

 SORT1 READ       48316. AND WROTE       27388. INTEGRALS IN      1 RECORDS. CPU TIME:     0.00 SEC, REAL TIME:     0.02 SEC
 SORT2 READ       27388. AND WROTE       30346. INTEGRALS IN      2 RECORDS. CPU TIME:     0.05 SEC, REAL TIME:     0.06 SEC

 FILE SIZES:   FILE 1:     3.1 MBYTE,  FILE 4:     4.2 MBYTE,   TOTAL:      7.4 MBYTE

 OPERATOR DM      FOR CENTER  0  COORDINATES:    0.000000    0.000000    0.000000


 **********************************************************************************************************************************
 DATASETS  * FILE   NREC   LENGTH (MB)   RECORD NAMES
              1      19        2.77       500      610      700      900      950      970     1000      129      960     1100   
                                          VAR    BASINP    GEOM    SYMINP    ZMAT    AOBASIS   BASIS     P2S    ABASIS      S 
                                         1400     1410     1200     1210     1080     1600     1650     1300     1700   
                                           T        V       H0       H01     AOSYM     SMH    MOLCAS    ERIS     OPER   

 PROGRAMS   *        TOTAL       INT
 CPU TIMES  *         0.67      0.18
 REAL TIME  *         1.07 SEC
 DISK USED  *         7.87 MB      
 **********************************************************************************************************************************

 Density functional group B3LYP3=B88+DIRAC+LYP+VWN3
 Functional: B88(Automatically generated B88)                                  Gradient terms: 1
 Functional: DIRAC(Automatically generated DIRAC)                              Gradient terms: 0
 Functional: LYP(Lee-Yang-Parr gradient-corrected correlation energy (1988))   Gradient terms: 1
 Functional: VWN3(Automatically generated VWN3)                                Gradient terms: 0
 Use grid at  1800.2


 Exact exchange will be calculated, factor:  0.2000

 Functional: B88                       Factor:  0.7200
 Functional: DIRAC                     Factor:  0.0800
 Functional: LYP                       Factor:  0.8100
 Functional: VWN3                      Factor:  0.1900

 Generated new metagrid on record  1800.2 with target accuracy 1.0D-06 and 7496 points in CPU time    0.3
 Computed new grid on record 1800.1 in CPU time    0.3
   23720 words reserved for DFT integration

 PROGRAM * RKS-SCF (Restricted closed shell Kohn-Sham)     Authors: W. Meyer, H.-J. Werner, P.J. Knowles, 1993

 NUMBER OF ELECTRONS:       5+    5-
 CONVERGENCE THRESHOLDS:    1.00E-05 (Density)    1.00E-06 (Energy)
 MAX. NUMBER OF ITERATIONS:       60
 INTERPOLATION TYPE:            DIIS
 INTERPOLATION STEPS:              2 (START)      1 (STEP)
 LEVEL SHIFTS:                  0.00 (CLOSED)  0.00 (OPEN) 



 Use fine grid record 1800.2 for energy threshold 1.0D-06
 Orbital guess generated from atomic densities. Full valence occupancy:    7   2

 Molecular orbital dump at record        2100.2

 Initial alpha occupancy:   4   1
 Initial beta  occupancy:   4   1
 Wave function symmetry:    1

 ITERATION    DDIFF          GRAD             ENERGY        2-EL.EN.            DIPOLE MOMENTS         DIIS
    1      0.000D+00      0.000D+00       -40.43195297     66.363290    0.00015    0.00000    0.00010    0
    2      0.000D+00      0.377D-01       -40.40273415     58.872636    0.00092    0.00000    0.00109    1
    3      0.533D-01      0.425D-01       -40.51290696     62.884760    0.00030    0.00000    0.00032    2
    4      0.286D-01      0.582D-03       -40.51293415     62.817280    0.00035    0.00000    0.00038    3
    5      0.822D-03      0.679D-04       -40.51293442     62.823004    0.00034    0.00000    0.00037    4
    6      0.436D-04      0.473D-05       -40.51293442     62.823402    0.00034    0.00000    0.00037    3
    7      0.444D-05      0.397D-06       -40.51293442     62.823325    0.00034    0.00000    0.00037    0

 Final occupancy:   4   1

 !RKS STATE 1.1 Energy                -40.512934419916
 Nuclear energy                        13.43538921
 One-electron energy                  -79.77382848
 Two-electron energy                   31.41166265
 SCF exchange energy                   -6.56481859     Factor=0.2000
 Density functional                    -5.58615780     B88=-6.56752686 DIRAC=-5.88375254 LYP=-0.29417941 VWN3=-0.78185755
 Virial quotient                       -1.00665494
 !RKS STATE 1.1 Dipole moment           0.00033877     0.00000000     0.00037146
 Dipole moment /Debye                   0.00086101     0.00000000     0.00094409

 Orbital energies:

         1.1          2.1          3.1          4.1          5.1          6.1
    -10.163986    -0.699667    -0.396085    -0.396076    -0.004709     0.040400

         1.2          2.2          3.2
     -0.396069     0.042002     0.105232


 **********************************************************************************************************************************
 DATASETS  * FILE   NREC   LENGTH (MB)   RECORD NAMES
              1      20        3.01       500      610      700      900      950      970     1000      129      960     1100   
                                          VAR    BASINP    GEOM    SYMINP    ZMAT    AOBASIS   BASIS     P2S    ABASIS      S 
                                         1400     1410     1200     1210     1080     1600     1650     1300     1700     1800   
                                           T        V       H0       H01     AOSYM     SMH    MOLCAS    ERIS     OPER     GRID   

              2       4        0.30       700     1000     1800     2100   
                                         GEOM     BASIS    GRID      RKS  

 PROGRAMS   *        TOTAL        KS       INT
 CPU TIMES  *         2.65      1.97      0.18
 REAL TIME  *         4.10 SEC
 DISK USED  *         7.87 MB      
 **********************************************************************************************************************************


 PROGRAM * OPT (Geometry optimization)     Authors: F. Eckert and H.-J. Werner


 BFGS update of hessian

 *** Long output written to logfile /home/ospite/Desktop/MMfP/Project6/CH4/molpro/DFT/B3LYP/ch4_++.log ***


 Geometry optimization using default procedure for command KS-SCF

 Geometry written to block  1 of record 700

 Making model hessian for Z-matrix coordinates

 Quadratic Steepest Descent - Minimum Search

 Optimization point 1

 Variable                      Last           Current        Next           Gradient       Hessian

 E(KS-SCF000) / Hartree      0.00000000   -40.51293442     0.00000000
 D / ANG                     0.00000000     1.09000000     1.09274360    -0.01885515     6.87242182
 A / DEG                     0.00000000   109.47000000   109.46831049     0.00000039     0.00023257
 T / DEG                     0.00000000   120.00000000   120.01209499    -0.00000181     0.00014996
 Convergence:                0.00000000  (line search)     0.00518902     0.00997828  (total)

 Freezing grid

 Optimization point 2

 Variable                      Last           Current        Next           Gradient       Hessian

 E(KS-SCF000) / Hartree    -40.51293442   -40.51295721     0.00000000
 D / ANG                     1.09000000     1.09274360     1.09372761    -0.00494334     5.06872239
 A / DEG                   109.47000000   109.46831049   109.44472210     0.00000399     0.00022940
 T / DEG                   120.00000000   120.01209499   119.99621504     0.00000173     0.00014792
 Convergence:                0.00000000  (line search)     0.00192461     0.00262774  (total)

 Optimization point 3

 Variable                      Last           Current        Next           Gradient       Hessian

 E(KS-SCF000) / Hartree    -40.51295721   -40.51291482     0.00000000
 D / ANG                     1.09274360     1.09372761     1.09377496    -0.00001481     4.85136445
 A / DEG                   109.46831049   109.44472210   109.47842161    -0.00000830     0.00025399
 T / DEG                   120.01209499   119.99621504   120.00266302    -0.00000113     0.00014818
 Convergence:                0.00000000  (line search)     0.00060549     0.00047990  (total)

 Optimization point 4

 Variable                      Last           Current        Next           Gradient       Hessian

 E(KS-SCF000) / Hartree    -40.51291482   -40.51290795     0.00000000
 D / ANG                     1.09372761     1.09377496     1.09373501     0.00020510     5.04305392
 A / DEG                   109.44472210   109.47842161   109.48475778    -0.00000134     0.00020725
 T / DEG                   119.99621504   120.00266302   120.00368084    -0.00000014     0.00014748
 Convergence:                0.00000000  (line search)     0.00013507     0.00013316  (total)

 END OF GEOMETRY OPTIMIZATION.    TOTAL CPU:        11.5 SEC

 ITER.   ENERGY(OLD)    ENERGY(NEW)      DE          GRADMAX     GRADNORM    GRADRMS     STEPMAX     STEPLEN     STEPRMS
   1   -40.51293442   -40.51295721    -0.00002279  0.00997772  0.00997828  0.00332609  0.00518465  0.00518902  0.00172967
   2   -40.51295721   -40.51291482     0.00004239  0.00261591  0.00262774  0.00087591  0.00185952  0.00192461  0.00064154
   3   -40.51291482   -40.51290795     0.00000687  0.00047543  0.00047990  0.00015997  0.00058817  0.00060549  0.00020183
   4   -40.51290795   -40.51291095    -0.00000301  0.00010854  0.00013316  0.00004439  0.00011059  0.00013507  0.00004502

 Geometry written to block  1 of record 700


 **********************************************************************************************************************************
 DATASETS  * FILE   NREC   LENGTH (MB)   RECORD NAMES
              1      20        3.01       500      610      700      900      950      970     1000      129      960     1100   
                                          VAR    BASINP    GEOM    SYMINP    ZMAT    AOBASIS   BASIS     P2S    ABASIS      S 
                                         1400     1410     1200     1210     1080     1600     1650     1300     1700     1800   
                                           T        V       H0       H01     AOSYM     SMH    MOLCAS    ERIS     OPER     GRID   

              2       4        0.30       700     1000     1800     2100   
                                         GEOM     BASIS    GRID      RKS  

 PROGRAMS   *        TOTAL      OPTG        KS       INT
 CPU TIMES  *        14.13     11.48      1.97      0.18
 REAL TIME  *        20.44 SEC
 DISK USED  *         7.91 MB      
 **********************************************************************************************************************************


 PROGRAM * HESSIAN

 Computing numerical hessian using default procedure for command KS-SCF

 Symmetry elements for unique displacements: Y  

 Using no symmetry in wavefunction calculations

 Running default procedure: KS-SCF000


 Recomputing wavefunction at reference geometry

 Numerically approximating hessian using central gradient differences

 Task list generated. Total number of displacements:     21

    5 tasks completed, CPU=    22.65 sec, Elapsed=    28.97 sec
   10 tasks completed, CPU=    45.90 sec, Elapsed=    58.15 sec
   15 tasks completed, CPU=    69.20 sec, Elapsed=    89.99 sec
   20 tasks completed, CPU=    92.14 sec, Elapsed=   116.84 sec

 Numerical KS-SCF000 hessian completed. CPU-time:    97.06 sec, Elapsed:   125.64 sec

 KS-SCF hessian saved to record  5300.2

 FREQUENCIES * CALCULATION OF HARMONIC VIBRATIONAL SPECTRA FOR KS-SCF


 Permanent Dipole Moment [debye]
   1-  3    0.002634    0.000000    0.003527

 Dipole Moment Norm    0.0044019 [debye]

 Dipole Moment Derivatives [debye/ang]
                   1             2             3             4             5             6             7             8
         1    -0.2738130     0.0000000     0.0017730     0.4922099     0.0000000     0.0797052    -0.7044749     0.0000000
         2    -0.0000000    -0.2604403    -0.0000000     0.0000000     0.5010309     0.0000000    -0.0000000     0.5018984
         3     0.0047105     0.0000000    -0.2647880     0.0766116     0.0000000    -0.7959188     0.3447028     0.0000000
                   9            10            11            12            13            14            15
         1     0.3448424     0.2430263    -0.4855925    -0.2131595     0.2430263     0.4855925    -0.2131595
         2    -0.0000000    -0.4831857    -0.3712632    -0.3870748     0.4831857    -0.3712632     0.3870748
         3     0.3980941    -0.2130097    -0.3884669     0.3312927    -0.2130097     0.3884669     0.3312927

 Projecting out rotations and translations

   Low Vibration      Wavenumber
        Nr             [1/cm] 
        1                0.00
        2                0.00
        3                0.00
        4                0.00
        5                0.00
        6                0.00

     Vibration        Wavenumber
        Nr             [1/cm] 
        1             1395.01
        2             1395.22
        3             1396.19
        4             1592.52
        5             1593.33
        6             3037.47
        7             3154.80
        8             3155.15
        9             3155.47

 FREQUENCIES * CALCULATION OF NORMAL MODES FOR KS-SCF


 Atomic Coordinates

  Nr  Atom  Charge       X              Y              Z

   1   C     6.00    0.000008296    0.000000000    0.000087446
   2   H1    1.00   -0.126239681    0.000000000    2.063087738
   3   H2    1.00    1.986971876    0.000000000   -0.569021056
   4   H3    1.00   -0.930415526   -1.687380218   -0.747554359
   5   H4    1.00   -0.930415526    1.687380218   -0.747554359

 Frequencies dumped to record   5400.2

 Gradient norm at reference geometry: 0.20511D-03

 Normal Modes

                              1 A``       2 A`        3 A`        4 A`        5 A``
 Wavenumbers [cm-1]         1395.01     1395.22     1396.19     1592.52     1593.33
 Intensities [km/mol]         30.99       31.32       30.96        0.00        0.00
 Intensities [relative]       91.07       92.02       90.97        0.01        0.00
           CX1             -0.00000    -0.11164     0.03128    -0.00003    -0.00000
           CY1             -0.11594     0.00000     0.00000     0.00000    -0.00055
           CZ1             -0.00000    -0.03129    -0.11159    -0.00049    -0.00000
           H1X2             0.00000     0.54298    -0.11442     0.49716     0.00000
           H1Y2             0.55845    -0.00000    -0.00000     0.00000    -0.49524
           H1Z2             0.00000     0.01723    -0.08149     0.03015    -0.00000
           H2X3             0.00000     0.01813     0.16824     0.13813     0.00000
           H2Y3             0.55353    -0.00000    -0.00000    -0.00000     0.50070
           H2Z3             0.00000     0.29745     0.44215     0.48090     0.00000
           H3X4            -0.23066     0.38461    -0.21328    -0.31747    -0.31301
           H3Y4             0.13484    -0.27429    -0.11822     0.28683     0.00057
           H3Z4            -0.18829     0.02908     0.48456    -0.25258     0.38743
           H4X5             0.23066     0.38461    -0.21328    -0.31747     0.31301
           H4Y5             0.13484     0.27429     0.11822    -0.28683     0.00057
           H4Z5             0.18829     0.02908     0.48456    -0.25258    -0.38743

                              6 A`        7 A``       8 A`        9 A` 
 Wavenumbers [cm-1]         3037.47     3154.80     3155.15     3155.47
 Intensities [km/mol]          0.00       34.03       33.69       33.39
 Intensities [relative]        0.00      100.00       98.99       98.11
           CX1              0.00014     0.00000    -0.07696     0.03949
           CY1             -0.00000    -0.08649    -0.00000    -0.00000
           CZ1             -0.00006     0.00000    -0.03949    -0.07702
           H1X2            -0.03054     0.00000    -0.04276    -0.03605
           H1Y2            -0.00000    -0.02458    -0.00000    -0.00000
           H1Z2             0.49809    -0.00000     0.32840     0.75140
           H2X3             0.47731     0.00000     0.57261    -0.54605
           H2Y3            -0.00000    -0.02457    -0.00000    -0.00000
           H2Z3            -0.13684     0.00000    -0.18160     0.13802
           H3X4            -0.22422     0.31124     0.19359     0.05575
           H3Y4            -0.40683     0.53988     0.39054     0.08095
           H3Z4            -0.18024     0.25009     0.16190     0.01417
           H4X5            -0.22422    -0.31124     0.19359     0.05575
           H4Y5             0.40683     0.53988    -0.39054    -0.08095
           H4Z5            -0.18024    -0.25009     0.16190     0.01417


 Normal Modes of low/zero frequencies

                                  1           2           3           4           5
 Wavenumbers [cm-1]            0.00        0.00        0.00        0.00        0.00
 Intensities [km/mol]          0.00        0.00        0.00        0.00        0.00
 Intensities [relative]        0.00        0.00        0.00        0.00        0.00
           CX1              0.00006    -0.00856    -0.00115     0.01522     0.04331
           CY1              0.13731     0.12154     0.07801    -0.01010     0.14859
           CZ1              0.13080    -0.00483     0.03764     0.16844    -0.12362
           H1X2            -0.27478     0.17611     0.48647     0.01384    -0.10487
           H1Y2             0.13700     0.59543    -0.18239    -0.12525    -0.10036
           H1Z2             0.11398     0.00647     0.06749     0.16836    -0.13269
           H2X3             0.07588    -0.05950    -0.13567     0.01560     0.08419
           H2Y3             0.40669    -0.18415     0.30065    -0.37987     0.01293
           H2Z3             0.39551    -0.18269    -0.43201     0.16978     0.01910
           H3X4             0.33244    -0.22671    -0.04751    -0.33136    -0.07961
           H3Y4             0.00276     0.03729     0.09696     0.23242     0.34099
           H3Z4             0.02084     0.45681     0.05256     0.05239    -0.40488
           H4X5            -0.13311     0.07575    -0.30823     0.36280     0.27363
           H4Y5             0.00276     0.03729     0.09696     0.23242     0.34099
           H4Z5            -0.00715    -0.29990     0.46258     0.28325     0.02398

                                  6
 Wavenumbers [cm-1]            0.00
 Intensities [km/mol]          0.00
 Intensities [relative]        0.00
           CX1              0.24526
           CY1             -0.02104
           CZ1              0.01135
           H1X2             0.28038
           H1Y2             0.04538
           H1Z2             0.01350
           H2X3             0.23557
           H2Y3             0.01617
           H2Z3            -0.02248
           H3X4             0.28053
           H3Y4            -0.07289
           H3Z4             0.08446
           H4X5             0.18452
           H4Y5            -0.07289
           H4Z5            -0.03008


 Zero point energy:  0.04527898 [H]     9937.59 [1/CM]      118.88 [KJ/MOL]
 Frequency information read from record  5400.2

 Dump information in style MOLDEN to ch4_6-31++g.molpro                                                              

 Molecular orbitals read from record     2101.2  Type=RKS/CANONICAL (state 1.1)
 Occupation numbers read from record     2101.2  Type=RKS/RHF (state 1.1)
 Orbital energies read from record       2101.2  Type=RKS/CANONICAL (state 1.1)
 Redundancy group numbers read from rec  2101.2  Type=RKS/RHF (state 1.1)

 DUMP ORBITAL  1.1 AS ORBITAL    1  occ=    2.0000  eig=  -10.1656  GROUP=   2
 DUMP ORBITAL  2.1 AS ORBITAL    2  occ=    2.0000  eig=   -0.6986  GROUP=   2
 DUMP ORBITAL  3.1 AS ORBITAL    3  occ=    2.0000  eig=   -0.3956  GROUP=   2
 DUMP ORBITAL  4.1 AS ORBITAL    4  occ=    2.0000  eig=   -0.3955  GROUP=   2
 DUMP ORBITAL  5.1 AS ORBITAL    5  occ=    2.0000  eig=   -0.3955  GROUP=   2

 Total charge:      10.000000
 Frequency information read from record  5400.2

 **********************************************************************************************************************************

        KS-SCF          KS-SCF          KS-SCF          KS-SCF          KS-SCF          KS-SCF          KS-SCF          KS-SCF  
    -40.51297095    -40.51296628    -40.51296694    -40.51295889    -40.51295830    -40.51296551    -40.51296557    -40.51296790
 **********************************************************************************************************************************
 Variable memory released
