[Molden Format]
[Molpro variables]
_NUMVAR=  693.0000000000000    
_EV2006= 0.3674930886769165E-01
_EV= 0.3674932534394180E-01
_KJOULE= 0.3808798324128737E-03
_KJOULE/MOL= 0.3808798324128737E-03
_CM= 0.4556335267302901E-05
_CM-1= 0.4556335267302901E-05
_KCAL= 0.1593601117815568E-02
_KCAL/MOL= 0.1593601117815568E-02
_KELVIN2006= 0.3166828861084835E-05
_KELVIN= 0.3166814820820034E-05
_HERTZ2006= 0.1519829850815779E-15
_HERTZ= 0.1519829846011223E-15
_HZ2006= 0.1519829850815779E-15
_HZ= 0.1519829846011223E-15
_TOA2006= 0.5291772490000000    
_TOA= 0.5291772090000000    
_TOANG2006= 0.5291772490000000    
_TOANG= 0.5291772090000000    
_TORAD= 0.1745329251994330E-01
_TOCM=  219474.6306700000    
_TODEBYE=  2.541580000000000    
_TOEV2006=  27.21139610000000    
_TOEV=  27.21138390000000    
_TOHERTZ2006=  6579683899900000.    
_TOHERTZ=  6579683920700000.    
_TOHZ2006=  6579683899900000.    
_TOHZ=  6579683920700000.    
_TOK2006=  315773.3000000000    
_TOK=  315774.7000000000    
_TOKCAL=  627.5096000000000    
_TOKELVIN2006=  315773.3000000000    
_TOKELVIN=  315774.7000000000    
_TOKJ=  2625.500000000000    
_TOKJOULE=  2625.500000000000    
_ANG2006=  1.889725988578923    
_ANG=  1.889726131421507    
_ANGSTROM2006=  1.889725988578923    
_ANGSTROM=  1.889726131421507    
_IGNORE_UNDEF=  2.000000000000000    
_STRICTCHECK=  0.000000000000000    
_SEW_ONEEL=  0.000000000000000    
_CPPDONE=FALSE
_DKROLL_DONE=  0.000000000000000    
_FOCKDONE=TRUE
_GRADONE=FALSE
_HESSDONE=TRUE
_INTDONE=TRUE
_SCFDONE=TRUE
_MODUL_CUDA=FALSE
_MODUL_SLATER=FALSE
_MODUL_MRCC=FALSE
_MRCC_EXEC=
_FITC_AO_SAVED=FALSE
_FITC_MO_SAVED=FALSE
_SHARED_FS=TRUE
_LSTYP=SEWARD
_INTYP=INTS
_GEOMTYP=ZMAT
_GRADTYP=ALASKA
_DIRECT=FALSE
_SYNCM=  0.000000000000000    
_DFTNAME=B3LYP3
_DFTFUNC=B88
_BASIS=6-31+G
_ZSYMEL=
_ZORIENT=  1.000000000000000    
_NELEC=  10.00000000000000    
!SPIN=  0.000000000000000    
_OPTCONV= 0.2578019047377492E-03
_QSDSTEP=  0.000000000000000    
_QSDIRC=  0.000000000000000    
_PROGRAM=FREQ
_CPUSTEP=  0.000000000000000    
_SYSSTEP=  0.000000000000000    
_WALLSTEP=  0.000000000000000    
!DFSCF=  0.000000000000000    
!SCSGRD=  0.000000000000000    
_BASINP=  610.0000000000000    
_CPUTOT=  95.44000000000000    
_CPUSORT= 0.6999999999999318E-01
_SYSSORT= 0.9999999999999787E-02
_WALLSORT= 0.8999999985098839E-01
_DFTEXFAC= 0.2000000000000000    
_DFTFAC= 0.7200000000000000    
_DFTFUN= -5.581801926100956    
_DFTFUNS= -6.562401358477255    
_DMX= 0.4271180964816740E-03
_DMY= 0.5892786258954175E-12
_DMZ= 0.2955212858604256E-03
_FREQUENCIES= 0.3579890314884107E-04
_ENERGY= -40.51296926838634    
_ENUC=  13.38894316952252    
_FREQSTEP=  22.00000000000000    
_GRADENERG= -40.51296620520635    
_GRADEXFAC= 0.2000000000000000    
_GRADMETHOD=  1.000000000000000    
_VIRIAL= 0.1702697282983468E-02
_GRID=  1800.200000000000    
!GRID_FREEZE= -1.000000000000000    
_GRID_SPARSITY= 0.4177109440267612E-03
_GRID_RMAX=  6.187028521729400    
_ITERATIONS=  4.000000000000000    
_LASTNELEC=  10.00000000000000    
_LASTSPIN=  0.000000000000000    
_LASTSYM=  1.000000000000000    
_MPP_PROG=  0.000000000000000    
_NGRID=  14368.00000000000    
_NPROC_MPP=  1.000000000000000    
_NPROC_SMP=  1.000000000000000    
_NUMSTEP=  0.000000000000000    
_OPTCONVMX= 0.2506090079641086E-03
_OPTCONVRMS= 0.8593396824591641E-04
_OPTGRAD= 0.1926479038882593E-03
_OPTGRADMX= 0.1879495966176731E-03
_OPTGRADRMS= 0.6421596796275310E-04
_OPTSTEP=  3.000000000000000    
_ORBITAL=  2101.200000000000    
_PI=  3.141592653589793    
_SEIG_MIN= 0.1424117858176309E-01
_SEWPROP=TRUE
_STATUS=  1.000000000000000    
_SYSTOT=  6.050000000000000    
_VERSION=  2010001.000000000    
_WALLTOT=  114.5800000000000    
_ZPE= 0.4529383130590248E-01
_DATE=18-Aug-24
_LASTORB=RKS
_MACHINE=Linux-3.10.0-1160.108.1.el7.x86_64/molmod(x86_64) 64 bit serial version
_OUTPUT=/home/ospite/Desktop/MMfP/Project6/CH4/molpro/DFT/B3LYP/ch4_+.xml
_PGROUP=C1
_TIME=12:15:01
_LIBMOL=/usr/local/molpro/molpros_2010_1_Linux_x86_64_i8/lib/
!SURFREC=  0.000000000000000    
!POLYREC=  0.000000000000000    
!DIPREC=  0.000000000000000    
!VSCFREC=  0.000000000000000    
!VCIREC=  0.000000000000000    
!PVCIREC=  0.000000000000000    
!VMP2REC=  0.000000000000000    
!VMCSCFREC=  0.000000000000000    
!GAREC=  0.000000000000000    
!SCFORB=  21002.00000000000    
!NEWMOL=  0.000000000000000    
!NEWSYM=  0.000000000000000    
_SLFILES=slscratch
_NGSSTO=  9.000000000000000    
_SIN=SIN
_COS=COS
_TAN=TAN
_ACOS=ACOS
_ASIN=ASIN
_ATAN=ATAN
_COSH=COSH
_SINH=SINH
_TANH=TANH
_ABS=ABS
_MOD=MOD
_ERF=ERF
_REFC=REFC
_ERFC=ERFC
_HYPOT=HYPOT
_J0=J0
_J1=J1
_JN=JN
_GAMMA=GAMMA
_LGAMMA=LGAMMA
_Y0=Y0
_Y1=Y1
_YN=YN
_EXP=EXP
_LOG=LOG
_LOG10=LOG10
_SQRT=SQRT
_INT=INT
_NINT=NINT
_MAX=MAX
_MIN=MIN
_COSMO=  0.000000000000000    
_COSMOIT=  0.000000000000000    
_COSMOES=  0.000000000000000    
_COSMOEDS=  0.000000000000000    
_COSMOEC=  0.000000000000000    
_COSMOEDCORR=  0.000000000000000    
_FEPSI=  1.000000000000000    
_SL_IsMM=  0.000000000000000    
_SL_NSYM=  0.000000000000000    
_SL_System_BitSw=  0.000000000000000    
_SL_Unique_atoms=  0.000000000000000    
_SL_GRAD=  0.000000000000000    
_SL_MAXUPD_Hess=  5.000000000000000    
_SL_N_PRINT_COD=  5.000000000000000    
_SL_PRINT_CODES=  0.000000000000000    
_SL_BasType=  0.000000000000000    
_SL_Energy_Pred=  0.000000000000000    
_SL_New_Coords=  0.000000000000000    
_SL_Total_Nuclea=  0.000000000000000    
_SL_Highest_Mltp=  0.000000000000000    
_SL_Ref_Geom=  0.000000000000000    
!LATTICE= -1.000000000000000    
!NEWLATTICE=  0.000000000000000    
!LATGRAD_VAR=FALSE
!SEW_LATTICE=  1.000000000000000    
!LOCAL=  0.000000000000000    
!SAVEOCC=  0.000000000000000    
!SAVEDOM= -1.000000000000000    
!RESTDOM= -1.000000000000000    
!SAVEDOM_HF= -1.000000000000000    
!RESTDOM_HF= -1.000000000000000    
!HESSREC=  5300.200000000000    
!FREQREC=  5400.200000000000    
!NMODREC=  5450.200000000000    
!GTASKS=  0.000000000000000    
!HTASKS=  5500.200000000000    
!THRCHG= 0.1000000000000000    
!DEBUG= -1.000000000000000    
!CFIT_CPHF=  0.000000000000000    
!RDOMAUX_CPHF=  5.000000000000000    
!THRAO_CPHF= 0.9999999999999999E-11
!THRMO_CPHF= 0.9999999999999999E-11
!THROV_CPHF= 0.1000000000000000E-11
!THRSW_CPHF= 0.1000000000000000E-09
!THRPROD_CPHF= 0.9999999999999999E-11
!THRAOPR_CPHF= 0.1000000000000000E-11
!CFIT_SCFGRD=  0.000000000000000    
!RDOMAUX_SCFGRD=  7.000000000000000    
!THRAO_SCFGRD= 0.9999999999999999E-11
!THRMO_SCFGRD= 0.9999999999999999E-11
!THROV_SCFGRD= 0.1000000000000000E-11
!THRSW_SCFGRD= 0.1000000000000000E-09
!THRPROD_SCFGRD= 0.9999999999999999E-11
!THRAOPR_SCFGRD= 0.1000000000000000E-11
!LOCFIT_SCF=  0.000000000000000    
!LOCFIT_MP2= -1.000000000000000    
_RIDOM=  0.000000000000000    
!CC2_METHOD=  0.000000000000000    
_BASIS2006=FALSE
_SVDDEL= -1.000000000000000    
_SVDDELA= -1.000000000000000    
_SVDDELP= -1.000000000000000    
_SVDDELF= -1.000000000000000    
_SVDDELS= -1.000000000000000    
_SVDDEL_ABS= -1.000000000000000    
_SVDDELA_ABS= -1.000000000000000    
_SVDDELP_ABS= -1.000000000000000    
_SVDDELF_ABS= -1.000000000000000    
_SVDDELS_ABS= -1.000000000000000    
_MAXBASIS=  0.000000000000000    
!OPT_CONICAL=  0.000000000000000    
!CLEARSP_JGRID=  0.000000000000000    
D=  1.093781201815641    
A=  109.4760755661174    
T=  119.9700645785093    
GX1=-0.9969369617170420E-04
GY1= -0.000000000000000    
GZ1= 0.5752380610616491E-04
GX2= 0.5103266776719734    
GY2= -0.000000000000000    
GZ2=  2.002988996899311    
GX3=  1.718042729160933    
GY3= -0.000000000000000    
GZ3= -1.148966488681921    
GX4= -1.113590709237872    
GY4= -1.688113361409798    
GZ4=-0.4273539919875079    
GX5= -1.113590709237872    
GY5=  1.688113361409798    
GZ5=-0.4273539919875079    
CX1=-0.9969369617170501E-04
CY1=  0.000000000000000    
CZ1= 0.5752380610616475E-04
H1X2= 0.5103266776719734    
H1Y2=  0.000000000000000    
H1Z2=  2.002988996899311    
H2X3=  1.718042729160933    
H2Y3=  0.000000000000000    
H2Z3= -1.148966488681921    
H3X4= -1.113590709237872    
H3Y4= -1.688113361409798    
H3Z4=-0.4273539919875079    
H4X5= -1.113590709237872    
H4Y5=  1.688113361409798    
H4Z5=-0.4273539919875079    
[Atoms] Angs
C     1    6        -0.0000527556       -0.0000000000        0.0000304403
H     2    1         0.2700532470       -0.0000000000        1.0599361270
H     3    1         0.9091490564       -0.0000000000       -0.6080068797
H     4    1        -0.5892868235       -0.8933111171       -0.2261459927
H     5    1        -0.5892868235        0.8933111171       -0.2261459927
[GTO]
  1 0
 s    6  1.00
  0.3047524900D+04  0.1834737091D-02
  0.4573695200D+03  0.1403732293D-01
  0.1039486800D+03  0.6884262165D-01
  0.2921015500D+02  0.2321844388D+00
  0.9286663000D+01  0.4679413476D+00
  0.3163927000D+01  0.3623119882D+00
 s    3  1.00
  0.7868272300D+01 -0.1193324245D+00
  0.1881288500D+01 -0.1608541561D+00
  0.5442492600D+00  0.1143456443D+01
 s    1  1.00
  0.1687144800D+00  0.1000000000D+01
 s    1  1.00
  0.4380000000D-01  0.1000000000D+01
 p    3  1.00
  0.7868272300D+01  0.6899906693D-01
  0.1881288500D+01  0.3164239597D+00
  0.5442492600D+00  0.7443082892D+00
 p    1  1.00
  0.1687144800D+00  0.1000000000D+01
 p    1  1.00
  0.4380000000D-01  0.1000000000D+01
  
  2 0
 s    3  1.00
  0.1873113700D+02  0.3349460400D-01
  0.2825394400D+01  0.2347269500D+00
  0.6401216900D+00  0.8137573301D+00
 s    1  1.00
  0.1612777600D+00  0.1000000000D+01
  
  3 0
 s    3  1.00
  0.1873113700D+02  0.3349460400D-01
  0.2825394400D+01  0.2347269500D+00
  0.6401216900D+00  0.8137573301D+00
 s    1  1.00
  0.1612777600D+00  0.1000000000D+01
  
  4 0
 s    3  1.00
  0.1873113700D+02  0.3349460400D-01
  0.2825394400D+01  0.2347269500D+00
  0.6401216900D+00  0.8137573301D+00
 s    1  1.00
  0.1612777600D+00  0.1000000000D+01
  
  5 0
 s    3  1.00
  0.1873113700D+02  0.3349460400D-01
  0.2825394400D+01  0.2347269500D+00
  0.6401216900D+00  0.8137573301D+00
 s    1  1.00
  0.1612777600D+00  0.1000000000D+01


[MO]
 Sym=      1.1
 Ene=     -10.1657
 Spin= Alpha
 Occup=    2.000000
1 0.99522761214316
2 0.036719778639801
3 -0.031529855582534
4 -0.001966166626548
5 0.000001428272887
6 0.000000000000003
7 -0.000000744862752
8 -0.000004908120658
9 -0.000000000000001
10 0.000002715123225
11 -0.000000942709090
12 0.000000000000000
13 0.000000916121905
14 -0.000888432020685
15 0.006877208418696
16 -0.000888437294618
17 0.006881460522059
18 -0.000888548939660
19 0.006877227555034
20 -0.000888548939659
21 0.006877227555036
 Sym=      2.1
 Ene=      -0.6985
 Spin= Alpha
 Occup=    2.000000
1 -0.19953047238635
2 0.38134057854281
3 0.39060497460883
4 0.027207782609171
5 0.000088730008430
6 0.000000000000667
7 -0.000049192791044
8 0.000073545444034
9 0.000000000000100
10 -0.000014051955297
11 -0.000052719798311
12 -0.000000000000024
13 -0.000084596166740
14 0.13585598734237
15 0.021577285701651
16 0.13589784804315
17 0.021525605306707
18 0.13586183957833
19 0.021492173373079
20 0.13586183957906
21 0.021492173373421
 Sym=      3.1
 Ene=      -0.3955
 Spin= Alpha
 Occup=    2.000000
1 0.000000000000160
2 -0.000000000000345
3 0.000000000001000
4 0.000000000001402
5 -0.000000000761943
6 0.44894565569506
7 -0.000000000813115
8 -0.000000000347075
9 0.20449018034604
10 -0.000000000370348
11 -0.000000000062242
12 0.036589202899123
13 -0.000000000066943
14 -0.000000000660756
15 -0.000000000495631
16 -0.000000000122923
17 -0.000000000093083
18 -0.24807713433255
19 -0.18601301444180
20 0.24807713511591
21 0.18601301502678
 Sym=      4.1
 Ene=      -0.3955
 Spin= Alpha
 Occup=    2.000000
1 0.000025118113852
2 -0.000095630543696
3 0.000301257564593
4 0.000560832442255
5 0.033433244962054
6 -0.000000000754067
7 -0.44770650610963
8 0.015169217965334
9 -0.000000000343575
10 -0.20386433950781
11 0.002951090482932
12 -0.000000000061506
13 -0.037130273091164
14 -0.28806691787981
15 -0.21591563655697
16 0.18724679394665
17 0.13986809966600
18 0.050431047227047
19 0.037489958699408
20 0.050431046393713
21 0.037489958074685
 Sym=      5.1
 Ene=      -0.3954
 Spin= Alpha
 Occup=    2.000000
1 0.000047496171168
2 -0.000068077176753
3 -0.000371981570505
4 -0.000317195250319
5 0.44773922257302
6 0.000000000820124
7 0.033450981401828
8 0.20390079427174
9 0.000000000373778
10 0.015285309327431
11 0.036849472952389
12 0.000000000067001
13 0.002518689305607
14 0.096714260204335
15 0.072738630670525
16 0.23934163609430
17 0.17951191782685
18 -0.16805825494743
19 -0.12578056409697
20 -0.16805825404120
21 -0.12578056341736
 Sym=      6.1
 Ene=       0.0171
 Spin= Alpha
 Occup=    0.000000
1 -0.089336603729261
2 0.17406925965196
3 0.66303674588057
4 -1.46624571251886
5 -0.004044591070718
6 0.000000000000175
7 -0.005537699107802
8 -0.003003848119296
9 0.000000000000120
10 -0.005388789591579
11 0.037513107437089
12 -0.000000000000489
13 0.046330082162749
14 -0.016537511302987
15 0.057201786700463
16 -0.014716565016852
17 0.070866998820637
18 -0.013612429331621
19 0.084597586970201
20 -0.013612429331715
21 0.084597586969769
 Sym=      7.1
 Ene=       0.0606
 Spin= Alpha
 Occup=    0.000000
1 0.002462103906645
2 -0.003606857583214
3 -0.029872836386163
4 0.019554912599042
5 0.086148125010545
6 -0.000000000000060
7 -0.16582698867929
8 0.087553516272903
9 -0.000000000000028
10 -0.16326599556162
11 -0.54059278748956
12 0.000000000000446
13 1.04597362098059
14 -0.041312286907376
15 -0.16664287814621
16 0.048956545280822
17 0.20586469995753
18 -0.003203228466512
19 -0.005553993844715
20 -0.003203228466530
21 -0.005553993844869
 Sym=      8.1
 Ene=       0.0621
 Spin= Alpha
 Occup=    0.000000
1 0.005524431991508
2 -0.008586030086959
3 -0.066023444083514
4 0.043858600779837
5 -0.16674513493627
6 0.000000000000917
7 -0.086002412179251
8 -0.16595715661922
9 0.000000000000846
10 -0.084438188278423
11 1.04438268764136
12 -0.000000000005589
13 0.53938948624621
14 -0.036265151584153
15 -0.13516407562155
16 -0.026172889125315
17 -0.092295821131323
18 0.032553757686703
19 0.14489414736781
20 0.032553757687122
21 0.14489414736923
 Sym=      9.1
 Ene=       0.0655
 Spin= Alpha
 Occup=    0.000000
1 -0.000000000000031
2 -0.000000000000002
3 -0.000000000000093
4 -0.000000000000757
5 -0.000000000000838
6 -0.19289468995862
7 -0.000000000000375
8 -0.000000000000828
9 -0.19532420213139
10 -0.000000000000422
11 0.000000000005313
12 1.17130210767307
13 0.000000000002224
14 -0.000000000000152
15 -0.000000000000438
16 -0.000000000000175
17 -0.000000000000547
18 0.046080170447774
19 0.16730576803860
20 -0.046080170447380
21 -0.16730576803655
 Sym=     10.1
 Ene=       0.1807
 Spin= Alpha
 Occup=    0.000000
1 -0.001454430254627
2 0.001691273138177
3 0.026732666246439
4 0.008727991563670
5 -0.23021861275397
6 0.000000000001889
7 -0.22959294813811
8 -0.99932880816486
9 0.000000000007843
10 -0.99430274783742
11 -0.23443084764700
12 0.000000000001986
13 -0.23041869248099
14 0.15590013810919
15 1.71056881663910
16 0.035953840711606
17 0.38449577839767
18 -0.096626291028344
19 -1.07198371706857
20 -0.096626291030192
21 -1.07198371708696
 Sym=     11.1
 Ene=       0.1808
 Spin= Alpha
 Occup=    0.000000
1 -0.000177549297688
2 0.000352567092376
3 0.002506853559815
4 0.000809946331086
5 -0.22912934469892
6 0.000000000026994
7 0.23067565812508
8 -0.99349315401249
9 0.000000000117845
10 1.00010269808716
11 -0.23242889402594
12 0.000000000028646
13 0.23280574766924
14 -0.093569296024978
15 -1.03143699535464
16 0.17877043438138
17 1.96620110224847
18 -0.042772706875125
19 -0.46965911265225
20 -0.042772706900186
21 -0.46965911292689
 Sym=     12.1
 Ene=       0.1811
 Spin= Alpha
 Occup=    0.000000
1 -0.000000000000067
2 0.000000000000381
3 0.000000000001024
4 0.000000000001434
5 0.000000000020296
6 0.32226669399345
7 -0.000000000018146
8 0.000000000089057
9 1.41043441125673
10 -0.000000000077817
11 0.000000000020673
12 0.34055121627573
13 -0.000000000018258
14 0.000000000006842
15 0.000000000075504
16 -0.000000000015246
17 -0.000000000167700
18 0.14999415327178
19 1.64091628260013
20 -0.14999415326363
21 -1.64091628251124
 Sym=     13.1
 Ene=       0.2766
 Spin= Alpha
 Occup=    0.000000
1 -0.15345681885437
2 0.19034782056468
3 3.11775972743683
4 1.85938744898175
5 -0.000650662679722
6 0.000000000000001
7 -0.002129753043056
8 0.010387656559723
9 -0.000000000001596
10 0.008146964685688
11 0.009636309667064
12 -0.000000000000004
13 0.010404765990578
14 -0.079568184361365
15 -1.62329125141618
16 -0.076684356314770
17 -1.61537677688308
18 -0.073650723594701
19 -1.60116707447216
20 -0.073650723594587
21 -1.60116707446944
 Sym=     14.1
 Ene=       0.6519
 Spin= Alpha
 Occup=    0.000000
1 -0.000065583215729
2 0.000571985937375
3 0.000373394934798
4 0.000741575568716
5 -0.75738254382943
6 0.000000000053669
7 0.65173846711396
8 1.32256015205749
9 -0.000000000093814
10 -1.13907125448239
11 -0.42599244348390
12 0.000000000030306
13 0.36631464092086
14 0.13224222899988
15 0.11483776556635
16 -0.29450332731592
17 -0.25658079294017
18 0.081013899101550
19 0.069898930101586
20 0.081013899127069
21 0.069898930124755
 Sym=     15.1
 Ene=       0.6520
 Spin= Alpha
 Occup=    0.000000
1 0.000423121544446
2 -0.001612694522394
3 -0.004897469862857
4 -0.006432970827631
5 -0.65172557750355
6 0.000000000128405
7 -0.75717164417175
8 1.13852447385698
9 -0.000000000224712
10 1.32334132246398
11 -0.36717895555903
12 0.000000000072692
13 -0.42616877228819
14 -0.26459688292455
15 -0.22815640615629
16 -0.034794304366772
17 -0.027523094466351
18 0.15199686364997
19 0.13416103939950
20 0.15199686371178
21 0.13416103945438
 Sym=     16.1
 Ene=       0.6528
 Spin= Alpha
 Occup=    0.000000
1 -0.000000000000031
2 -0.000000000000793
3 0.000000000002125
4 -0.000000000000254
5 -0.000000000124438
6 -1.00009383722706
7 -0.000000000062375
8 0.000000000217062
9 1.74652545671263
10 0.000000000109012
11 -0.000000000070010
12 -0.56550785707365
13 -0.000000000035079
14 -0.000000000026911
15 -0.000000000024081
16 -0.000000000020313
17 -0.000000000017944
18 0.24007524857438
19 0.21186567264913
20 -0.24007524852649
21 -0.21186567260914
 Sym=     17.1
 Ene=       0.9920
 Spin= Alpha
 Occup=    0.000000
1 0.000661695565481
2 -0.001541217392669
3 0.001194925635076
4 0.002610881158183
5 0.55946379490157
6 -0.000000000129148
7 0.20723401092953
8 -0.61719392019017
9 0.000000000142182
10 -0.22860137515766
11 -0.38593138069060
12 0.000000000090074
13 -0.14250323531063
14 -0.66435388321421
15 1.06017590441675
16 -0.68682575580161
17 1.09629468133267
18 0.68458233809049
19 -1.08516788713437
20 0.68458233850834
21 -1.08516788779897
 Sym=     18.1
 Ene=       0.9922
 Spin= Alpha
 Occup=    0.000000
1 -0.000109689209390
2 0.002341445791077
3 -0.004330539648400
4 -0.000087913234019
5 0.20704367747015
6 0.000000000005427
7 -0.55970992531149
8 -0.22861610705481
9 -0.000000000006003
10 0.61738296203602
11 -0.14272189947515
12 -0.000000000003753
13 0.38573357505845
14 0.96908204068533
15 -1.54084914403231
16 -0.95464735005741
17 1.51851633921343
18 -0.008756997452738
19 0.013797240469268
20 -0.008756997470149
21 0.013797240497068
 Sym=     19.1
 Ene=       0.9928
 Spin= Alpha
 Occup=    0.000000
1 -0.000000000000038
2 0.000000000001086
3 -0.000000000003708
4 -0.000000000001864
5 0.000000000119630
6 0.59494348685029
7 0.000000000049971
8 -0.000000000131992
9 -0.65511984485151
10 -0.000000000054951
11 -0.000000000082444
12 -0.41467244095368
13 -0.000000000034472
14 -0.000000000154688
15 0.000000000246612
16 -0.000000000142065
17 0.000000000226918
18 0.96235097064032
19 -1.53032275870641
20 -0.96235097034606
21 1.53032275824035
 Sym=     20.1
 Ene=       1.0615
 Spin= Alpha
 Occup=    0.000000
1 -0.10238503028840
2 -0.38269476617294
3 0.86345380999543
4 -0.79171091308697
5 0.002431456457461
6 -0.000000000001198
7 0.000799204963056
8 -0.001884459124579
9 0.000000000001361
10 -0.000692874813198
11 -0.003570769153489
12 0.000000000000853
13 -0.002682726247344
14 -0.73763824457086
15 0.48497050240680
16 -0.73609785136087
17 0.48180336353887
18 -0.72859591763537
19 0.47029145730951
20 -0.72859591763133
21 0.47029145730318
 Sym=     21.1
 Ene=       1.1286
 Spin= Alpha
 Occup=    0.000000
1 -0.025769501850842
2 -2.39453801656544
3 5.90769419587804
4 0.68729009143380
5 -0.000480711348203
6 0.000000000000922
7 -0.000207166657319
8 0.001371041612150
9 -0.000000000000945
10 -0.000694918711898
11 0.001399531454440
12 -0.000000000000206
13 0.001689375676699
14 0.10412624350525
15 -1.60377762126656
16 0.10176441834547
17 -1.60106023145248
18 0.10077559979406
19 -1.59811475848208
20 0.10077559979238
21 -1.59811475847951
 [FREQ]
      0.00
      0.00
      0.00
      0.00
      0.00
      0.00
   1396.59
   1396.60
   1397.58
   1591.93
   1592.98
   3038.00
   3155.72
   3156.11
   3156.17
 [FR-COORD]
C         -0.0000996937       -0.0000000000        0.0000575238
H          0.5103266777       -0.0000000000        2.0029889969
H          1.7180427292       -0.0000000000       -1.1489664887
H         -1.1135907092       -1.6881133614       -0.4273539920
H         -1.1135907092        1.6881133614       -0.4273539920
 [FR-NORM-COORD]
 Vibration                    1
         -0.05076190          0.11239110          0.07142385
          0.41602557          0.19499922         -0.04753211
         -0.31854440         -0.01859589         -0.32899292
         -0.22054721          0.13652383          0.41843285
         -0.08019492          0.13652383          0.24341777
 Vibration                    2
         -0.01498982         -0.01851073          0.19248872
         -0.08573648          0.00875154          0.21051777
          0.02559549          0.32697198          0.25317618
          0.30325356         -0.20472603          0.09888195
         -0.30303952         -0.20472603          0.20743502
 Vibration                    3
          0.01608389          0.16886630         -0.06449605
         -0.15857464          0.49470888         -0.01998613
          0.11628045          0.24107547          0.08532846
          0.27088797         -0.03011677          0.05759691
         -0.16417837         -0.03011677         -0.38078507
 Vibration                    4
          0.00402137          0.05041097         -0.09269951
          0.16156087         -0.33735969         -0.13284682
         -0.08635449          0.51779719         -0.22783907
          0.17601453          0.01080266         -0.38433768
         -0.23520743          0.01080266          0.37410075
 Vibration                    5
         -0.00487675          0.13465782          0.07913410
         -0.25352027         -0.19368354          0.14249832
          0.13776287          0.02779515          0.29242396
         -0.19964460          0.35220128         -0.27267151
          0.29600867          0.35220128          0.15448258
 Vibration                    6
          0.24337893          0.01300711          0.03413207
          0.34037856          0.01021031          0.00941272
          0.18773304         -0.00767054         -0.04907556
          0.20397503          0.02473489          0.09046667
          0.24138475          0.02473489          0.08564760
 Vibration                    7
          0.00000000         -0.11589793          0.00000000
         -0.00000000          0.55740921          0.00000000
         -0.00000000          0.55459739         -0.00000000
         -0.27775924          0.13453881         -0.10787186
          0.27775924          0.13453881          0.10787186
 Vibration                    8
         -0.10061376         -0.00000000         -0.05757239
          0.37336879          0.00000000         -0.14983374
          0.24818675          0.00000000          0.43194397
          0.28869833         -0.29469302          0.20197225
          0.28869833          0.29469302          0.20197225
 Vibration                    9
          0.05759704         -0.00000000         -0.10059384
         -0.38783583          0.00000000          0.04247371
          0.19433276          0.00000000          0.16821760
         -0.24642272          0.04572224          0.49401174
         -0.24642272         -0.04572224          0.49401174
 Vibration                   10
         -0.00017092          0.00000000          0.00000496
          0.48328019          0.00000000         -0.12324544
          0.27713446         -0.00000000          0.41451587
         -0.37918895          0.28700273         -0.14566477
         -0.37918895         -0.28700273         -0.14566477
 Vibration                   11
         -0.00000000         -0.00030648          0.00000000
          0.00000000         -0.49654320         -0.00000000
          0.00000000          0.49962664          0.00000000
         -0.17900095          0.00028432          0.46468089
          0.17900095          0.00028432         -0.46468089
 Vibration                   12
          0.00009883         -0.00000000          0.00002489
          0.12291403         -0.00000000          0.48218034
          0.41327380         -0.00000000         -0.27628865
         -0.26868274         -0.40727658         -0.10309412
         -0.26868274          0.40727658         -0.10309412
 Vibration                   13
         -0.08649666         -0.00000000         -0.00117400
          0.03009401         -0.00000000          0.21361567
          0.55587787         -0.00000000         -0.38841577
          0.22237774          0.37404732          0.09439495
          0.22237774         -0.37404732          0.09439495
 Vibration                   14
          0.00115808          0.00000000         -0.08653624
          0.20229305          0.00000000          0.76780876
         -0.39854172          0.00000000          0.24244147
          0.09122426          0.13773380          0.01047440
          0.09122426         -0.13773380          0.01047440
 Vibration                   15
          0.00000000         -0.08655158         -0.00000000
          0.00000000         -0.02439450          0.00000000
         -0.00000000         -0.02446020          0.00000000
          0.37240134          0.54011825          0.14289937
         -0.37240134          0.54011825         -0.14289937
