
 Primary working directories    : /data/scratch
 Secondary working directories  : /data/scratch
 Wavefunction directory         : /home/ospite/wfu/
 Main file repository           : /data/scratch/

 ARCHNAME  : Linux/x86_64
 FC        : /usr/bin/gfortran
 FCVERSION : 4.8.5
 BLASLIB   : 
 id        : polimi

 Nodes     nprocs
 molmod       1

 Using default tuning parameters: mindgm=1; mindgv=20; mindgc=4; mindgr=1; noblas=0; mincuda=1000; minvec=7
 default implementation of scratch files=df  

 ***,methane with imposed symmetry and 6-31+G basis set
 memory,100,m
 
 basis=6-31+G
 symmetry,y
 
 geometry={angstrom
 C
 H1, C, d
 H2, C, d, H1, a
 H3, C, d, H1, a, H2, t
 H4, C, d, H1, a, H2, -t
 }
 
 d=1.09 Ang
 a=109.47 Deg
 t=120.0 Deg
 
 {dfunc,b3lyp3}
 ks
 optg
 frequencies
 put,molden,ch4_6-31+G.molpro

 Variables initialized (661), CPU time= 0.01 sec
 Commands  initialized (458), CPU time= 0.05 sec, 486 directives.
 Default parameters read. Elapsed time= 0.24 sec

 Checking input...
 Passed
1


                                         ***  PROGRAM SYSTEM MOLPRO  ***
                         Copyright, University College Cardiff Consultants Limited, 2008

                                    Version 2010.1 linked Mar  6 2018 16:01:50


 **********************************************************************************************************************************
 LABEL *   methane with imposed symmetry and 6-31+G basis set                            
 Linux-3.10.0-1160.108.1.el7.x86_64/molmod(x86_64) 64 bit serial version                 DATE: 18-Aug-24          TIME: 12:15:01  
 **********************************************************************************************************************************

 SHA1:             d90fb18d49a3be29a79769f900c595ef3b8176e2
 **********************************************************************************************************************************

 Variable memory set to  100000000 words,  buffer space   230000 words

 SETTING BASIS          =    6-31+G
 ZSYMEL=Y  

 SETTING D              =         1.09000000  ANG                             
 SETTING A              =       109.47000000  DEG                             
 SETTING T              =       120.00000000  DEG                             


 Recomputing integrals since basis changed


 Using spherical harmonics

 Library entry C      S 6-31G                selected for orbital group  1
 Library entry C      S 6-31++G              selected for orbital group  1
 Library entry C      P 6-31G                selected for orbital group  1
 Library entry C      P 6-31++G              selected for orbital group  1
 Library entry H      S 6-31G                selected for orbital group  2

1PROGRAM * SEWARD (Integral evaluation for generally contracted gaussian basis sets)     Author: Roland Lindh, 1990

 Geometry written to block  1 of record 700

 Orientation using atomic masses  
 Molecule type: Symmetric top,     Order of principal axis = 3
 User-specified symmetry elements: Y
 Symmetry elements: Y
 Rotational constants:     158.2574080    158.2574080    158.2538321 GHz  (calculated with average atomic masses)

 Point group  Cs  



 ATOMIC COORDINATES

 NR  ATOM    CHARGE       X              Y              Z

   1  C       6.00   -0.000000000    0.000000000   -0.000007798
   2  H1      1.00   -0.000000000    0.000000000    2.059793685
   3  H2      1.00    1.942014089    0.000000000   -0.686566920
   4  H3      1.00   -0.971007045   -1.681833536   -0.686566920
   5  H4      1.00   -0.971007045    1.681833536   -0.686566920

 Bond lengths in Bohr (Angstrom)

 1-2  2.059801483  1-3  2.059801483  1-4  2.059801483  1-5  2.059801483
     ( 1.090000000)     ( 1.090000000)     ( 1.090000000)     ( 1.090000000)

 Bond angles

  2-1-3  109.47000000   2-1-4  109.47000000   2-1-5  109.47000000   3-1-4  109.47244124

  3-1-5  109.47244124   4-1-5  109.47244124

 NUCLEAR CHARGE:                   10
 NUMBER OF PRIMITIVE AOS:          42
 NUMBER OF SYMMETRY AOS:           42
 NUMBER OF CONTRACTIONS:           21   (  16A'  +   5A"  )
 NUMBER OF CORE ORBITALS:           1   (   1A'  +   0A"  )
 NUMBER OF VALENCE ORBITALS:        8   (   6A'  +   2A"  )


 NUCLEAR REPULSION ENERGY   13.43538921


 Eigenvalues of metric

         1 0.140E-01 0.696E-01 0.696E-01 0.117E+00 0.239E+00 0.239E+00 0.454E+00 0.573E+00
         2 0.696E-01 0.239E+00 0.573E+00 0.903E+00 0.280E+01


 Contracted 2-electron integrals neglected if value below      1.0D-11
 AO integral compression algorithm  1   Integral accuracy      1.0D-11

     0.262 MB (compressed) written to integral file (100.0%)


 NUMBER OF SORTED TWO-ELECTRON INTEGRALS:      15556.     BUFFER LENGTH:  32768
 NUMBER OF SEGMENTS:   1  SEGMENT LENGTH:      15556      RECORD LENGTH: 524288

 Memory used in sort:       0.57 MW

 SORT1 READ       23955. AND WROTE       13105. INTEGRALS IN      1 RECORDS. CPU TIME:     0.00 SEC, REAL TIME:     0.00 SEC
 SORT2 READ       13105. AND WROTE       15556. INTEGRALS IN      1 RECORDS. CPU TIME:     0.03 SEC, REAL TIME:     0.03 SEC

 FILE SIZES:   FILE 1:     2.9 MBYTE,  FILE 4:     4.2 MBYTE,   TOTAL:      7.1 MBYTE

 OPERATOR DM      FOR CENTER  0  COORDINATES:    0.000000    0.000000    0.000000


 **********************************************************************************************************************************
 DATASETS  * FILE   NREC   LENGTH (MB)   RECORD NAMES
              1      19        2.68       500      610      700      900      950      970     1000      129      960     1100   
                                          VAR    BASINP    GEOM    SYMINP    ZMAT    AOBASIS   BASIS     P2S    ABASIS      S 
                                         1400     1410     1200     1210     1080     1600     1650     1300     1700   
                                           T        V       H0       H01     AOSYM     SMH    MOLCAS    ERIS     OPER   

 PROGRAMS   *        TOTAL       INT
 CPU TIMES  *         0.64      0.15
 REAL TIME  *         0.93 SEC
 DISK USED  *         7.60 MB      
 **********************************************************************************************************************************

 Density functional group B3LYP3=B88+DIRAC+LYP+VWN3
 Functional: B88(Automatically generated B88)                                  Gradient terms: 1
 Functional: DIRAC(Automatically generated DIRAC)                              Gradient terms: 0
 Functional: LYP(Lee-Yang-Parr gradient-corrected correlation energy (1988))   Gradient terms: 1
 Functional: VWN3(Automatically generated VWN3)                                Gradient terms: 0
 Use grid at  1800.2


 Exact exchange will be calculated, factor:  0.2000

 Functional: B88                       Factor:  0.7200
 Functional: DIRAC                     Factor:  0.0800
 Functional: LYP                       Factor:  0.8100
 Functional: VWN3                      Factor:  0.1900

 Generated new metagrid on record  1800.2 with target accuracy 1.0D-06 and 7496 points in CPU time    0.3
 Computed new grid on record 1800.1 in CPU time    0.3
   20556 words reserved for DFT integration

 PROGRAM * RKS-SCF (Restricted closed shell Kohn-Sham)     Authors: W. Meyer, H.-J. Werner, P.J. Knowles, 1993

 NUMBER OF ELECTRONS:       5+    5-
 CONVERGENCE THRESHOLDS:    1.00E-05 (Density)    1.00E-06 (Energy)
 MAX. NUMBER OF ITERATIONS:       60
 INTERPOLATION TYPE:            DIIS
 INTERPOLATION STEPS:              2 (START)      1 (STEP)
 LEVEL SHIFTS:                  0.00 (CLOSED)  0.00 (OPEN) 



 Use fine grid record 1800.2 for energy threshold 1.0D-06
 Orbital guess generated from atomic densities. Full valence occupancy:    7   2

 Molecular orbital dump at record        2100.2

 Initial alpha occupancy:   4   1
 Initial beta  occupancy:   4   1
 Wave function symmetry:    1

 ITERATION    DDIFF          GRAD             ENERGY        2-EL.EN.            DIPOLE MOMENTS         DIIS
    1      0.000D+00      0.000D+00       -40.43460711     66.307260    0.00009    0.00000    0.00005    0
    2      0.000D+00      0.437D-01       -40.40627414     58.935958    0.00039    0.00000    0.00054    1
    3      0.615D-01      0.495D-01       -40.51288648     62.879702    0.00014    0.00000    0.00016    2
    4      0.332D-01      0.624D-03       -40.51290935     62.817714    0.00017    0.00000    0.00019    3
    5      0.821D-03      0.780D-04       -40.51290960     62.823253    0.00016    0.00000    0.00018    4
    6      0.481D-04      0.547D-05       -40.51290960     62.823642    0.00016    0.00000    0.00019    3
    7      0.434D-05      0.444D-06       -40.51290960     62.823565    0.00016    0.00000    0.00019    0

 Final occupancy:   4   1

 !RKS STATE 1.1 Energy                -40.512909600797
 Nuclear energy                        13.43538921
 One-electron energy                  -79.77387533
 Two-electron energy                   31.41178252
 SCF exchange energy                   -6.56496121     Factor=0.2000
 Density functional                    -5.58620600     B88=-6.56759186 DIRAC=-5.88381972 LYP=-0.29417274 VWN3=-0.78186504
 Virial quotient                       -1.00666599
 !RKS STATE 1.1 Dipole moment           0.00016210     0.00000000     0.00018653
 Dipole moment /Debye                   0.00041200     0.00000000     0.00047409

 Orbital energies:

         1.1          2.1          3.1          4.1          5.1          6.1
    -10.164044    -0.699632    -0.396056    -0.396048     0.017202     0.060303

         1.2          2.2          3.2
     -0.396044     0.063810     0.182238


 **********************************************************************************************************************************
 DATASETS  * FILE   NREC   LENGTH (MB)   RECORD NAMES
              1      20        2.92       500      610      700      900      950      970     1000      129      960     1100   
                                          VAR    BASINP    GEOM    SYMINP    ZMAT    AOBASIS   BASIS     P2S    ABASIS      S 
                                         1400     1410     1200     1210     1080     1600     1650     1300     1700     1800   
                                           T        V       H0       H01     AOSYM     SMH    MOLCAS    ERIS     OPER     GRID   

              2       4        0.30       700     1000     1800     2100   
                                         GEOM     BASIS    GRID      RKS  

 PROGRAMS   *        TOTAL        KS       INT
 CPU TIMES  *         2.49      1.84      0.15
 REAL TIME  *         3.34 SEC
 DISK USED  *         7.60 MB      
 **********************************************************************************************************************************


 PROGRAM * OPT (Geometry optimization)     Authors: F. Eckert and H.-J. Werner


 BFGS update of hessian

 *** Long output written to logfile /home/ospite/Desktop/MMfP/Project6/CH4/molpro/DFT/B3LYP/ch4_+.log ***


 Geometry optimization using default procedure for command KS-SCF

 Geometry written to block  1 of record 700

 Making model hessian for Z-matrix coordinates

 Quadratic Steepest Descent - Minimum Search

 Optimization point 1

 Variable                      Last           Current        Next           Gradient       Hessian

 E(KS-SCF000) / Hartree      0.00000000   -40.51290960     0.00000000
 D / ANG                     0.00000000     1.09000000     1.09278038    -0.01910792     6.87242182
 A / DEG                     0.00000000   109.47000000   109.46839444     0.00000037     0.00023257
 T / DEG                     0.00000000   120.00000000   120.01201798    -0.00000180     0.00014996
 Convergence:                0.00000000  (line search)     0.00525841     0.01011203  (total)

 Freezing grid

 Optimization point 2

 Variable                      Last           Current        Next           Gradient       Hessian

 E(KS-SCF000) / Hartree    -40.51290960   -40.51295501     0.00000000
 D / ANG                     1.09000000     1.09278038     1.09376213    -0.00492035     5.09532440
 A / DEG                   109.47000000   109.46839444   109.46171673     0.00000114     0.00022903
 T / DEG                   120.00000000   120.01201798   119.96728219     0.00000491     0.00014870
 Convergence:                0.00000000  (line search)     0.00201622     0.00261972  (total)

 Optimization point 3

 Variable                      Last           Current        Next           Gradient       Hessian

 E(KS-SCF000) / Hartree    -40.51295501   -40.51292328     0.00000000
 D / ANG                     1.09278038     1.09376213     1.09378120    -0.00005934     4.99214819
 A / DEG                   109.46839444   109.46171673   109.47607557    -0.00000328     0.00023137
 T / DEG                   120.01201798   119.96728219   119.97006458    -0.00000049     0.00014896
 Convergence:                0.00000000  (line search)     0.00025780     0.00019265  (total)

 END OF GEOMETRY OPTIMIZATION.    TOTAL CPU:         7.9 SEC

 ITER.   ENERGY(OLD)    ENERGY(NEW)      DE          GRADMAX     GRADNORM    GRADRMS     STEPMAX     STEPLEN     STEPRMS
   1   -40.51290960   -40.51295501    -0.00004541  0.01011148  0.01011203  0.00337068  0.00525415  0.00525841  0.00175280
   2   -40.51295501   -40.51292328     0.00003173  0.00260374  0.00261972  0.00087324  0.00185525  0.00201622  0.00067207
   3   -40.51292328   -40.51295684    -0.00003356  0.00018795  0.00019265  0.00006422  0.00025061  0.00025780  0.00008593

 Geometry written to block  1 of record 700


 **********************************************************************************************************************************
 DATASETS  * FILE   NREC   LENGTH (MB)   RECORD NAMES
              1      20        2.92       500      610      700      900      950      970     1000      129      960     1100   
                                          VAR    BASINP    GEOM    SYMINP    ZMAT    AOBASIS   BASIS     P2S    ABASIS      S 
                                         1400     1410     1200     1210     1080     1600     1650     1300     1700     1800   
                                           T        V       H0       H01     AOSYM     SMH    MOLCAS    ERIS     OPER     GRID   

              2       4        0.30       700     1000     1800     2100   
                                         GEOM     BASIS    GRID      RKS  

 PROGRAMS   *        TOTAL      OPTG        KS       INT
 CPU TIMES  *        10.38      7.88      1.84      0.15
 REAL TIME  *        13.34 SEC
 DISK USED  *         7.64 MB      
 **********************************************************************************************************************************


 PROGRAM * HESSIAN

 Computing numerical hessian using default procedure for command KS-SCF

 Symmetry elements for unique displacements: Y  

 Using no symmetry in wavefunction calculations

 Running default procedure: KS-SCF000


 Recomputing wavefunction at reference geometry

 Numerically approximating hessian using central gradient differences

 Task list generated. Total number of displacements:     21

    5 tasks completed, CPU=    20.54 sec, Elapsed=    23.04 sec
   10 tasks completed, CPU=    41.27 sec, Elapsed=    46.23 sec
   15 tasks completed, CPU=    61.74 sec, Elapsed=    69.30 sec
   20 tasks completed, CPU=    82.42 sec, Elapsed=    92.47 sec

 Numerical KS-SCF000 hessian completed. CPU-time:    86.53 sec, Elapsed:    97.10 sec

 KS-SCF hessian saved to record  5300.2

 FREQUENCIES * CALCULATION OF HARMONIC VIBRATIONAL SPECTRA FOR KS-SCF


 Permanent Dipole Moment [debye]
   1-  3    0.001099    0.000000    0.000795

 Dipole Moment Norm    0.0013565 [debye]

 Dipole Moment Derivatives [debye/ang]
                   1             2             3             4             5             6             7             8
         1    -0.3171190     0.0000000    -0.0006097     0.4256395     0.0000000    -0.3061990    -0.3797079     0.0000000
         2    -0.0000000    -0.3097606     0.0000000     0.0000000     0.5037001     0.0000000    -0.0000000     0.5045643
         3    -0.0009358     0.0000000    -0.3201373    -0.3073136     0.0000000    -0.6937017     0.5931660     0.0000000
                   9            10            11            12            13            14            15
         1     0.5921243     0.1355851    -0.5639917    -0.1426592     0.1355851     0.5639917    -0.1426592
         2     0.0000000    -0.5595280    -0.3492628    -0.2149097     0.5595280    -0.3492628     0.2149097
         3     0.1143313    -0.1424553    -0.2159433     0.4497409    -0.1424553     0.2159433     0.4497409

 Projecting out rotations and translations

   Low Vibration      Wavenumber
        Nr             [1/cm] 
        1                0.00
        2                0.00
        3                0.00
        4                0.00
        5                0.00
        6                0.00

     Vibration        Wavenumber
        Nr             [1/cm] 
        1             1396.59
        2             1396.60
        3             1397.58
        4             1591.93
        5             1592.98
        6             3038.00
        7             3155.72
        8             3156.11
        9             3156.17

 FREQUENCIES * CALCULATION OF NORMAL MODES FOR KS-SCF


 Atomic Coordinates

  Nr  Atom  Charge       X              Y              Z

   1   C     6.00   -0.000099694    0.000000000    0.000057524
   2   H1    1.00    0.510326678    0.000000000    2.002988997
   3   H2    1.00    1.718042729    0.000000000   -1.148966489
   4   H3    1.00   -1.113590709   -1.688113361   -0.427353992
   5   H4    1.00   -1.113590709    1.688113361   -0.427353992

 Frequencies dumped to record   5400.2

 Gradient norm at reference geometry: 0.59431D-04

 Normal Modes

                              1 A``       2 A`        3 A`        4 A`        5 A``
 Wavenumbers [cm-1]         1396.59     1396.60     1397.58     1591.93     1592.98
 Intensities [km/mol]         31.24       31.71       31.66        0.00        0.00
 Intensities [relative]       98.51      100.00       99.83        0.00        0.00
           CX1              0.00000    -0.10061     0.05760    -0.00017    -0.00000
           CY1             -0.11590    -0.00000    -0.00000     0.00000    -0.00031
           CZ1              0.00000    -0.05757    -0.10059     0.00000     0.00000
           H1X2            -0.00000     0.37337    -0.38784     0.48328     0.00000
           H1Y2             0.55741     0.00000     0.00000     0.00000    -0.49654
           H1Z2             0.00000    -0.14983     0.04247    -0.12325    -0.00000
           H2X3            -0.00000     0.24819     0.19433     0.27713     0.00000
           H2Y3             0.55460     0.00000     0.00000    -0.00000     0.49963
           H2Z3            -0.00000     0.43194     0.16822     0.41452     0.00000
           H3X4            -0.27776     0.28870    -0.24642    -0.37919    -0.17900
           H3Y4             0.13454    -0.29469     0.04572     0.28700     0.00028
           H3Z4            -0.10787     0.20197     0.49401    -0.14566     0.46468
           H4X5             0.27776     0.28870    -0.24642    -0.37919     0.17900
           H4Y5             0.13454     0.29469    -0.04572    -0.28700     0.00028
           H4Z5             0.10787     0.20197     0.49401    -0.14566    -0.46468

                              6 A`        7 A`        8 A`        9 A``
 Wavenumbers [cm-1]         3038.00     3155.72     3156.11     3156.17
 Intensities [km/mol]          0.00       30.88       30.67       30.77
 Intensities [relative]        0.00       97.40       96.73       97.04
           CX1              0.00010    -0.08650     0.00116     0.00000
           CY1             -0.00000    -0.00000     0.00000    -0.08655
           CZ1              0.00002    -0.00117    -0.08654    -0.00000
           H1X2             0.12291     0.03009     0.20229     0.00000
           H1Y2            -0.00000    -0.00000     0.00000    -0.02439
           H1Z2             0.48218     0.21362     0.76781     0.00000
           H2X3             0.41327     0.55588    -0.39854    -0.00000
           H2Y3            -0.00000    -0.00000     0.00000    -0.02446
           H2Z3            -0.27629    -0.38842     0.24244     0.00000
           H3X4            -0.26868     0.22238     0.09122     0.37240
           H3Y4            -0.40728     0.37405     0.13773     0.54012
           H3Z4            -0.10309     0.09439     0.01047     0.14290
           H4X5            -0.26868     0.22238     0.09122    -0.37240
           H4Y5             0.40728    -0.37405    -0.13773     0.54012
           H4Z5            -0.10309     0.09439     0.01047    -0.14290


 Normal Modes of low/zero frequencies

                                  1           2           3           4           5
 Wavenumbers [cm-1]            0.00        0.00        0.00        0.00        0.00
 Intensities [km/mol]          0.00        0.00        0.00        0.00        0.00
 Intensities [relative]        0.00        0.00        0.00        0.00        0.00
           CX1             -0.05076    -0.01499     0.01608     0.00402    -0.00488
           CY1              0.11239    -0.01851     0.16887     0.05041     0.13466
           CZ1              0.07142     0.19249    -0.06450    -0.09270     0.07913
           H1X2             0.41603    -0.08574    -0.15857     0.16156    -0.25352
           H1Y2             0.19500     0.00875     0.49471    -0.33736    -0.19368
           H1Z2            -0.04753     0.21052    -0.01999    -0.13285     0.14250
           H2X3            -0.31854     0.02560     0.11628    -0.08635     0.13776
           H2Y3            -0.01860     0.32697     0.24108     0.51780     0.02780
           H2Z3            -0.32899     0.25318     0.08533    -0.22784     0.29242
           H3X4            -0.22055     0.30325     0.27089     0.17601    -0.19964
           H3Y4             0.13652    -0.20473    -0.03012     0.01080     0.35220
           H3Z4             0.41843     0.09888     0.05760    -0.38434    -0.27267
           H4X5            -0.08019    -0.30304    -0.16418    -0.23521     0.29601
           H4Y5             0.13652    -0.20473    -0.03012     0.01080     0.35220
           H4Z5             0.24342     0.20744    -0.38079     0.37410     0.15448

                                  6
 Wavenumbers [cm-1]            0.00
 Intensities [km/mol]          0.00
 Intensities [relative]        0.00
           CX1              0.24338
           CY1              0.01301
           CZ1              0.03413
           H1X2             0.34038
           H1Y2             0.01021
           H1Z2             0.00941
           H2X3             0.18773
           H2Y3            -0.00767
           H2Z3            -0.04908
           H3X4             0.20398
           H3Y4             0.02473
           H3Z4             0.09047
           H4X5             0.24138
           H4Y5             0.02473
           H4Z5             0.08565


 Zero point energy:  0.04529383 [H]     9940.85 [1/CM]      118.92 [KJ/MOL]
 Frequency information read from record  5400.2

 Dump information in style MOLDEN to ch4_6-31+g.molpro                                                               

 Molecular orbitals read from record     2101.2  Type=RKS/CANONICAL (state 1.1)
 Occupation numbers read from record     2101.2  Type=RKS/RHF (state 1.1)
 Orbital energies read from record       2101.2  Type=RKS/CANONICAL (state 1.1)
 Redundancy group numbers read from rec  2101.2  Type=RKS/RHF (state 1.1)

 DUMP ORBITAL  1.1 AS ORBITAL    1  occ=    2.0000  eig=  -10.1657  GROUP=   2
 DUMP ORBITAL  2.1 AS ORBITAL    2  occ=    2.0000  eig=   -0.6985  GROUP=   2
 DUMP ORBITAL  3.1 AS ORBITAL    3  occ=    2.0000  eig=   -0.3955  GROUP=   2
 DUMP ORBITAL  4.1 AS ORBITAL    4  occ=    2.0000  eig=   -0.3955  GROUP=   2
 DUMP ORBITAL  5.1 AS ORBITAL    5  occ=    2.0000  eig=   -0.3954  GROUP=   2

 Total charge:      10.000000
 Frequency information read from record  5400.2

 **********************************************************************************************************************************

        KS-SCF          KS-SCF          KS-SCF          KS-SCF          KS-SCF          KS-SCF          KS-SCF          KS-SCF  
    -40.51296927    -40.51296621    -40.51296628    -40.51295650    -40.51295729    -40.51296257    -40.51296251    -40.51296186
 **********************************************************************************************************************************
 Variable memory released
