[Molden Format]
[Molpro variables]
_NUMVAR=  693.0000000000000    
_EV2006= 0.3674930886769165E-01
_EV= 0.3674932534394180E-01
_KJOULE= 0.3808798324128737E-03
_KJOULE/MOL= 0.3808798324128737E-03
_CM= 0.4556335267302901E-05
_CM-1= 0.4556335267302901E-05
_KCAL= 0.1593601117815568E-02
_KCAL/MOL= 0.1593601117815568E-02
_KELVIN2006= 0.3166828861084835E-05
_KELVIN= 0.3166814820820034E-05
_HERTZ2006= 0.1519829850815779E-15
_HERTZ= 0.1519829846011223E-15
_HZ2006= 0.1519829850815779E-15
_HZ= 0.1519829846011223E-15
_TOA2006= 0.5291772490000000    
_TOA= 0.5291772090000000    
_TOANG2006= 0.5291772490000000    
_TOANG= 0.5291772090000000    
_TORAD= 0.1745329251994330E-01
_TOCM=  219474.6306700000    
_TODEBYE=  2.541580000000000    
_TOEV2006=  27.21139610000000    
_TOEV=  27.21138390000000    
_TOHERTZ2006=  6579683899900000.    
_TOHERTZ=  6579683920700000.    
_TOHZ2006=  6579683899900000.    
_TOHZ=  6579683920700000.    
_TOK2006=  315773.3000000000    
_TOK=  315774.7000000000    
_TOKCAL=  627.5096000000000    
_TOKELVIN2006=  315773.3000000000    
_TOKELVIN=  315774.7000000000    
_TOKJ=  2625.500000000000    
_TOKJOULE=  2625.500000000000    
_ANG2006=  1.889725988578923    
_ANG=  1.889726131421507    
_ANGSTROM2006=  1.889725988578923    
_ANGSTROM=  1.889726131421507    
_IGNORE_UNDEF=  2.000000000000000    
_STRICTCHECK=  0.000000000000000    
_SEW_ONEEL=  0.000000000000000    
_CPPDONE=FALSE
_DKROLL_DONE=  0.000000000000000    
_FOCKDONE=TRUE
_GRADONE=FALSE
_HESSDONE=TRUE
_INTDONE=TRUE
_SCFDONE=TRUE
_MODUL_CUDA=FALSE
_MODUL_SLATER=FALSE
_MODUL_MRCC=FALSE
_MRCC_EXEC=
_FITC_AO_SAVED=FALSE
_FITC_MO_SAVED=FALSE
_SHARED_FS=TRUE
_LSTYP=SEWARD
_INTYP=INTS
_GEOMTYP=ZMAT
_GRADTYP=ALASKA
_DIRECT=FALSE
_SYNCM=  0.000000000000000    
_DFTNAME=B3LYP3
_DFTFUNC=B88
_BASIS=STO-3G
_ZSYMEL=
_ZORIENT=  1.000000000000000    
_NELEC=  10.00000000000000    
!SPIN=  0.000000000000000    
_OPTCONV= 0.1572285941489526E-03
_QSDSTEP=  0.000000000000000    
_QSDIRC=  0.000000000000000    
_PROGRAM=FREQ
_CPUSTEP=  0.000000000000000    
_SYSSTEP=  0.000000000000000    
_WALLSTEP=  0.000000000000000    
!DFSCF=  0.000000000000000    
!SCSGRD=  0.000000000000000    
_BASINP=  610.0000000000000    
_CPUTOT=  69.74000000000001    
_CPUSORT= 0.3000000000000114E-01
_SYSSORT= 0.9999999999999787E-02
_WALLSORT= 0.4000000003725290E-01
_DFTEXFAC= 0.2000000000000000    
_DFTFAC= 0.7200000000000000    
_DFTFUN= -5.599842501340928    
_DFTFUNS= -6.583843331840108    
_DMX= 0.4570444980711574E-04
_DMY= 0.6556977183436175E-12
_DMZ=-0.5594609894854496E-05
_FREQUENCIES= 0.4301410222691738E-04
_ENERGY= -40.03891672326743    
_ENUC=  13.35174323279639    
_FREQSTEP=  22.00000000000000    
_GRADENERG= -40.03891344866508    
_GRADEXFAC= 0.2000000000000000    
_GRADMETHOD=  1.000000000000000    
_VIRIAL= 0.1269838541177384E-02
_GRID=  1800.200000000000    
!GRID_FREEZE= -1.000000000000000    
_GRID_SPARSITY= 0.1010101010101017E-02
_GRID_RMAX=  6.633045697955603    
_ITERATIONS=  2.000000000000000    
_LASTNELEC=  10.00000000000000    
_LASTSPIN=  0.000000000000000    
_LASTSYM=  1.000000000000000    
_MPP_PROG=  0.000000000000000    
_NGRID=  14104.00000000000    
_NPROC_MPP=  1.000000000000000    
_NPROC_SMP=  1.000000000000000    
_NUMSTEP=  0.000000000000000    
_OPTCONVMX= 0.1527780400380983E-03
_OPTCONVRMS= 0.5240953138298420E-04
_OPTGRAD= 0.8858338516417500E-04
_OPTGRADMX= 0.7036515346544881E-04
_OPTGRADRMS= 0.2952779505472500E-04
_OPTSTEP=  3.000000000000000    
_ORBITAL=  2101.200000000000    
_PI=  3.141592653589793    
_SEIG_MIN= 0.2247392546295416    
_SEWPROP=TRUE
_STATUS=  1.000000000000000    
_SYSTOT=  4.940000000000000    
_VERSION=  2010001.000000000    
_WALLTOT=  95.89000000000000    
_ZPE= 0.5007143977147366E-01
_DATE=18-Aug-24
_LASTORB=RKS
_MACHINE=Linux-3.10.0-1160.108.1.el7.x86_64/molmod(x86_64) 64 bit serial version
_OUTPUT=/home/ospite/Desktop/MMfP/Project6/CH4/molpro/DFT/B3LYP/ch4_sto-3g.xml
_PGROUP=C1
_TIME=12:21:44
_LIBMOL=/usr/local/molpro/molpros_2010_1_Linux_x86_64_i8/lib/
!SURFREC=  0.000000000000000    
!POLYREC=  0.000000000000000    
!DIPREC=  0.000000000000000    
!VSCFREC=  0.000000000000000    
!VCIREC=  0.000000000000000    
!PVCIREC=  0.000000000000000    
!VMP2REC=  0.000000000000000    
!VMCSCFREC=  0.000000000000000    
!GAREC=  0.000000000000000    
!SCFORB=  21002.00000000000    
!NEWMOL=  0.000000000000000    
!NEWSYM=  0.000000000000000    
_SLFILES=slscratch
_NGSSTO=  9.000000000000000    
_SIN=SIN
_COS=COS
_TAN=TAN
_ACOS=ACOS
_ASIN=ASIN
_ATAN=ATAN
_COSH=COSH
_SINH=SINH
_TANH=TANH
_ABS=ABS
_MOD=MOD
_ERF=ERF
_REFC=REFC
_ERFC=ERFC
_HYPOT=HYPOT
_J0=J0
_J1=J1
_JN=JN
_GAMMA=GAMMA
_LGAMMA=LGAMMA
_Y0=Y0
_Y1=Y1
_YN=YN
_EXP=EXP
_LOG=LOG
_LOG10=LOG10
_SQRT=SQRT
_INT=INT
_NINT=NINT
_MAX=MAX
_MIN=MIN
_COSMO=  0.000000000000000    
_COSMOIT=  0.000000000000000    
_COSMOES=  0.000000000000000    
_COSMOEDS=  0.000000000000000    
_COSMOEC=  0.000000000000000    
_COSMOEDCORR=  0.000000000000000    
_FEPSI=  1.000000000000000    
_SL_IsMM=  0.000000000000000    
_SL_NSYM=  0.000000000000000    
_SL_System_BitSw=  0.000000000000000    
_SL_Unique_atoms=  0.000000000000000    
_SL_GRAD=  0.000000000000000    
_SL_MAXUPD_Hess=  5.000000000000000    
_SL_N_PRINT_COD=  5.000000000000000    
_SL_PRINT_CODES=  0.000000000000000    
_SL_BasType=  0.000000000000000    
_SL_Energy_Pred=  0.000000000000000    
_SL_New_Coords=  0.000000000000000    
_SL_Total_Nuclea=  0.000000000000000    
_SL_Highest_Mltp=  0.000000000000000    
_SL_Ref_Geom=  0.000000000000000    
!LATTICE= -1.000000000000000    
!NEWLATTICE=  0.000000000000000    
!LATGRAD_VAR=FALSE
!SEW_LATTICE=  1.000000000000000    
!LOCAL=  0.000000000000000    
!SAVEOCC=  0.000000000000000    
!SAVEDOM= -1.000000000000000    
!RESTDOM= -1.000000000000000    
!SAVEDOM_HF= -1.000000000000000    
!RESTDOM_HF= -1.000000000000000    
!HESSREC=  5300.200000000000    
!FREQREC=  5400.200000000000    
!NMODREC=  5450.200000000000    
!GTASKS=  0.000000000000000    
!HTASKS=  5500.200000000000    
!THRCHG= 0.1000000000000000    
!DEBUG= -1.000000000000000    
!CFIT_CPHF=  0.000000000000000    
!RDOMAUX_CPHF=  5.000000000000000    
!THRAO_CPHF= 0.9999999999999999E-11
!THRMO_CPHF= 0.9999999999999999E-11
!THROV_CPHF= 0.1000000000000000E-11
!THRSW_CPHF= 0.1000000000000000E-09
!THRPROD_CPHF= 0.9999999999999999E-11
!THRAOPR_CPHF= 0.1000000000000000E-11
!CFIT_SCFGRD=  0.000000000000000    
!RDOMAUX_SCFGRD=  7.000000000000000    
!THRAO_SCFGRD= 0.9999999999999999E-11
!THRMO_SCFGRD= 0.9999999999999999E-11
!THROV_SCFGRD= 0.1000000000000000E-11
!THRSW_SCFGRD= 0.1000000000000000E-09
!THRPROD_SCFGRD= 0.9999999999999999E-11
!THRAOPR_SCFGRD= 0.1000000000000000E-11
!LOCFIT_SCF=  0.000000000000000    
!LOCFIT_MP2= -1.000000000000000    
_RIDOM=  0.000000000000000    
!CC2_METHOD=  0.000000000000000    
_BASIS2006=FALSE
_SVDDEL= -1.000000000000000    
_SVDDELA= -1.000000000000000    
_SVDDELP= -1.000000000000000    
_SVDDELF= -1.000000000000000    
_SVDDELS= -1.000000000000000    
_SVDDEL_ABS= -1.000000000000000    
_SVDDELA_ABS= -1.000000000000000    
_SVDDELP_ABS= -1.000000000000000    
_SVDDELF_ABS= -1.000000000000000    
_SVDDELS_ABS= -1.000000000000000    
_MAXBASIS=  0.000000000000000    
!OPT_CONICAL=  0.000000000000000    
!CLEARSP_JGRID=  0.000000000000000    
D=  1.096828631459461    
A=  109.4696143935837    
T=  119.9864604558476    
GX1=-0.5061008244654396E-04
GY1= -0.000000000000000    
GZ1= 0.8424250456436534E-05
GX2= 0.7448036688465588    
GY2= -0.000000000000000    
GZ2=  1.934252755268834    
GX3=  1.575325435722629    
GY3= -0.000000000000000    
GZ3= -1.346950871058479    
GX4= -1.159763007698475    
GY4= -1.692604761395108    
GZ4=-0.2937011354064812    
GX5= -1.159763007698475    
GY5=  1.692604761395108    
GZ5=-0.2937011354064812    
CX1=-0.5061008244654393E-04
CY1=  0.000000000000000    
CZ1= 0.8424250456436772E-05
H1X2= 0.7448036688465588    
H1Y2=  0.000000000000000    
H1Z2=  1.934252755268834    
H2X3=  1.575325435722629    
H2Y3=  0.000000000000000    
H2Z3= -1.346950871058479    
H3X4= -1.159763007698475    
H3Y4= -1.692604761395108    
H3Z4=-0.2937011354064812    
H4X5= -1.159763007698475    
H4Y5=  1.692604761395108    
H4Z5=-0.2937011354064812    
[Atoms] Angs
C     1    6        -0.0000267817       -0.0000000000        0.0000044579
H     2    1         0.3941331267       -0.0000000000        1.0235624745
H     3    1         0.8336263173       -0.0000000000       -0.7127757026
H     4    1        -0.6137201515       -0.8956878636       -0.1554199471
H     5    1        -0.6137201515        0.8956878636       -0.1554199471
[GTO]
  1 0
 s    3  1.00
  0.7161683700D+02  0.1543289700D+00
  0.1304509600D+02  0.5353281400D+00
  0.3530512200D+01  0.4446345400D+00
 s    3  1.00
  0.2941249400D+01 -0.9996723008D-01
  0.6834831000D+00  0.3995128303D+00
  0.2222899000D+00  0.7001154705D+00
 p    3  1.00
  0.2941249400D+01  0.1559162721D+00
  0.6834831000D+00  0.6076837282D+00
  0.2222899000D+00  0.3919573953D+00
  
  2 0
 s    3  1.00
  0.3425250900D+01  0.1543289707D+00
  0.6239137300D+00  0.5353281424D+00
  0.1688554000D+00  0.4446345420D+00
  
  3 0
 s    3  1.00
  0.3425250900D+01  0.1543289707D+00
  0.6239137300D+00  0.5353281424D+00
  0.1688554000D+00  0.4446345420D+00
  
  4 0
 s    3  1.00
  0.3425250900D+01  0.1543289707D+00
  0.6239137300D+00  0.5353281424D+00
  0.1688554000D+00  0.4446345420D+00
  
  5 0
 s    3  1.00
  0.3425250900D+01  0.1543289707D+00
  0.6239137300D+00  0.5353281424D+00
  0.1688554000D+00  0.4446345420D+00


[MO]
 Sym=      1.1
 Ene=      -9.9963
 Spin= Alpha
 Occup=    2.000000
1 0.99030607521675
2 0.046261489651311
3 0.000002020765776
4 0.000000000000002
5 -0.000000329068825
6 -0.009173824955355
7 -0.009174054120490
8 -0.009173568561456
9 -0.009173568561457
 Sym=      2.1
 Ene=      -0.6608
 Spin= Alpha
 Occup=    2.000000
1 -0.22446374626448
2 0.63677226957511
3 0.000043501259052
4 0.000000000000429
5 -0.000009160020187
6 0.17873012079636
7 0.17873982075903
8 0.17872536105432
9 0.17872536105467
 Sym=      3.1
 Ene=      -0.3600
 Spin= Alpha
 Occup=    2.000000
1 0.000000000000083
2 -0.000000000000124
3 -0.000000000825639
4 0.57781661609377
5 -0.000000001591764
6 -0.000000001592063
7 0.000000000363162
8 -0.42151298123580
9 0.42151298246398
 Sym=      4.1
 Ene=      -0.3599
 Spin= Alpha
 Occup=    2.000000
1 -0.000004417016573
2 0.000016498743817
3 0.012114959692321
4 0.000000001608396
5 0.57771512049391
6 0.48556770794907
7 -0.32718897351202
8 -0.079190101480977
9 -0.079190099134102
 Sym=      5.1
 Ene=      -0.3599
 Spin= Alpha
 Occup=    2.000000
1 0.000022398621218
2 -0.000083148023519
3 0.57773885984708
4 0.000000000791945
5 -0.012115604077050
6 0.17537078918729
7 0.39935817896714
8 -0.28736222357514
9 -0.28736222241958
 Sym=      6.1
 Ene=       0.4551
 Spin= Alpha
 Occup=    0.000000
1 -0.000348304245428
2 0.002158269243400
3 -1.09017362103381
4 0.000000000654583
5 -0.076264477126267
6 0.44506858954121
7 0.74966294148909
8 -0.59912106090893
9 -0.59912106193871
 Sym=      7.1
 Ene=       0.4552
 Spin= Alpha
 Occup=    0.000000
1 0.000084184511682
2 -0.000521851540017
3 0.076257148671456
4 0.000000001429139
5 -1.09026387982463
6 0.95397493402354
7 -0.73815906324993
8 -0.10748325789070
9 -0.10748326013909
 Sym=      8.1
 Ene=       0.4552
 Spin= Alpha
 Occup=    0.000000
1 -0.000000000001062
2 0.000000000006717
3 0.000000000553220
4 1.09302035597227
5 0.000000001471342
6 -0.000000001516990
7 0.000000000513160
8 0.85968995394643
9 -0.85968995295387
 Sym=      9.1
 Ene=       0.4885
 Spin= Alpha
 Occup=    0.000000
1 0.25452144420107
2 -1.59485202954354
3 -0.001630206257807
4 0.000000000005124
5 0.000276013853701
6 0.65941291208819
7 0.66037449633736
8 0.65835024108329
9 0.65835024107542
 [FREQ]
      0.00
      0.00
      0.00
      0.00
      0.00
      0.00
   1535.38
   1535.47
   1535.65
   1762.32
   1762.51
   3283.37
   3521.04
   3521.30
   3521.78
 [FR-COORD]
C         -0.0000506101       -0.0000000000        0.0000084243
H          0.7448036688       -0.0000000000        1.9342527553
H          1.5753254357       -0.0000000000       -1.3469508711
H         -1.1597630077       -1.6926047614       -0.2937011354
H         -1.1597630077        1.6926047614       -0.2937011354
 [FR-NORM-COORD]
 Vibration                    1
          0.04656716          0.19885042          0.06628281
         -0.17561663          0.37372907          0.15184312
          0.20129039          0.23291729          0.24724393
          0.20627445          0.09440350          0.03759066
         -0.04566416          0.09440350         -0.17145394
 Vibration                    2
          0.02421808          0.06533958         -0.01213129
          0.49649739          0.14093230         -0.19400039
         -0.30466540          0.30744120         -0.39678668
          0.19073920         -0.09344989          0.24544015
         -0.28573161         -0.09344989          0.29662506
 Vibration                    3
          0.00044404         -0.08024978          0.19248249
          0.09478054          0.22285044          0.15615464
         -0.06524954         -0.27730313          0.11564862
         -0.00255014         -0.13328085          0.50991523
         -0.02521125         -0.13328085         -0.01182781
 Vibration                    4
          0.03296133          0.09190144         -0.00361199
          0.23627969          0.00641716         -0.08190745
         -0.10862448         -0.36064320         -0.16920786
         -0.41181260          0.36081406          0.20287451
          0.41598863          0.36081406          0.03370815
 Vibration                    5
          0.07050780          0.00157121          0.13396658
          0.07887012         -0.47153496          0.13074635
          0.06468448          0.25946925          0.12715575
          0.01139625          0.10917703         -0.25274784
          0.12707975          0.10917703          0.53070859
 Vibration                    6
          0.23134477         -0.06028510         -0.05275636
          0.19493607          0.05238850         -0.03873581
          0.25669887         -0.10623160         -0.02310272
          0.26315593         -0.09364590          0.01389063
          0.21059073         -0.09364590         -0.16306237
 Vibration                    7
         -0.11220282          0.00000000         -0.01609408
          0.43602119         -0.00000000         -0.22012449
          0.22169002         -0.00000000          0.36082579
          0.33967036         -0.30744706          0.02554100
          0.33967036          0.30744706          0.02554100
 Vibration                    8
          0.01609356         -0.00000000         -0.11220114
         -0.28475684          0.00000000          0.01620450
          0.29566234          0.00000000          0.23041494
         -0.10134124         -0.03258546          0.54520622
         -0.10134124          0.03258546          0.54520622
 Vibration                    9
         -0.00000000         -0.11333384          0.00000000
          0.00000000          0.55686596         -0.00000000
          0.00000000          0.55606002          0.00000000
         -0.29990341          0.11880176         -0.07631380
          0.29990341          0.11880176          0.07631380
 Vibration                   10
          0.00008321         -0.00000000          0.00000849
          0.46446674         -0.00000000         -0.17876720
          0.32346566          0.00000000          0.37833082
         -0.39446196          0.28769573         -0.09983242
         -0.39446196         -0.28769573         -0.09983242
 Vibration                   11
         -0.00000000         -0.00008619         -0.00000000
         -0.00000000         -0.49762130          0.00000000
         -0.00000000          0.49850966         -0.00000000
         -0.12245148          0.00006937          0.48269808
          0.12245148          0.00006937         -0.48269808
 Vibration                   12
          0.00004373          0.00000000          0.00012783
          0.17848435          0.00000000          0.46355851
          0.37887353          0.00000000         -0.32389636
         -0.27893951         -0.40702825         -0.07059273
         -0.27893951          0.40702825         -0.07059273
 Vibration                   13
         -0.08376054          0.00000000          0.03254837
         -0.00856633          0.00000000          0.00054560
          0.58624735          0.00000000         -0.50475602
          0.21022084          0.31796412          0.05817575
          0.21022084         -0.31796412          0.05817575
 Vibration                   14
         -0.00000000         -0.08988345          0.00000000
         -0.00000000         -0.00820288         -0.00000000
          0.00000000         -0.00820903         -0.00000000
          0.37818241          0.54374880          0.09577475
         -0.37818241          0.54374880         -0.09577475
 Vibration                   15
         -0.03254670         -0.00000000         -0.08376199
          0.29475303         -0.00000000          0.76562394
         -0.21029676         -0.00000000          0.16952019
          0.15169136          0.22568507          0.03149797
          0.15169136         -0.22568507          0.03149797
