[Molden Format]
[Molpro variables]
_NUMVAR=  693.0000000000000    
_EV2006= 0.3674930886769165E-01
_EV= 0.3674932534394180E-01
_KJOULE= 0.3808798324128737E-03
_KJOULE/MOL= 0.3808798324128737E-03
_CM= 0.4556335267302901E-05
_CM-1= 0.4556335267302901E-05
_KCAL= 0.1593601117815568E-02
_KCAL/MOL= 0.1593601117815568E-02
_KELVIN2006= 0.3166828861084835E-05
_KELVIN= 0.3166814820820034E-05
_HERTZ2006= 0.1519829850815779E-15
_HERTZ= 0.1519829846011223E-15
_HZ2006= 0.1519829850815779E-15
_HZ= 0.1519829846011223E-15
_TOA2006= 0.5291772490000000    
_TOA= 0.5291772090000000    
_TOANG2006= 0.5291772490000000    
_TOANG= 0.5291772090000000    
_TORAD= 0.1745329251994330E-01
_TOCM=  219474.6306700000    
_TODEBYE=  2.541580000000000    
_TOEV2006=  27.21139610000000    
_TOEV=  27.21138390000000    
_TOHERTZ2006=  6579683899900000.    
_TOHERTZ=  6579683920700000.    
_TOHZ2006=  6579683899900000.    
_TOHZ=  6579683920700000.    
_TOK2006=  315773.3000000000    
_TOK=  315774.7000000000    
_TOKCAL=  627.5096000000000    
_TOKELVIN2006=  315773.3000000000    
_TOKELVIN=  315774.7000000000    
_TOKJ=  2625.500000000000    
_TOKJOULE=  2625.500000000000    
_ANG2006=  1.889725988578923    
_ANG=  1.889726131421507    
_ANGSTROM2006=  1.889725988578923    
_ANGSTROM=  1.889726131421507    
_IGNORE_UNDEF=  2.000000000000000    
_STRICTCHECK=  0.000000000000000    
_SEW_ONEEL=  0.000000000000000    
_CPPDONE=FALSE
_DKROLL_DONE=  0.000000000000000    
_FOCKDONE=TRUE
_GRADONE=FALSE
_HESSDONE=TRUE
_INTDONE=TRUE
_SCFDONE=TRUE
_MODUL_CUDA=FALSE
_MODUL_SLATER=FALSE
_MODUL_MRCC=FALSE
_MRCC_EXEC=
_FITC_AO_SAVED=FALSE
_FITC_MO_SAVED=FALSE
_SHARED_FS=TRUE
_LSTYP=SEWARD
_INTYP=INTS
_GEOMTYP=ZMAT
_GRADTYP=ALASKA
_DIRECT=FALSE
_SYNCM=  0.000000000000000    
_DFTNAME=B3LYP3
_DFTFUNC=B88
_BASIS=6-31G
_ZSYMEL=
_ZORIENT=  1.000000000000000    
_NELEC=  10.00000000000000    
!SPIN=  0.000000000000000    
_OPTCONV= 0.4707067298560599E-04
_QSDSTEP=  0.000000000000000    
_QSDIRC=  0.000000000000000    
_PROGRAM=FREQ
_CPUSTEP=  0.000000000000000    
_SYSSTEP=  0.000000000000000    
_WALLSTEP=  0.000000000000000    
!DFSCF=  0.000000000000000    
!SCSGRD=  0.000000000000000    
_BASINP=  610.0000000000000    
_CPUTOT=  87.72000000000000    
_CPUSORT= 0.5000000000001137E-01
_SYSSORT= 0.9999999999999787E-02
_WALLSORT= 0.5999999959021807E-01
_DFTEXFAC= 0.2000000000000000    
_DFTFAC= 0.7200000000000000    
_DFTFUN= -5.590337594692900    
_DFTFUNS= -6.572427916718270    
_DMX= 0.7904256864843529E-04
_DMY=-0.2138289545428051E-12
_DMZ= 0.5771396578062304E-04
_FREQUENCIES= 0.2857774675816063E-04
_ENERGY= -40.51063361143068    
_ENUC=  13.39656554950783    
_FREQSTEP=  22.00000000000000    
_GRADENERG= -40.51062875014800    
_GRADEXFAC= 0.2000000000000000    
_GRADMETHOD=  1.000000000000000    
_VIRIAL= 0.2871703482367845E-02
_GRID=  1800.200000000000    
!GRID_FREEZE= -1.000000000000000    
_GRID_SPARSITY=  0.000000000000000    
_GRID_RMAX=  6.772354221871534    
_ITERATIONS=  4.000000000000000    
_LASTNELEC=  10.00000000000000    
_LASTSPIN=  0.000000000000000    
_LASTSYM=  1.000000000000000    
_MPP_PROG=  0.000000000000000    
_NGRID=  13492.00000000000    
_NPROC_MPP=  1.000000000000000    
_NPROC_SMP=  1.000000000000000    
_NUMSTEP=  0.000000000000000    
_OPTCONVMX= 0.4042610795372622E-04
_OPTCONVRMS= 0.1569022432853533E-04
_OPTGRAD= 0.6133847710801971E-04
_OPTGRADMX= 0.5862682955402264E-04
_OPTGRADRMS= 0.2044615903600657E-04
_OPTSTEP=  4.000000000000000    
_ORBITAL=  2101.200000000000    
_PI=  3.141592653589793    
_SEIG_MIN= 0.2073158268236400E-01
_SEWPROP=TRUE
_STATUS=  1.000000000000000    
_SYSTOT=  5.940000000000000    
_VERSION=  2010001.000000000    
_WALLTOT=  110.5800000000000    
_ZPE= 0.4546992176149769E-01
_DATE=18-Aug-24
_LASTORB=RKS
_MACHINE=Linux-3.10.0-1160.108.1.el7.x86_64/molmod(x86_64) 64 bit serial version
_OUTPUT=/home/ospite/Desktop/MMfP/Project6/CH4/molpro/DFT/B3LYP/ch4_Pople631.xml
_PGROUP=C1
_TIME=12:23:28
_LIBMOL=/usr/local/molpro/molpros_2010_1_Linux_x86_64_i8/lib/
!SURFREC=  0.000000000000000    
!POLYREC=  0.000000000000000    
!DIPREC=  0.000000000000000    
!VSCFREC=  0.000000000000000    
!VCIREC=  0.000000000000000    
!PVCIREC=  0.000000000000000    
!VMP2REC=  0.000000000000000    
!VMCSCFREC=  0.000000000000000    
!GAREC=  0.000000000000000    
!SCFORB=  21002.00000000000    
!NEWMOL=  0.000000000000000    
!NEWSYM=  0.000000000000000    
_SLFILES=slscratch
_NGSSTO=  9.000000000000000    
_SIN=SIN
_COS=COS
_TAN=TAN
_ACOS=ACOS
_ASIN=ASIN
_ATAN=ATAN
_COSH=COSH
_SINH=SINH
_TANH=TANH
_ABS=ABS
_MOD=MOD
_ERF=ERF
_REFC=REFC
_ERFC=ERFC
_HYPOT=HYPOT
_J0=J0
_J1=J1
_JN=JN
_GAMMA=GAMMA
_LGAMMA=LGAMMA
_Y0=Y0
_Y1=Y1
_YN=YN
_EXP=EXP
_LOG=LOG
_LOG10=LOG10
_SQRT=SQRT
_INT=INT
_NINT=NINT
_MAX=MAX
_MIN=MIN
_COSMO=  0.000000000000000    
_COSMOIT=  0.000000000000000    
_COSMOES=  0.000000000000000    
_COSMOEDS=  0.000000000000000    
_COSMOEC=  0.000000000000000    
_COSMOEDCORR=  0.000000000000000    
_FEPSI=  1.000000000000000    
_SL_IsMM=  0.000000000000000    
_SL_NSYM=  0.000000000000000    
_SL_System_BitSw=  0.000000000000000    
_SL_Unique_atoms=  0.000000000000000    
_SL_GRAD=  0.000000000000000    
_SL_MAXUPD_Hess=  5.000000000000000    
_SL_N_PRINT_COD=  5.000000000000000    
_SL_PRINT_CODES=  0.000000000000000    
_SL_BasType=  0.000000000000000    
_SL_Energy_Pred=  0.000000000000000    
_SL_New_Coords=  0.000000000000000    
_SL_Total_Nuclea=  0.000000000000000    
_SL_Highest_Mltp=  0.000000000000000    
_SL_Ref_Geom=  0.000000000000000    
!LATTICE= -1.000000000000000    
!NEWLATTICE=  0.000000000000000    
!LATGRAD_VAR=FALSE
!SEW_LATTICE=  1.000000000000000    
!LOCAL=  0.000000000000000    
!SAVEOCC=  0.000000000000000    
!SAVEDOM= -1.000000000000000    
!RESTDOM= -1.000000000000000    
!SAVEDOM_HF= -1.000000000000000    
!RESTDOM_HF= -1.000000000000000    
!HESSREC=  5300.200000000000    
!FREQREC=  5400.200000000000    
!NMODREC=  5450.200000000000    
!GTASKS=  0.000000000000000    
!HTASKS=  5500.200000000000    
!THRCHG= 0.1000000000000000    
!DEBUG= -1.000000000000000    
!CFIT_CPHF=  0.000000000000000    
!RDOMAUX_CPHF=  5.000000000000000    
!THRAO_CPHF= 0.9999999999999999E-11
!THRMO_CPHF= 0.9999999999999999E-11
!THROV_CPHF= 0.1000000000000000E-11
!THRSW_CPHF= 0.1000000000000000E-09
!THRPROD_CPHF= 0.9999999999999999E-11
!THRAOPR_CPHF= 0.1000000000000000E-11
!CFIT_SCFGRD=  0.000000000000000    
!RDOMAUX_SCFGRD=  7.000000000000000    
!THRAO_SCFGRD= 0.9999999999999999E-11
!THRMO_SCFGRD= 0.9999999999999999E-11
!THROV_SCFGRD= 0.1000000000000000E-11
!THRSW_SCFGRD= 0.1000000000000000E-09
!THRPROD_SCFGRD= 0.9999999999999999E-11
!THRAOPR_SCFGRD= 0.1000000000000000E-11
!LOCFIT_SCF=  0.000000000000000    
!LOCFIT_MP2= -1.000000000000000    
_RIDOM=  0.000000000000000    
!CC2_METHOD=  0.000000000000000    
_BASIS2006=FALSE
_SVDDEL= -1.000000000000000    
_SVDDELA= -1.000000000000000    
_SVDDELP= -1.000000000000000    
_SVDDELF= -1.000000000000000    
_SVDDELS= -1.000000000000000    
_SVDDEL_ABS= -1.000000000000000    
_SVDDELA_ABS= -1.000000000000000    
_SVDDELP_ABS= -1.000000000000000    
_SVDDELF_ABS= -1.000000000000000    
_SVDDELS_ABS= -1.000000000000000    
_MAXBASIS=  0.000000000000000    
!OPT_CONICAL=  0.000000000000000    
!CLEARSP_JGRID=  0.000000000000000    
D=  1.093158854534254    
A=  109.4788518108661    
T=  120.0033228715808    
GX1= 0.6943310515127981E-05
GY1= -0.000000000000000    
GZ1= 0.4993320202515896E-04
GX2=-0.2229056757401638    
GY2= -0.000000000000000    
GZ2=  2.053758574229866    
GX3=  2.010503021695293    
GY3= -0.000000000000000    
GZ3=-0.4746233615638407    
GX4=-0.8938400425544233    
GY4= -1.686558921535439    
GZ4=-0.7898651179356501    
GX5=-0.8938400425544233    
GY5=  1.686558921535439    
GZ5=-0.7898651179356501    
CX1= 0.6943310515128073E-05
CY1=  0.000000000000000    
CZ1= 0.4993320202515902E-04
H1X2=-0.2229056757401638    
H1Y2=  0.000000000000000    
H1Z2=  2.053758574229866    
H2X3=  2.010503021695293    
H2Y3=  0.000000000000000    
H2Z3=-0.4746233615638407    
H3X4=-0.8938400425544233    
H3Y4= -1.686558921535439    
H3Z4=-0.7898651179356501    
H4X5=-0.8938400425544233    
H4Y5=  1.686558921535439    
H4Z5=-0.7898651179356501    
[Atoms] Angs
C     1    6         0.0000036742       -0.0000000000        0.0000264235
H     2    1        -0.1179566034       -0.0000000000        1.0868022303
H     3    1         1.0639123777       -0.0000000000       -0.2511598658
H     4    1        -0.4729997790       -0.8924885429       -0.4179786186
H     5    1        -0.4729997790        0.8924885429       -0.4179786186
[GTO]
  1 0
 s    6  1.00
  0.3047524900D+04  0.1834737091D-02
  0.4573695200D+03  0.1403732293D-01
  0.1039486800D+03  0.6884262165D-01
  0.2921015500D+02  0.2321844388D+00
  0.9286663000D+01  0.4679413476D+00
  0.3163927000D+01  0.3623119882D+00
 s    3  1.00
  0.7868272300D+01 -0.1193324245D+00
  0.1881288500D+01 -0.1608541561D+00
  0.5442492600D+00  0.1143456443D+01
 s    1  1.00
  0.1687144800D+00  0.1000000000D+01
 p    3  1.00
  0.7868272300D+01  0.6899906693D-01
  0.1881288500D+01  0.3164239597D+00
  0.5442492600D+00  0.7443082892D+00
 p    1  1.00
  0.1687144800D+00  0.1000000000D+01
  
  2 0
 s    3  1.00
  0.1873113700D+02  0.3349460400D-01
  0.2825394400D+01  0.2347269500D+00
  0.6401216900D+00  0.8137573301D+00
 s    1  1.00
  0.1612777600D+00  0.1000000000D+01
  
  3 0
 s    3  1.00
  0.1873113700D+02  0.3349460400D-01
  0.2825394400D+01  0.2347269500D+00
  0.6401216900D+00  0.8137573301D+00
 s    1  1.00
  0.1612777600D+00  0.1000000000D+01
  
  4 0
 s    3  1.00
  0.1873113700D+02  0.3349460400D-01
  0.2825394400D+01  0.2347269500D+00
  0.6401216900D+00  0.8137573301D+00
 s    1  1.00
  0.1612777600D+00  0.1000000000D+01
  
  5 0
 s    3  1.00
  0.1873113700D+02  0.3349460400D-01
  0.2825394400D+01  0.2347269500D+00
  0.6401216900D+00  0.8137573301D+00
 s    1  1.00
  0.1612777600D+00  0.1000000000D+01


[MO]
 Sym=      1.1
 Ene=     -10.1600
 Spin= Alpha
 Occup=    2.000000
1 0.99520217758049
2 0.036358981903537
3 -0.029189804941018
4 -0.000000116814505
5 0.000000000000007
6 -0.000000563506691
7 0.000000323468505
8 -0.000000000000004
9 0.000002031360728
10 -0.000744716364183
11 0.005561361101663
12 -0.000744563915072
13 0.005562142392182
14 -0.000744535390927
15 0.005562471623805
16 -0.000744535390928
17 0.005562471623809
 Sym=      2.1
 Ene=      -0.6929
 Spin= Alpha
 Occup=    2.000000
1 -0.19912083871375
2 0.38317553956721
3 0.36529940179127
4 -0.000005351919744
5 0.000000000000258
6 -0.000034489742912
7 0.000000851710423
8 0.000000000000042
9 -0.000027335274863
10 0.13490182881256
11 0.037409182598132
12 0.13490909808650
13 0.037395911710768
14 0.13490894868808
15 0.037409232138010
16 0.13490894868826
17 0.037409232138108
 Sym=      3.1
 Ene=      -0.3899
 Spin= Alpha
 Occup=    2.000000
1 0.000020446157242
2 -0.000034339280471
3 -0.000098967851587
4 0.008960732500022
5 0.000000000163152
6 -0.44713943909061
7 0.004203408108116
8 0.000000000075525
9 -0.20745514731404
10 -0.29974683420542
11 -0.25087916568943
12 0.074962277316698
13 0.062727602089923
14 0.11238564551745
15 0.094114899117723
16 0.11238564569682
17 0.094114899268065
 Sym=      4.1
 Ene=      -0.3899
 Spin= Alpha
 Occup=    2.000000
1 -0.000005040630228
2 0.000004372917104
3 0.000048555540272
4 0.44715264392639
5 -0.000000001601341
6 0.008970692660177
7 0.20743191874792
8 -0.000000000742785
9 0.004148712456331
10 -0.026459902275964
11 -0.022162139176187
12 0.29142642152600
13 0.24397046698046
14 -0.13247866361019
15 -0.11093397626098
16 -0.13247866536958
17 -0.11093397773442
 Sym=      5.1
 Ene=      -0.3899
 Spin= Alpha
 Occup=    2.000000
1 0.000000000000044
2 -0.000000000000005
3 -0.000000000000057
4 0.000000001597800
5 0.44723743104807
6 0.000000000195236
7 0.000000000741219
8 0.20745712879356
9 0.000000000090598
10 0.000000000014559
11 0.000000000012135
12 0.000000001016046
13 0.000000000850628
14 -0.24568342073574
15 -0.20575421496797
16 0.24568341970499
17 0.20575421410492
 Sym=      6.1
 Ene=       0.1173
 Spin= Alpha
 Occup=    0.000000
1 -0.15953143130212
2 0.18178115956742
3 2.57846812537608
4 -0.000153367882345
5 0.000000000000430
6 -0.000121220119719
7 -0.000599498818497
8 0.000000000000542
9 -0.000330263349814
10 -0.020830747933296
11 -0.98503938101721
12 -0.020750554585555
13 -0.98458295262554
14 -0.020759403838788
15 -0.98578928043926
16 -0.020759403838937
17 -0.98578928044101
 Sym=      7.1
 Ene=       0.1756
 Spin= Alpha
 Occup=    0.000000
1 0.000000000000622
2 -0.000000000001075
3 -0.000000000008572
4 -0.000000002386636
5 0.38663553718478
6 -0.000000001279836
7 -0.000000008397284
8 1.35984655136680
9 -0.000000004502219
10 0.000000000344578
11 0.000000004934441
12 0.000000000689676
13 0.000000009863953
14 0.10721890342001
15 1.53381922371923
16 -0.10721890445349
17 -1.53381923850452
 Sym=      8.1
 Ene=       0.1756
 Spin= Alpha
 Occup=    0.000000
1 0.000073294097933
2 -0.000158178058950
3 -0.000942361771967
4 -0.35599340306361
5 -0.000000002697093
6 -0.15068105430884
7 -1.25257818120114
8 -0.000000009486148
9 -0.53002158458431
10 0.037810528399409
11 0.54157921910769
12 0.10601761339007
13 1.51612131038769
14 -0.071855772488875
15 -1.02811057696825
16 -0.071855770992952
17 -1.02811055556874
 Sym=      9.1
 Ene=       0.1756
 Spin= Alpha
 Occup=    0.000000
1 0.000001881296497
2 -0.000047296038690
3 0.000194997442414
4 0.15064380248020
5 -0.000000000248383
6 -0.35596656774426
7 0.53001530311654
8 -0.000000000873551
9 -1.25280125740531
10 0.12580939203989
11 1.79909239651396
12 -0.077598167143143
13 -1.10998000107855
14 -0.024073267905144
15 -0.34471492055230
16 -0.024073267767430
17 -0.34471491858161
 Sym=     10.1
 Ene=       0.5444
 Spin= Alpha
 Occup=    0.000000
1 -0.000011417243415
2 0.000107666258980
3 0.000096085010407
4 -0.42631969482383
5 0.000000000586859
6 0.68223672983753
7 0.83177823200066
8 -0.000000001145284
9 -1.33153105606425
10 0.44836402931352
11 0.31080042693059
12 -0.35376724494588
13 -0.24525954773384
14 -0.047262075103362
15 -0.032951814691083
16 -0.047262074510085
17 -0.032951814279796
 Sym=     11.1
 Ene=       0.5444
 Spin= Alpha
 Occup=    0.000000
1 -0.000000000000047
2 -0.000000000000180
3 0.000000000001327
4 0.000000000001806
5 -0.80432317543316
6 0.000000000693204
7 -0.000000000003759
8 1.56963440253490
9 -0.000000001352967
10 0.000000000426527
11 0.000000000295289
12 -0.000000000097284
13 -0.000000000067949
14 0.40671319412764
15 0.28158415985583
16 -0.40671319445671
17 -0.28158416008494
 Sym=     12.1
 Ene=       0.5445
 Spin= Alpha
 Occup=    0.000000
1 0.000011147066288
2 -0.000060453914808
3 -0.000163152921793
4 -0.68217805965179
5 -0.000000000368900
6 -0.42628073923886
7 1.33130777149077
8 0.000000000719851
9 0.83198779794739
10 -0.21676999405578
11 -0.15028278219698
12 -0.35049380683093
13 -0.24269210736210
14 0.28361342482754
15 0.19667336957058
16 0.28361342445448
17 0.19667336931233
 Sym=     13.1
 Ene=       0.9386
 Spin= Alpha
 Occup=    0.000000
1 0.000000000001382
2 -0.000000000011717
3 0.000000000015870
4 0.000000000863906
5 -0.82244551158328
6 0.000000000176822
7 -0.000000001095558
8 1.04311688044616
9 -0.000000000224296
10 -0.000000000096664
11 0.000000000160467
12 -0.000000001013647
13 0.000000001621663
14 -0.85764589857574
15 1.36701030380752
16 0.85764589972040
17 -1.36701030561936
 Sym=     14.1
 Ene=       0.9387
 Spin= Alpha
 Occup=    0.000000
1 0.000052889438342
2 -0.000803979728939
3 0.001306572354699
4 0.80129509980874
5 0.000000000881583
6 0.18509986040904
7 -1.01620333635219
8 -0.000000001118098
9 -0.23474462595043
10 -0.12423359913488
11 0.19809283040727
12 -0.94155265880070
13 1.50069001473522
14 0.53353205445731
15 -0.85022032394480
16 0.53353205261859
17 -0.85022032101416
 Sym=     15.1
 Ene=       0.9387
 Spin= Alpha
 Occup=    0.000000
1 -0.000475786978970
2 0.002978038886955
3 -0.003194266104454
4 -0.18505855333689
5 -0.000000000022275
6 0.80129087115522
7 0.23472289261824
8 0.000000000028290
9 -1.01614829566997
10 -1.04595665616783
11 1.66431173925474
12 0.46222567715477
13 -0.73925011541869
14 0.28608252210978
15 -0.45844285642560
16 0.28608252215626
17 -0.45844285649974
 Sym=     16.1
 Ene=       0.9448
 Spin= Alpha
 Occup=    0.000000
1 -0.10669286454441
2 0.80600082071380
3 -1.00636418271106
4 0.001231792354080
5 -0.000000000010471
6 -0.003408646242434
7 -0.001627701945019
8 0.000000000013193
9 0.004072900505798
10 -0.64937347497049
11 0.51436898320154
12 -0.65639359985939
13 0.52530832430726
14 -0.65483039717456
15 0.52266900516413
16 -0.65483039715299
17 0.52266900512982
 Sym=     17.1
 Ene=       1.1102
 Spin= Alpha
 Occup=    0.000000
1 -0.068497286280488
2 -2.24452041845436
3 5.31082060220867
4 -0.000075140070812
5 0.000000000000372
6 -0.000117233311706
7 0.000055133690783
8 -0.000000000000386
9 -0.000347868837758
10 -0.28848865663078
11 -1.01149849084383
12 -0.28881455118618
13 -1.01143932285786
14 -0.28902980550761
15 -1.01117630179571
16 -0.28902980550798
17 -1.01117630179505
 [FREQ]
      0.00
      0.00
      0.00
      0.00
      0.00
      0.00
   1403.15
   1403.19
   1403.52
   1601.13
   1601.38
   3044.76
   3167.11
   3167.27
   3167.49
 [FR-COORD]
C          0.0000069433       -0.0000000000        0.0000499332
H         -0.2229056757       -0.0000000000        2.0537585742
H          2.0105030217       -0.0000000000       -0.4746233616
H         -0.8938400426       -1.6865589215       -0.7898651179
H         -0.8938400426        1.6865589215       -0.7898651179
 [FR-NORM-COORD]
 Vibration                    1
         -0.04994377         -0.00925465          0.17889842
          0.34191133         -0.08516418          0.22143096
         -0.14051316         -0.04704460         -0.20471157
         -0.24830247          0.04761256          0.28193788
         -0.15302241          0.04761256          0.41695748
 Vibration                    2
         -0.03588556          0.02303023          0.14066536
         -0.48543056         -0.16057621          0.09187107
          0.06801769          0.01826064          0.58075137
          0.09638033          0.11725615         -0.21018633
          0.17766426          0.11725615          0.10020112
 Vibration                    3
          0.01154849          0.09722812          0.01602961
          0.04925417         -0.06703222          0.02012225
          0.00283359          0.65521305         -0.02088269
          0.44475126         -0.09962851         -0.05385977
         -0.45065963         -0.09962851          0.11874070
 Vibration                    4
         -0.03039070         -0.06435318          0.07523112
         -0.13200261          0.43430965          0.06420201
         -0.00690516         -0.02213438          0.17470499
          0.14426833         -0.33489840          0.45523653
         -0.12688405         -0.33489840         -0.39322452
 Vibration                    5
          0.23904137          0.00589344          0.06775127
          0.24007505          0.05221235          0.06786347
          0.23880246         -0.04277621          0.06673934
          0.20595910          0.00706176          0.10269181
          0.27132848          0.00706176          0.03371052
 Vibration                    6
         -0.01880212          0.21928977          0.00592654
         -0.00161749          0.45333204          0.00779179
         -0.02277400         -0.01550832         -0.01089650
         -0.18098702          0.21963146          0.18872113
          0.13016339          0.21963146         -0.16190933
 Vibration                    7
          0.05587196          0.00000000         -0.10144789
         -0.20506589         -0.00000000         -0.09358204
          0.14507945         -0.00000000          0.38971832
         -0.30290267         -0.06513187          0.45637786
         -0.30290267          0.06513187          0.45637786
 Vibration                    8
          0.00000000         -0.11582688         -0.00000000
         -0.00000000          0.55560962         -0.00000000
          0.00000000          0.55642327          0.00000000
         -0.22385830          0.13410235         -0.19717132
          0.22385830          0.13410235          0.19717132
 Vibration                    9
         -0.10146471          0.00000000         -0.05586603
          0.51316252         -0.00000000          0.02589291
          0.03029494         -0.00000000          0.37577906
          0.33281750         -0.29130852          0.13202453
          0.33281750          0.29130852          0.13202453
 Vibration                   10
         -0.00000000         -0.00010281         -0.00000000
          0.00000000          0.49845902          0.00000000
          0.00000000         -0.49753055          0.00000000
          0.32956487          0.00014830         -0.37342892
         -0.32956487          0.00014830          0.37342892
 Vibration                   11
         -0.00007838          0.00000000          0.00001890
          0.49535994         -0.00000000          0.05376946
          0.11456439          0.00000000          0.48469405
         -0.30449515          0.28746229         -0.26934439
         -0.30449515         -0.28746229         -0.26934439
 Vibration                   12
          0.00007563          0.00000000          0.00005594
         -0.05378403          0.00000000          0.49493674
          0.48410624          0.00000000         -0.11440974
         -0.21561169         -0.40693230         -0.19059682
         -0.21561169          0.40693230         -0.19059682
 Vibration                   13
          0.00000000         -0.08664712         -0.00000000
          0.00000000         -0.02381563          0.00000000
         -0.00000000         -0.02383298          0.00000000
          0.29886683          0.54008446          0.26409963
         -0.29886683          0.54008446         -0.26409963
 Vibration                   14
         -0.07988332         -0.00000000         -0.03355366
         -0.04816096         -0.00000000          0.23133936
          0.64396312         -0.00000000         -0.16654473
          0.17805910          0.37740144          0.16752186
          0.17805910         -0.37740144          0.16752186
 Vibration                   15
          0.03354816          0.00000000         -0.07990658
         -0.07813825          0.00000000          0.78400137
         -0.47540828          0.00000000          0.09256053
          0.07688691          0.12766419          0.03781778
          0.07688691         -0.12766419          0.03781778
