[Molden Format]
[Molpro variables]
_NUMVAR=  693.0000000000000    
_EV2006= 0.3674930886769165E-01
_EV= 0.3674932534394180E-01
_KJOULE= 0.3808798324128737E-03
_KJOULE/MOL= 0.3808798324128737E-03
_CM= 0.4556335267302901E-05
_CM-1= 0.4556335267302901E-05
_KCAL= 0.1593601117815568E-02
_KCAL/MOL= 0.1593601117815568E-02
_KELVIN2006= 0.3166828861084835E-05
_KELVIN= 0.3166814820820034E-05
_HERTZ2006= 0.1519829850815779E-15
_HERTZ= 0.1519829846011223E-15
_HZ2006= 0.1519829850815779E-15
_HZ= 0.1519829846011223E-15
_TOA2006= 0.5291772490000000    
_TOA= 0.5291772090000000    
_TOANG2006= 0.5291772490000000    
_TOANG= 0.5291772090000000    
_TORAD= 0.1745329251994330E-01
_TOCM=  219474.6306700000    
_TODEBYE=  2.541580000000000    
_TOEV2006=  27.21139610000000    
_TOEV=  27.21138390000000    
_TOHERTZ2006=  6579683899900000.    
_TOHERTZ=  6579683920700000.    
_TOHZ2006=  6579683899900000.    
_TOHZ=  6579683920700000.    
_TOK2006=  315773.3000000000    
_TOK=  315774.7000000000    
_TOKCAL=  627.5096000000000    
_TOKELVIN2006=  315773.3000000000    
_TOKELVIN=  315774.7000000000    
_TOKJ=  2625.500000000000    
_TOKJOULE=  2625.500000000000    
_ANG2006=  1.889725988578923    
_ANG=  1.889726131421507    
_ANGSTROM2006=  1.889725988578923    
_ANGSTROM=  1.889726131421507    
_IGNORE_UNDEF=  2.000000000000000    
_STRICTCHECK=  0.000000000000000    
_SEW_ONEEL=  0.000000000000000    
_CPPDONE=FALSE
_DKROLL_DONE=  0.000000000000000    
_FOCKDONE=TRUE
_GRADONE=FALSE
_HESSDONE=TRUE
_INTDONE=TRUE
_SCFDONE=TRUE
_MODUL_CUDA=FALSE
_MODUL_SLATER=FALSE
_MODUL_MRCC=FALSE
_MRCC_EXEC=
_FITC_AO_SAVED=FALSE
_FITC_MO_SAVED=FALSE
_SHARED_FS=TRUE
_LSTYP=SEWARD
_INTYP=INTS
_GEOMTYP=ZMAT
_GRADTYP=ALASKA
_DIRECT=FALSE
_SYNCM=  0.000000000000000    
_DFTNAME=B3LYP3
_DFTFUNC=B88
_BASIS=6-31++G
_ZSYMEL=
_ZORIENT=  1.000000000000000    
_NELEC=  10.00000000000000    
!SPIN=  0.000000000000000    
_OPTCONV= 0.1350721400430900E-03
_QSDSTEP=  0.000000000000000    
_QSDIRC=  0.000000000000000    
_PROGRAM=FREQ
_CPUSTEP=  0.000000000000000    
_SYSSTEP=  0.000000000000000    
_WALLSTEP=  0.000000000000000    
!DFSCF=  0.000000000000000    
!SCSGRD=  0.000000000000000    
_BASINP=  610.0000000000000    
_CPUTOT=  110.2600000000000    
_CPUSORT= 0.7999999999999829E-01
_SYSSORT= 0.9999999999999787E-02
_WALLSORT= 0.8999999985098839E-01
_DFTEXFAC= 0.2000000000000000    
_DFTFAC= 0.7200000000000000    
_DFTFUN= -5.581795893592038    
_DFTFUNS= -6.562385766788711    
_DMX= 0.1868487214074541E-02
_DMY= 0.2426566543187181E-11
_DMZ= 0.2197952419085511E-02
_FREQUENCIES= 0.1015765596971279E-04
_ENERGY= -40.51297095349497    
_ENUC=  13.38950851903497    
_FREQSTEP=  22.00000000000000    
_GRADENERG= -40.51296628471251    
_GRADEXFAC= 0.2000000000000000    
_GRADMETHOD=  1.000000000000000    
_VIRIAL= 0.2719831985654373E-02
_GRID=  1800.200000000000    
!GRID_FREEZE= -1.000000000000000    
_GRID_SPARSITY= 0.3703703703703543E-03
_GRID_RMAX=  6.419324513486365    
_ITERATIONS=  5.000000000000000    
_LASTNELEC=  10.00000000000000    
_LASTSPIN=  0.000000000000000    
_LASTSYM=  1.000000000000000    
_MPP_PROG=  0.000000000000000    
_NGRID=  13634.00000000000    
_NPROC_MPP=  1.000000000000000    
_NPROC_SMP=  1.000000000000000    
_NUMSTEP=  0.000000000000000    
_OPTCONVMX= 0.1105870301240973E-03
_OPTCONVRMS= 0.4502404668103000E-04
_OPTGRAD= 0.1331643898627183E-03
_OPTGRADMX= 0.1085360584261233E-03
_OPTGRADRMS= 0.4438812995423945E-04
_OPTSTEP=  4.000000000000000    
_ORBITAL=  2101.200000000000    
_PI=  3.141592653589793    
_SEIG_MIN= 0.4410282637008741E-02
_SEWPROP=TRUE
_STATUS=  1.000000000000000    
_SYSTOT=  6.790000000000000    
_VERSION=  2010001.000000000    
_WALLTOT=  151.7900000000000    
_ZPE= 0.4527898000633863E-01
_DATE=18-Aug-24
_LASTORB=RKS
_MACHINE=Linux-3.10.0-1160.108.1.el7.x86_64/molmod(x86_64) 64 bit serial version
_OUTPUT=/home/ospite/Desktop/MMfP/Project6/CH4/molpro/DFT/B3LYP/ch4_++.xml
_PGROUP=C1
_TIME=12:18:49
_LIBMOL=/usr/local/molpro/molpros_2010_1_Linux_x86_64_i8/lib/
!SURFREC=  0.000000000000000    
!POLYREC=  0.000000000000000    
!DIPREC=  0.000000000000000    
!VSCFREC=  0.000000000000000    
!VCIREC=  0.000000000000000    
!PVCIREC=  0.000000000000000    
!VMP2REC=  0.000000000000000    
!VMCSCFREC=  0.000000000000000    
!GAREC=  0.000000000000000    
!SCFORB=  21002.00000000000    
!NEWMOL=  0.000000000000000    
!NEWSYM=  0.000000000000000    
_SLFILES=slscratch
_NGSSTO=  9.000000000000000    
_SIN=SIN
_COS=COS
_TAN=TAN
_ACOS=ACOS
_ASIN=ASIN
_ATAN=ATAN
_COSH=COSH
_SINH=SINH
_TANH=TANH
_ABS=ABS
_MOD=MOD
_ERF=ERF
_REFC=REFC
_ERFC=ERFC
_HYPOT=HYPOT
_J0=J0
_J1=J1
_JN=JN
_GAMMA=GAMMA
_LGAMMA=LGAMMA
_Y0=Y0
_Y1=Y1
_YN=YN
_EXP=EXP
_LOG=LOG
_LOG10=LOG10
_SQRT=SQRT
_INT=INT
_NINT=NINT
_MAX=MAX
_MIN=MIN
_COSMO=  0.000000000000000    
_COSMOIT=  0.000000000000000    
_COSMOES=  0.000000000000000    
_COSMOEDS=  0.000000000000000    
_COSMOEC=  0.000000000000000    
_COSMOEDCORR=  0.000000000000000    
_FEPSI=  1.000000000000000    
_SL_IsMM=  0.000000000000000    
_SL_NSYM=  0.000000000000000    
_SL_System_BitSw=  0.000000000000000    
_SL_Unique_atoms=  0.000000000000000    
_SL_GRAD=  0.000000000000000    
_SL_MAXUPD_Hess=  5.000000000000000    
_SL_N_PRINT_COD=  5.000000000000000    
_SL_PRINT_CODES=  0.000000000000000    
_SL_BasType=  0.000000000000000    
_SL_Energy_Pred=  0.000000000000000    
_SL_New_Coords=  0.000000000000000    
_SL_Total_Nuclea=  0.000000000000000    
_SL_Highest_Mltp=  0.000000000000000    
_SL_Ref_Geom=  0.000000000000000    
!LATTICE= -1.000000000000000    
!NEWLATTICE=  0.000000000000000    
!LATGRAD_VAR=FALSE
!SEW_LATTICE=  1.000000000000000    
!LOCAL=  0.000000000000000    
!SAVEOCC=  0.000000000000000    
!SAVEDOM= -1.000000000000000    
!RESTDOM= -1.000000000000000    
!SAVEDOM_HF= -1.000000000000000    
!RESTDOM_HF= -1.000000000000000    
!HESSREC=  5300.200000000000    
!FREQREC=  5400.200000000000    
!NMODREC=  5450.200000000000    
!GTASKS=  0.000000000000000    
!HTASKS=  5500.200000000000    
!THRCHG= 0.1000000000000000    
!DEBUG= -1.000000000000000    
!CFIT_CPHF=  0.000000000000000    
!RDOMAUX_CPHF=  5.000000000000000    
!THRAO_CPHF= 0.9999999999999999E-11
!THRMO_CPHF= 0.9999999999999999E-11
!THROV_CPHF= 0.1000000000000000E-11
!THRSW_CPHF= 0.1000000000000000E-09
!THRPROD_CPHF= 0.9999999999999999E-11
!THRAOPR_CPHF= 0.1000000000000000E-11
!CFIT_SCFGRD=  0.000000000000000    
!RDOMAUX_SCFGRD=  7.000000000000000    
!THRAO_SCFGRD= 0.9999999999999999E-11
!THRMO_SCFGRD= 0.9999999999999999E-11
!THROV_SCFGRD= 0.1000000000000000E-11
!THRSW_SCFGRD= 0.1000000000000000E-09
!THRPROD_SCFGRD= 0.9999999999999999E-11
!THRAOPR_SCFGRD= 0.1000000000000000E-11
!LOCFIT_SCF=  0.000000000000000    
!LOCFIT_MP2= -1.000000000000000    
_RIDOM=  0.000000000000000    
!CC2_METHOD=  0.000000000000000    
_BASIS2006=FALSE
_SVDDEL= -1.000000000000000    
_SVDDELA= -1.000000000000000    
_SVDDELP= -1.000000000000000    
_SVDDELF= -1.000000000000000    
_SVDDELS= -1.000000000000000    
_SVDDEL_ABS= -1.000000000000000    
_SVDDELA_ABS= -1.000000000000000    
_SVDDELP_ABS= -1.000000000000000    
_SVDDELF_ABS= -1.000000000000000    
_SVDDELS_ABS= -1.000000000000000    
_MAXBASIS=  0.000000000000000    
!OPT_CONICAL=  0.000000000000000    
!CLEARSP_JGRID=  0.000000000000000    
D=  1.093735013699763    
A=  109.4847577778873    
T=  120.0036808350047    
GX1= 0.8295801713874315E-05
GY1= -0.000000000000000    
GZ1= 0.8744564720964089E-04
GX2=-0.1262396808346744    
GY2= -0.000000000000000    
GZ2=  2.063087737530283    
GX3=  1.986971876144046    
GY3= -0.000000000000000    
GZ3=-0.5690210557017048    
GX4=-0.9304155256337252    
GY4= -1.687380218138174    
GZ4=-0.7475543588660695    
GX5=-0.9304155256337252    
GY5=  1.687380218138174    
GZ5=-0.7475543588660695    
CX1= 0.8295801713874285E-05
CY1=  0.000000000000000    
CZ1= 0.8744564720964028E-04
H1X2=-0.1262396808346744    
H1Y2=  0.000000000000000    
H1Z2=  2.063087737530283    
H2X3=  1.986971876144046    
H2Y3=  0.000000000000000    
H2Z3=-0.5690210557017048    
H3X4=-0.9304155256337252    
H3Y4= -1.687380218138174    
H3Z4=-0.7475543588660695    
H4X5=-0.9304155256337252    
H4Y5=  1.687380218138174    
H4Z5=-0.7475543588660695    
[Atoms] Angs
C     1    6         0.0000043899       -0.0000000000        0.0000462742
H     2    1        -0.0668031620       -0.0000000000        1.0917390109
H     3    1         1.0514602318       -0.0000000000       -0.3011129741
H     4    1        -0.4923546911       -0.8929231544       -0.3955887292
H     5    1        -0.4923546911        0.8929231544       -0.3955887292
[GTO]
  1 0
 s    6  1.00
  0.3047524900D+04  0.1834737091D-02
  0.4573695200D+03  0.1403732293D-01
  0.1039486800D+03  0.6884262165D-01
  0.2921015500D+02  0.2321844388D+00
  0.9286663000D+01  0.4679413476D+00
  0.3163927000D+01  0.3623119882D+00
 s    3  1.00
  0.7868272300D+01 -0.1193324245D+00
  0.1881288500D+01 -0.1608541561D+00
  0.5442492600D+00  0.1143456443D+01
 s    1  1.00
  0.1687144800D+00  0.1000000000D+01
 s    1  1.00
  0.4380000000D-01  0.1000000000D+01
 p    3  1.00
  0.7868272300D+01  0.6899906693D-01
  0.1881288500D+01  0.3164239597D+00
  0.5442492600D+00  0.7443082892D+00
 p    1  1.00
  0.1687144800D+00  0.1000000000D+01
 p    1  1.00
  0.4380000000D-01  0.1000000000D+01
  
  2 0
 s    3  1.00
  0.1873113700D+02  0.3349460400D-01
  0.2825394400D+01  0.2347269500D+00
  0.6401216900D+00  0.8137573301D+00
 s    1  1.00
  0.1612777600D+00  0.1000000000D+01
 s    1  1.00
  0.3600000000D-01  0.1000000000D+01
  
  3 0
 s    3  1.00
  0.1873113700D+02  0.3349460400D-01
  0.2825394400D+01  0.2347269500D+00
  0.6401216900D+00  0.8137573301D+00
 s    1  1.00
  0.1612777600D+00  0.1000000000D+01
 s    1  1.00
  0.3600000000D-01  0.1000000000D+01
  
  4 0
 s    3  1.00
  0.1873113700D+02  0.3349460400D-01
  0.2825394400D+01  0.2347269500D+00
  0.6401216900D+00  0.8137573301D+00
 s    1  1.00
  0.1612777600D+00  0.1000000000D+01
 s    1  1.00
  0.3600000000D-01  0.1000000000D+01
  
  5 0
 s    3  1.00
  0.1873113700D+02  0.3349460400D-01
  0.2825394400D+01  0.2347269500D+00
  0.6401216900D+00  0.8137573301D+00
 s    1  1.00
  0.1612777600D+00  0.1000000000D+01
 s    1  1.00
  0.3600000000D-01  0.1000000000D+01


[MO]
 Sym=      1.1
 Ene=     -10.1656
 Spin= Alpha
 Occup=    2.000000
1 0.99523313092422
2 0.036799805579670
3 -0.031202504026376
4 0.003705015876474
5 -0.000000454004652
6 0.000000000000012
7 -0.000001169474431
8 0.000000602681155
9 -0.000000000000008
10 0.000003406969437
11 0.000000277847469
12 0.000000000000004
13 0.000002525471166
14 -0.000800123585878
15 0.006208423465233
16 -0.001187157944761
17 -0.000800128010260
18 0.006210694014926
19 -0.001183370853172
20 -0.000800343234248
21 0.006211801733221
22 -0.001183302391743
23 -0.000800343234251
24 0.006211801733229
25 -0.001183302391754
 Sym=      2.1
 Ene=      -0.6986
 Spin= Alpha
 Occup=    2.000000
1 -0.19951675227180
2 0.38156064832123
3 0.39274555870967
4 0.063930495890602
5 -0.000019280354240
6 0.000000000000057
7 -0.000080392855157
8 0.000078244885483
9 0.000000000000097
10 0.000088731148265
11 -0.000370835919013
12 0.000000000000070
13 -0.000865423224609
14 0.13612847164430
15 0.017833944220635
16 -0.006959540253012
17 0.13616112176467
18 0.017705348810883
19 -0.007959528761642
20 0.13619718835271
21 0.017522985972033
22 -0.008364711906686
23 0.13619718835135
24 0.017522985971786
25 -0.008364711906818
 Sym=      3.1
 Ene=      -0.3956
 Spin= Alpha
 Occup=    2.000000
1 0.000033293575981
2 -0.000220579583333
3 0.001380582075874
4 0.003917327629792
5 -0.014661509150713
6 -0.000000001094465
7 -0.44889259018577
8 -0.006603635897495
9 -0.000000000496516
10 -0.20299369831062
11 -0.001451502438820
12 -0.000000000096919
13 -0.045037949131158
14 -0.30260294201497
15 -0.22790992858924
16 0.014555626446808
17 0.074098913242041
18 0.054387572167642
19 -0.004634306330271
20 0.11435788160396
21 0.084345722502113
22 -0.005660218800520
23 0.11435788039355
24 0.084345721592332
25 -0.005660218771567
 Sym=      4.1
 Ene=      -0.3955
 Spin= Alpha
 Occup=    2.000000
1 -0.000003789973364
2 0.000104707545058
3 -0.000929805269384
4 -0.001079730630323
5 0.44888847664941
6 0.000000007594917
7 -0.014688873404939
8 0.20336270555343
9 0.000000003445507
10 -0.006536570125626
11 0.042990138880613
12 0.000000000673481
13 -0.002741440578816
14 -0.028504014288541
15 -0.020674768823875
16 0.004083449750499
17 0.29476082736635
18 0.22179374993792
19 -0.012758008432993
20 -0.13319759126304
21 -0.099138876163053
22 0.004050054930665
23 -0.13319758286982
24 -0.099138869852072
25 0.004050054728684
 Sym=      5.1
 Ene=      -0.3955
 Spin= Alpha
 Occup=    2.000000
1 -0.000000000000066
2 -0.000000000001385
3 0.000000000018518
4 0.000000000028244
5 -0.000000007627651
6 0.44908968382037
7 -0.000000000846196
8 -0.000000003454594
9 0.20374902186816
10 -0.000000000383901
11 -0.000000000731104
12 0.039838479904587
13 -0.000000000063601
14 -0.000000000255544
15 -0.000000000206045
16 -0.000000000033514
17 -0.000000004804577
18 -0.000000003619061
19 0.000000000204968
20 -0.24810246006497
21 -0.18657951874154
22 0.005978806271871
23 0.24810246512704
24 0.18657952250800
25 -0.005978806437384
 Sym=      6.1
 Ene=      -0.0056
 Spin= Alpha
 Occup=    0.000000
1 -0.066913644515471
2 0.14518741028498
3 0.56864914462982
4 2.60714499123995
5 -0.011347627696494
6 0.000000000000851
7 -0.011433921998994
8 -0.008279766659428
9 0.000000000000930
10 -0.007202623345274
11 0.025940119999797
12 0.000000000003361
13 0.066778355871489
14 -0.002902296951292
15 -0.22747350727530
16 -0.83159250823760
17 -0.001558316166121
18 -0.20939078218865
19 -0.78140583024708
20 0.002498627812382
21 -0.17086657314087
22 -0.97493852554419
23 0.002498627812292
24 -0.17086657314294
25 -0.97493852556134
 Sym=      7.1
 Ene=       0.0399
 Spin= Alpha
 Occup=    0.000000
1 0.009609124756608
2 -0.015964132384980
3 -0.12190771775265
4 -0.31484404781582
5 -0.12379425291202
6 0.000000000003063
7 -0.12968190044833
8 -0.098491041790906
9 0.000000000003163
10 -0.10416665833957
11 -0.61498673861394
12 0.000000000016022
13 -0.75447177161787
14 -0.014767760094226
15 0.079909940367878
16 2.76708749896283
17 -0.011608608837175
18 0.050240269738500
19 1.75296653440032
20 0.013347414914245
21 0.039593561390950
22 -2.06998741704084
23 0.013347414914492
24 0.039593561387770
25 -2.06998741713642
 Sym=      8.1
 Ene=       0.0427
 Spin= Alpha
 Occup=    0.000000
1 -0.000000000000040
2 -0.000000000000146
3 0.000000000002311
4 0.000000000003997
5 -0.000000000001647
6 0.18272047958323
7 0.000000000004949
8 -0.000000000001384
9 0.15591580613197
10 0.000000000003499
11 -0.000000000012486
12 1.02818348620485
13 0.000000000028649
14 0.000000000000677
15 -0.000000000001697
16 -0.000000000112826
17 -0.000000000000389
18 -0.000000000000151
19 0.000000000066461
20 -0.017775157185495
21 0.043959911782111
22 3.17785182809630
23 0.017775157184918
24 -0.043959911786681
25 -3.17785182805063
 Sym=      9.1
 Ene=       0.0436
 Spin= Alpha
 Occup=    0.000000
1 -0.000179174032413
2 0.000643743616276
3 0.000943346632307
4 0.004844091902102
5 0.13206229803625
6 0.000000000004588
7 -0.12657095052663
8 0.11013427052877
9 0.000000000003658
10 -0.10603899441923
11 0.80036573451940
12 0.000000000024145
13 -0.66996013139877
14 -0.016646923871584
15 0.031400041891596
16 2.79167430736725
17 0.018630471944561
18 -0.052577602160762
19 -3.51836346645452
20 -0.000960898257086
21 0.010069540939261
22 0.35954341335673
23 -0.000960898256058
24 0.010069540938106
25 0.35954341319974
 Sym=     10.1
 Ene=       0.0892
 Spin= Alpha
 Occup=    0.000000
1 0.002167435515376
2 -0.001566293060973
3 -0.057379872234851
4 -0.40299184229758
5 0.007489504730837
6 -0.000000000000132
7 -0.028695849669899
8 -0.055049402421828
9 0.000000000000583
10 0.14668251550582
11 -1.09102444469361
12 0.000000000008807
13 3.11861732009654
14 -0.088702903113458
15 -0.70237686613185
16 -4.77104388362752
17 0.051923213136924
18 0.50265522042635
19 3.02658201920016
20 0.017108383012722
21 0.19867835460462
22 1.05478418369556
23 0.017108383012138
24 0.19867835460133
25 1.05478418367346
 Sym=     11.1
 Ene=       0.0984
 Spin= Alpha
 Occup=    0.000000
1 0.004888332779498
2 -0.006028973662280
3 -0.087909792685355
4 -0.27047744768957
5 -0.024037374606370
6 -0.000000000000011
7 -0.000618308394932
8 0.19156864421382
9 0.000000000001072
10 0.076640497685743
11 3.08003798715897
12 0.000000000010672
13 1.09308659818886
14 -0.026234775486932
15 -0.18063352857266
16 -1.38487798123384
17 -0.080970300043457
18 -0.62012924823128
19 -3.98572032331068
20 0.053659079908827
21 0.50168827604983
22 2.81251200997189
23 0.053659079908066
24 0.50168827604525
25 2.81251200994393
 Sym=     12.1
 Ene=       0.1092
 Spin= Alpha
 Occup=    0.000000
1 0.000000000000312
2 -0.000000000001166
3 0.000000000000000
4 0.000000000034746
5 0.000000000000393
6 -0.023580097933769
7 0.000000000000061
8 -0.000000000000548
9 0.26027020873675
10 -0.000000000001684
11 -0.000000000006077
12 3.18962906910652
13 -0.000000000010935
14 0.000000000000455
15 0.000000000001685
16 0.000000000008456
17 0.000000000000333
18 -0.000000000001517
19 -0.000000000005139
20 0.089050761048288
21 0.71586547082590
22 3.94125472687081
23 -0.089050761048437
24 -0.71586547083645
25 -3.94125472690353
 Sym=     13.1
 Ene=       0.1380
 Spin= Alpha
 Occup=    0.000000
1 0.10458936990640
2 -0.16817119049288
3 -1.13853648366591
4 8.59550932024448
5 0.002932150614011
6 -0.000000000001398
7 0.003384676851057
8 0.003924976923641
9 -0.000000000004902
10 0.015773223508837
11 -0.020105702669688
12 -0.000000000005189
13 0.052157995588255
14 0.031059240873023
15 -0.17781708389263
16 -2.02216874204498
17 0.035147055954711
18 -0.14220591942373
19 -1.89120804547027
20 0.034321808612782
21 -0.13766552403911
22 -1.91066561994076
23 0.034321808614172
24 -0.13766552402540
25 -1.91066561993387
 Sym=     14.1
 Ene=       0.2140
 Spin= Alpha
 Occup=    0.000000
1 0.001108981461185
2 -0.001611777480366
3 -0.017626938404909
4 0.037999798235211
5 0.052601666251184
6 0.000000000025261
7 -0.38877881674724
8 0.20121676317715
9 0.000000000087831
10 -1.40906382234394
11 -0.19637021639524
12 -0.000000000110570
13 1.55216500557396
14 0.16001549110874
15 1.87415449623198
16 -3.58827277662838
17 -0.066289608885193
18 -0.76202174987625
19 1.42496442251909
20 -0.045958155663553
21 -0.54522116020252
22 1.06097578693713
23 -0.045958155678912
24 -0.54522116039096
25 1.06097578733964
 Sym=     15.1
 Ene=       0.2146
 Spin= Alpha
 Occup=    0.000000
1 -0.000326184915100
2 0.000862106557813
3 0.002363903337518
4 -0.043973661952925
5 0.39181542791091
6 -0.000000000050843
7 0.055446757770881
8 1.40066619498588
9 -0.000000000177361
10 0.19561011133847
11 -1.60915555526094
12 0.000000000218709
13 -0.23360495964777
14 -0.011814899743199
15 -0.14161073392888
16 0.30825395191178
17 -0.14349735013298
18 -1.69682961811062
19 3.36663951008363
20 0.077351694899610
21 0.92281963931528
22 -1.81712377722076
23 0.077351694931286
24 0.92281963969393
25 -1.81712377801666
 Sym=     16.1
 Ene=       0.2160
 Spin= Alpha
 Occup=    0.000000
1 0.000000000000207
2 -0.000000000000619
3 0.000000000000469
4 0.000000000024744
5 0.000000000046619
6 0.39846736612051
7 0.000000000031801
8 0.000000000165206
9 1.40036525306461
10 0.000000000114144
11 -0.000000000191840
12 -1.71708441011966
13 -0.000000000126941
14 -0.000000000011683
15 -0.000000000138645
16 0.000000000257002
17 -0.000000000014075
18 -0.000000000168992
19 0.000000000329859
20 0.12431314155990
21 1.49636642182181
22 -3.12643114342667
23 -0.12431314153433
24 -1.49636642152341
25 3.12643114282019
 Sym=     17.1
 Ene=       0.3456
 Spin= Alpha
 Occup=    0.000000
1 -0.13198064728533
2 0.11019011787054
3 3.17774605146204
4 8.36597463325590
5 -0.006354301478819
6 -0.000000000000066
7 -0.010589255370206
8 0.012823523739037
9 -0.000000000002540
10 0.013306491240477
11 0.017948328806346
12 -0.000000000000120
13 0.052322873937494
14 -0.11420118744891
15 -2.07307599953312
16 -1.49702786050117
17 -0.10998830918596
18 -2.07091302731851
19 -1.41915012130526
20 -0.10206242616166
21 -2.05484970173084
22 -1.40425189288184
23 -0.10206242616077
24 -2.05484970172782
25 -1.40425189288025
 Sym=     18.1
 Ene=       0.7077
 Spin= Alpha
 Occup=    0.000000
1 0.000967234701815
2 -0.003349778239784
3 -0.011451884803973
4 -0.040604196237384
5 0.26804609150298
6 -0.000000000005625
7 -0.92905800329678
8 -0.56073814206186
9 0.000000000011818
10 1.94298665588395
11 0.48893319298007
12 -0.000000000010765
13 -1.69374519616981
14 -0.36916022523510
15 -0.35833694560873
16 2.29801978781246
17 0.20591363778178
18 0.20751014966487
19 -1.24034662140724
20 0.087898512463777
21 0.092106187547643
22 -0.51630141308608
23 0.087898512459462
24 0.092106187544976
25 -0.51630141306301
 Sym=     19.1
 Ene=       0.7097
 Spin= Alpha
 Occup=    0.000000
1 -0.001149484102425
2 0.003448399623437
3 0.014130525405588
4 0.034975764729158
5 0.92870371557559
6 -0.000000000021838
7 0.26775756018080
8 -1.94621398043364
9 0.000000000046270
10 -0.56259823041729
11 1.72031162448010
12 -0.000000000041599
13 0.50164558856943
14 0.079546014626249
15 0.074120702521474
16 -0.54010769309816
17 0.31800409042013
18 0.31071230561099
19 -2.03192100513278
20 -0.20635368789284
21 -0.21058687139533
22 1.27740431397629
23 -0.20635368790672
24 -0.21058687140974
25 1.27740431406771
 Sym=     20.1
 Ene=       0.7129
 Spin= Alpha
 Occup=    0.000000
1 -0.000000000000079
2 -0.000000000001893
3 0.000000000006784
4 0.000000000004840
5 -0.000000000022349
6 -0.96725829925221
7 -0.000000000000205
8 0.000000000047141
9 2.03084922710062
10 0.000000000000218
11 -0.000000000042086
12 -1.82760744545351
13 -0.000000000001129
14 -0.000000000000141
15 -0.000000000000545
16 -0.000000000003213
17 -0.000000000008556
18 -0.000000000010612
19 0.000000000052819
20 0.30661424289455
21 0.31173888813681
22 -2.00750300124605
23 -0.30661424288509
24 -0.31173888813602
25 2.00750300119344
 Sym=     21.1
 Ene=       0.9969
 Spin= Alpha
 Occup=    0.000000
1 0.000608235452955
2 -0.008168886262057
3 0.015429594618594
4 0.013041424331498
5 0.30329154553553
6 0.000000000415351
7 0.58120005839221
8 -0.38757019886121
9 -0.000000000529645
10 -0.74362067046823
11 -0.026550399205956
12 -0.000000000041598
13 -0.045667559463156
14 -0.98498016834536
15 1.65336742437148
16 -0.55706639640758
17 -0.22834694233798
18 0.38333733581724
19 -0.12835815612423
20 0.61530295705157
21 -1.03205063544817
22 0.33744674464930
23 0.61530295585132
24 -1.03205063343382
25 0.33744674399596
 Sym=     22.1
 Ene=       0.9970
 Spin= Alpha
 Occup=    0.000000
1 0.000072642852454
2 -0.001162379659232
3 0.002533149178330
4 0.003951155333658
5 0.58050762854889
6 0.000000000145321
7 -0.30407594863473
8 -0.74236857677568
9 -0.000000000185217
10 0.39009812696339
11 -0.048031325288232
12 -0.000000000014694
13 0.019558801752768
14 0.59677926278722
15 -1.00286597612338
16 0.34174378683216
17 -1.13110060603519
18 1.89821077140885
19 -0.63453892345098
20 0.26827360146903
21 -0.45015894637229
22 0.14479086690549
23 0.26827360104834
24 -0.45015894566664
25 0.14479086667670
 Sym=     23.1
 Ene=       0.9973
 Spin= Alpha
 Occup=    0.000000
1 0.000000000000156
2 -0.000000000005869
3 0.000000000010318
4 -0.000000000002841
5 0.000000000321963
6 -0.65183007903820
7 0.000000000301389
8 -0.000000000412411
9 0.83017740680670
10 -0.000000000385284
11 -0.000000000027037
12 0.067102730385908
13 -0.000000000025145
14 -0.000000000494949
15 0.000000000830041
16 -0.000000000275174
17 -0.000000000398590
18 0.000000000669512
19 -0.000000000221962
20 -0.94435276037239
21 1.58283419181717
22 -0.51167301752400
23 0.94435276127204
24 -1.58283419332525
25 0.51167301802212
 Sym=     24.1
 Ene=       1.1274
 Spin= Alpha
 Occup=    0.000000
1 -0.005288343268441
2 -2.26389130164256
3 5.66824732899495
4 1.39271022270385
5 -0.000296244722898
6 0.000000000000662
7 -0.000017056187161
8 -0.001021786702863
9 -0.000000000001464
10 -0.003076507105523
11 0.005537323757236
12 0.000000000000810
13 0.009898421150084
14 0.25662774390888
15 -1.74260359613211
16 -0.12349865611556
17 0.25333982922592
18 -1.73864751997885
19 -0.11575649334867
20 0.24720729363121
21 -1.72926719062067
22 -0.11090776892895
23 0.24720729363285
24 -1.72926719062075
25 -0.11090776893009
 Sym=     25.1
 Ene=       1.1740
 Spin= Alpha
 Occup=    0.000000
1 -0.099868413490687
2 -0.89271426776423
3 1.58826628568146
4 -5.10739385036847
5 -0.000570652228556
6 0.000000000001068
7 -0.000836953033199
8 0.002665853857684
9 -0.000000000001558
10 0.003715167861384
11 -0.007460228576534
12 0.000000000000195
13 -0.013115387478789
14 -0.73048763232653
15 0.72375977662121
16 0.93238653890624
17 -0.72798303095936
18 0.71992023067268
19 0.92015859092179
20 -0.72298078543037
21 0.71289494817786
22 0.91058744865753
23 -0.72298078543392
24 0.71289494818332
25 0.91058744865496
 [FREQ]
      0.00
      0.00
      0.00
      0.00
      0.00
      0.00
   1395.01
   1395.22
   1396.19
   1592.52
   1593.33
   3037.47
   3154.80
   3155.15
   3155.47
 [FR-COORD]
C          0.0000082958       -0.0000000000        0.0000874456
H         -0.1262396808       -0.0000000000        2.0630877375
H          1.9869718761       -0.0000000000       -0.5690210557
H         -0.9304155256       -1.6873802181       -0.7475543589
H         -0.9304155256        1.6873802181       -0.7475543589
 [FR-NORM-COORD]
 Vibration                    1
          0.00006360          0.13730757          0.13079940
         -0.27478144          0.13700119          0.11397990
          0.07588358          0.40668913          0.39551438
          0.33244281          0.00275509          0.02083717
         -0.13310513          0.00275509         -0.00715145
 Vibration                    2
         -0.00855836          0.12153858         -0.00483202
          0.17610666          0.59542975          0.00646879
         -0.05950089         -0.18414916         -0.18269079
         -0.22671145          0.03728675          0.45680577
          0.07574763          0.03728675         -0.29990005
 Vibration                    3
         -0.00115159          0.07800518          0.03764463
          0.48647477         -0.18239272          0.06748556
         -0.13567038          0.30065077         -0.43200912
         -0.04751238          0.09696079          0.05255800
         -0.30822736          0.09696079          0.46257530
 Vibration                    4
          0.01522079         -0.01010001          0.16844414
          0.01383781         -0.12525381          0.16835950
          0.01560231         -0.37987286          0.16977615
         -0.33135939          0.23242450          0.05239310
          0.36280337          0.23242450          0.28324771
 Vibration                    5
          0.04331140          0.14858954         -0.12362113
         -0.10486819         -0.10036050         -0.13268917
          0.08418888          0.01293153          0.01909696
         -0.07960944          0.34098891         -0.40488204
          0.27363431          0.34098891          0.02398026
 Vibration                    6
          0.24525760         -0.02104164          0.01135145
          0.28038019          0.04538235          0.01350082
          0.23556852          0.01617169         -0.02247662
          0.28053415         -0.07288579          0.08445952
          0.18452383         -0.07288579         -0.03007568
 Vibration                    7
         -0.00000000         -0.11594479         -0.00000000
          0.00000000          0.55844537          0.00000000
          0.00000000          0.55352509          0.00000000
         -0.23065999          0.13483608         -0.18829157
          0.23065999          0.13483608          0.18829157
 Vibration                    8
         -0.11163914          0.00000000         -0.03128759
          0.54297909         -0.00000000          0.01722820
          0.01812944         -0.00000000          0.29745200
          0.38461314         -0.27428544          0.02907739
          0.38461314          0.27428544          0.02907739
 Vibration                    9
          0.03127944          0.00000000         -0.11159361
         -0.11441740         -0.00000000         -0.08148670
          0.16824303         -0.00000000          0.44215074
         -0.21328169         -0.11821558          0.48456412
         -0.21328169          0.11821558          0.48456412
 Vibration                   10
         -0.00002992          0.00000000         -0.00049428
          0.49715794          0.00000000          0.03014668
          0.13813224         -0.00000000          0.48089761
         -0.31746680          0.28682834         -0.25257714
         -0.31746680         -0.28682834         -0.25257714
 Vibration                   11
         -0.00000000         -0.00055305         -0.00000000
          0.00000000         -0.49524115         -0.00000000
          0.00000000          0.50069850          0.00000000
         -0.31301145          0.00056653          0.38742944
          0.31301145          0.00056653         -0.38742944
 Vibration                   12
          0.00014054         -0.00000000         -0.00006482
         -0.03053938         -0.00000000          0.49809439
          0.47731092         -0.00000000         -0.13683616
         -0.22422311         -0.40682596         -0.18024289
         -0.22422311          0.40682596         -0.18024289
 Vibration                   13
          0.00000000         -0.08648757          0.00000000
          0.00000000         -0.02458042         -0.00000000
          0.00000000         -0.02456708          0.00000000
          0.31123727          0.53988330          0.25009382
         -0.31123727          0.53988330         -0.25009382
 Vibration                   14
         -0.07695606         -0.00000000         -0.03949312
         -0.04275892         -0.00000000          0.32840282