 Entering Gaussian System, Link 0=/g100_work/pMI24_ChiCa/g09d1/g09d01/d01/build-node-6-2-59348/src/main/g09
 Input=geom.com
 Output=geom.log
 Initial command:
 /g100_work/pMI24_ChiCa/g09d1/g09d01/d01/build-node-6-2-59348/src/main/l1.exe "/g100_scratch/userexternal/ecabiati/g16_14420020/Gau-43685.inp" -scrdir="/g100_scratch/userexternal/ecabiati/g16_14420020/"
 Entering Link 1 = /g100_work/pMI24_ChiCa/g09d1/g09d01/d01/build-node-6-2-59348/src/main/l1.exe PID=     43686.
  
 Copyright (c) 1988,1990,1992,1993,1995,1998,2003,2009,2013,
            Gaussian, Inc.  All Rights Reserved.
  
 This is part of the Gaussian(R) 09 program.  It is based on
 the Gaussian(R) 03 system (copyright 2003, Gaussian, Inc.),
 the Gaussian(R) 98 system (copyright 1998, Gaussian, Inc.),
 the Gaussian(R) 94 system (copyright 1995, Gaussian, Inc.),
 the Gaussian 92(TM) system (copyright 1992, Gaussian, Inc.),
 the Gaussian 90(TM) system (copyright 1990, Gaussian, Inc.),
 the Gaussian 88(TM) system (copyright 1988, Gaussian, Inc.),
 the Gaussian 86(TM) system (copyright 1986, Carnegie Mellon
 University), and the Gaussian 82(TM) system (copyright 1983,
 Carnegie Mellon University). Gaussian is a federally registered
 trademark of Gaussian, Inc.
  
 This software contains proprietary and confidential information,
 including trade secrets, belonging to Gaussian, Inc.
  
 This software is provided under written license and may be
 used, copied, transmitted, or stored only in accord with that
 written license.
  
 The following legend is applicable only to US Government
 contracts under FAR:
  
                    RESTRICTED RIGHTS LEGEND
  
 Use, reproduction and disclosure by the US Government is
 subject to restrictions as set forth in subparagraphs (a)
 and (c) of the Commercial Computer Software - Restricted
 Rights clause in FAR 52.227-19.
  
 Gaussian, Inc.
 340 Quinnipiac St., Bldg. 40, Wallingford CT 06492
  
  
 ---------------------------------------------------------------
 Warning -- This program may not be used in any manner that
 competes with the business of Gaussian, Inc. or will provide
 assistance to any competitor of Gaussian, Inc.  The licensee
 of this program is prohibited from giving any competitor of
 Gaussian, Inc. access to this program.  By using this program,
 the user acknowledges that Gaussian, Inc. is engaged in the
 business of creating and licensing software in the field of
 computational chemistry and represents and warrants to the
 licensee that it is not a competitor of Gaussian, Inc. and that
 it will not use this program in any manner prohibited above.
 ---------------------------------------------------------------
  

 Cite this work as:
 Gaussian 09, Revision D.01,
 M. J. Frisch, G. W. Trucks, H. B. Schlegel, G. E. Scuseria, 
 M. A. Robb, J. R. Cheeseman, G. Scalmani, V. Barone, B. Mennucci, 
 G. A. Petersson, H. Nakatsuji, M. Caricato, X. Li, H. P. Hratchian, 
 A. F. Izmaylov, J. Bloino, G. Zheng, J. L. Sonnenberg, M. Hada, 
 M. Ehara, K. Toyota, R. Fukuda, J. Hasegawa, M. Ishida, T. Nakajima, 
 Y. Honda, O. Kitao, H. Nakai, T. Vreven, J. A. Montgomery, Jr., 
 J. E. Peralta, F. Ogliaro, M. Bearpark, J. J. Heyd, E. Brothers, 
 K. N. Kudin, V. N. Staroverov, T. Keith, R. Kobayashi, J. Normand, 
 K. Raghavachari, A. Rendell, J. C. Burant, S. S. Iyengar, J. Tomasi, 
 M. Cossi, N. Rega, J. M. Millam, M. Klene, J. E. Knox, J. B. Cross, 
 V. Bakken, C. Adamo, J. Jaramillo, R. Gomperts, R. E. Stratmann, 
 O. Yazyev, A. J. Austin, R. Cammi, C. Pomelli, J. W. Ochterski, 
 R. L. Martin, K. Morokuma, V. G. Zakrzewski, G. A. Voth, 
 P. Salvador, J. J. Dannenberg, S. Dapprich, A. D. Daniels, 
 O. Farkas, J. B. Foresman, J. V. Ortiz, J. Cioslowski, 
 and D. J. Fox, Gaussian, Inc., Wallingford CT, 2013.
 
 ******************************************
 Gaussian 09:  EM64L-G09RevD.01 24-Apr-2013
                17-Sep-2024 
 ******************************************
 %nproc=24
 Will use up to   24 processors via shared memory.
 %mem=2Gb
 -----------------------------
 #p B3LYP/6-31+g(d,p) opt freq
 -----------------------------
 1/14=-1,18=20,19=15,26=3,38=1/1,3;
 2/9=110,12=2,17=6,18=5,40=1/2;
 3/5=1,6=6,7=111,11=2,16=1,25=1,30=1,71=1,74=-5/1,2,3;
 4//1;
 5/5=2,38=5/2;
 6/7=2,8=2,9=2,10=2,28=1/1;
 7//1,2,3,16;
 1/14=-1,18=20,19=15,26=3/3(2);
 2/9=110/2;
 99//99;
 2/9=110/2;
 3/5=1,6=6,7=111,11=2,16=1,25=1,30=1,71=1,74=-5/1,2,3;
 4/5=5,16=3,69=1/1;
 5/5=2,38=5/2;
 7//1,2,3,16;
 1/14=-1,18=20,19=15,26=3/3(-5);
 2/9=110/2;
 6/7=2,8=2,9=2,10=2,19=2,28=1/1;
 99/9=1/99;
 Leave Link    1 at Tue Sep 17 19:23:27 2024, MaxMem=   268435456 cpu:         0.2
 (Enter /g100_work/pMI24_ChiCa/g09d1/g09d01/d01/build-node-6-2-59348/src/main/l101.exe)
 ---------
 h04s- gas
 ---------
 Symbolic Z-matrix:
 Charge = -1 Multiplicity = 1
 s
 o                    1    os2
 o                    1    os3      2    oso3
 o                    1    os4      2    oso4     3    dih4     0
 o                    1    os5      3    oso5     2    dih5     0
 h                    2    ho6      1    hos6     5    dih6     0
       Variables:
  os2                   1.66                     
  os3                   1.66                     
  oso3                109.471                    
  os4                   1.51                     
  oso4                110.                       
  dih4                120.                       
  os5                   1.51                     
  oso5                110.                       
  dih5                120.                       
  ho6                   0.95                     
  hos6                109.471                    
  dih6                180.                       
 
     2 tetrahedral angles replaced.
 NAtoms=      6 NQM=        6 NQMF=       0 NMMI=      0 NMMIF=      0
                NMic=       0 NMicF=      0.
                    Isotopes and Nuclear Properties:
 (Nuclear quadrupole moments (NQMom) in fm**2, nuclear magnetic moments (NMagM)
  in nuclear magnetons)

  Atom         1           2           3           4           5           6
 IAtWgt=          32          16          16          16          16           1
 AtmWgt=  31.9720718  15.9949146  15.9949146  15.9949146  15.9949146   1.0078250
 NucSpn=           0           0           0           0           0           1
 AtZEff=   0.0000000   0.0000000   0.0000000   0.0000000   0.0000000   0.0000000
 NQMom=    0.0000000   0.0000000   0.0000000   0.0000000   0.0000000   0.0000000
 NMagM=    0.0000000   0.0000000   0.0000000   0.0000000   0.0000000   2.7928460
 AtZNuc=  16.0000000   8.0000000   8.0000000   8.0000000   8.0000000   1.0000000
 Leave Link  101 at Tue Sep 17 19:23:27 2024, MaxMem=   268435456 cpu:         0.2
 (Enter /g100_work/pMI24_ChiCa/g09d1/g09d01/d01/build-node-6-2-59348/src/main/l103.exe)

 GradGradGradGradGradGradGradGradGradGradGradGradGradGradGradGradGradGrad
 Berny optimization.
 Initialization pass.
                           ----------------------------
                           !    Initial Parameters    !
                           ! (Angstroms and Degrees)  !
 --------------------------                            --------------------------
 ! Name  Definition              Value          Derivative Info.                !
 --------------------------------------------------------------------------------
 ! R1    R(1,2)                  1.66           estimate D2E/DX2                !
 ! R2    R(1,3)                  1.66           estimate D2E/DX2                !
 ! R3    R(1,4)                  1.51           estimate D2E/DX2                !
 ! R4    R(1,5)                  1.51           estimate D2E/DX2                !
 ! R5    R(2,6)                  0.95           estimate D2E/DX2                !
 ! A1    A(2,1,3)              109.4712         estimate D2E/DX2                !
 ! A2    A(2,1,4)              110.0            estimate D2E/DX2                !
 ! A3    A(2,1,5)              109.2062         estimate D2E/DX2                !
 ! A4    A(3,1,4)              109.2062         estimate D2E/DX2                !
 ! A5    A(3,1,5)              110.0            estimate D2E/DX2                !
 ! A6    A(4,1,5)              108.945          estimate D2E/DX2                !
 ! A7    A(1,2,6)              109.4712         estimate D2E/DX2                !
 ! D1    D(3,1,2,6)            -59.5151         estimate D2E/DX2                !
 ! D2    D(4,1,2,6)             60.4849         estimate D2E/DX2                !
 ! D3    D(5,1,2,6)            180.0            estimate D2E/DX2                !
 --------------------------------------------------------------------------------
 Trust Radius=3.00D-01 FncErr=1.00D-07 GrdErr=1.00D-06
 Number of steps in this run=     25 maximum allowed number of steps=    100.
 GradGradGradGradGradGradGradGradGradGradGradGradGradGradGradGradGradGrad

 Leave Link  103 at Tue Sep 17 19:23:27 2024, MaxMem=   268435456 cpu:         0.1
 (Enter /g100_work/pMI24_ChiCa/g09d1/g09d01/d01/build-node-6-2-59348/src/main/l202.exe)
                          Input orientation:                          
 ---------------------------------------------------------------------
 Center     Atomic      Atomic             Coordinates (Angstroms)
 Number     Number       Type             X           Y           Z
 ---------------------------------------------------------------------
      1         16           0        0.000000    0.000000    0.000000
      2          8           0        0.000000    0.000000    1.660000
      3          8           0        1.565063    0.000000   -0.553333
      4          8           0       -0.709468   -1.228834   -0.516450
      5          8           0       -0.723403    1.228834   -0.496743
      6          1           0        0.454383   -0.771854    1.976667
 ---------------------------------------------------------------------
                    Distance matrix (angstroms):
                    1          2          3          4          5
     1  S    0.000000
     2  O    1.660000   0.000000
     3  O    1.660000   2.710769   0.000000
     4  O    1.510000   2.598137   2.585515   0.000000
     5  O    1.510000   2.585515   2.598137   2.457788   0.000000
     6  H    2.170123   0.950000   2.868844   2.789088   3.392298
                    6
     6  H    0.000000
 Stoichiometry    HO4S(1-)
 Framework group  C1[X(HO4S)]
 Deg. of freedom    12
 Full point group                 C1      NOp   1
 Largest Abelian subgroup         C1      NOp   1
 Largest concise Abelian subgroup C1      NOp   1
                         Standard orientation:                         
 ---------------------------------------------------------------------
 Center     Atomic      Atomic             Coordinates (Angstroms)
 Number     Number       Type             X           Y           Z
 ---------------------------------------------------------------------
      1         16           0        0.055793   -0.034287   -0.001782
      2          8           0       -1.580943    0.008478   -0.275396
      3          8           0        0.679314    1.498379   -0.135041
      4          8           0        0.334016   -0.564977    1.384242
      5          8           0        0.705206   -0.945960   -1.015298
      6          1           0       -1.993440    0.581236    0.360446
 ---------------------------------------------------------------------
 Rotational constants (GHZ):      4.8498798      4.5880511      4.3224506
 Leave Link  202 at Tue Sep 17 19:23:27 2024, MaxMem=   268435456 cpu:         0.1
 (Enter /g100_work/pMI24_ChiCa/g09d1/g09d01/d01/build-node-6-2-59348/src/main/l301.exe)
 Standard basis: 6-31+G(d,p) (6D, 7F)
 Ernie: Thresh=  0.10000D-02 Tol=  0.10000D-05 Strict=F.
 There are   104 symmetry adapted cartesian basis functions of A   symmetry.
 There are   104 symmetry adapted basis functions of A   symmetry.
   104 basis functions,   191 primitive gaussians,   104 cartesian basis functions
    25 alpha electrons       25 beta electrons
       nuclear repulsion energy       262.4635658979 Hartrees.
 IExCor=  402 DFT=T Ex+Corr=B3LYP ExCW=0 ScaHFX=  0.200000
 ScaDFX=  0.800000  0.720000  1.000000  0.810000 ScalE2=  1.000000  1.000000
 IRadAn=      0 IRanWt=     -1 IRanGd=            0 ICorTp=0 IEmpDi=  4
 NAtoms=    6 NActive=    6 NUniq=    6 SFac= 1.00D+00 NAtFMM=   60 NAOKFM=F Big=F
 Integral buffers will be    131072 words long.
 Raffenetti 2 integral format.
 Two-electron integral symmetry is turned on.
 Leave Link  301 at Tue Sep 17 19:23:28 2024, MaxMem=   268435456 cpu:         0.1
 (Enter /g100_work/pMI24_ChiCa/g09d1/g09d01/d01/build-node-6-2-59348/src/main/l302.exe)
 NPDir=0 NMtPBC=     1 NCelOv=     1 NCel=       1 NClECP=     1 NCelD=      1
         NCelK=      1 NCelE2=     1 NClLst=     1 CellRange=     0.0.
 One-electron integrals computed using PRISM.
 NBasis=   104 RedAO= T EigKep=  2.22D-03  NBF=   104
 NBsUse=   104 1.00D-06 EigRej= -1.00D+00 NBFU=   104
 Precomputing XC quadrature grid using
 IXCGrd= 4 IRadAn=           0 IRanWt=          -1 IRanGd=           0 AccXCQ= 0.00D+00.
 Generated NRdTot=       0 NPtTot=           0 NUsed=           0 NTot=          32
 NSgBfM=   104   104   104   104   104 MxSgAt=     6 MxSgA2=     6.
 Leave Link  302 at Tue Sep 17 19:23:28 2024, MaxMem=   268435456 cpu:         1.5
 (Enter /g100_work/pMI24_ChiCa/g09d1/g09d01/d01/build-node-6-2-59348/src/main/l303.exe)
 DipDrv:  MaxL=1.
 Leave Link  303 at Tue Sep 17 19:23:28 2024, MaxMem=   268435456 cpu:         0.2
 (Enter /g100_work/pMI24_ChiCa/g09d1/g09d01/d01/build-node-6-2-59348/src/main/l401.exe)
 ExpMin= 4.05D-02 ExpMax= 2.19D+04 ExpMxC= 3.30D+03 IAcc=2 IRadAn=         4 AccDes= 0.00D+00
 Harris functional with IExCor=  402 and IRadAn=       4 diagonalized for initial guess.
 HarFok:  IExCor=  402 AccDes= 0.00D+00 IRadAn=         4 IDoV= 1 UseB2=F ITyADJ=14
 ICtDFT=  3500011 ScaDFX=  1.000000  1.000000  1.000000  1.000000
 FoFCou: FMM=F IPFlag=           0 FMFlag=      100000 FMFlg1=           0
         NFxFlg=           0 DoJE=T BraDBF=F KetDBF=T FulRan=T
         wScrn=  0.000000 ICntrl=     500 IOpCl=  0 I1Cent=   200000004 NGrid=           0
         NMat0=    1 NMatS0=      1 NMatT0=    0 NMatD0=    1 NMtDS0=    0 NMtDT0=    0
 Petite list used in FoFCou.
 Harris En= -699.916522393999    
 JPrj=0 DoOrth=F DoCkMO=F.
 Leave Link  401 at Tue Sep 17 19:23:28 2024, MaxMem=   268435456 cpu:         1.8
 (Enter /g100_work/pMI24_ChiCa/g09d1/g09d01/d01/build-node-6-2-59348/src/main/l502.exe)
 Closed shell SCF:
 Using DIIS extrapolation, IDIIS=  1040.
 Integral symmetry usage will be decided dynamically.
 Keep R1 ints in memory in canonical form, NReq=15889713.
 IVT=       54263 IEndB=       54263 NGot=   268435456 MDV=   253472664
 LenX=   253472664 LenY=   253461407
 Requested convergence on RMS density matrix=1.00D-08 within 128 cycles.
 Requested convergence on MAX density matrix=1.00D-06.
 Requested convergence on             energy=1.00D-06.
 No special actions if energy rises.
 FoFCou: FMM=F IPFlag=           0 FMFlag=           0 FMFlg1=           0
         NFxFlg=           0 DoJE=F BraDBF=F KetDBF=F FulRan=T
         wScrn=  0.000000 ICntrl=     600 IOpCl=  0 I1Cent=           0 NGrid=           0
         NMat0=    1 NMatS0=   5460 NMatT0=    0 NMatD0=    1 NMtDS0=    0 NMtDT0=    0
 Symmetry not used in FoFCou.

 Cycle   1  Pass 1  IDiag  1:
 E= -699.311529290484    
 DIIS: error= 5.61D-02 at cycle   1 NSaved=   1.
 NSaved= 1 IEnMin= 1 EnMin= -699.311529290484     IErMin= 1 ErrMin= 5.61D-02
 ErrMax= 5.61D-02  0.00D+00 EMaxC= 1.00D-01 BMatC= 5.05D-01 BMatP= 5.05D-01
 IDIUse=3 WtCom= 4.39D-01 WtEn= 5.61D-01
 Coeff-Com:  0.100D+01
 Coeff-En:   0.100D+01
 Coeff:      0.100D+01
 Gap=     0.040 Goal=   None    Shift=    0.000
 GapD=    0.040 DampG=0.250 DampE=0.500 DampFc=0.2500 IDamp=-1.
 Damping current iteration by 2.50D-01
 RMSDP=2.33D-02 MaxDP=6.73D-01              OVMax= 3.57D-01

 Cycle   2  Pass 1  IDiag  1:
 E= -699.444153561789     Delta-E=       -0.132624271305 Rises=F Damp=T
 DIIS: error= 1.66D-02 at cycle   2 NSaved=   2.
 NSaved= 2 IEnMin= 2 EnMin= -699.444153561789     IErMin= 2 ErrMin= 1.66D-02
 ErrMax= 1.66D-02  0.00D+00 EMaxC= 1.00D-01 BMatC= 4.99D-02 BMatP= 5.05D-01
 IDIUse=3 WtCom= 8.34D-01 WtEn= 1.66D-01
 Coeff-Com: -0.347D+00 0.135D+01
 Coeff-En:   0.423D-01 0.958D+00
 Coeff:     -0.282D+00 0.128D+01
 Gap=     0.197 Goal=   None    Shift=    0.000
 RMSDP=3.57D-03 MaxDP=6.46D-02 DE=-1.33D-01 OVMax= 2.65D-01

 Cycle   3  Pass 1  IDiag  1:
 E= -699.652422852115     Delta-E=       -0.208269290326 Rises=F Damp=F
 DIIS: error= 1.77D-02 at cycle   3 NSaved=   3.
 NSaved= 3 IEnMin= 3 EnMin= -699.652422852115     IErMin= 2 ErrMin= 1.66D-02
 ErrMax= 1.77D-02  0.00D+00 EMaxC= 1.00D-01 BMatC= 5.57D-02 BMatP= 4.99D-02
 IDIUse=2 WtCom= 0.00D+00 WtEn= 1.00D+00
 Coeff-En:   0.000D+00 0.000D+00 0.100D+01
 Coeff:      0.000D+00 0.000D+00 0.100D+01
 Gap=     0.189 Goal=   None    Shift=    0.000
 RMSDP=7.38D-03 MaxDP=1.21D-01 DE=-2.08D-01 OVMax= 1.87D-01

 Cycle   4  Pass 1  IDiag  1:
 E= -699.439701009188     Delta-E=        0.212721842926 Rises=F Damp=F
 DIIS: error= 4.72D-02 at cycle   4 NSaved=   4.
 NSaved= 4 IEnMin= 3 EnMin= -699.652422852115     IErMin= 2 ErrMin= 1.66D-02
 ErrMax= 4.72D-02  0.00D+00 EMaxC= 1.00D-01 BMatC= 3.24D-01 BMatP= 4.99D-02
 IDIUse=2 WtCom= 0.00D+00 WtEn= 1.00D+00
 Coeff-En:   0.000D+00 0.000D+00 0.798D+00 0.202D+00
 Coeff:      0.000D+00 0.000D+00 0.798D+00 0.202D+00
 Gap=     0.184 Goal=   None    Shift=    0.000
 RMSDP=4.53D-03 MaxDP=7.31D-02 DE= 2.13D-01 OVMax= 1.22D-01

 Cycle   5  Pass 1  IDiag  1:
 E= -699.676757381745     Delta-E=       -0.237056372557 Rises=F Damp=F
 DIIS: error= 1.04D-02 at cycle   5 NSaved=   5.
 NSaved= 5 IEnMin= 5 EnMin= -699.676757381745     IErMin= 5 ErrMin= 1.04D-02
 ErrMax= 1.04D-02  0.00D+00 EMaxC= 1.00D-01 BMatC= 2.64D-02 BMatP= 4.99D-02
 IDIUse=3 WtCom= 8.96D-01 WtEn= 1.04D-01
 Coeff-Com: -0.142D-01 0.383D-01 0.443D+00 0.436D-01 0.489D+00
 Coeff-En:   0.000D+00 0.000D+00 0.352D+00 0.000D+00 0.648D+00
 Coeff:     -0.127D-01 0.343D-01 0.434D+00 0.391D-01 0.506D+00
 Gap=     0.197 Goal=   None    Shift=    0.000
 RMSDP=1.25D-03 MaxDP=3.34D-02 DE=-2.37D-01 OVMax= 2.97D-02

 Cycle   6  Pass 1  IDiag  1:
 E= -699.696204406537     Delta-E=       -0.019447024792 Rises=F Damp=F
 DIIS: error= 1.35D-03 at cycle   6 NSaved=   6.
 NSaved= 6 IEnMin= 6 EnMin= -699.696204406537     IErMin= 6 ErrMin= 1.35D-03
 ErrMax= 1.35D-03  0.00D+00 EMaxC= 1.00D-01 BMatC= 4.04D-04 BMatP= 2.64D-02
 IDIUse=3 WtCom= 9.87D-01 WtEn= 1.35D-02
 Coeff-Com: -0.202D-01 0.289D-01 0.121D+00-0.387D-01 0.304D+00 0.604D+00
 Coeff-En:   0.000D+00 0.000D+00 0.000D+00 0.000D+00 0.000D+00 0.100D+01
 Coeff:     -0.199D-01 0.285D-01 0.120D+00-0.382D-01 0.300D+00 0.610D+00
 Gap=     0.196 Goal=   None    Shift=    0.000
 RMSDP=1.74D-04 MaxDP=2.48D-03 DE=-1.94D-02 OVMax= 3.77D-03

 Cycle   7  Pass 1  IDiag  1:
 E= -699.696509711256     Delta-E=       -0.000305304720 Rises=F Damp=F
 DIIS: error= 1.38D-04 at cycle   7 NSaved=   7.
 NSaved= 7 IEnMin= 7 EnMin= -699.696509711256     IErMin= 7 ErrMin= 1.38D-04
 ErrMax= 1.38D-04  0.00D+00 EMaxC= 1.00D-01 BMatC= 4.99D-06 BMatP= 4.04D-04
 IDIUse=3 WtCom= 9.99D-01 WtEn= 1.38D-03
 Coeff-Com: -0.771D-02 0.995D-02 0.331D-01-0.159D-01 0.975D-01 0.222D+00
 Coeff-Com:  0.661D+00
 Coeff-En:   0.000D+00 0.000D+00 0.000D+00 0.000D+00 0.000D+00 0.000D+00
 Coeff-En:   0.100D+01
 Coeff:     -0.770D-02 0.993D-02 0.331D-01-0.158D-01 0.974D-01 0.221D+00
 Coeff:      0.662D+00
 Gap=     0.196 Goal=   None    Shift=    0.000
 RMSDP=3.18D-05 MaxDP=1.21D-03 DE=-3.05D-04 OVMax= 5.58D-04

 Cycle   8  Pass 1  IDiag  1:
 E= -699.696513933713     Delta-E=       -0.000004222457 Rises=F Damp=F
 DIIS: error= 5.13D-05 at cycle   8 NSaved=   8.
 NSaved= 8 IEnMin= 8 EnMin= -699.696513933713     IErMin= 8 ErrMin= 5.13D-05
 ErrMax= 5.13D-05  0.00D+00 EMaxC= 1.00D-01 BMatC= 4.33D-07 BMatP= 4.99D-06
 IDIUse=1 WtCom= 1.00D+00 WtEn= 0.00D+00
 Coeff-Com: -0.928D-03 0.894D-03 0.788D-03-0.127D-02 0.435D-02 0.182D-01
 Coeff-Com:  0.247D+00 0.731D+00
 Coeff:     -0.928D-03 0.894D-03 0.788D-03-0.127D-02 0.435D-02 0.182D-01
 Coeff:      0.247D+00 0.731D+00
 Gap=     0.196 Goal=   None    Shift=    0.000
 RMSDP=8.95D-06 MaxDP=2.18D-04 DE=-4.22D-06 OVMax= 1.47D-04

 Cycle   9  Pass 1  IDiag  1:
 E= -699.696514275135     Delta-E=       -0.000000341422 Rises=F Damp=F
 DIIS: error= 2.07D-05 at cycle   9 NSaved=   9.
 NSaved= 9 IEnMin= 9 EnMin= -699.696514275135     IErMin= 9 ErrMin= 2.07D-05
 ErrMax= 2.07D-05  0.00D+00 EMaxC= 1.00D-01 BMatC= 7.80D-08 BMatP= 4.33D-07
 IDIUse=1 WtCom= 1.00D+00 WtEn= 0.00D+00
 Coeff-Com: -0.498D-03 0.465D-03-0.222D-03-0.488D-03 0.998D-03 0.833D-02
 Coeff-Com:  0.132D+00 0.435D+00 0.424D+00
 Coeff:     -0.498D-03 0.465D-03-0.222D-03-0.488D-03 0.998D-03 0.833D-02
 Coeff:      0.132D+00 0.435D+00 0.424D+00
 Gap=     0.196 Goal=   None    Shift=    0.000
 RMSDP=2.96D-06 MaxDP=4.75D-05 DE=-3.41D-07 OVMax= 7.51D-05

 Cycle  10  Pass 1  IDiag  1:
 E= -699.696514325347     Delta-E=       -0.000000050212 Rises=F Damp=F
 DIIS: error= 9.34D-06 at cycle  10 NSaved=  10.
 NSaved=10 IEnMin=10 EnMin= -699.696514325347     IErMin=10 ErrMin= 9.34D-06
 ErrMax= 9.34D-06  0.00D+00 EMaxC= 1.00D-01 BMatC= 1.55D-08 BMatP= 7.80D-08
 IDIUse=1 WtCom= 1.00D+00 WtEn= 0.00D+00
 Coeff-Com: -0.928D-04 0.757D-04-0.639D-03 0.909D-04-0.886D-03 0.457D-03
 Coeff-Com:  0.904D-02 0.630D-01 0.281D+00 0.648D+00
 Coeff:     -0.928D-04 0.757D-04-0.639D-03 0.909D-04-0.886D-03 0.457D-03
 Coeff:      0.904D-02 0.630D-01 0.281D+00 0.648D+00
 Gap=     0.196 Goal=   None    Shift=    0.000
 RMSDP=1.28D-06 MaxDP=2.48D-05 DE=-5.02D-08 OVMax= 2.88D-05

 Cycle  11  Pass 1  IDiag  1:
 E= -699.696514338350     Delta-E=       -0.000000013003 Rises=F Damp=F
 DIIS: error= 1.63D-06 at cycle  11 NSaved=  11.
 NSaved=11 IEnMin=11 EnMin= -699.696514338350     IErMin=11 ErrMin= 1.63D-06
 ErrMax= 1.63D-06  0.00D+00 EMaxC= 1.00D-01 BMatC= 2.88D-10 BMatP= 1.55D-08
 IDIUse=1 WtCom= 1.00D+00 WtEn= 0.00D+00
 Coeff-Com: -0.158D-04 0.213D-04-0.186D-03 0.403D-04-0.270D-03-0.315D-03
 Coeff-Com: -0.484D-02-0.867D-02 0.410D-01 0.152D+00 0.821D+00
 Coeff:     -0.158D-04 0.213D-04-0.186D-03 0.403D-04-0.270D-03-0.315D-03
 Coeff:     -0.484D-02-0.867D-02 0.410D-01 0.152D+00 0.821D+00
 Gap=     0.196 Goal=   None    Shift=    0.000
 RMSDP=2.55D-07 MaxDP=3.92D-06 DE=-1.30D-08 OVMax= 5.31D-06

 Cycle  12  Pass 1  IDiag  1:
 E= -699.696514338622     Delta-E=       -0.000000000272 Rises=F Damp=F
 DIIS: error= 1.12D-07 at cycle  12 NSaved=  12.
 NSaved=12 IEnMin=12 EnMin= -699.696514338622     IErMin=12 ErrMin= 1.12D-07
 ErrMax= 1.12D-07  0.00D+00 EMaxC= 1.00D-01 BMatC= 3.87D-12 BMatP= 2.88D-10
 IDIUse=1 WtCom= 1.00D+00 WtEn= 0.00D+00
 Coeff-Com: -0.507D-06 0.272D-05-0.273D-06 0.747D-06-0.224D-05-0.964D-04
 Coeff-Com: -0.892D-03-0.362D-02-0.553D-02-0.720D-02 0.104D+00 0.913D+00
 Coeff:     -0.507D-06 0.272D-05-0.273D-06 0.747D-06-0.224D-05-0.964D-04
 Coeff:     -0.892D-03-0.362D-02-0.553D-02-0.720D-02 0.104D+00 0.913D+00
 Gap=     0.196 Goal=   None    Shift=    0.000
 RMSDP=5.05D-08 MaxDP=6.96D-07 DE=-2.72D-10 OVMax= 1.39D-06

 Cycle  13  Pass 1  IDiag  1:
 E= -699.696514338608     Delta-E=        0.000000000013 Rises=F Damp=F
 DIIS: error= 2.97D-08 at cycle  13 NSaved=  13.
 NSaved=13 IEnMin=12 EnMin= -699.696514338622     IErMin=13 ErrMin= 2.97D-08
 ErrMax= 2.97D-08  0.00D+00 EMaxC= 1.00D-01 BMatC= 1.60D-13 BMatP= 3.87D-12
 IDIUse=1 WtCom= 1.00D+00 WtEn= 0.00D+00
 Coeff-Com:  0.629D-06-0.581D-06 0.546D-05-0.964D-06 0.727D-05-0.438D-05
 Coeff-Com: -0.309D-04-0.536D-03-0.215D-02-0.560D-02-0.231D-02 0.198D+00
 Coeff-Com:  0.813D+00
 Coeff:      0.629D-06-0.581D-06 0.546D-05-0.964D-06 0.727D-05-0.438D-05
 Coeff:     -0.309D-04-0.536D-03-0.215D-02-0.560D-02-0.231D-02 0.198D+00
 Coeff:      0.813D+00
 Gap=     0.196 Goal=   None    Shift=    0.000
 RMSDP=7.33D-09 MaxDP=1.13D-07 DE= 1.34D-11 OVMax= 2.12D-07

 SCF Done:  E(RB3LYP) =  -699.696514339     A.U. after   13 cycles
            NFock= 13  Conv=0.73D-08     -V/T= 2.0066
 KE= 6.950919061018D+02 PE=-2.190869635089D+03 EE= 5.336176487508D+02
 Leave Link  502 at Tue Sep 17 19:23:29 2024, MaxMem=   268435456 cpu:        11.9
 (Enter /g100_work/pMI24_ChiCa/g09d1/g09d01/d01/build-node-6-2-59348/src/main/l601.exe)
 Copying SCF densities to generalized density rwf, IOpCl= 0 IROHF=0.

 **********************************************************************

            Population analysis using the SCF density.

 **********************************************************************

 Orbital symmetries:
       Occupied  (A) (A) (A) (A) (A) (A) (A) (A) (A) (A) (A) (A)
                 (A) (A) (A) (A) (A) (A) (A) (A) (A) (A) (A) (A)
                 (A)
       Virtual   (A) (A) (A) (A) (A) (A) (A) (A) (A) (A) (A) (A)
                 (A) (A) (A) (A) (A) (A) (A) (A) (A) (A) (A) (A)
                 (A) (A) (A) (A) (A) (A) (A) (A) (A) (A) (A) (A)
                 (A) (A) (A) (A) (A) (A) (A) (A) (A) (A) (A) (A)
                 (A) (A) (A) (A) (A) (A) (A) (A) (A) (A) (A) (A)
                 (A) (A) (A) (A) (A) (A) (A) (A) (A) (A) (A) (A)
                 (A) (A) (A) (A) (A) (A) (A)
 The electronic state is 1-A.
 Alpha  occ. eigenvalues --  -88.96743 -19.06043 -18.96852 -18.96572 -18.95262
 Alpha  occ. eigenvalues --   -7.98373  -5.95060  -5.94765  -5.94697  -0.95915
 Alpha  occ. eigenvalues --   -0.87173  -0.79578  -0.74259  -0.49602  -0.36469
 Alpha  occ. eigenvalues --   -0.30935  -0.29251  -0.25678  -0.21142  -0.17266
 Alpha  occ. eigenvalues --   -0.14637  -0.14305  -0.11415  -0.09144  -0.07399
 Alpha virt. eigenvalues --    0.12193   0.17736   0.18913   0.19014   0.20283
 Alpha virt. eigenvalues --    0.24865   0.26970   0.28883   0.30097   0.31852
 Alpha virt. eigenvalues --    0.32712   0.34853   0.35355   0.35460   0.37993
 Alpha virt. eigenvalues --    0.39831   0.40953   0.41520   0.43045   0.43641
 Alpha virt. eigenvalues --    0.43948   0.45039   0.46972   0.49015   0.52770
 Alpha virt. eigenvalues --    0.71927   0.72499   0.75273   0.81014   0.82234
 Alpha virt. eigenvalues --    0.92026   1.11945   1.13207   1.20190   1.25180
 Alpha virt. eigenvalues --    1.30545   1.30987   1.35947   1.36529   1.38817
 Alpha virt. eigenvalues --    1.40222   1.41442   1.43279   1.44015   1.49238
 Alpha virt. eigenvalues --    1.51027   1.52450   1.64414   1.68721   1.70046
 Alpha virt. eigenvalues --    1.71434   1.83356   1.90459   1.93419   1.96454
 Alpha virt. eigenvalues --    1.99507   2.00226   2.02064   2.03154   2.04514
 Alpha virt. eigenvalues --    2.04852   2.19914   2.25124   2.30847   2.35979
 Alpha virt. eigenvalues --    2.37054   2.49496   2.61917   2.75097   2.76985
 Alpha virt. eigenvalues --    2.82808   2.93199   3.01703   3.56680   4.17392
 Alpha virt. eigenvalues --    4.19140   4.22321   4.24501   4.35551
          Condensed to atoms (all electrons):
               1          2          3          4          5          6
     1  S   13.957205  -0.194844   0.341276   0.212235   0.216598   0.047994
     2  O   -0.194844   8.790538  -0.066478  -0.049358  -0.047185   0.193841
     3  O    0.341276  -0.066478   8.754613  -0.127280  -0.145601  -0.006444
     4  O    0.212235  -0.049358  -0.127280   8.841030  -0.167144  -0.008502
     5  O    0.216598  -0.047185  -0.145601  -0.167144   8.835075   0.008948
     6  H    0.047994   0.193841  -0.006444  -0.008502   0.008948   0.405431
 Mulliken charges:
               1
     1  S    1.419537
     2  O   -0.626513
     3  O   -0.750085
     4  O   -0.700980
     5  O   -0.700690
     6  H    0.358732
 Sum of Mulliken charges =  -1.00000
 Mulliken charges with hydrogens summed into heavy atoms:
               1
     1  S    1.419537
     2  O   -0.267781
     3  O   -0.750085
     4  O   -0.700980
     5  O   -0.700690
 Electronic spatial extent (au):  <R**2>=            401.6513
 Charge=             -1.0000 electrons
 Dipole moment (field-independent basis, Debye):
    X=             -4.0646    Y=              0.2267    Z=              0.6210  Tot=              4.1180
 Quadrupole moment (field-independent basis, Debye-Ang):
   XX=            -38.6659   YY=            -47.1144   ZZ=            -45.8441
   XY=             -3.1792   XZ=             -1.7122   YZ=              0.8007
 Traceless Quadrupole moment (field-independent basis, Debye-Ang):
   XX=              5.2089   YY=             -3.2396   ZZ=             -1.9693
   XY=             -3.1792   XZ=             -1.7122   YZ=              0.8007
 Octapole moment (field-independent basis, Debye-Ang**2):
  XXX=             -9.1645  YYY=             -8.7344  ZZZ=             -4.4583  XYY=             -8.3025
  XXY=              4.0385  XXZ=              6.5988  XZZ=             -4.8276  YZZ=              4.9059
  YYZ=              2.4169  XYZ=             -1.9796
 Hexadecapole moment (field-independent basis, Debye-Ang**3):
 XXXX=           -168.1493 YYYY=           -196.1669 ZZZZ=           -172.0859 XXXY=            -14.0629
 XXXZ=            -10.0507 YYYX=             -6.2098 YYYZ=              0.4961 ZZZX=             -0.3517
 ZZZY=              1.7788 XXYY=            -60.4312 XXZZ=            -58.0341 YYZZ=            -61.1125
 XXYZ=              2.0504 YYXZ=              0.6736 ZZXY=              0.5828
 N-N= 2.624635658979D+02 E-N=-2.190869633638D+03  KE= 6.950919061018D+02
 No NMR shielding tensors so no spin-rotation constants.
 Leave Link  601 at Tue Sep 17 19:23:29 2024, MaxMem=   268435456 cpu:         1.5
 (Enter /g100_work/pMI24_ChiCa/g09d1/g09d01/d01/build-node-6-2-59348/src/main/l701.exe)
 Compute integral first derivatives.
 ... and contract with generalized density number  0.
 Leave Link  701 at Tue Sep 17 19:23:30 2024, MaxMem=   268435456 cpu:         1.6
 (Enter /g100_work/pMI24_ChiCa/g09d1/g09d01/d01/build-node-6-2-59348/src/main/l702.exe)
 L702 exits ... SP integral derivatives will be done elsewhere.
 Leave Link  702 at Tue Sep 17 19:23:30 2024, MaxMem=   268435456 cpu:         0.1
 (Enter /g100_work/pMI24_ChiCa/g09d1/g09d01/d01/build-node-6-2-59348/src/main/l703.exe)
 Compute integral first derivatives, UseDBF=F ICtDFT=           0.
 Integral derivatives from FoFJK, PRISM(SPDF).
 Calling FoFJK, ICntrl=      2127 FMM=F ISym2X=0 I1Cent= 0 IOpClX= 0 NMat=1 NMatS=1 NMatT=0.
 FoFJK:  IHMeth= 1 ICntrl=    2127 DoSepK=F KAlg= 0 I1Cent=   0 FoldK=F
 IRaf=         0 NMat=   1 IRICut=       1 DoRegI=T DoRafI=F ISym2E= 0.
 FoFCou: FMM=F IPFlag=           0 FMFlag=      100000 FMFlg1=         800
         NFxFlg=           0 DoJE=F BraDBF=F KetDBF=F FulRan=T
         wScrn=  0.000000 ICntrl=    2127 IOpCl=  0 I1Cent=           0 NGrid=           0
         NMat0=    1 NMatS0=      1 NMatT0=    0 NMatD0=    1 NMtDS0=    0 NMtDT0=    0
 Symmetry not used in FoFCou.
 Leave Link  703 at Tue Sep 17 19:23:30 2024, MaxMem=   268435456 cpu:         6.1
 (Enter /g100_work/pMI24_ChiCa/g09d1/g09d01/d01/build-node-6-2-59348/src/main/l716.exe)
 Dipole        =-1.59913057D+00 8.91905214D-02 2.44317331D-01
 ***** Axes restored to original set *****
 -------------------------------------------------------------------
 Center     Atomic                   Forces (Hartrees/Bohr)
 Number     Number              X              Y              Z
 -------------------------------------------------------------------
      1       16           0.054921869    0.002438808   -0.121719438
      2        8          -0.013527832    0.023178559    0.003174524
      3        8          -0.076605087   -0.001163983    0.050044891
      4        8           0.010392437    0.005825952    0.030576127
      5        8           0.013248645   -0.012122941    0.036524329
      6        1           0.011569969   -0.018156395    0.001399568
 -------------------------------------------------------------------
 Cartesian Forces:  Max     0.121719438 RMS     0.040920881
 Leave Link  716 at Tue Sep 17 19:23:31 2024, MaxMem=   268435456 cpu:         0.1
 (Enter /g100_work/pMI24_ChiCa/g09d1/g09d01/d01/build-node-6-2-59348/src/main/l103.exe)

 GradGradGradGradGradGradGradGradGradGradGradGradGradGradGradGradGradGrad
 Berny optimization.
 FormGI is forming the generalized inverse of G from B-inverse, IUseBI=4.
 Internal  Forces:  Max     0.088905538 RMS     0.034714269
 Search for a local minimum.
 Step number   1 out of a maximum of   25
 All quantities printed in internal units (Hartrees-Bohrs-Radians)
 RMS Force = .34714D-01 SwitMx=.10000D-02 MixMth= 1
 Mixed Optimization -- RFO/linear search
 Second derivative matrix not updated -- first step.
 The second derivative matrix:
                          R1        R2        R3        R4        R5
           R1           0.41169
           R2           0.00000   0.41169
           R3           0.00000   0.00000   0.73458
           R4           0.00000   0.00000   0.00000   0.73458
           R5           0.00000   0.00000   0.00000   0.00000   0.57681
           A1           0.00000   0.00000   0.00000   0.00000   0.00000
           A2           0.00000   0.00000   0.00000   0.00000   0.00000
           A3           0.00000   0.00000   0.00000   0.00000   0.00000
           A4           0.00000   0.00000   0.00000   0.00000   0.00000
           A5           0.00000   0.00000   0.00000   0.00000   0.00000
           A6           0.00000   0.00000   0.00000   0.00000   0.00000
           A7           0.00000   0.00000   0.00000   0.00000   0.00000
           D1           0.00000   0.00000   0.00000   0.00000   0.00000
           D2           0.00000   0.00000   0.00000   0.00000   0.00000
           D3           0.00000   0.00000   0.00000   0.00000   0.00000
                          A1        A2        A3        A4        A5
           A1           0.25000
           A2           0.00000   0.25000
           A3           0.00000   0.00000   0.25000
           A4           0.00000   0.00000   0.00000   0.25000
           A5           0.00000   0.00000   0.00000   0.00000   0.25000
           A6           0.00000   0.00000   0.00000   0.00000   0.00000
           A7           0.00000   0.00000   0.00000   0.00000   0.00000
           D1           0.00000   0.00000   0.00000   0.00000   0.00000
           D2           0.00000   0.00000   0.00000   0.00000   0.00000
           D3           0.00000   0.00000   0.00000   0.00000   0.00000
                          A6        A7        D1        D2        D3
           A6           0.25000
           A7           0.00000   0.16000
           D1           0.00000   0.00000   0.01825
           D2           0.00000   0.00000   0.00000   0.01825
           D3           0.00000   0.00000   0.00000   0.00000   0.01825
 ITU=  0
     Eigenvalues ---    0.01825   0.16000   0.16025   0.16098   0.25000
     Eigenvalues ---    0.25000   0.25000   0.41169   0.41169   0.57681
     Eigenvalues ---    0.73458   0.73458
 RFO step:  Lambda=-4.83407539D-02 EMin= 1.82525757D-02
 Linear search not attempted -- first point.
 Maximum step size (   0.300) exceeded in Quadratic search.
    -- Step size scaled by   0.808
 Iteration  1 RMS(Cart)=  0.10545393 RMS(Int)=  0.00836242
 Iteration  2 RMS(Cart)=  0.00724855 RMS(Int)=  0.00414145
 Iteration  3 RMS(Cart)=  0.00005304 RMS(Int)=  0.00414132
 Iteration  4 RMS(Cart)=  0.00000064 RMS(Int)=  0.00414132
 ITry= 1 IFail=0 DXMaxC= 2.06D-01 DCOld= 1.00D+10 DXMaxT= 3.00D-01 DXLimC= 3.00D+00 Rises=F
 Variable       Old X    -DE/DX   Delta X   Delta X   Delta X     New X
                                 (Linear)    (Quad)   (Total)
    R1        3.13695   0.00457   0.00000   0.00803   0.00803   3.14498
    R2        3.13695  -0.08891   0.00000  -0.15614  -0.15614   2.98080
    R3        2.85349  -0.02008   0.00000  -0.02072  -0.02072   2.83276
    R4        2.85349  -0.02823   0.00000  -0.02913  -0.02913   2.82436
    R5        1.79524   0.02075   0.00000   0.02682   0.02682   1.82206
    A1        1.91063  -0.03491   0.00000  -0.09811  -0.10383   1.80680
    A2        1.91986  -0.03385   0.00000  -0.08986  -0.09506   1.82480
    A3        1.90601  -0.04201   0.00000  -0.11202  -0.11757   1.78844
    A4        1.90601   0.03097   0.00000   0.08041   0.07309   1.97909
    A5        1.91986   0.03459   0.00000   0.09004   0.08188   2.00174
    A6        1.90145   0.04560   0.00000   0.13065   0.12412   2.02557
    A7        1.91063  -0.01051   0.00000  -0.04075  -0.04075   1.86988
    D1       -1.03873   0.00034   0.00000   0.00490   0.00575  -1.03298
    D2        1.05566  -0.00426   0.00000  -0.01296  -0.01224   1.04342
    D3        3.14159   0.00520   0.00000   0.02363   0.02206  -3.11954
         Item               Value     Threshold  Converged?
 Maximum Force            0.088906     0.000450     NO 
 RMS     Force            0.034714     0.000300     NO 
 Maximum Displacement     0.205621     0.001800     NO 
 RMS     Displacement     0.108594     0.001200     NO 
 Predicted change in Energy=-2.536402D-02
 Lowest energy point so far.  Saving SCF results.
 GradGradGradGradGradGradGradGradGradGradGradGradGradGradGradGradGradGrad

 Leave Link  103 at Tue Sep 17 19:23:31 2024, MaxMem=   268435456 cpu:         1.4
 (Enter /g100_work/pMI24_ChiCa/g09d1/g09d01/d01/build-node-6-2-59348/src/main/l202.exe)
                          Input orientation:                          
 ---------------------------------------------------------------------
 Center     Atomic      Atomic             Coordinates (Angstroms)
 Number     Number       Type             X           Y           Z
 ---------------------------------------------------------------------
      1         16           0        0.002398   -0.003246   -0.081411
      2          8           0       -0.003692    0.022873    1.582623
      3          8           0        1.537382   -0.012163   -0.444523
      4          8           0       -0.701622   -1.276961   -0.440727
      5          8           0       -0.713489    1.262492   -0.426659
      6          1           0        0.465598   -0.764848    1.880837
 ---------------------------------------------------------------------
                    Distance matrix (angstroms):
                    1          2          3          4          5
     1  S    0.000000
     2  O    1.664251   0.000000
     3  O    1.577373   2.546657   0.000000
     4  O    1.499033   2.504121   2.571549   0.000000
     5  O    1.494585   2.465296   2.586790   2.539519   0.000000
     6  H    2.155228   0.964193   2.668812   2.648457   3.290120
                    6
     6  H    0.000000
 Stoichiometry    HO4S(1-)
 Framework group  C1[X(HO4S)]
 Deg. of freedom    12
 Full point group                 C1      NOp   1
 RotChk:  IX=0 Diff= 6.23D-01
 Largest Abelian subgroup         C1      NOp   1
 Largest concise Abelian subgroup C1      NOp   1
                         Standard orientation:                         
 ---------------------------------------------------------------------
 Center     Atomic      Atomic             Coordinates (Angstroms)
 Number     Number       Type             X           Y           Z
 ---------------------------------------------------------------------
      1         16           0        0.133330    0.021696    0.039666
      2          8           0       -1.316780   -0.587956   -0.503689
      3          8           0        0.059622    1.549009   -0.347616
      4          8           0        0.112420   -0.218860    1.519124
      5          8           0        1.130127   -0.772852   -0.740638
      6          1           0       -2.016395   -0.101866   -0.052110
 ---------------------------------------------------------------------
 Rotational constants (GHZ):      4.8250026      4.7673369      4.7096122
 Leave Link  202 at Tue Sep 17 19:23:31 2024, MaxMem=   268435456 cpu:         0.1
 (Enter /g100_work/pMI24_ChiCa/g09d1/g09d01/d01/build-node-6-2-59348/src/main/l301.exe)
 Standard basis: 6-31+G(d,p) (6D, 7F)
 Ernie: Thresh=  0.10000D-02 Tol=  0.10000D-05 Strict=F.
 There are   104 symmetry adapted cartesian basis functions of A   symmetry.
 There are   104 symmetry adapted basis functions of A   symmetry.
   104 basis functions,   191 primitive gaussians,   104 cartesian basis functions
    25 alpha electrons       25 beta electrons
       nuclear repulsion energy       267.0970312012 Hartrees.
 IExCor=  402 DFT=T Ex+Corr=B3LYP ExCW=0 ScaHFX=  0.200000
 ScaDFX=  0.800000  0.720000  1.000000  0.810000 ScalE2=  1.000000  1.000000
 IRadAn=      0 IRanWt=     -1 IRanGd=            0 ICorTp=0 IEmpDi=  4
 NAtoms=    6 NActive=    6 NUniq=    6 SFac= 1.00D+00 NAtFMM=   60 NAOKFM=F Big=F
 Integral buffers will be    131072 words long.
 Raffenetti 2 integral format.
 Two-electron integral symmetry is turned on.
 Leave Link  301 at Tue Sep 17 19:23:31 2024, MaxMem=   268435456 cpu:         0.1
 (Enter /g100_work/pMI24_ChiCa/g09d1/g09d01/d01/build-node-6-2-59348/src/main/l302.exe)
 NPDir=0 NMtPBC=     1 NCelOv=     1 NCel=       1 NClECP=     1 NCelD=      1
         NCelK=      1 NCelE2=     1 NClLst=     1 CellRange=     0.0.
 One-electron integrals computed using PRISM.
 NBasis=   104 RedAO= T EigKep=  2.00D-03  NBF=   104
 NBsUse=   104 1.00D-06 EigRej= -1.00D+00 NBFU=   104
 Precomputing XC quadrature grid using
 IXCGrd= 4 IRadAn=           0 IRanWt=          -1 IRanGd=           0 AccXCQ= 0.00D+00.
 Generated NRdTot=       0 NPtTot=           0 NUsed=           0 NTot=          32
 NSgBfM=   104   104   104   104   104 MxSgAt=     6 MxSgA2=     6.
 Leave Link  302 at Tue Sep 17 19:23:31 2024, MaxMem=   268435456 cpu:         1.4
 (Enter /g100_work/pMI24_ChiCa/g09d1/g09d01/d01/build-node-6-2-59348/src/main/l303.exe)
 DipDrv:  MaxL=1.
 Leave Link  303 at Tue Sep 17 19:23:31 2024, MaxMem=   268435456 cpu:         0.2
 (Enter /g100_work/pMI24_ChiCa/g09d1/g09d01/d01/build-node-6-2-59348/src/main/l401.exe)
 Initial guess from the checkpoint file:  "/g100_scratch/userexternal/ecabiati/g16_14420020/Gau-43686.chk"
 B after Tr=    -0.000000    0.000000    0.000000
         Rot=    0.974355    0.086777    0.096169   -0.183995 Ang=  26.01 deg.
 Guess basis will be translated and rotated to current coordinates.
 JPrj=2 DoOrth=T DoCkMO=T.
 Generating alternative initial guess.
 ExpMin= 4.05D-02 ExpMax= 2.19D+04 ExpMxC= 3.30D+03 IAcc=2 IRadAn=         4 AccDes= 0.00D+00
 Harris functional with IExCor=  402 and IRadAn=       4 diagonalized for initial guess.
 HarFok:  IExCor=  402 AccDes= 0.00D+00 IRadAn=         4 IDoV= 1 UseB2=F ITyADJ=14
 ICtDFT=  3500011 ScaDFX=  1.000000  1.000000  1.000000  1.000000
 FoFCou: FMM=F IPFlag=           0 FMFlag=      100000 FMFlg1=           0
         NFxFlg=           0 DoJE=T BraDBF=F KetDBF=T FulRan=T
         wScrn=  0.000000 ICntrl=     500 IOpCl=  0 I1Cent=   200000004 NGrid=           0
         NMat0=    1 NMatS0=      1 NMatT0=    0 NMatD0=    1 NMtDS0=    0 NMtDT0=    0
 Petite list used in FoFCou.
 Harris En= -699.927382569403    
 Leave Link  401 at Tue Sep 17 19:23:31 2024, MaxMem=   268435456 cpu:         2.0
 (Enter /g100_work/pMI24_ChiCa/g09d1/g09d01/d01/build-node-6-2-59348/src/main/l502.exe)
 Closed shell SCF:
 Using DIIS extrapolation, IDIIS=  1040.
 Integral symmetry usage will be decided dynamically.
 Keep R1 ints in memory in canonical form, NReq=15889713.
 IVT=       54263 IEndB=       54263 NGot=   268435456 MDV=   253472664
 LenX=   253472664 LenY=   253461407
 Requested convergence on RMS density matrix=1.00D-08 within 128 cycles.
 Requested convergence on MAX density matrix=1.00D-06.
 Requested convergence on             energy=1.00D-06.
 No special actions if energy rises.
 FoFCou: FMM=F IPFlag=           0 FMFlag=           0 FMFlg1=           0
         NFxFlg=           0 DoJE=F BraDBF=F KetDBF=F FulRan=T
         wScrn=  0.000000 ICntrl=     600 IOpCl=  0 I1Cent=           0 NGrid=           0
         NMat0=    1 NMatS0=   5460 NMatT0=    0 NMatD0=    1 NMtDS0=    0 NMtDT0=    0
 Symmetry not used in FoFCou.

 Cycle   1  Pass 1  IDiag  1:
 E= -699.695931716457    
 DIIS: error= 7.43D-03 at cycle   1 NSaved=   1.
 NSaved= 1 IEnMin= 1 EnMin= -699.695931716457     IErMin= 1 ErrMin= 7.43D-03
 ErrMax= 7.43D-03  0.00D+00 EMaxC= 1.00D-01 BMatC= 1.39D-02 BMatP= 1.39D-02
 IDIUse=3 WtCom= 9.26D-01 WtEn= 7.43D-02
 Coeff-Com:  0.100D+01
 Coeff-En:   0.100D+01
 Coeff:      0.100D+01
 Gap=     0.663 Goal=   None    Shift=    0.000
 GapD=    0.663 DampG=2.000 DampE=1.000 DampFc=2.0000 IDamp=-1.
 RMSDP=2.99D-03 MaxDP=3.94D-02              OVMax= 6.58D-02

 Cycle   2  Pass 1  IDiag  1:
 E= -699.720194887027     Delta-E=       -0.024263170570 Rises=F Damp=F
 DIIS: error= 3.69D-03 at cycle   2 NSaved=   2.
 NSaved= 2 IEnMin= 2 EnMin= -699.720194887027     IErMin= 2 ErrMin= 3.69D-03
 ErrMax= 3.69D-03  0.00D+00 EMaxC= 1.00D-01 BMatC= 3.50D-03 BMatP= 1.39D-02
 IDIUse=3 WtCom= 9.63D-01 WtEn= 3.69D-02
 Coeff-Com:  0.216D+00 0.784D+00
 Coeff-En:   0.000D+00 0.100D+01
 Coeff:      0.208D+00 0.792D+00
 Gap=     0.211 Goal=   None    Shift=    0.000
 RMSDP=1.11D-03 MaxDP=2.13D-02 DE=-2.43D-02 OVMax= 2.98D-02

 Cycle   3  Pass 1  IDiag  1:
 E= -699.717646651692     Delta-E=        0.002548235336 Rises=F Damp=F
 DIIS: error= 5.94D-03 at cycle   3 NSaved=   3.
 NSaved= 3 IEnMin= 2 EnMin= -699.720194887027     IErMin= 2 ErrMin= 3.69D-03
 ErrMax= 5.94D-03  0.00D+00 EMaxC= 1.00D-01 BMatC= 6.97D-03 BMatP= 3.50D-03
 IDIUse=3 WtCom= 1.15D-01 WtEn= 8.85D-01
 Coeff-Com: -0.410D-01 0.606D+00 0.435D+00
 Coeff-En:   0.000D+00 0.627D+00 0.373D+00
 Coeff:     -0.471D-02 0.625D+00 0.380D+00
 Gap=     0.220 Goal=   None    Shift=    0.000
 RMSDP=6.96D-04 MaxDP=1.22D-02 DE= 2.55D-03 OVMax= 1.71D-02

 Cycle   4  Pass 1  IDiag  1:
 E= -699.722864209980     Delta-E=       -0.005217558289 Rises=F Damp=F
 DIIS: error= 7.86D-04 at cycle   4 NSaved=   4.
 NSaved= 4 IEnMin= 4 EnMin= -699.722864209980     IErMin= 4 ErrMin= 7.86D-04
 ErrMax= 7.86D-04  0.00D+00 EMaxC= 1.00D-01 BMatC= 1.27D-04 BMatP= 3.50D-03
 IDIUse=3 WtCom= 9.92D-01 WtEn= 7.86D-03
 Coeff-Com: -0.286D-01 0.305D+00 0.180D+00 0.544D+00
 Coeff-En:   0.000D+00 0.000D+00 0.000D+00 0.100D+01
 Coeff:     -0.284D-01 0.302D+00 0.179D+00 0.547D+00
 Gap=     0.220 Goal=   None    Shift=    0.000
 RMSDP=1.39D-04 MaxDP=2.43D-03 DE=-5.22D-03 OVMax= 3.29D-03

 Cycle   5  Pass 1  IDiag  1:
 E= -699.722945132806     Delta-E=       -0.000080922826 Rises=F Damp=F
 DIIS: error= 3.12D-04 at cycle   5 NSaved=   5.
 NSaved= 5 IEnMin= 5 EnMin= -699.722945132806     IErMin= 5 ErrMin= 3.12D-04
 ErrMax= 3.12D-04  0.00D+00 EMaxC= 1.00D-01 BMatC= 2.81D-05 BMatP= 1.27D-04
 IDIUse=3 WtCom= 9.97D-01 WtEn= 3.12D-03
 Coeff-Com: -0.101D-01 0.797D-01 0.342D-01 0.356D+00 0.540D+00
 Coeff-En:   0.000D+00 0.000D+00 0.000D+00 0.165D+00 0.835D+00
 Coeff:     -0.101D-01 0.794D-01 0.341D-01 0.356D+00 0.541D+00
 Gap=     0.220 Goal=   None    Shift=    0.000
 RMSDP=4.95D-05 MaxDP=7.54D-04 DE=-8.09D-05 OVMax= 1.05D-03

 Cycle   6  Pass 1  IDiag  1:
 E= -699.722964563208     Delta-E=       -0.000019430402 Rises=F Damp=F
 DIIS: error= 9.11D-05 at cycle   6 NSaved=   6.
 NSaved= 6 IEnMin= 6 EnMin= -699.722964563208     IErMin= 6 ErrMin= 9.11D-05
 ErrMax= 9.11D-05  0.00D+00 EMaxC= 1.00D-01 BMatC= 2.13D-06 BMatP= 2.81D-05
 IDIUse=1 WtCom= 1.00D+00 WtEn= 0.00D+00
 Coeff-Com: -0.240D-02 0.154D-01 0.133D-02 0.150D+00 0.303D+00 0.533D+00
 Coeff:     -0.240D-02 0.154D-01 0.133D-02 0.150D+00 0.303D+00 0.533D+00
 Gap=     0.220 Goal=   None    Shift=    0.000
 RMSDP=1.89D-05 MaxDP=6.96D-04 DE=-1.94D-05 OVMax= 2.90D-04

 Cycle   7  Pass 1  IDiag  1:
 E= -699.722966201714     Delta-E=       -0.000001638507 Rises=F Damp=F
 DIIS: error= 3.44D-05 at cycle   7 NSaved=   7.
 NSaved= 7 IEnMin= 7 EnMin= -699.722966201714     IErMin= 7 ErrMin= 3.44D-05
 ErrMax= 3.44D-05  0.00D+00 EMaxC= 1.00D-01 BMatC= 2.25D-07 BMatP= 2.13D-06
 IDIUse=1 WtCom= 1.00D+00 WtEn= 0.00D+00
 Coeff-Com: -0.220D-03-0.188D-02-0.423D-02 0.421D-01 0.102D+00 0.297D+00
 Coeff-Com:  0.566D+00
 Coeff:     -0.220D-03-0.188D-02-0.423D-02 0.421D-01 0.102D+00 0.297D+00
 Coeff:      0.566D+00
 Gap=     0.220 Goal=   None    Shift=    0.000
 RMSDP=4.84D-06 MaxDP=1.05D-04 DE=-1.64D-06 OVMax= 8.27D-05

 Cycle   8  Pass 1  IDiag  1:
 E= -699.722966353979     Delta-E=       -0.000000152264 Rises=F Damp=F
 DIIS: error= 1.23D-05 at cycle   8 NSaved=   8.
 NSaved= 8 IEnMin= 8 EnMin= -699.722966353979     IErMin= 8 ErrMin= 1.23D-05
 ErrMax= 1.23D-05  0.00D+00 EMaxC= 1.00D-01 BMatC= 2.34D-08 BMatP= 2.25D-07
 IDIUse=1 WtCom= 1.00D+00 WtEn= 0.00D+00
 Coeff-Com:  0.124D-03-0.294D-02-0.273D-02 0.775D-02 0.239D-01 0.112D+00
 Coeff-Com:  0.314D+00 0.548D+00
 Coeff:      0.124D-03-0.294D-02-0.273D-02 0.775D-02 0.239D-01 0.112D+00
 Coeff:      0.314D+00 0.548D+00
 Gap=     0.220 Goal=   None    Shift=    0.000
 RMSDP=1.58D-06 MaxDP=3.24D-05 DE=-1.52D-07 OVMax= 3.53D-05

 Cycle   9  Pass 1  IDiag  1:
 E= -699.722966370374     Delta-E=       -0.000000016395 Rises=F Damp=F
 DIIS: error= 3.86D-06 at cycle   9 NSaved=   9.
 NSaved= 9 IEnMin= 9 EnMin= -699.722966370374     IErMin= 9 ErrMin= 3.86D-06
 ErrMax= 3.86D-06  0.00D+00 EMaxC= 1.00D-01 BMatC= 2.46D-09 BMatP= 2.34D-08
 IDIUse=1 WtCom= 1.00D+00 WtEn= 0.00D+00
 Coeff-Com:  0.904D-04-0.174D-02-0.147D-02 0.247D-02 0.881D-02 0.536D-01
 Coeff-Com:  0.165D+00 0.338D+00 0.435D+00
 Coeff:      0.904D-04-0.174D-02-0.147D-02 0.247D-02 0.881D-02 0.536D-01
 Coeff:      0.165D+00 0.338D+00 0.435D+00
 Gap=     0.220 Goal=   None    Shift=    0.000
 RMSDP=5.71D-07 MaxDP=1.01D-05 DE=-1.64D-08 OVMax= 1.46D-05

 Cycle  10  Pass 1  IDiag  1:
 E= -699.722966372104     Delta-E=       -0.000000001730 Rises=F Damp=F
 DIIS: error= 1.19D-06 at cycle  10 NSaved=  10.
 NSaved=10 IEnMin=10 EnMin= -699.722966372104     IErMin=10 ErrMin= 1.19D-06
 ErrMax= 1.19D-06  0.00D+00 EMaxC= 1.00D-01 BMatC= 2.55D-10 BMatP= 2.46D-09
 IDIUse=1 WtCom= 1.00D+00 WtEn= 0.00D+00
 Coeff-Com:  0.176D-04-0.209D-03-0.107D-03-0.679D-03-0.168D-02 0.550D-04
 Coeff-Com:  0.957D-02 0.435D-01 0.256D+00 0.694D+00
 Coeff:      0.176D-04-0.209D-03-0.107D-03-0.679D-03-0.168D-02 0.550D-04
 Coeff:      0.957D-02 0.435D-01 0.256D+00 0.694D+00
 Gap=     0.220 Goal=   None    Shift=    0.000
 RMSDP=1.95D-07 MaxDP=3.07D-06 DE=-1.73D-09 OVMax= 3.79D-06

 Cycle  11  Pass 1  IDiag  1:
 E= -699.722966372287     Delta-E=       -0.000000000183 Rises=F Damp=F
 DIIS: error= 1.04D-07 at cycle  11 NSaved=  11.
 NSaved=11 IEnMin=11 EnMin= -699.722966372287     IErMin=11 ErrMin= 1.04D-07
 ErrMax= 1.04D-07  0.00D+00 EMaxC= 1.00D-01 BMatC= 3.14D-12 BMatP= 2.55D-10
 IDIUse=1 WtCom= 1.00D+00 WtEn= 0.00D+00
 Coeff-Com:  0.493D-06 0.250D-04 0.340D-04-0.269D-03-0.676D-03-0.220D-02
 Coeff-Com: -0.394D-02-0.322D-02 0.462D-01 0.173D+00 0.791D+00
 Coeff:      0.493D-06 0.250D-04 0.340D-04-0.269D-03-0.676D-03-0.220D-02
 Coeff:     -0.394D-02-0.322D-02 0.462D-01 0.173D+00 0.791D+00
 Gap=     0.220 Goal=   None    Shift=    0.000
 RMSDP=3.37D-08 MaxDP=7.60D-07 DE=-1.83D-10 OVMax= 7.08D-07

 Cycle  12  Pass 1  IDiag  1:
 E= -699.722966372292     Delta-E=       -0.000000000004 Rises=F Damp=F
 DIIS: error= 1.72D-08 at cycle  12 NSaved=  12.
 NSaved=12 IEnMin=12 EnMin= -699.722966372292     IErMin=12 ErrMin= 1.72D-08
 ErrMax= 1.72D-08  0.00D+00 EMaxC= 1.00D-01 BMatC= 8.22D-14 BMatP= 3.14D-12
 IDIUse=1 WtCom= 1.00D+00 WtEn= 0.00D+00
 Coeff-Com: -0.575D-06 0.135D-04 0.978D-05-0.210D-04-0.380D-04-0.404D-03
 Coeff-Com: -0.105D-02-0.229D-02-0.189D-02 0.113D-02 0.131D+00 0.874D+00
 Coeff:     -0.575D-06 0.135D-04 0.978D-05-0.210D-04-0.380D-04-0.404D-03
 Coeff:     -0.105D-02-0.229D-02-0.189D-02 0.113D-02 0.131D+00 0.874D+00
 Gap=     0.220 Goal=   None    Shift=    0.000
 RMSDP=6.14D-09 MaxDP=1.10D-07 DE=-4.43D-12 OVMax= 1.49D-07

 SCF Done:  E(RB3LYP) =  -699.722966372     A.U. after   12 cycles
            NFock= 12  Conv=0.61D-08     -V/T= 2.0065
 KE= 6.952376414867D+02 PE=-2.200340447074D+03 EE= 5.382828080133D+02
 Leave Link  502 at Tue Sep 17 19:23:32 2024, MaxMem=   268435456 cpu:        11.3
 (Enter /g100_work/pMI24_ChiCa/g09d1/g09d01/d01/build-node-6-2-59348/src/main/l701.exe)
 Compute integral first derivatives.
 ... and contract with generalized density number  0.
 Leave Link  701 at Tue Sep 17 19:23:32 2024, MaxMem=   268435456 cpu:         1.6
 (Enter /g100_work/pMI24_ChiCa/g09d1/g09d01/d01/build-node-6-2-59348/src/main/l702.exe)
 L702 exits ... SP integral derivatives will be done elsewhere.
 Leave Link  702 at Tue Sep 17 19:23:32 2024, MaxMem=   268435456 cpu:         0.1
 (Enter /g100_work/pMI24_ChiCa/g09d1/g09d01/d01/build-node-6-2-59348/src/main/l703.exe)
 Compute integral first derivatives, UseDBF=F ICtDFT=           0.
 Integral derivatives from FoFJK, PRISM(SPDF).
 Calling FoFJK, ICntrl=      2127 FMM=F ISym2X=0 I1Cent= 0 IOpClX= 0 NMat=1 NMatS=1 NMatT=0.
 FoFJK:  IHMeth= 1 ICntrl=    2127 DoSepK=F KAlg= 0 I1Cent=   0 FoldK=F
 IRaf=         0 NMat=   1 IRICut=       1 DoRegI=T DoRafI=F ISym2E= 0.
 FoFCou: FMM=F IPFlag=           0 FMFlag=      100000 FMFlg1=         800
         NFxFlg=           0 DoJE=F BraDBF=F KetDBF=F FulRan=T
         wScrn=  0.000000 ICntrl=    2127 IOpCl=  0 I1Cent=           0 NGrid=           0
         NMat0=    1 NMatS0=      1 NMatT0=    0 NMatD0=    1 NMtDS0=    0 NMtDT0=    0
 Symmetry not used in FoFCou.
 Leave Link  703 at Tue Sep 17 19:23:33 2024, MaxMem=   268435456 cpu:         6.1
 (Enter /g100_work/pMI24_ChiCa/g09d1/g09d01/d01/build-node-6-2-59348/src/main/l716.exe)
 Dipole        =-1.14695052D+00-2.10031619D-01 7.59770265D-02
 ***** Axes restored to original set *****
 -------------------------------------------------------------------
 Center     Atomic                   Forces (Hartrees/Bohr)
 Number     Number              X              Y              Z
 -------------------------------------------------------------------
      1       16           0.048437044    0.003410988   -0.036544278
      2        8          -0.004822268    0.006586877    0.014144976
      3        8          -0.060988060   -0.000971795    0.014471080
      4        8           0.006295551    0.011509791    0.003152392
      5        8           0.007961938   -0.016289703    0.005889382
      6        1           0.003115796   -0.004246158   -0.001113552
 -------------------------------------------------------------------
 Cartesian Forces:  Max     0.060988060 RMS     0.021685049
 Leave Link  716 at Tue Sep 17 19:23:33 2024, MaxMem=   268435456 cpu:         0.1
 (Enter /g100_work/pMI24_ChiCa/g09d1/g09d01/d01/build-node-6-2-59348/src/main/l103.exe)

 GradGradGradGradGradGradGradGradGradGradGradGradGradGradGradGradGradGrad
 Berny optimization.
 Using GEDIIS/GDIIS optimizer.
 FormGI is forming the generalized inverse of G from B-inverse, IUseBI=4.
 Internal  Forces:  Max     0.062672982 RMS     0.017713592
 Search for a local minimum.
 Step number   2 out of a maximum of   25
 All quantities printed in internal units (Hartrees-Bohrs-Radians)
 RMS Force = .17714D-01 SwitMx=.10000D-02 MixMth= 1
 Mixed Optimization -- RFO/linear search
 Update second derivatives using D2CorX and points    1    2
 DE= -2.65D-02 DEPred=-2.54D-02 R= 1.04D+00
 TightC=F SS=  1.41D+00  RLast= 3.00D-01 DXNew= 5.0454D-01 8.9932D-01
 Trust test= 1.04D+00 RLast= 3.00D-01 DXMaxT set to 5.05D-01
 The second derivative matrix:
                          R1        R2        R3        R4        R5
           R1           0.41394
           R2           0.01605   0.28366
           R3           0.00392  -0.02996   0.72758
           R4           0.00551  -0.04212  -0.00985   0.72074
           R5          -0.00692   0.02140   0.00484   0.00681   0.57745
           A1           0.01424  -0.02777  -0.00608  -0.00856  -0.00607
           A2           0.01346  -0.02410  -0.00524  -0.00737  -0.00637
           A3           0.01564  -0.03294  -0.00726  -0.01023  -0.00595
           A4          -0.01205   0.01328   0.00271   0.00382   0.00812
           A5          -0.01247   0.01805   0.00383   0.00540   0.00715
           A6          -0.01798   0.03023   0.00652   0.00919   0.00908
           A7           0.00256  -0.01012  -0.00232  -0.00326   0.00041
           D1           0.00019   0.00087   0.00021   0.00030  -0.00044
           D2           0.00156   0.00419   0.00106   0.00149  -0.00278
           D3          -0.00190  -0.00475  -0.00121  -0.00170   0.00328
                          A1        A2        A3        A4        A5
           A1           0.27120
           A2           0.02119   0.27111
           A3           0.02197   0.02206   0.27266
           A4          -0.02340  -0.02301  -0.02469   0.27399
           A5          -0.02192  -0.02168  -0.02299   0.02307   0.27197
           A6          -0.02936  -0.02917  -0.03063   0.03153   0.02982
           A7           0.00106   0.00126   0.00088  -0.00210  -0.00167
           D1           0.00094   0.00089   0.00103  -0.00081  -0.00083
           D2           0.00619   0.00591   0.00672  -0.00553  -0.00560
           D3          -0.00735  -0.00702  -0.00798   0.00659   0.00666
                          A6        A7        D1        D2        D3
           A6           0.29024
           A7          -0.00191   0.15959
           D1          -0.00120   0.00016   0.01827
           D2          -0.00795   0.00096   0.00012   0.01914
           D3           0.00945  -0.00113  -0.00014  -0.00107   0.01954
 ITU=  1  0
 Use linear search instead of GDIIS.
     Eigenvalues ---    0.01825   0.15848   0.17565   0.17741   0.24052
     Eigenvalues ---    0.25000   0.25465   0.39524   0.44420   0.58203
     Eigenvalues ---    0.72100   0.73458
 RFO step:  Lambda=-1.13425260D-02 EMin= 1.82529533D-02
 Quartic linear search produced a step of  0.30405.
 Iteration  1 RMS(Cart)=  0.04802956 RMS(Int)=  0.00380969
 Iteration  2 RMS(Cart)=  0.00311272 RMS(Int)=  0.00157137
 Iteration  3 RMS(Cart)=  0.00000295 RMS(Int)=  0.00157137
 Iteration  4 RMS(Cart)=  0.00000001 RMS(Int)=  0.00157137
 ITry= 1 IFail=0 DXMaxC= 1.59D-01 DCOld= 1.00D+10 DXMaxT= 5.05D-01 DXLimC= 3.00D+00 Rises=F
 Variable       Old X    -DE/DX   Delta X   Delta X   Delta X     New X
                                 (Linear)    (Quad)   (Total)
    R1        3.14498   0.01308   0.00244   0.03880   0.04124   3.18622
    R2        2.98080  -0.06267  -0.04748  -0.16552  -0.21300   2.76780
    R3        2.83276  -0.01349  -0.00630  -0.02105  -0.02735   2.80541
    R4        2.82436  -0.01897  -0.00886  -0.02960  -0.03846   2.78590
    R5        1.82206   0.00463   0.00816   0.00653   0.01469   1.83675
    A1        1.80680   0.00061  -0.03157   0.03184  -0.00182   1.80499
    A2        1.82480   0.00004  -0.02890   0.02478  -0.00608   1.81873
    A3        1.78844  -0.00336  -0.03575   0.01440  -0.02345   1.76499
    A4        1.97909  -0.00055   0.02222  -0.01828   0.00116   1.98025
    A5        2.00174   0.00258   0.02489  -0.00214   0.01969   2.02143
    A6        2.02557   0.00005   0.03774  -0.03252   0.00255   2.02813
    A7        1.86988  -0.00486  -0.01239  -0.02228  -0.03467   1.83521
    D1       -1.03298   0.00099   0.00175   0.00769   0.00974  -1.02324
    D2        1.04342   0.00066  -0.00372   0.01137   0.00773   1.05116
    D3       -3.11954  -0.00074   0.00671  -0.00818  -0.00186  -3.12140
         Item               Value     Threshold  Converged?
 Maximum Force            0.062673     0.000450     NO 
 RMS     Force            0.017714     0.000300     NO 
 Maximum Displacement     0.158597     0.001800     NO 
 RMS     Displacement     0.050874     0.001200     NO 
 Predicted change in Energy=-8.671399D-03
 Lowest energy point so far.  Saving SCF results.
 GradGradGradGradGradGradGradGradGradGradGradGradGradGradGradGradGradGrad

 Leave Link  103 at Tue Sep 17 19:23:33 2024, MaxMem=   268435456 cpu:         1.2
 (Enter /g100_work/pMI24_ChiCa/g09d1/g09d01/d01/build-node-6-2-59348/src/main/l202.exe)
                          Input orientation:                          
 ---------------------------------------------------------------------
 Center     Atomic      Atomic             Coordinates (Angstroms)
 Number     Number       Type             X           Y           Z
 ---------------------------------------------------------------------
      1         16           0        0.023807   -0.002431   -0.098611
      2          8           0       -0.001905    0.034550    1.586860
      3          8           0        1.453456   -0.020968   -0.416397
      4          8           0       -0.675282   -1.265169   -0.446009
      5          8           0       -0.689571    1.246649   -0.421491
      6          1           0        0.476070   -0.764486    1.865788
 ---------------------------------------------------------------------
                    Distance matrix (angstroms):
                    1          2          3          4          5
     1  S    0.000000
     2  O    1.686073   0.000000
     3  O    1.464659   2.476731   0.000000
     4  O    1.484561   2.505049   2.465855   0.000000
     5  O    1.474232   2.444493   2.489868   2.511979   0.000000
     6  H    2.155026   0.971966   2.591615   2.630723   3.261139
                    6
     6  H    0.000000
 Stoichiometry    HO4S(1-)
 Framework group  C1[X(HO4S)]
 Deg. of freedom    12
 Full point group                 C1      NOp   1
 RotChk:  IX=1 Diff= 1.32D+00
 Largest Abelian subgroup         C1      NOp   1
 Largest concise Abelian subgroup C1      NOp   1
                         Standard orientation:                         
 ---------------------------------------------------------------------
 Center     Atomic      Atomic             Coordinates (Angstroms)
 Number     Number       Type             X           Y           Z
 ---------------------------------------------------------------------
      1         16           0        0.150789    0.032296   -0.014165
      2          8           0       -1.425790   -0.533263    0.179187
      3          8           0        0.158193    0.557494   -1.381403
      4          8           0        0.290286    1.084407    1.023873
      5          8           0        0.924949   -1.203334    0.203215
      6          1           0       -1.993716    0.240831    0.027670
 ---------------------------------------------------------------------
 Rotational constants (GHZ):      5.0605577      4.9890421      4.8490501
 Leave Link  202 at Tue Sep 17 19:23:33 2024, MaxMem=   268435456 cpu:         0.1
 (Enter /g100_work/pMI24_ChiCa/g09d1/g09d01/d01/build-node-6-2-59348/src/main/l301.exe)
 Standard basis: 6-31+G(d,p) (6D, 7F)
 Ernie: Thresh=  0.10000D-02 Tol=  0.10000D-05 Strict=F.
 There are   104 symmetry adapted cartesian basis functions of A   symmetry.
 There are   104 symmetry adapted basis functions of A   symmetry.
   104 basis functions,   191 primitive gaussians,   104 cartesian basis functions
    25 alpha electrons       25 beta electrons
       nuclear repulsion energy       272.6834620126 Hartrees.
 IExCor=  402 DFT=T Ex+Corr=B3LYP ExCW=0 ScaHFX=  0.200000
 ScaDFX=  0.800000  0.720000  1.000000  0.810000 ScalE2=  1.000000  1.000000
 IRadAn=      0 IRanWt=     -1 IRanGd=            0 ICorTp=0 IEmpDi=  4
 NAtoms=    6 NActive=    6 NUniq=    6 SFac= 1.00D+00 NAtFMM=   60 NAOKFM=F Big=F
 Integral buffers will be    131072 words long.
 Raffenetti 2 integral format.
 Two-electron integral symmetry is turned on.
 Leave Link  301 at Tue Sep 17 19:23:33 2024, MaxMem=   268435456 cpu:         0.1
 (Enter /g100_work/pMI24_ChiCa/g09d1/g09d01/d01/build-node-6-2-59348/src/main/l302.exe)
 NPDir=0 NMtPBC=     1 NCelOv=     1 NCel=       1 NClECP=     1 NCelD=      1
         NCelK=      1 NCelE2=     1 NClLst=     1 CellRange=     0.0.
 One-electron integrals computed using PRISM.
 NBasis=   104 RedAO= T EigKep=  1.75D-03  NBF=   104
 NBsUse=   104 1.00D-06 EigRej= -1.00D+00 NBFU=   104
 Precomputing XC quadrature grid using
 IXCGrd= 4 IRadAn=           0 IRanWt=          -1 IRanGd=           0 AccXCQ= 0.00D+00.
 Generated NRdTot=       0 NPtTot=           0 NUsed=           0 NTot=          32
 NSgBfM=   104   104   104   104   104 MxSgAt=     6 MxSgA2=     6.
 Leave Link  302 at Tue Sep 17 19:23:33 2024, MaxMem=   268435456 cpu:         1.3
 (Enter /g100_work/pMI24_ChiCa/g09d1/g09d01/d01/build-node-6-2-59348/src/main/l303.exe)
 DipDrv:  MaxL=1.
 Leave Link  303 at Tue Sep 17 19:23:33 2024, MaxMem=   268435456 cpu:         0.2
 (Enter /g100_work/pMI24_ChiCa/g09d1/g09d01/d01/build-node-6-2-59348/src/main/l401.exe)
 Initial guess from the checkpoint file:  "/g100_scratch/userexternal/ecabiati/g16_14420020/Gau-43686.chk"
 B after Tr=     0.000000   -0.000000    0.000000
         Rot=    0.883795    0.460652   -0.035740    0.073680 Ang=  55.79 deg.
 Guess basis will be translated and rotated to current coordinates.
 JPrj=2 DoOrth=T DoCkMO=T.
 Generating alternative initial guess.
 ExpMin= 4.05D-02 ExpMax= 2.19D+04 ExpMxC= 3.30D+03 IAcc=2 IRadAn=         4 AccDes= 0.00D+00
 Harris functional with IExCor=  402 and IRadAn=       4 diagonalized for initial guess.
 HarFok:  IExCor=  402 AccDes= 0.00D+00 IRadAn=         4 IDoV= 1 UseB2=F ITyADJ=14
 ICtDFT=  3500011 ScaDFX=  1.000000  1.000000  1.000000  1.000000
 FoFCou: FMM=F IPFlag=           0 FMFlag=      100000 FMFlg1=           0
         NFxFlg=           0 DoJE=T BraDBF=F KetDBF=T FulRan=T
         wScrn=  0.000000 ICntrl=     500 IOpCl=  0 I1Cent=   200000004 NGrid=           0
         NMat0=    1 NMatS0=      1 NMatT0=    0 NMatD0=    1 NMtDS0=    0 NMtDT0=    0
 Petite list used in FoFCou.
 Harris En= -699.928206499632    
 Leave Link  401 at Tue Sep 17 19:23:33 2024, MaxMem=   268435456 cpu:         2.0
 (Enter /g100_work/pMI24_ChiCa/g09d1/g09d01/d01/build-node-6-2-59348/src/main/l502.exe)
 Closed shell SCF:
 Using DIIS extrapolation, IDIIS=  1040.
 Integral symmetry usage will be decided dynamically.
 Keep R1 ints in memory in canonical form, NReq=15889713.
 IVT=       54263 IEndB=       54263 NGot=   268435456 MDV=   253472664
 LenX=   253472664 LenY=   253461407
 Requested convergence on RMS density matrix=1.00D-08 within 128 cycles.
 Requested convergence on MAX density matrix=1.00D-06.
 Requested convergence on             energy=1.00D-06.
 No special actions if energy rises.
 FoFCou: FMM=F IPFlag=           0 FMFlag=           0 FMFlg1=           0
         NFxFlg=           0 DoJE=F BraDBF=F KetDBF=F FulRan=T
         wScrn=  0.000000 ICntrl=     600 IOpCl=  0 I1Cent=           0 NGrid=           0
         NMat0=    1 NMatS0=   5460 NMatT0=    0 NMatD0=    1 NMtDS0=    0 NMtDT0=    0
 Symmetry not used in FoFCou.

 Cycle   1  Pass 1  IDiag  1:
 E= -699.720298954818    
 DIIS: error= 4.99D-03 at cycle   1 NSaved=   1.
 NSaved= 1 IEnMin= 1 EnMin= -699.720298954818     IErMin= 1 ErrMin= 4.99D-03
 ErrMax= 4.99D-03  0.00D+00 EMaxC= 1.00D-01 BMatC= 6.23D-03 BMatP= 6.23D-03
 IDIUse=3 WtCom= 9.50D-01 WtEn= 4.99D-02
 Coeff-Com:  0.100D+01
 Coeff-En:   0.100D+01
 Coeff:      0.100D+01
 Gap=     0.665 Goal=   None    Shift=    0.000
 GapD=    0.665 DampG=2.000 DampE=1.000 DampFc=2.0000 IDamp=-1.
 RMSDP=2.13D-03 MaxDP=3.26D-02              OVMax= 2.81D-02

 Cycle   2  Pass 1  IDiag  1:
 E= -699.726815072269     Delta-E=       -0.006516117451 Rises=F Damp=F
 DIIS: error= 3.51D-03 at cycle   2 NSaved=   2.
 NSaved= 2 IEnMin= 2 EnMin= -699.726815072269     IErMin= 2 ErrMin= 3.51D-03
 ErrMax= 3.51D-03  0.00D+00 EMaxC= 1.00D-01 BMatC= 3.41D-03 BMatP= 6.23D-03
 IDIUse=3 WtCom= 9.65D-01 WtEn= 3.51D-02
 Coeff-Com:  0.392D+00 0.608D+00
 Coeff-En:   0.000D+00 0.100D+01
 Coeff:      0.379D+00 0.621D+00
 Gap=     0.223 Goal=   None    Shift=    0.000
 RMSDP=8.71D-04 MaxDP=2.14D-02 DE=-6.52D-03 OVMax= 2.43D-02

 Cycle   3  Pass 1  IDiag  1:
 E= -699.727329783676     Delta-E=       -0.000514711407 Rises=F Damp=F
 DIIS: error= 2.94D-03 at cycle   3 NSaved=   3.
 NSaved= 3 IEnMin= 3 EnMin= -699.727329783676     IErMin= 3 ErrMin= 2.94D-03
 ErrMax= 2.94D-03  0.00D+00 EMaxC= 1.00D-01 BMatC= 2.60D-03 BMatP= 3.41D-03
 IDIUse=3 WtCom= 9.71D-01 WtEn= 2.94D-02
 Coeff-Com:  0.144D-01 0.462D+00 0.523D+00
 Coeff-En:   0.000D+00 0.455D+00 0.545D+00
 Coeff:      0.140D-01 0.462D+00 0.524D+00
 Gap=     0.225 Goal=   None    Shift=    0.000
 RMSDP=5.24D-04 MaxDP=9.72D-03 DE=-5.15D-04 OVMax= 1.07D-02

 Cycle   4  Pass 1  IDiag  1:
 E= -699.729259620628     Delta-E=       -0.001929836951 Rises=F Damp=F
 DIIS: error= 4.62D-04 at cycle   4 NSaved=   4.
 NSaved= 4 IEnMin= 4 EnMin= -699.729259620628     IErMin= 4 ErrMin= 4.62D-04
 ErrMax= 4.62D-04  0.00D+00 EMaxC= 1.00D-01 BMatC= 6.73D-05 BMatP= 2.60D-03
 IDIUse=3 WtCom= 9.95D-01 WtEn= 4.62D-03
 Coeff-Com: -0.139D-01 0.174D+00 0.256D+00 0.584D+00
 Coeff-En:   0.000D+00 0.000D+00 0.000D+00 0.100D+01
 Coeff:     -0.139D-01 0.173D+00 0.255D+00 0.586D+00
 Gap=     0.226 Goal=   None    Shift=    0.000
 RMSDP=9.88D-05 MaxDP=1.74D-03 DE=-1.93D-03 OVMax= 1.87D-03

 Cycle   5  Pass 1  IDiag  1:
 E= -699.729309339452     Delta-E=       -0.000049718824 Rises=F Damp=F
 DIIS: error= 2.71D-04 at cycle   5 NSaved=   5.
 NSaved= 5 IEnMin= 5 EnMin= -699.729309339452     IErMin= 5 ErrMin= 2.71D-04
 ErrMax= 2.71D-04  0.00D+00 EMaxC= 1.00D-01 BMatC= 8.85D-06 BMatP= 6.73D-05
 IDIUse=3 WtCom= 9.97D-01 WtEn= 2.71D-03
 Coeff-Com: -0.863D-02 0.636D-01 0.111D+00 0.338D+00 0.496D+00
 Coeff-En:   0.000D+00 0.000D+00 0.000D+00 0.000D+00 0.100D+01
 Coeff:     -0.860D-02 0.634D-01 0.110D+00 0.337D+00 0.498D+00
 Gap=     0.226 Goal=   None    Shift=    0.000
 RMSDP=3.15D-05 MaxDP=5.01D-04 DE=-4.97D-05 OVMax= 8.95D-04

 Cycle   6  Pass 1  IDiag  1:
 E= -699.729315331316     Delta-E=       -0.000005991864 Rises=F Damp=F
 DIIS: error= 6.16D-05 at cycle   6 NSaved=   6.
 NSaved= 6 IEnMin= 6 EnMin= -699.729315331316     IErMin= 6 ErrMin= 6.16D-05
 ErrMax= 6.16D-05  0.00D+00 EMaxC= 1.00D-01 BMatC= 1.05D-06 BMatP= 8.85D-06
 IDIUse=1 WtCom= 1.00D+00 WtEn= 0.00D+00
 Coeff-Com: -0.310D-02 0.171D-01 0.363D-01 0.132D+00 0.301D+00 0.517D+00
 Coeff:     -0.310D-02 0.171D-01 0.363D-01 0.132D+00 0.301D+00 0.517D+00
 Gap=     0.226 Goal=   None    Shift=    0.000
 RMSDP=1.11D-05 MaxDP=3.24D-04 DE=-5.99D-06 OVMax= 2.08D-04

 Cycle   7  Pass 1  IDiag  1:
 E= -699.729316145179     Delta-E=       -0.000000813863 Rises=F Damp=F
 DIIS: error= 8.54D-06 at cycle   7 NSaved=   7.
 NSaved= 7 IEnMin= 7 EnMin= -699.729316145179     IErMin= 7 ErrMin= 8.54D-06
 ErrMax= 8.54D-06  0.00D+00 EMaxC= 1.00D-01 BMatC= 2.00D-08 BMatP= 1.05D-06
 IDIUse=1 WtCom= 1.00D+00 WtEn= 0.00D+00
 Coeff-Com: -0.714D-04-0.194D-02-0.133D-02 0.355D-02 0.369D-01 0.158D+00
 Coeff-Com:  0.805D+00
 Coeff:     -0.714D-04-0.194D-02-0.133D-02 0.355D-02 0.369D-01 0.158D+00
 Coeff:      0.805D+00
 Gap=     0.226 Goal=   None    Shift=    0.000
 RMSDP=1.93D-06 MaxDP=4.02D-05 DE=-8.14D-07 OVMax= 3.20D-05

 Cycle   8  Pass 1  IDiag  1:
 E= -699.729316161800     Delta-E=       -0.000000016621 Rises=F Damp=F
 DIIS: error= 2.78D-06 at cycle   8 NSaved=   8.
 NSaved= 8 IEnMin= 8 EnMin= -699.729316161800     IErMin= 8 ErrMin= 2.78D-06
 ErrMax= 2.78D-06  0.00D+00 EMaxC= 1.00D-01 BMatC= 1.54D-09 BMatP= 2.00D-08
 IDIUse=1 WtCom= 1.00D+00 WtEn= 0.00D+00
 Coeff-Com:  0.210D-04-0.120D-02-0.140D-02-0.599D-03 0.120D-01 0.652D-01
 Coeff-Com:  0.375D+00 0.551D+00
 Coeff:      0.210D-04-0.120D-02-0.140D-02-0.599D-03 0.120D-01 0.652D-01
 Coeff:      0.375D+00 0.551D+00
 Gap=     0.226 Goal=   None    Shift=    0.000
 RMSDP=5.99D-07 MaxDP=8.48D-06 DE=-1.66D-08 OVMax= 1.36D-05

 Cycle   9  Pass 1  IDiag  1:
 E= -699.729316162538     Delta-E=       -0.000000000738 Rises=F Damp=F
 DIIS: error= 2.44D-06 at cycle   9 NSaved=   9.
 NSaved= 9 IEnMin= 9 EnMin= -699.729316162538     IErMin= 9 ErrMin= 2.44D-06
 ErrMax= 2.44D-06  0.00D+00 EMaxC= 1.00D-01 BMatC= 6.75D-10 BMatP= 1.54D-09
 IDIUse=1 WtCom= 1.00D+00 WtEn= 0.00D+00
 Coeff-Com:  0.303D-04-0.486D-03-0.800D-03-0.118D-02 0.131D-02 0.160D-01
 Coeff-Com:  0.113D+00 0.402D+00 0.470D+00
 Coeff:      0.303D-04-0.486D-03-0.800D-03-0.118D-02 0.131D-02 0.160D-01
 Coeff:      0.113D+00 0.402D+00 0.470D+00
 Gap=     0.226 Goal=   None    Shift=    0.000
 RMSDP=2.56D-07 MaxDP=4.14D-06 DE=-7.38D-10 OVMax= 5.41D-06

 Cycle  10  Pass 1  IDiag  1:
 E= -699.729316163047     Delta-E=       -0.000000000509 Rises=F Damp=F
 DIIS: error= 1.10D-07 at cycle  10 NSaved=  10.
 NSaved=10 IEnMin=10 EnMin= -699.729316163047     IErMin=10 ErrMin= 1.10D-07
 ErrMax= 1.10D-07  0.00D+00 EMaxC= 1.00D-01 BMatC= 4.70D-12 BMatP= 6.75D-10
 IDIUse=1 WtCom= 1.00D+00 WtEn= 0.00D+00
 Coeff-Com:  0.671D-05-0.474D-04-0.128D-03-0.298D-03-0.522D-03-0.503D-03
 Coeff-Com:  0.271D-02 0.704D-01 0.128D+00 0.800D+00
 Coeff:      0.671D-05-0.474D-04-0.128D-03-0.298D-03-0.522D-03-0.503D-03
 Coeff:      0.271D-02 0.704D-01 0.128D+00 0.800D+00
 Gap=     0.226 Goal=   None    Shift=    0.000
 RMSDP=3.32D-08 MaxDP=4.43D-07 DE=-5.09D-10 OVMax= 4.76D-07

 Cycle  11  Pass 1  IDiag  1:
 E= -699.729316163060     Delta-E=       -0.000000000013 Rises=F Damp=F
 DIIS: error= 5.19D-08 at cycle  11 NSaved=  11.
 NSaved=11 IEnMin=11 EnMin= -699.729316163060     IErMin=11 ErrMin= 5.19D-08
 ErrMax= 5.19D-08  0.00D+00 EMaxC= 1.00D-01 BMatC= 5.09D-13 BMatP= 4.70D-12
 IDIUse=1 WtCom= 1.00D+00 WtEn= 0.00D+00
 Coeff-Com:  0.248D-05-0.654D-05-0.330D-04-0.107D-03-0.296D-03-0.782D-03
 Coeff-Com: -0.238D-02 0.199D-01 0.443D-01 0.358D+00 0.581D+00
 Coeff:      0.248D-05-0.654D-05-0.330D-04-0.107D-03-0.296D-03-0.782D-03
 Coeff:     -0.238D-02 0.199D-01 0.443D-01 0.358D+00 0.581D+00
 Gap=     0.226 Goal=   None    Shift=    0.000
 RMSDP=8.64D-09 MaxDP=3.12D-07 DE=-1.32D-11 OVMax= 1.56D-07

 SCF Done:  E(RB3LYP) =  -699.729316163     A.U. after   11 cycles
            NFock= 11  Conv=0.86D-08     -V/T= 2.0060
 KE= 6.955629686868D+02 PE=-2.211905447752D+03 EE= 5.439297008891D+02
 Leave Link  502 at Tue Sep 17 19:23:34 2024, MaxMem=   268435456 cpu:        10.5
 (Enter /g100_work/pMI24_ChiCa/g09d1/g09d01/d01/build-node-6-2-59348/src/main/l701.exe)
 Compute integral first derivatives.
 ... and contract with generalized density number  0.
 Leave Link  701 at Tue Sep 17 19:23:34 2024, MaxMem=   268435456 cpu:         1.5
 (Enter /g100_work/pMI24_ChiCa/g09d1/g09d01/d01/build-node-6-2-59348/src/main/l702.exe)
 L702 exits ... SP integral derivatives will be done elsewhere.
 Leave Link  702 at Tue Sep 17 19:23:34 2024, MaxMem=   268435456 cpu:         0.1
 (Enter /g100_work/pMI24_ChiCa/g09d1/g09d01/d01/build-node-6-2-59348/src/main/l703.exe)
 Compute integral first derivatives, UseDBF=F ICtDFT=           0.
 Integral derivatives from FoFJK, PRISM(SPDF).
 Calling FoFJK, ICntrl=      2127 FMM=F ISym2X=0 I1Cent= 0 IOpClX= 0 NMat=1 NMatS=1 NMatT=0.
 FoFJK:  IHMeth= 1 ICntrl=    2127 DoSepK=F KAlg= 0 I1Cent=   0 FoldK=F
 IRaf=         0 NMat=   1 IRICut=       1 DoRegI=T DoRafI=F ISym2E= 0.
 FoFCou: FMM=F IPFlag=           0 FMFlag=      100000 FMFlg1=         800
         NFxFlg=           0 DoJE=F BraDBF=F KetDBF=F FulRan=T
         wScrn=  0.000000 ICntrl=    2127 IOpCl=  0 I1Cent=           0 NGrid=           0
         NMat0=    1 NMatS0=      1 NMatT0=    0 NMatD0=    1 NMtDS0=    0 NMtDT0=    0
 Symmetry not used in FoFCou.
 Leave Link  703 at Tue Sep 17 19:23:35 2024, MaxMem=   268435456 cpu:         6.0
 (Enter /g100_work/pMI24_ChiCa/g09d1/g09d01/d01/build-node-6-2-59348/src/main/l716.exe)
 Dipole        =-1.00243592D+00 2.42933327D-01-4.22257373D-02
 ***** Axes restored to original set *****
 -------------------------------------------------------------------
 Center     Atomic                   Forces (Hartrees/Bohr)
 Number     Number              X              Y              Z
 -------------------------------------------------------------------
      1       16          -0.016016140    0.000180998    0.000250671
      2        8           0.000058463   -0.003002196    0.011612924
      3        8           0.023529680    0.000078313   -0.007236388
      4        8          -0.003176276   -0.001775391   -0.001239204
      5        8          -0.002862820    0.002062314   -0.002557909
      6        1          -0.001532907    0.002455963   -0.000830095
 -------------------------------------------------------------------
 Cartesian Forces:  Max     0.023529680 RMS     0.007635243
 Leave Link  716 at Tue Sep 17 19:23:35 2024, MaxMem=   268435456 cpu:         0.1
 (Enter /g100_work/pMI24_ChiCa/g09d1/g09d01/d01/build-node-6-2-59348/src/main/l103.exe)

 GradGradGradGradGradGradGradGradGradGradGradGradGradGradGradGradGradGrad
 Berny optimization.
 Using GEDIIS/GDIIS optimizer.
 FormGI is forming the generalized inverse of G from B-inverse, IUseBI=4.
 Internal  Forces:  Max     0.024533306 RMS     0.007338113
 Search for a local minimum.
 Step number   3 out of a maximum of   25
 All quantities printed in internal units (Hartrees-Bohrs-Radians)
 RMS Force = .73381D-02 SwitMx=.10000D-02 MixMth= 1
 Mixed Optimization -- RFO/linear search
 Update second derivatives using D2CorX and points    1    2    3
 DE= -6.35D-03 DEPred=-8.67D-03 R= 7.32D-01
 TightC=F SS=  1.41D+00  RLast= 2.28D-01 DXNew= 8.4853D-01 6.8317D-01
 Trust test= 7.32D-01 RLast= 2.28D-01 DXMaxT set to 6.83D-01
 The second derivative matrix:
                          R1        R2        R3        R4        R5
           R1           0.41010
           R2           0.05691   0.42611
           R3           0.01276  -0.01004   0.72971
           R4           0.01778  -0.01799  -0.00759   0.72291
           R5          -0.01222   0.00297   0.00237   0.00387   0.57941
           A1           0.01865   0.01355   0.00097   0.00062  -0.01051
           A2           0.01758  -0.00957  -0.00345  -0.00532  -0.00721
           A3           0.02252   0.00006  -0.00240  -0.00419  -0.00914
           A4          -0.01634   0.00570   0.00232   0.00367   0.00809
           A5          -0.01892   0.00614   0.00302   0.00482   0.00769
           A6          -0.02396  -0.01097  -0.00010   0.00071   0.01316
           A7           0.00554  -0.00199  -0.00135  -0.00216  -0.00050
           D1           0.00012  -0.00413  -0.00077  -0.00104   0.00026
           D2           0.00299   0.00398   0.00069   0.00087  -0.00258
           D3          -0.00358  -0.00283  -0.00044  -0.00051   0.00281
                          A1        A2        A3        A4        A5
           A1           0.27765
           A2           0.02314   0.27004
           A3           0.02798   0.02277   0.27713
           A4          -0.02444  -0.02132  -0.02423   0.27171
           A5          -0.02467  -0.02045  -0.02371   0.02091   0.27003
           A6          -0.03581  -0.03028  -0.03602   0.03154   0.03145
           A7           0.00343   0.00175   0.00252  -0.00211  -0.00189
           D1           0.00003   0.00025  -0.00004  -0.00023  -0.00002
           D2           0.00647   0.00548   0.00649  -0.00491  -0.00489
           D3          -0.00739  -0.00631  -0.00736   0.00567   0.00556
                          A6        A7        D1        D2        D3
           A6           0.29627
           A7          -0.00409   0.15998
           D1          -0.00010  -0.00020   0.01831
           D2          -0.00795   0.00083  -0.00003   0.01893
           D3           0.00910  -0.00086   0.00002  -0.00077   0.01914
 ITU=  1  1  0
 Use linear search instead of GDIIS.
     Eigenvalues ---    0.01826   0.15951   0.17656   0.17830   0.24910
     Eigenvalues ---    0.25036   0.34003   0.41021   0.48966   0.58462
     Eigenvalues ---    0.72077   0.73464
 RFO step:  Lambda=-5.02763453D-04 EMin= 1.82591948D-02
 Quartic linear search produced a step of -0.19257.
 Iteration  1 RMS(Cart)=  0.01595352 RMS(Int)=  0.00006058
 Iteration  2 RMS(Cart)=  0.00007972 RMS(Int)=  0.00001778
 Iteration  3 RMS(Cart)=  0.00000001 RMS(Int)=  0.00001778
 ITry= 1 IFail=0 DXMaxC= 3.94D-02 DCOld= 1.00D+10 DXMaxT= 6.83D-01 DXLimC= 3.00D+00 Rises=F
 Variable       Old X    -DE/DX   Delta X   Delta X   Delta X     New X
                                 (Linear)    (Quad)   (Total)
    R1        3.18622   0.01078  -0.00794   0.02907   0.02113   3.20734
[...]
 Vibration     3          0.760              1.485              0.988
 Vibration     4          0.862              1.235              0.641
 Vibration     5          0.876              1.204              0.609
 Vibration     6          0.888              1.177              0.581
                       Q            Log10(Q)             Ln(Q)
 Total Bot       0.307281D+02          1.487535          3.425177
 Total V=0       0.262674D+14         13.419416         30.899348
 Vib (Bot)       0.101552D-10        -10.993313        -25.313039
 Vib (Bot)    1  0.393636D+01          0.595095          1.370257
 Vib (Bot)    2  0.503132D+00         -0.298318         -0.686903
 Vib (Bot)    3  0.455592D+00         -0.341424         -0.786157
 Vib (Bot)    4  0.322281D+00         -0.491766         -1.132332
 Vib (Bot)    5  0.309868D+00         -0.508824         -1.171610
 Vib (Bot)    6  0.299228D+00         -0.523998         -1.206551
 Vib (V=0)       0.868096D+01          0.938568          2.161132
 Vib (V=0)    1  0.446799D+01          0.650112          1.496938
 Vib (V=0)    2  0.120932D+01          0.082543          0.190062
 Vib (V=0)    3  0.117644D+01          0.070568          0.162489
 Vib (V=0)    4  0.109487D+01          0.039361          0.090632
 Vib (V=0)    5  0.108823D+01          0.036722          0.084555
 Vib (V=0)    6  0.108270D+01          0.034507          0.079456
 Electronic      0.100000D+01          0.000000          0.000000
 Translational   0.375268D+08          7.574341         17.440565
 Rotational      0.806320D+05          4.906508         11.297651
 
                                                              h04s- gas
                                                             IR Spectrum
 
     3                                                                                     1 1 1                                     
     8                                                                                     2 1 1    9         6   555  33            
     0                                                                                     4 8 1    8         8   320  96          5 
     6                                                                                     5 4 3    8         1   317  33          3 
 
     X                                                                                     X X X    X         X   XXX  XX          X 
                                                                                           X X X    X         X   X                X 
                                                                                           X X X    X         X                    X 
                                                                                           X X X    X         X                    X 
                                                                                           X X X    X         X                      
                                                                                           X X                X                      
                                                                                           X X                X                      
                                                                                           X X                X                      
                                                                                           X X                X                      
                                                                                           X X                X                      
                                                                                           X X                X                      
                                                                                           X X                X                      
                                                                                           X X                X                      
                                                                                           X X                X                      
                                                                                           X X                                       
                                                                                           X X                                       
                                                                                           X X                                       
                                                                                             X                                       
                                                                                             X                                       
                                                                                             X                                       
 
 ***** Axes restored to original set *****
 -------------------------------------------------------------------
 Center     Atomic                   Forces (Hartrees/Bohr)
 Number     Number              X              Y              Z
 -------------------------------------------------------------------
      1       16          -0.000150575    0.000079812    0.000076017
      2        8          -0.000143048    0.000262692   -0.000530765
      3        8          -0.000225438   -0.000176452    0.000109669
      4        8           0.000325506    0.000200193    0.000137066
      5        8          -0.000002069   -0.000019605    0.000084869
      6        1           0.000195623   -0.000346640    0.000123144
 -------------------------------------------------------------------
 Cartesian Forces:  Max     0.000530765 RMS     0.000216793
 Force constants in Cartesian coordinates: 
                1             2             3             4             5 
      1  0.865796D+00
      2 -0.329052D-01  0.903085D+00
      3  0.122351D-01 -0.126763D-01  0.433810D+00
      4 -0.692412D-01  0.748432D-02 -0.307946D-02  0.187514D+00
      5  0.736781D-02 -0.765226D-01  0.513745D-02 -0.221677D+00  0.412539D+00
      6  0.140754D-01 -0.222839D-01 -0.117296D+00  0.563633D-01 -0.933135D-01
      7 -0.440838D+00  0.392382D-02  0.771409D-01  0.986938D-03  0.435518D-04
      8  0.229279D-02 -0.924275D-01  0.122731D-02  0.175406D-03  0.131884D-01
      9  0.773660D-01  0.140057D-02 -0.100161D+00  0.337159D-01  0.555941D-03
     10 -0.176283D+00 -0.149336D+00 -0.420346D-01  0.103902D-01 -0.481599D-02
     11 -0.147632D+00 -0.356085D+00 -0.704530D-01 -0.508629D-02  0.456660D-02
     12 -0.422571D-01 -0.706773D-01 -0.102194D+00 -0.168816D-01 -0.285281D-01
     13 -0.184892D+00  0.165051D+00 -0.431027D-01  0.465158D-02  0.758174D-02
     14  0.164915D+00 -0.376860D+00  0.746703D-01  0.805916D-02 -0.443669D-02
     15 -0.390820D-01  0.678019D-01 -0.100189D+00 -0.194766D-01  0.331866D-01
     16  0.545821D-02  0.578151D-02 -0.115930D-02 -0.134301D+00  0.211500D+00
     17  0.596163D-02 -0.118964D-02  0.209430D-02  0.211044D+00 -0.349334D+00
     18 -0.223374D-01  0.364351D-01 -0.139700D-01 -0.506416D-01  0.829617D-01
                6             7             8             9            10 
      6  0.232939D+00
      7  0.105807D-01  0.485445D+00
      8  0.726714D-03 -0.127419D-02  0.687504D-01
      9 -0.189245D-01 -0.994142D-01  0.246247D-02  0.803918D-01
     10 -0.560314D-02 -0.221852D-01 -0.374807D-01 -0.552385D-02  0.170960D+00
     11 -0.846532D-02 -0.968293D-02  0.519484D-02 -0.396665D-02  0.178530D+00
     12 -0.191956D-01  0.555672D-02  0.218052D-02  0.185309D-01  0.503713D-01
     13 -0.361107D-02 -0.194372D-01  0.360861D-01 -0.583009D-02  0.179568D-01
     14  0.611843D-02  0.754323D-02  0.508802D-02  0.330061D-02  0.145356D-01
     15 -0.876764D-02  0.502260D-02 -0.262439D-02  0.166863D-01 -0.133560D-03
     16 -0.718052D-01 -0.397137D-02  0.200574D-03 -0.313709D-03 -0.838707D-03
     17  0.117218D+00 -0.553480D-03  0.205755D-03 -0.375294D-02 -0.143331D-02
     18 -0.687556D-01  0.111337D-02 -0.397263D-02  0.347645D-02  0.292379D-02
               11            12            13            14            15 
     11  0.381582D+00
     12  0.920261D-01  0.830334D-01
     13 -0.139088D-01 -0.683578D-04  0.179451D+00
     14 -0.323945D-01  0.648874D-02 -0.193259D+00  0.404612D+00
     15 -0.619614D-02  0.167451D-01  0.531834D-01 -0.919153D-01  0.839417D-01
     16 -0.222016D-02  0.327899D-02  0.227019D-02 -0.179383D-02  0.486137D-03
     17 -0.286458D-02 -0.148987D-02 -0.155126D-02  0.399155D-02 -0.252568D-03
     18 -0.294497D-02  0.308019D-02 -0.571205D-03  0.133732D-02 -0.841630D-02
               16            17            18 
     16  0.131383D+00
     17 -0.213468D+00  0.349191D+00
     18  0.695131D-01 -0.113817D+00  0.845853D-01
 FormGI is forming the generalized inverse of G from B-inverse, IUseBI=4.
 Force constants in internal coordinates: 
                1             2             3             4             5 
      1  0.179626D+00
      2  0.150406D-01  0.508511D+00
      3  0.148021D-01  0.165255D-01  0.509329D+00
      4  0.118337D-01  0.140399D-01  0.141706D-01  0.540415D+00
      5  0.887723D-04 -0.205072D-02 -0.197268D-02 -0.386229D-02  0.520525D+00
      6  0.231052D-01  0.151754D-01 -0.150472D-01 -0.142773D-01 -0.863105D-02
      7  0.236229D-01 -0.151085D-01  0.143054D-01 -0.142932D-01 -0.815948D-02
      8  0.272959D-01 -0.141252D-01 -0.139887D-01  0.130327D-01  0.926239D-02
      9 -0.217925D-01  0.139321D-01  0.139673D-01 -0.121369D-01  0.134334D-02
     10 -0.159834D-01  0.902307D-02 -0.126267D-01  0.117156D-01  0.203381D-02
     11 -0.162313D-01 -0.127430D-01  0.933690D-02  0.118253D-01  0.202778D-02
     12  0.284417D-01  0.178774D-02  0.171800D-02  0.824581D-02  0.165524D-01
     13  0.225780D-02 -0.370229D-02 -0.116429D-01  0.126797D-01  0.279601D-02
     14 -0.231020D-02  0.118560D-01  0.356278D-02 -0.128618D-01 -0.278238D-02
     15 -0.794841D-05 -0.136688D-01  0.135869D-01 -0.166518D-04  0.103092D-03
                6             7             8             9            10 
      6  0.288963D+00
      7  0.257497D-01  0.288016D+00
      8  0.134704D-01  0.135571D-01  0.295597D+00
      9 -0.865117D-01 -0.859033D-01 -0.734524D-01  0.166415D+00
     10 -0.774465D-01 -0.746800D-01 -0.814348D-01  0.584439D-02  0.159326D+00
     11 -0.747342D-01 -0.774823D-01 -0.822387D-01  0.573121D-02  0.611952D-02
     12 -0.166310D-01 -0.144082D-01  0.385905D-01 -0.794481D-02  0.105981D-02
     13  0.242872D-02 -0.386091D-01  0.348766D-01 -0.563408D-01  0.556517D-01
     14  0.389517D-01 -0.225801D-02 -0.354787D-01  0.562223D-01 -0.192907D-02
     15 -0.278511D-01  0.280952D-01 -0.267132D-03 -0.198827D-03 -0.568895D-01
               11            12            13            14            15 
     11  0.159926D+00
     12  0.115676D-02  0.147977D+00
     13  0.213366D-02  0.108900D-01  0.517693D-01
     14 -0.556063D-01 -0.110282D-01 -0.261343D-01  0.519240D-01
     15  0.570459D-01  0.460179D-03 -0.243258D-01 -0.244922D-01  0.488113D-01
 Leave Link  716 at Tue Sep 17 19:23:48 2024, MaxMem=   268435456 cpu:         0.2
 (Enter /g100_work/pMI24_ChiCa/g09d1/g09d01/d01/build-node-6-2-59348/src/main/l103.exe)

 GradGradGradGradGradGradGradGradGradGradGradGradGradGradGradGradGradGrad
 Berny optimization.
 Red2BG is reusing G-inverse.
 Internal  Forces:  Max     0.000407376 RMS     0.000221892
 Search for a local minimum.
 Step number   1 out of a maximum of    2
 All quantities printed in internal units (Hartrees-Bohrs-Radians)
 Second derivative matrix not updated -- analytic derivatives used.
 The second derivative matrix:
                          R1        R2        R3        R4        R5
           R1           0.17963
           R2           0.01504   0.50851
           R3           0.01480   0.01653   0.50933
           R4           0.01183   0.01404   0.01417   0.54042
           R5           0.00009  -0.00205  -0.00197  -0.00386   0.52052
           A1           0.02311   0.01518  -0.01505  -0.01428  -0.00863
           A2           0.02362  -0.01511   0.01431  -0.01429  -0.00816
           A3           0.02730  -0.01413  -0.01399   0.01303   0.00926
           A4          -0.02179   0.01393   0.01397  -0.01214   0.00134
           A5          -0.01598   0.00902  -0.01263   0.01172   0.00203
           A6          -0.01623  -0.01274   0.00934   0.01183   0.00203
           A7           0.02844   0.00179   0.00172   0.00825   0.01655
           D1           0.00226  -0.00370  -0.01164   0.01268   0.00280
           D2          -0.00231   0.01186   0.00356  -0.01286  -0.00278
           D3          -0.00001  -0.01367   0.01359  -0.00002   0.00010
                          A1        A2        A3        A4        A5
           A1           0.28896
           A2           0.02575   0.28802
           A3           0.01347   0.01356   0.29560
           A4          -0.08651  -0.08590  -0.07345   0.16641
           A5          -0.07745  -0.07468  -0.08143   0.00584   0.15933
           A6          -0.07473  -0.07748  -0.08224   0.00573   0.00612
           A7          -0.01663  -0.01441   0.03859  -0.00794   0.00106
           D1           0.00243  -0.03861   0.03488  -0.05634   0.05565
           D2           0.03895  -0.00226  -0.03548   0.05622  -0.00193
           D3          -0.02785   0.02810  -0.00027  -0.00020  -0.05689
                          A6        A7        D1        D2        D3
           A6           0.15993
           A7           0.00116   0.14798
           D1           0.00213   0.01089   0.05177
           D2          -0.05561  -0.01103  -0.02613   0.05192
           D3           0.05705   0.00046  -0.02433  -0.02449   0.04881
 ITU=  0
     Eigenvalues ---    0.00032   0.12129   0.17994   0.20533   0.21562
     Eigenvalues ---    0.27713   0.30915   0.50034   0.50209   0.52093
     Eigenvalues ---    0.52468   0.56033
 Angle between quadratic step and forces=  85.60 degrees.
 Linear search not attempted -- first point.
 Iteration  1 RMS(Cart)=  0.00881184 RMS(Int)=  0.00011265
 Iteration  2 RMS(Cart)=  0.00009351 RMS(Int)=  0.00000010
 Iteration  3 RMS(Cart)=  0.00000001 RMS(Int)=  0.00000010
 ITry= 1 IFail=0 DXMaxC= 2.11D-02 DCOld= 1.00D+10 DXMaxT= 3.00D-01 DXLimC= 3.00D+00 Rises=F
 Variable       Old X    -DE/DX   Delta X   Delta X   Delta X     New X
                                 (Linear)    (Quad)   (Total)
    R1        3.23911  -0.00041   0.00000  -0.00223  -0.00223   3.23689
    R2        2.81028  -0.00024   0.00000  -0.00067  -0.00067   2.80961
    R3        2.80973  -0.00035   0.00000  -0.00023  -0.00023   2.80950
    R4        2.79086  -0.00004   0.00000  -0.00010  -0.00010   2.79076
    R5        1.83067   0.00041   0.00000   0.00076   0.00076   1.83143
    A1        1.81146  -0.00015   0.00000   0.00113   0.00113   1.81259
    A2        1.81422  -0.00015   0.00000  -0.00139  -0.00139   1.81282
    A3        1.77189  -0.00003   0.00000  -0.00013  -0.00013   1.77177
    A4        1.98574  -0.00018   0.00000  -0.00110  -0.00110   1.98464
    A5        2.01926   0.00022   0.00000   0.00025   0.00025   2.01951
    A6        2.01826   0.00021   0.00000   0.00115   0.00115   2.01941
    A7        1.82430   0.00003   0.00000   0.00048   0.00048   1.82478
    D1       -1.01297   0.00016   0.00000  -0.02411  -0.02411  -1.03708
    D2        1.06838  -0.00017   0.00000  -0.02545  -0.02545   1.04293
    D3       -3.11391  -0.00001   0.00000  -0.02477  -0.02477  -3.13868
         Item               Value     Threshold  Converged?
 Maximum Force            0.000407     0.000450     YES
 RMS     Force            0.000222     0.000300     YES
 Maximum Displacement     0.021140     0.001800     NO 
 RMS     Displacement     0.008813     0.001200     NO 
 Predicted change in Energy=-1.418260D-06
 GradGradGradGradGradGradGradGradGradGradGradGradGradGradGradGradGradGrad

 Leave Link  103 at Tue Sep 17 19:23:48 2024, MaxMem=   268435456 cpu:         1.0
 (Enter /g100_work/pMI24_ChiCa/g09d1/g09d01/d01/build-node-6-2-59348/src/main/l9999.exe)
 1\1\GINC-R500N002\Freq\RB3LYP\6-31+G(d,p)\H1O4S1(1-)\ECABIATI\17-Sep-2
 024\0\\#P Geom=AllCheck Guess=TCheck SCRF=Check GenChk RB3LYP/6-31+G(d
 ,p) Freq\\h04s- gas\\-1,1\S,0.0225885655,-0.0016110883,-0.10257402\O,-
 0.007690796,0.0287600365,1.6109543079\O,1.4728653725,-0.017533401,-0.4
 312310771\O,-0.6848931639,-1.2620219122,-0.451213535\O,-0.6950770777,1
 .2462853542,-0.4324630102\H,0.4787818644,-0.7657327357,1.8766676122\\V
 ersion=EM64L-G09RevD.01\State=1-A\HF=-699.7301454\RMSD=8.774e-09\RMSF=
 2.168e-04\ZeroPoint=0.0259407\Thermal=0.0311093\Dipole=0.2813139,-0.46
 76372,0.8317726\DipoleDeriv=2.5199423,0.0077937,0.0177737,0.0083321,2.
 5075054,-0.0185206,0.0167613,-0.0172003,2.4443164,-0.5907405,-0.094234
 2,-0.0392261,-0.096184,-0.4929178,0.072215,0.0059672,-0.0013487,-1.539
 7291,-1.4348913,-0.0131874,0.2485917,0.0117718,-0.7119611,0.0011879,0.
 1304081,0.021034,-0.7379945,-0.8912224,-0.298055,-0.1300728,-0.3215006
 ,-1.2496157,-0.2222025,-0.0893284,-0.1132135,-0.7402269,-0.8679199,0.3
 022619,-0.1092165,0.3014654,-1.2193986,0.1872199,-0.0621711,0.1064624,
 -0.6741735,0.2648317,0.095421,0.0121501,0.0961154,0.1663879,-0.0198997
 ,-0.0016371,0.0042661,0.2478076\Polar=40.1685501,-0.5220678,40.7278908
 ,0.4666786,-0.7114054,39.6494533\PG=C01 [X(H1O4S1)]\NImag=0\\0.8657956
 7,-0.03290516,0.90308475,0.01223515,-0.01267628,0.43380998,-0.06924117
 ,0.00748432,-0.00307946,0.18751367,0.00736781,-0.07652259,0.00513745,-
 0.22167681,0.41253857,0.01407538,-0.02228393,-0.11729581,0.05636332,-0
 .09331354,0.23293910,-0.44083769,0.00392382,0.07714086,0.00098694,0.00
 004355,0.01058068,0.48544454,0.00229279,-0.09242747,0.00122731,0.00017
 541,0.01318845,0.00072671,-0.00127419,0.06875041,0.07736601,0.00140057
 ,-0.10016092,0.03371588,0.00055594,-0.01892448,-0.09941423,0.00246247,
 0.08039177,-0.17628268,-0.14933560,-0.04203458,0.01039017,-0.00481599,
 -0.00560314,-0.02218518,-0.03748070,-0.00552385,0.17095962,-0.14763190
 ,-0.35608472,-0.07045304,-0.00508629,0.00456660,-0.00846532,-0.0096829
 3,0.00519484,-0.00396665,0.17853004,0.38158235,-0.04225713,-0.07067735
 ,-0.10219404,-0.01688157,-0.02852815,-0.01919557,0.00555672,0.00218052
 ,0.01853092,0.05037134,0.09202610,0.08303335,-0.18489235,0.16505111,-0
 .04310267,0.00465158,0.00758174,-0.00361107,-0.01943724,0.03608612,-0.
 00583009,0.01795678,-0.01390876,-0.00006836,0.17945104,0.16491483,-0.3
 7686033,0.07467026,0.00805916,-0.00443669,0.00611843,0.00754323,0.0050
 8802,0.00330061,0.01453555,-0.03239450,0.00648874,-0.19325895,0.404611
 94,-0.03908198,0.06780189,-0.10018918,-0.01947659,0.03318656,-0.008767
 64,0.00502260,-0.00262439,0.01668626,-0.00013356,-0.00619614,0.0167451
 5,0.05318340,-0.09191535,0.08394171,0.00545821,0.00578151,-0.00115930,
 -0.13430119,0.21149970,-0.07180517,-0.00397137,0.00020057,-0.00031371,
 -0.00083871,-0.00222016,0.00327899,0.00227019,-0.00179383,0.00048614,0
 .13138287,0.00596163,-0.00118964,0.00209430,0.21104422,-0.34933433,0.1
 1721765,-0.00055348,0.00020575,-0.00375294,-0.00143331,-0.00286458,-0.
 00148987,-0.00155126,0.00399155,-0.00025257,-0.21346780,0.34919124,-0.
 02233742,0.03643510,-0.01397003,-0.05064158,0.08296175,-0.06875560,0.0
 0111337,-0.00397263,0.00347645,0.00292379,-0.00294497,0.00308019,-0.00
 057120,0.00133732,-0.00841630,0.06951305,-0.11381657,0.08458527\\0.000
 15058,-0.00007981,-0.00007602,0.00014305,-0.00026269,0.00053076,0.0002
 2544,0.00017645,-0.00010967,-0.00032551,-0.00020019,-0.00013707,0.0000
 0207,0.00001960,-0.00008487,-0.00019562,0.00034664,-0.00012314\\\@


 IF MATHEMATICALLY YOU END UP WITH THE INCORRECT ANSWER,
 TRY MULTIPLYING BY THE PAGE NUMBER.
 Job cpu time:       0 days  0 hours  1 minutes 25.7 seconds.
 File lengths (MBytes):  RWF=     13 Int=      0 D2E=      0 Chk=      2 Scr=      1
 Normal termination of Gaussian 09 at Tue Sep 17 19:23:48 2024.
