 Entering Gaussian System, Link 0=/g100_work/pMI24_ChiCa/g09d1/g09d01/d01/build-node-6-2-59348/src/main/g09
 Input=geom.com
 Output=geom.log
 Initial command:
 /g100_work/pMI24_ChiCa/g09d1/g09d01/d01/build-node-6-2-59348/src/main/l1.exe "/g100_scratch/userexternal/ecabiati/g16_14421831/Gau-30956.inp" -scrdir="/g100_scratch/userexternal/ecabiati/g16_14421831/"
 Entering Link 1 = /g100_work/pMI24_ChiCa/g09d1/g09d01/d01/build-node-6-2-59348/src/main/l1.exe PID=     30957.
  
 Copyright (c) 1988,1990,1992,1993,1995,1998,2003,2009,2013,
            Gaussian, Inc.  All Rights Reserved.
  
 This is part of the Gaussian(R) 09 program.  It is based on
 the Gaussian(R) 03 system (copyright 2003, Gaussian, Inc.),
 the Gaussian(R) 98 system (copyright 1998, Gaussian, Inc.),
 the Gaussian(R) 94 system (copyright 1995, Gaussian, Inc.),
 the Gaussian 92(TM) system (copyright 1992, Gaussian, Inc.),
 the Gaussian 90(TM) system (copyright 1990, Gaussian, Inc.),
 the Gaussian 88(TM) system (copyright 1988, Gaussian, Inc.),
 the Gaussian 86(TM) system (copyright 1986, Carnegie Mellon
 University), and the Gaussian 82(TM) system (copyright 1983,
 Carnegie Mellon University). Gaussian is a federally registered
 trademark of Gaussian, Inc.
  
 This software contains proprietary and confidential information,
 including trade secrets, belonging to Gaussian, Inc.
  
 This software is provided under written license and may be
 used, copied, transmitted, or stored only in accord with that
 written license.
  
 The following legend is applicable only to US Government
 contracts under FAR:
  
                    RESTRICTED RIGHTS LEGEND
  
 Use, reproduction and disclosure by the US Government is
 subject to restrictions as set forth in subparagraphs (a)
 and (c) of the Commercial Computer Software - Restricted
 Rights clause in FAR 52.227-19.
  
 Gaussian, Inc.
 340 Quinnipiac St., Bldg. 40, Wallingford CT 06492
  
  
 ---------------------------------------------------------------
 Warning -- This program may not be used in any manner that
 competes with the business of Gaussian, Inc. or will provide
 assistance to any competitor of Gaussian, Inc.  The licensee
 of this program is prohibited from giving any competitor of
 Gaussian, Inc. access to this program.  By using this program,
 the user acknowledges that Gaussian, Inc. is engaged in the
 business of creating and licensing software in the field of
 computational chemistry and represents and warrants to the
 licensee that it is not a competitor of Gaussian, Inc. and that
 it will not use this program in any manner prohibited above.
 ---------------------------------------------------------------
  

 Cite this work as:
 Gaussian 09, Revision D.01,
 M. J. Frisch, G. W. Trucks, H. B. Schlegel, G. E. Scuseria, 
 M. A. Robb, J. R. Cheeseman, G. Scalmani, V. Barone, B. Mennucci, 
 G. A. Petersson, H. Nakatsuji, M. Caricato, X. Li, H. P. Hratchian, 
 A. F. Izmaylov, J. Bloino, G. Zheng, J. L. Sonnenberg, M. Hada, 
 M. Ehara, K. Toyota, R. Fukuda, J. Hasegawa, M. Ishida, T. Nakajima, 
 Y. Honda, O. Kitao, H. Nakai, T. Vreven, J. A. Montgomery, Jr., 
 J. E. Peralta, F. Ogliaro, M. Bearpark, J. J. Heyd, E. Brothers, 
 K. N. Kudin, V. N. Staroverov, T. Keith, R. Kobayashi, J. Normand, 
 K. Raghavachari, A. Rendell, J. C. Burant, S. S. Iyengar, J. Tomasi, 
 M. Cossi, N. Rega, J. M. Millam, M. Klene, J. E. Knox, J. B. Cross, 
 V. Bakken, C. Adamo, J. Jaramillo, R. Gomperts, R. E. Stratmann, 
 O. Yazyev, A. J. Austin, R. Cammi, C. Pomelli, J. W. Ochterski, 
 R. L. Martin, K. Morokuma, V. G. Zakrzewski, G. A. Voth, 
 P. Salvador, J. J. Dannenberg, S. Dapprich, A. D. Daniels, 
 O. Farkas, J. B. Foresman, J. V. Ortiz, J. Cioslowski, 
 and D. J. Fox, Gaussian, Inc., Wallingford CT, 2013.
 
 ******************************************
 Gaussian 09:  EM64L-G09RevD.01 24-Apr-2013
                18-Sep-2024 
 ******************************************
 %nproc=24
 Will use up to   24 processors via shared memory.
 %mem=2Gb
 -----------------------------
 #p B3LYP/6-31+g(d,p) opt freq
 -----------------------------
 1/14=-1,18=20,19=15,26=3,38=1/1,3;
 2/9=110,12=2,17=6,18=5,40=1/2;
 3/5=1,6=6,7=111,11=2,16=1,25=1,30=1,71=1,74=-5/1,2,3;
 4//1;
 5/5=2,38=5/2;
 6/7=2,8=2,9=2,10=2,28=1/1;
 7//1,2,3,16;
 1/14=-1,18=20,19=15,26=3/3(2);
 2/9=110/2;
 99//99;
 2/9=110/2;
 3/5=1,6=6,7=111,11=2,16=1,25=1,30=1,71=1,74=-5/1,2,3;
 4/5=5,16=3,69=1/1;
 5/5=2,38=5/2;
 7//1,2,3,16;
 1/14=-1,18=20,19=15,26=3/3(-5);
 2/9=110/2;
 6/7=2,8=2,9=2,10=2,19=2,28=1/1;
 99/9=1/99;
 Leave Link    1 at Wed Sep 18 00:22:00 2024, MaxMem=   268435456 cpu:         0.2
 (Enter /g100_work/pMI24_ChiCa/g09d1/g09d01/d01/build-node-6-2-59348/src/main/l101.exe)
 ---------
 h04s- gas
 ---------
 Symbolic Z-matrix:
 Charge = -1 Multiplicity = 1
 s
 o                    1    os2
 o                    1    os3      2    oso3
 o                    1    os4      2    oso4     3    dih4     0
 o                    1    os5      3    oso5     2    dih5     0
 h                    2    ho6      1    hos6     5    dih6     0
       Variables:
  os2                   1.66                     
  os3                   1.66                     
  oso3                109.471                    
  os4                   1.51                     
  oso4                110.                       
  dih4                120.                       
  os5                   1.51                     
  oso5                110.                       
  dih5                120.                       
  ho6                   0.95                     
  hos6                109.471                    
  dih6                  0.                       
 
     2 tetrahedral angles replaced.
 NAtoms=      6 NQM=        6 NQMF=       0 NMMI=      0 NMMIF=      0
                NMic=       0 NMicF=      0.
                    Isotopes and Nuclear Properties:
 (Nuclear quadrupole moments (NQMom) in fm**2, nuclear magnetic moments (NMagM)
  in nuclear magnetons)

  Atom         1           2           3           4           5           6
 IAtWgt=          32          16          16          16          16           1
 AtmWgt=  31.9720718  15.9949146  15.9949146  15.9949146  15.9949146   1.0078250
 NucSpn=           0           0           0           0           0           1
 AtZEff=   0.0000000   0.0000000   0.0000000   0.0000000   0.0000000   0.0000000
 NQMom=    0.0000000   0.0000000   0.0000000   0.0000000   0.0000000   0.0000000
 NMagM=    0.0000000   0.0000000   0.0000000   0.0000000   0.0000000   2.7928460
 AtZNuc=  16.0000000   8.0000000   8.0000000   8.0000000   8.0000000   1.0000000
 Leave Link  101 at Wed Sep 18 00:22:00 2024, MaxMem=   268435456 cpu:         0.2
 (Enter /g100_work/pMI24_ChiCa/g09d1/g09d01/d01/build-node-6-2-59348/src/main/l103.exe)

 GradGradGradGradGradGradGradGradGradGradGradGradGradGradGradGradGradGrad
 Berny optimization.
 Initialization pass.
                           ----------------------------
                           !    Initial Parameters    !
                           ! (Angstroms and Degrees)  !
 --------------------------                            --------------------------
 ! Name  Definition              Value          Derivative Info.                !
 --------------------------------------------------------------------------------
 ! R1    R(1,2)                  1.66           estimate D2E/DX2                !
 ! R2    R(1,3)                  1.66           estimate D2E/DX2                !
 ! R3    R(1,4)                  1.51           estimate D2E/DX2                !
 ! R4    R(1,5)                  1.51           estimate D2E/DX2                !
 ! R5    R(2,6)                  0.95           estimate D2E/DX2                !
 ! A1    A(2,1,3)              109.4712         estimate D2E/DX2                !
 ! A2    A(2,1,4)              110.0            estimate D2E/DX2                !
 ! A3    A(2,1,5)              109.2062         estimate D2E/DX2                !
 ! A4    A(3,1,4)              109.2062         estimate D2E/DX2                !
 ! A5    A(3,1,5)              110.0            estimate D2E/DX2                !
 ! A6    A(4,1,5)              108.945          estimate D2E/DX2                !
 ! A7    A(1,2,6)              109.4712         estimate D2E/DX2                !
 ! D1    D(3,1,2,6)            120.4849         estimate D2E/DX2                !
 ! D2    D(4,1,2,6)           -119.5151         estimate D2E/DX2                !
 ! D3    D(5,1,2,6)              0.0            estimate D2E/DX2                !
 --------------------------------------------------------------------------------
 Trust Radius=3.00D-01 FncErr=1.00D-07 GrdErr=1.00D-06
 Number of steps in this run=     25 maximum allowed number of steps=    100.
 GradGradGradGradGradGradGradGradGradGradGradGradGradGradGradGradGradGrad

 Leave Link  103 at Wed Sep 18 00:22:00 2024, MaxMem=   268435456 cpu:         0.1
 (Enter /g100_work/pMI24_ChiCa/g09d1/g09d01/d01/build-node-6-2-59348/src/main/l202.exe)
                          Input orientation:                          
 ---------------------------------------------------------------------
 Center     Atomic      Atomic             Coordinates (Angstroms)
 Number     Number       Type             X           Y           Z
 ---------------------------------------------------------------------
      1         16           0        0.000000    0.000000    0.000000
      2          8           0        0.000000    0.000000    1.660000
      3          8           0        1.565063    0.000000   -0.553333
      4          8           0       -0.709468   -1.228834   -0.516450
      5          8           0       -0.723403    1.228834   -0.496743
      6          1           0       -0.454383    0.771854    1.976667
 ---------------------------------------------------------------------
                    Distance matrix (angstroms):
                    1          2          3          4          5
     1  S    0.000000
     2  O    1.660000   0.000000
     3  O    1.660000   2.710769   0.000000
     4  O    1.510000   2.598137   2.585515   0.000000
     5  O    1.510000   2.585515   2.598137   2.457788   0.000000
     6  H    2.170123   0.950000   3.327885   3.206783   2.529616
                    6
     6  H    0.000000
 Stoichiometry    HO4S(1-)
 Framework group  C1[X(HO4S)]
 Deg. of freedom    12
 Full point group                 C1      NOp   1
 Largest Abelian subgroup         C1      NOp   1
 Largest concise Abelian subgroup C1      NOp   1
                         Standard orientation:                         
 ---------------------------------------------------------------------
 Center     Atomic      Atomic             Coordinates (Angstroms)
 Number     Number       Type             X           Y           Z
 ---------------------------------------------------------------------
      1         16           0       -0.049441   -0.032035   -0.004519
      2          8           0        1.466566    0.556398   -0.337787
      3          8           0       -1.114790    1.232903    0.138874
      4          8           0       -0.506537   -0.942551   -1.119026
      5          8           0       -0.004940   -0.818349    1.283825
      6          1           0        2.068665    0.285353    0.345229
 ---------------------------------------------------------------------
 Rotational constants (GHZ):      4.9128391      4.5360268      4.3168401
 Leave Link  202 at Wed Sep 18 00:22:00 2024, MaxMem=   268435456 cpu:         0.1
 (Enter /g100_work/pMI24_ChiCa/g09d1/g09d01/d01/build-node-6-2-59348/src/main/l301.exe)
 Standard basis: 6-31+G(d,p) (6D, 7F)
 Ernie: Thresh=  0.10000D-02 Tol=  0.10000D-05 Strict=F.
 There are   104 symmetry adapted cartesian basis functions of A   symmetry.
 There are   104 symmetry adapted basis functions of A   symmetry.
   104 basis functions,   191 primitive gaussians,   104 cartesian basis functions
    25 alpha electrons       25 beta electrons
       nuclear repulsion energy       262.4879045765 Hartrees.
 IExCor=  402 DFT=T Ex+Corr=B3LYP ExCW=0 ScaHFX=  0.200000
 ScaDFX=  0.800000  0.720000  1.000000  0.810000 ScalE2=  1.000000  1.000000
 IRadAn=      0 IRanWt=     -1 IRanGd=            0 ICorTp=0 IEmpDi=  4
 NAtoms=    6 NActive=    6 NUniq=    6 SFac= 1.00D+00 NAtFMM=   60 NAOKFM=F Big=F
 Integral buffers will be    131072 words long.
 Raffenetti 2 integral format.
 Two-electron integral symmetry is turned on.
 Leave Link  301 at Wed Sep 18 00:22:00 2024, MaxMem=   268435456 cpu:         0.1
 (Enter /g100_work/pMI24_ChiCa/g09d1/g09d01/d01/build-node-6-2-59348/src/main/l302.exe)
 NPDir=0 NMtPBC=     1 NCelOv=     1 NCel=       1 NClECP=     1 NCelD=      1
         NCelK=      1 NCelE2=     1 NClLst=     1 CellRange=     0.0.
 One-electron integrals computed using PRISM.
 NBasis=   104 RedAO= T EigKep=  2.10D-03  NBF=   104
 NBsUse=   104 1.00D-06 EigRej= -1.00D+00 NBFU=   104
 Precomputing XC quadrature grid using
 IXCGrd= 4 IRadAn=           0 IRanWt=          -1 IRanGd=           0 AccXCQ= 0.00D+00.
 Generated NRdTot=       0 NPtTot=           0 NUsed=           0 NTot=          32
 NSgBfM=   104   104   104   104   104 MxSgAt=     6 MxSgA2=     6.
 Leave Link  302 at Wed Sep 18 00:22:00 2024, MaxMem=   268435456 cpu:         1.4
 (Enter /g100_work/pMI24_ChiCa/g09d1/g09d01/d01/build-node-6-2-59348/src/main/l303.exe)
 DipDrv:  MaxL=1.
 Leave Link  303 at Wed Sep 18 00:22:01 2024, MaxMem=   268435456 cpu:         0.2
 (Enter /g100_work/pMI24_ChiCa/g09d1/g09d01/d01/build-node-6-2-59348/src/main/l401.exe)
 ExpMin= 4.05D-02 ExpMax= 2.19D+04 ExpMxC= 3.30D+03 IAcc=2 IRadAn=         4 AccDes= 0.00D+00
 Harris functional with IExCor=  402 and IRadAn=       4 diagonalized for initial guess.
 HarFok:  IExCor=  402 AccDes= 0.00D+00 IRadAn=         4 IDoV= 1 UseB2=F ITyADJ=14
 ICtDFT=  3500011 ScaDFX=  1.000000  1.000000  1.000000  1.000000
 FoFCou: FMM=F IPFlag=           0 FMFlag=      100000 FMFlg1=           0
         NFxFlg=           0 DoJE=T BraDBF=F KetDBF=T FulRan=T
         wScrn=  0.000000 ICntrl=     500 IOpCl=  0 I1Cent=   200000004 NGrid=           0
         NMat0=    1 NMatS0=      1 NMatT0=    0 NMatD0=    1 NMtDS0=    0 NMtDT0=    0
 Petite list used in FoFCou.
 Harris En= -699.915370791181    
 JPrj=0 DoOrth=F DoCkMO=F.
 Leave Link  401 at Wed Sep 18 00:22:01 2024, MaxMem=   268435456 cpu:         1.6
 (Enter /g100_work/pMI24_ChiCa/g09d1/g09d01/d01/build-node-6-2-59348/src/main/l502.exe)
 Closed shell SCF:
 Using DIIS extrapolation, IDIIS=  1040.
 Integral symmetry usage will be decided dynamically.
 Keep R1 ints in memory in canonical form, NReq=15889713.
 IVT=       54263 IEndB=       54263 NGot=   268435456 MDV=   253472664
 LenX=   253472664 LenY=   253461407
 Requested convergence on RMS density matrix=1.00D-08 within 128 cycles.
 Requested convergence on MAX density matrix=1.00D-06.
 Requested convergence on             energy=1.00D-06.
 No special actions if energy rises.
 FoFCou: FMM=F IPFlag=           0 FMFlag=           0 FMFlg1=           0
         NFxFlg=           0 DoJE=F BraDBF=F KetDBF=F FulRan=T
         wScrn=  0.000000 ICntrl=     600 IOpCl=  0 I1Cent=           0 NGrid=           0
         NMat0=    1 NMatS0=   5460 NMatT0=    0 NMatD0=    1 NMtDS0=    0 NMtDT0=    0
 Symmetry not used in FoFCou.

 Cycle   1  Pass 1  IDiag  1:
 E= -699.309813399293    
 DIIS: error= 4.80D-02 at cycle   1 NSaved=   1.
 NSaved= 1 IEnMin= 1 EnMin= -699.309813399293     IErMin= 1 ErrMin= 4.80D-02
 ErrMax= 4.80D-02  0.00D+00 EMaxC= 1.00D-01 BMatC= 5.06D-01 BMatP= 5.06D-01
 IDIUse=3 WtCom= 5.20D-01 WtEn= 4.80D-01
 Coeff-Com:  0.100D+01
 Coeff-En:   0.100D+01
 Coeff:      0.100D+01
 Gap=     0.038 Goal=   None    Shift=    0.000
 GapD=    0.038 DampG=0.250 DampE=0.500 DampFc=0.2500 IDamp=-1.
 Damping current iteration by 2.50D-01
 RMSDP=2.29D-02 MaxDP=6.75D-01              OVMax= 3.48D-01

 Cycle   2  Pass 1  IDiag  1:
 E= -699.441831520746     Delta-E=       -0.132018121453 Rises=F Damp=T
 DIIS: error= 1.54D-02 at cycle   2 NSaved=   2.
 NSaved= 2 IEnMin= 2 EnMin= -699.441831520746     IErMin= 2 ErrMin= 1.54D-02
 ErrMax= 1.54D-02  0.00D+00 EMaxC= 1.00D-01 BMatC= 5.05D-02 BMatP= 5.06D-01
 IDIUse=3 WtCom= 8.46D-01 WtEn= 1.54D-01
 Coeff-Com: -0.345D+00 0.135D+01
 Coeff-En:   0.467D-01 0.953D+00
 Coeff:     -0.285D+00 0.128D+01
 Gap=     0.198 Goal=   None    Shift=    0.000
 RMSDP=3.69D-03 MaxDP=6.22D-02 DE=-1.32D-01 OVMax= 3.13D-01

 Cycle   3  Pass 1  IDiag  1:
 E= -699.646328394749     Delta-E=       -0.204496874003 Rises=F Damp=F
 DIIS: error= 1.41D-02 at cycle   3 NSaved=   3.
 NSaved= 3 IEnMin= 3 EnMin= -699.646328394749     IErMin= 3 ErrMin= 1.41D-02
 ErrMax= 1.41D-02  0.00D+00 EMaxC= 1.00D-01 BMatC= 6.11D-02 BMatP= 5.05D-02
 IDIUse=2 WtCom= 0.00D+00 WtEn= 1.00D+00
 Coeff-En:   0.000D+00 0.000D+00 0.100D+01
 Coeff:      0.000D+00 0.000D+00 0.100D+01
 Gap=     0.201 Goal=   None    Shift=    0.000
 RMSDP=8.36D-03 MaxDP=1.29D-01 DE=-2.04D-01 OVMax= 2.11D-01

 Cycle   4  Pass 1  IDiag  1:
 E= -699.387441218955     Delta-E=        0.258887175795 Rises=F Damp=F
 DIIS: error= 3.76D-02 at cycle   4 NSaved=   4.
 NSaved= 4 IEnMin= 3 EnMin= -699.646328394749     IErMin= 3 ErrMin= 1.41D-02
 ErrMax= 3.76D-02  0.00D+00 EMaxC= 1.00D-01 BMatC= 3.83D-01 BMatP= 5.05D-02
 IDIUse=2 WtCom= 0.00D+00 WtEn= 1.00D+00
 Coeff-En:   0.000D+00 0.000D+00 0.808D+00 0.192D+00
 Coeff:      0.000D+00 0.000D+00 0.808D+00 0.192D+00
 Gap=     0.178 Goal=   None    Shift=    0.000
 RMSDP=5.18D-03 MaxDP=7.58D-02 DE= 2.59D-01 OVMax= 1.36D-01

 Cycle   5  Pass 1  IDiag  1:
 E= -699.670717475243     Delta-E=       -0.283276256289 Rises=F Damp=F
 DIIS: error= 1.11D-02 at cycle   5 NSaved=   5.
 NSaved= 5 IEnMin= 5 EnMin= -699.670717475243     IErMin= 5 ErrMin= 1.11D-02
 ErrMax= 1.11D-02  0.00D+00 EMaxC= 1.00D-01 BMatC= 3.22D-02 BMatP= 5.05D-02
 IDIUse=3 WtCom= 8.89D-01 WtEn= 1.11D-01
 Coeff-Com: -0.168D-01 0.384D-01 0.439D+00 0.240D-01 0.515D+00
 Coeff-En:   0.000D+00 0.000D+00 0.372D+00 0.000D+00 0.628D+00
 Coeff:     -0.149D-01 0.341D-01 0.432D+00 0.214D-01 0.528D+00
 Gap=     0.197 Goal=   None    Shift=    0.000
 RMSDP=1.44D-03 MaxDP=3.31D-02 DE=-2.83D-01 OVMax= 3.12D-02

 Cycle   6  Pass 1  IDiag  1:
 E= -699.694626827190     Delta-E=       -0.023909351946 Rises=F Damp=F
 DIIS: error= 1.52D-03 at cycle   6 NSaved=   6.
 NSaved= 6 IEnMin= 6 EnMin= -699.694626827190     IErMin= 6 ErrMin= 1.52D-03
 ErrMax= 1.52D-03  0.00D+00 EMaxC= 1.00D-01 BMatC= 4.71D-04 BMatP= 3.22D-02
 IDIUse=3 WtCom= 9.85D-01 WtEn= 1.52D-02
 Coeff-Com: -0.225D-01 0.335D-01 0.141D+00-0.411D-01 0.322D+00 0.567D+00
 Coeff-En:   0.000D+00 0.000D+00 0.000D+00 0.000D+00 0.000D+00 0.100D+01
 Coeff:     -0.221D-01 0.330D-01 0.139D+00-0.404D-01 0.318D+00 0.573D+00
 Gap=     0.195 Goal=   None    Shift=    0.000
 RMSDP=1.86D-04 MaxDP=2.99D-03 DE=-2.39D-02 OVMax= 4.54D-03

 Cycle   7  Pass 1  IDiag  1:
 E= -699.694983014520     Delta-E=       -0.000356187330 Rises=F Damp=F
 DIIS: error= 1.37D-04 at cycle   7 NSaved=   7.
 NSaved= 7 IEnMin= 7 EnMin= -699.694983014520     IErMin= 7 ErrMin= 1.37D-04
 ErrMax= 1.37D-04  0.00D+00 EMaxC= 1.00D-01 BMatC= 5.82D-06 BMatP= 4.71D-04
 IDIUse=3 WtCom= 9.99D-01 WtEn= 1.37D-03
 Coeff-Com: -0.639D-02 0.843D-02 0.292D-01-0.129D-01 0.760D-01 0.173D+00
 Coeff-Com:  0.732D+00
 Coeff-En:   0.000D+00 0.000D+00 0.000D+00 0.000D+00 0.000D+00 0.000D+00
 Coeff-En:   0.100D+01
 Coeff:     -0.638D-02 0.842D-02 0.292D-01-0.129D-01 0.759D-01 0.173D+00
 Coeff:      0.733D+00
 Gap=     0.195 Goal=   None    Shift=    0.000
 RMSDP=3.64D-05 MaxDP=1.17D-03 DE=-3.56D-04 OVMax= 6.55D-04

 Cycle   8  Pass 1  IDiag  1:
 E= -699.694987315668     Delta-E=       -0.000004301148 Rises=F Damp=F
 DIIS: error= 6.53D-05 at cycle   8 NSaved=   8.
 NSaved= 8 IEnMin= 8 EnMin= -699.694987315668     IErMin= 8 ErrMin= 6.53D-05
 ErrMax= 6.53D-05  0.00D+00 EMaxC= 1.00D-01 BMatC= 1.17D-06 BMatP= 5.82D-06
 IDIUse=1 WtCom= 1.00D+00 WtEn= 0.00D+00
 Coeff-Com: -0.970D-03 0.852D-03 0.210D-02-0.188D-02 0.645D-02 0.328D-01
 Coeff-Com:  0.366D+00 0.594D+00
 Coeff:     -0.970D-03 0.852D-03 0.210D-02-0.188D-02 0.645D-02 0.328D-01
 Coeff:      0.366D+00 0.594D+00
 Gap=     0.195 Goal=   None    Shift=    0.000
 RMSDP=1.39D-05 MaxDP=2.79D-04 DE=-4.30D-06 OVMax= 2.96D-04

 Cycle   9  Pass 1  IDiag  1:
 E= -699.694988043903     Delta-E=       -0.000000728235 Rises=F Damp=F
 DIIS: error= 5.26D-05 at cycle   9 NSaved=   9.
 NSaved= 9 IEnMin= 9 EnMin= -699.694988043903     IErMin= 9 ErrMin= 5.26D-05
 ErrMax= 5.26D-05  0.00D+00 EMaxC= 1.00D-01 BMatC= 3.64D-07 BMatP= 1.17D-06
 IDIUse=1 WtCom= 1.00D+00 WtEn= 0.00D+00
 Coeff-Com: -0.422D-03 0.280D-03 0.103D-03-0.633D-03 0.102D-02 0.151D-01
 Coeff-Com:  0.208D+00 0.412D+00 0.366D+00
 Coeff:     -0.422D-03 0.280D-03 0.103D-03-0.633D-03 0.102D-02 0.151D-01
 Coeff:      0.208D+00 0.412D+00 0.366D+00
 Gap=     0.195 Goal=   None    Shift=    0.000
 RMSDP=5.51D-06 MaxDP=9.72D-05 DE=-7.28D-07 OVMax= 1.44D-04

 Cycle  10  Pass 1  IDiag  1:
 E= -699.694988317148     Delta-E=       -0.000000273245 Rises=F Damp=F
 DIIS: error= 6.85D-06 at cycle  10 NSaved=  10.
 NSaved=10 IEnMin=10 EnMin= -699.694988317148     IErMin=10 ErrMin= 6.85D-06
 ErrMax= 6.85D-06  0.00D+00 EMaxC= 1.00D-01 BMatC= 1.26D-08 BMatP= 3.64D-07
 IDIUse=1 WtCom= 1.00D+00 WtEn= 0.00D+00
 Coeff-Com: -0.614D-04 0.494D-04-0.716D-03 0.109D-03-0.952D-03-0.832D-04
 Coeff-Com:  0.408D-03 0.279D-01 0.102D+00 0.872D+00
 Coeff:     -0.614D-04 0.494D-04-0.716D-03 0.109D-03-0.952D-03-0.832D-04
 Coeff:      0.408D-03 0.279D-01 0.102D+00 0.872D+00
 Gap=     0.195 Goal=   None    Shift=    0.000
 RMSDP=1.40D-06 MaxDP=3.32D-05 DE=-2.73D-07 OVMax= 3.61D-05

 Cycle  11  Pass 1  IDiag  1:
 E= -699.694988329072     Delta-E=       -0.000000011924 Rises=F Damp=F
 DIIS: error= 9.44D-07 at cycle  11 NSaved=  11.
 NSaved=11 IEnMin=11 EnMin= -699.694988329072     IErMin=11 ErrMin= 9.44D-07
 ErrMax= 9.44D-07  0.00D+00 EMaxC= 1.00D-01 BMatC= 1.74D-10 BMatP= 1.26D-08
 IDIUse=1 WtCom= 1.00D+00 WtEn= 0.00D+00
 Coeff-Com: -0.156D-04 0.241D-04-0.184D-03 0.370D-04-0.237D-03-0.512D-03
 Coeff-Com: -0.620D-02-0.743D-02 0.987D-02 0.182D+00 0.822D+00
 Coeff:     -0.156D-04 0.241D-04-0.184D-03 0.370D-04-0.237D-03-0.512D-03
 Coeff:     -0.620D-02-0.743D-02 0.987D-02 0.182D+00 0.822D+00
 Gap=     0.195 Goal=   None    Shift=    0.000
 RMSDP=2.29D-07 MaxDP=3.56D-06 DE=-1.19D-08 OVMax= 5.69D-06

 Cycle  12  Pass 1  IDiag  1:
 E= -699.694988329251     Delta-E=       -0.000000000179 Rises=F Damp=F
 DIIS: error= 1.19D-07 at cycle  12 NSaved=  12.
 NSaved=12 IEnMin=12 EnMin= -699.694988329251     IErMin=12 ErrMin= 1.19D-07
 ErrMax= 1.19D-07  0.00D+00 EMaxC= 1.00D-01 BMatC= 4.05D-12 BMatP= 1.74D-10
 IDIUse=1 WtCom= 1.00D+00 WtEn= 0.00D+00
 Coeff-Com: -0.873D-06 0.374D-05 0.758D-05-0.436D-06 0.884D-05-0.792D-04
 Coeff-Com: -0.793D-03-0.270D-02-0.408D-02-0.208D-01 0.117D+00 0.911D+00
 Coeff:     -0.873D-06 0.374D-05 0.758D-05-0.436D-06 0.884D-05-0.792D-04
 Coeff:     -0.793D-03-0.270D-02-0.408D-02-0.208D-01 0.117D+00 0.911D+00
 Gap=     0.195 Goal=   None    Shift=    0.000
 RMSDP=5.35D-08 MaxDP=9.10D-07 DE=-1.79D-10 OVMax= 1.75D-06

 Cycle  13  Pass 1  IDiag  1:
 E= -699.694988329260     Delta-E=       -0.000000000009 Rises=F Damp=F
 DIIS: error= 2.63D-08 at cycle  13 NSaved=  13.
 NSaved=13 IEnMin=13 EnMin= -699.694988329260     IErMin=13 ErrMin= 2.63D-08
 ErrMax= 2.63D-08  0.00D+00 EMaxC= 1.00D-01 BMatC= 1.51D-13 BMatP= 4.05D-12
 IDIUse=1 WtCom= 1.00D+00 WtEn= 0.00D+00
 Coeff-Com:  0.570D-06-0.740D-06 0.489D-05-0.668D-06 0.588D-05 0.344D-05
 Coeff-Com:  0.818D-05-0.334D-03-0.994D-03-0.737D-02 0.166D-02 0.171D+00
 Coeff-Com:  0.836D+00
 Coeff:      0.570D-06-0.740D-06 0.489D-05-0.668D-06 0.588D-05 0.344D-05
 Coeff:      0.818D-05-0.334D-03-0.994D-03-0.737D-02 0.166D-02 0.171D+00
 Coeff:      0.836D+00
 Gap=     0.195 Goal=   None    Shift=    0.000
 RMSDP=8.35D-09 MaxDP=1.51D-07 DE=-8.64D-12 OVMax= 2.16D-07

 SCF Done:  E(RB3LYP) =  -699.694988329     A.U. after   13 cycles
            NFock= 13  Conv=0.84D-08     -V/T= 2.0066
 KE= 6.951015700262D+02 PE=-2.190925714490D+03 EE= 5.336412515576D+02
 Leave Link  502 at Wed Sep 18 00:22:02 2024, MaxMem=   268435456 cpu:        12.2
 (Enter /g100_work/pMI24_ChiCa/g09d1/g09d01/d01/build-node-6-2-59348/src/main/l601.exe)
 Copying SCF densities to generalized density rwf, IOpCl= 0 IROHF=0.

 **********************************************************************

            Population analysis using the SCF density.

 **********************************************************************

 Orbital symmetries:
       Occupied  (A) (A) (A) (A) (A) (A) (A) (A) (A) (A) (A) (A)
                 (A) (A) (A) (A) (A) (A) (A) (A) (A) (A) (A) (A)
                 (A)
       Virtual   (A) (A) (A) (A) (A) (A) (A) (A) (A) (A) (A) (A)
                 (A) (A) (A) (A) (A) (A) (A) (A) (A) (A) (A) (A)
                 (A) (A) (A) (A) (A) (A) (A) (A) (A) (A) (A) (A)
                 (A) (A) (A) (A) (A) (A) (A) (A) (A) (A) (A) (A)
                 (A) (A) (A) (A) (A) (A) (A) (A) (A) (A) (A) (A)
                 (A) (A) (A) (A) (A) (A) (A) (A) (A) (A) (A) (A)
                 (A) (A) (A) (A) (A) (A) (A)
 The electronic state is 1-A.
 Alpha  occ. eigenvalues --  -88.96751 -19.05895 -18.96977 -18.96523 -18.95216
 Alpha  occ. eigenvalues --   -7.98387  -5.95076  -5.94784  -5.94702  -0.95987
 Alpha  occ. eigenvalues --   -0.87079  -0.79707  -0.74171  -0.49645  -0.36187
 Alpha  occ. eigenvalues --   -0.31043  -0.29259  -0.25989  -0.21030  -0.17094
 Alpha  occ. eigenvalues --   -0.14767  -0.14315  -0.11538  -0.08987  -0.07337
 Alpha virt. eigenvalues --    0.12190   0.17844   0.18782   0.18963   0.20397
 Alpha virt. eigenvalues --    0.25219   0.25916   0.28593   0.30204   0.31843
 Alpha virt. eigenvalues --    0.32912   0.33108   0.35613   0.36335   0.38839
 Alpha virt. eigenvalues --    0.39713   0.39908   0.41478   0.43342   0.43716
 Alpha virt. eigenvalues --    0.44553   0.45106   0.47071   0.49257   0.51681
 Alpha virt. eigenvalues --    0.71533   0.73356   0.76625   0.79793   0.82088
 Alpha virt. eigenvalues --    0.92183   1.10274   1.13416   1.20008   1.27028
 Alpha virt. eigenvalues --    1.30430   1.31226   1.35639   1.36663   1.40299
 Alpha virt. eigenvalues --    1.40519   1.41376   1.43291   1.43747   1.49882
 Alpha virt. eigenvalues --    1.51071   1.52403   1.63996   1.68155   1.69079
 Alpha virt. eigenvalues --    1.73181   1.82591   1.91011   1.92557   1.96414
 Alpha virt. eigenvalues --    1.99061   2.00173   2.01806   2.03099   2.04626
 Alpha virt. eigenvalues --    2.04864   2.17126   2.25928   2.32150   2.35880
 Alpha virt. eigenvalues --    2.37094   2.50720   2.61160   2.75012   2.77380
 Alpha virt. eigenvalues --    2.83912   2.93534   3.01679   3.58192   4.17723
 Alpha virt. eigenvalues --    4.19036   4.22523   4.25356   4.33401
          Condensed to atoms (all electrons):
               1          2          3          4          5          6
     1  S   13.940469  -0.173083   0.350090   0.198876   0.211041   0.039299
     2  O   -0.173083   8.798377  -0.074985  -0.063363  -0.062797   0.208637
     3  O    0.350090  -0.074985   8.754963  -0.165191  -0.132160   0.000738
     4  O    0.198876  -0.063363  -0.165191   8.860705  -0.146725  -0.000687
     5  O    0.211041  -0.062797  -0.132160  -0.146725   8.869341   0.003004
     6  H    0.039299   0.208637   0.000738  -0.000687   0.003004   0.390760
 Mulliken charges:
               1
     1  S    1.433308
     2  O   -0.632785
     3  O   -0.733454
     4  O   -0.683616
     5  O   -0.741703
     6  H    0.358249
 Sum of Mulliken charges =  -1.00000
 Mulliken charges with hydrogens summed into heavy atoms:
               1
     1  S    1.433308
     2  O   -0.274536
     3  O   -0.733454
     4  O   -0.683616
     5  O   -0.741703
 Electronic spatial extent (au):  <R**2>=            401.7806
 Charge=             -1.0000 electrons
 Dipole moment (field-independent basis, Debye):
    X=              4.3879    Y=             -0.0285    Z=              0.4994  Tot=              4.4163
 Quadrupole moment (field-independent basis, Debye-Ang):
   XX=            -38.5694   YY=            -47.2058   ZZ=            -45.8347
   XY=              1.9426   XZ=              1.6885   YZ=              0.0915
 Traceless Quadrupole moment (field-independent basis, Debye-Ang):
   XX=              5.3006   YY=             -3.3358   ZZ=             -1.9647
   XY=              1.9426   XZ=              1.6885   YZ=              0.0915
 Octapole moment (field-independent basis, Debye-Ang**2):
  XXX=             16.6477  YYY=             -3.8668  ZZZ=             -2.3390  XYY=              5.6061
  XXY=             -5.0993  XXZ=              6.1786  XZZ=              2.8330  YZZ=              6.6362
  YYZ=             -0.0621  XYZ=              3.2087
 Hexadecapole moment (field-independent basis, Debye-Ang**3):
 XXXX=           -165.7977 YYYY=           -186.0201 ZZZZ=           -170.8207 XXXY=              6.2941
 XXXZ=             11.3403 YYYX=              6.2753 YYYZ=             -1.1480 ZZZX=             -1.2578
 ZZZY=              0.1607 XXYY=            -66.3759 XXZZ=            -59.0329 YYZZ=            -61.1053
 XXYZ=              1.4917 YYXZ=             -0.0946 ZZXY=              0.6359
 N-N= 2.624879045765D+02 E-N=-2.190925714518D+03  KE= 6.951015700262D+02
 No NMR shielding tensors so no spin-rotation constants.
 Leave Link  601 at Wed Sep 18 00:22:02 2024, MaxMem=   268435456 cpu:         1.4
 (Enter /g100_work/pMI24_ChiCa/g09d1/g09d01/d01/build-node-6-2-59348/src/main/l701.exe)
 Compute integral first derivatives.
 ... and contract with generalized density number  0.
 Leave Link  701 at Wed Sep 18 00:22:02 2024, MaxMem=   268435456 cpu:         1.6
 (Enter /g100_work/pMI24_ChiCa/g09d1/g09d01/d01/build-node-6-2-59348/src/main/l702.exe)
 L702 exits ... SP integral derivatives will be done elsewhere.
 Leave Link  702 at Wed Sep 18 00:22:02 2024, MaxMem=   268435456 cpu:         0.1
 (Enter /g100_work/pMI24_ChiCa/g09d1/g09d01/d01/build-node-6-2-59348/src/main/l703.exe)
 Compute integral first derivatives, UseDBF=F ICtDFT=           0.
 Integral derivatives from FoFJK, PRISM(SPDF).
 Calling FoFJK, ICntrl=      2127 FMM=F ISym2X=0 I1Cent= 0 IOpClX= 0 NMat=1 NMatS=1 NMatT=0.
 FoFJK:  IHMeth= 1 ICntrl=    2127 DoSepK=F KAlg= 0 I1Cent=   0 FoldK=F
 IRaf=         0 NMat=   1 IRICut=       1 DoRegI=T DoRafI=F ISym2E= 0.
 FoFCou: FMM=F IPFlag=           0 FMFlag=      100000 FMFlg1=         800
         NFxFlg=           0 DoJE=F BraDBF=F KetDBF=F FulRan=T
         wScrn=  0.000000 ICntrl=    2127 IOpCl=  0 I1Cent=           0 NGrid=           0
         NMat0=    1 NMatS0=      1 NMatT0=    0 NMatD0=    1 NMtDS0=    0 NMtDT0=    0
 Symmetry not used in FoFCou.
 Leave Link  703 at Wed Sep 18 00:22:02 2024, MaxMem=   268435456 cpu:         6.1
 (Enter /g100_work/pMI24_ChiCa/g09d1/g09d01/d01/build-node-6-2-59348/src/main/l716.exe)
 Dipole        = 1.72632428D+00-1.12242002D-02 1.96487040D-01
 ***** Axes restored to original set *****
 -------------------------------------------------------------------
 Center     Atomic                   Forces (Hartrees/Bohr)
 Number     Number              X              Y              Z
 -------------------------------------------------------------------
      1       16           0.059458253   -0.006471335   -0.120967388
      2        8           0.011743992   -0.020397268    0.005212111
      3        8          -0.080273765    0.000780603    0.050849912
      4        8           0.011476629    0.010490747    0.032667058
      5        8           0.008081374   -0.003281214    0.031779306
      6        1          -0.010486483    0.018878466    0.000459002
 -------------------------------------------------------------------
 Cartesian Forces:  Max     0.120967388 RMS     0.041286994
 Leave Link  716 at Wed Sep 18 00:22:02 2024, MaxMem=   268435456 cpu:         0.1
 (Enter /g100_work/pMI24_ChiCa/g09d1/g09d01/d01/build-node-6-2-59348/src/main/l103.exe)

 GradGradGradGradGradGradGradGradGradGradGradGradGradGradGradGradGradGrad
 Berny optimization.
 FormGI is forming the generalized inverse of G from B-inverse, IUseBI=4.
 Internal  Forces:  Max     0.092630141 RMS     0.034838199
 Search for a local minimum.
 Step number   1 out of a maximum of   25
 All quantities printed in internal units (Hartrees-Bohrs-Radians)
 RMS Force = .34838D-01 SwitMx=.10000D-02 MixMth= 1
 Mixed Optimization -- RFO/linear search
 Second derivative matrix not updated -- first step.
 The second derivative matrix:
                          R1        R2        R3        R4        R5
           R1           0.41169
           R2           0.00000   0.41169
           R3           0.00000   0.00000   0.73458
           R4           0.00000   0.00000   0.00000   0.73458
           R5           0.00000   0.00000   0.00000   0.00000   0.57681
           A1           0.00000   0.00000   0.00000   0.00000   0.00000
           A2           0.00000   0.00000   0.00000   0.00000   0.00000
           A3           0.00000   0.00000   0.00000   0.00000   0.00000
           A4           0.00000   0.00000   0.00000   0.00000   0.00000
           A5           0.00000   0.00000   0.00000   0.00000   0.00000
           A6           0.00000   0.00000   0.00000   0.00000   0.00000
           A7           0.00000   0.00000   0.00000   0.00000   0.00000
           D1           0.00000   0.00000   0.00000   0.00000   0.00000
           D2           0.00000   0.00000   0.00000   0.00000   0.00000
           D3           0.00000   0.00000   0.00000   0.00000   0.00000
                          A1        A2        A3        A4        A5
           A1           0.25000
           A2           0.00000   0.25000
           A3           0.00000   0.00000   0.25000
           A4           0.00000   0.00000   0.00000   0.25000
           A5           0.00000   0.00000   0.00000   0.00000   0.25000
           A6           0.00000   0.00000   0.00000   0.00000   0.00000
           A7           0.00000   0.00000   0.00000   0.00000   0.00000
           D1           0.00000   0.00000   0.00000   0.00000   0.00000
           D2           0.00000   0.00000   0.00000   0.00000   0.00000
           D3           0.00000   0.00000   0.00000   0.00000   0.00000
                          A6        A7        D1        D2        D3
           A6           0.25000
           A7           0.00000   0.16000
           D1           0.00000   0.00000   0.01825
           D2           0.00000   0.00000   0.00000   0.01825
           D3           0.00000   0.00000   0.00000   0.00000   0.01825
 ITU=  0
     Eigenvalues ---    0.01825   0.16000   0.16025   0.16098   0.25000
     Eigenvalues ---    0.25000   0.25000   0.41169   0.41169   0.57681
     Eigenvalues ---    0.73458   0.73458
 RFO step:  Lambda=-4.85497137D-02 EMin= 1.82525757D-02
 Linear search not attempted -- first point.
 Maximum step size (   0.300) exceeded in Quadratic search.
    -- Step size scaled by   0.808
 Iteration  1 RMS(Cart)=  0.10548711 RMS(Int)=  0.00837841
 Iteration  2 RMS(Cart)=  0.00745446 RMS(Int)=  0.00398643
 Iteration  3 RMS(Cart)=  0.00005560 RMS(Int)=  0.00398628
 Iteration  4 RMS(Cart)=  0.00000062 RMS(Int)=  0.00398628
 ITry= 1 IFail=0 DXMaxC= 2.00D-01 DCOld= 1.00D+10 DXMaxT= 3.00D-01 DXLimC= 3.00D+00 Rises=F
 Variable       Old X    -DE/DX   Delta X   Delta X   Delta X     New X
                                 (Linear)    (Quad)   (Total)
    R1        3.13695   0.00567   0.00000   0.00995   0.00995   3.14690
    R2        3.13695  -0.09263   0.00000  -0.16264  -0.16264   2.97431
    R3        2.85349  -0.02510   0.00000  -0.02590  -0.02590   2.82758
    R4        2.85349  -0.01700   0.00000  -0.01754  -0.01754   2.83595
    R5        1.79524   0.02051   0.00000   0.02651   0.02651   1.82174
    A1        1.91063  -0.03359   0.00000  -0.09391  -0.09938   1.81125
    A2        1.91986  -0.03467   0.00000  -0.09152  -0.09656   1.82330
    A3        1.90601  -0.04077   0.00000  -0.10968  -0.11512   1.79089
    A4        1.90601   0.03307   0.00000   0.08825   0.08143   1.98744
    A5        1.91986   0.03218   0.00000   0.08242   0.07453   1.99439
    A6        1.90145   0.04414   0.00000   0.12547   0.11900   2.02045
    A7        1.91063  -0.01215   0.00000  -0.04708  -0.04708   1.86355
    D1        2.10286  -0.00181   0.00000  -0.00941  -0.00835   2.09451
    D2       -2.08593  -0.00352   0.00000  -0.01603  -0.01573  -2.10167
    D3       -0.00000   0.00443   0.00000   0.01465   0.01330   0.01330
         Item               Value     Threshold  Converged?
 Maximum Force            0.092630     0.000450     NO 
 RMS     Force            0.034838     0.000300     NO 
 Maximum Displacement     0.200347     0.001800     NO 
 RMS     Displacement     0.108872     0.001200     NO 
 Predicted change in Energy=-2.547961D-02
 Lowest energy point so far.  Saving SCF results.
 GradGradGradGradGradGradGradGradGradGradGradGradGradGradGradGradGradGrad

 Leave Link  103 at Wed Sep 18 00:22:03 2024, MaxMem=   268435456 cpu:         1.5
 (Enter /g100_work/pMI24_ChiCa/g09d1/g09d01/d01/build-node-6-2-59348/src/main/l202.exe)
                          Input orientation:                          
 ---------------------------------------------------------------------
 Center     Atomic      Atomic             Coordinates (Angstroms)
 Number     Number       Type             X           Y           Z
 ---------------------------------------------------------------------
      1         16           0        0.004231   -0.004027   -0.078543
      2          8           0        0.017948   -0.016417    1.586621
      3          8           0        1.529718    0.008044   -0.465870
      4          8           0       -0.706374   -1.265580   -0.455924
      5          8           0       -0.721579    1.271864   -0.390724
      6          1           0       -0.446136    0.777969    1.874581
 ---------------------------------------------------------------------
                    Distance matrix (angstroms):
                    1          2          3          4          5
     1  S    0.000000
     2  O    1.665267   0.000000
     3  O    1.573937   2.549267   0.000000
     4  O    1.496292   2.501407   2.573387   0.000000
     5  O    1.500718   2.473148   2.582872   2.538327   0.000000
     6  H    2.151521   0.964026   3.158242   3.110478   2.334824
                    6
     6  H    0.000000
 Stoichiometry    HO4S(1-)
 Framework group  C1[X(HO4S)]
 Deg. of freedom    12
 Full point group                 C1      NOp   1
 RotChk:  IX=3 Diff= 7.60D-01
 Largest Abelian subgroup         C1      NOp   1
 Largest concise Abelian subgroup C1      NOp   1
                         Standard orientation:                         
 ---------------------------------------------------------------------
 Center     Atomic      Atomic             Coordinates (Angstroms)
 Number     Number       Type             X           Y           Z
 ---------------------------------------------------------------------
      1         16           0       -0.110342   -0.045768    0.067754
      2          8           0        1.175371    0.334094   -0.920051
      3          8           0       -1.098412    1.164772   -0.120896
      4          8           0       -0.628532   -1.340534   -0.474418
      5          8           0        0.527994   -0.115398    1.424159
      6          1           0        1.954104    0.388819   -0.354431
 ---------------------------------------------------------------------
 Rotational constants (GHZ):      4.9290570      4.7417686      4.6311534
 Leave Link  202 at Wed Sep 18 00:22:03 2024, MaxMem=   268435456 cpu:         0.1
 (Enter /g100_work/pMI24_ChiCa/g09d1/g09d01/d01/build-node-6-2-59348/src/main/l301.exe)
 Standard basis: 6-31+G(d,p) (6D, 7F)
 Ernie: Thresh=  0.10000D-02 Tol=  0.10000D-05 Strict=F.
 There are   104 symmetry adapted cartesian basis functions of A   symmetry.
 There are   104 symmetry adapted basis functions of A   symmetry.
   104 basis functions,   191 primitive gaussians,   104 cartesian basis functions
    25 alpha electrons       25 beta electrons
       nuclear repulsion energy       267.0883845935 Hartrees.
 IExCor=  402 DFT=T Ex+Corr=B3LYP ExCW=0 ScaHFX=  0.200000
 ScaDFX=  0.800000  0.720000  1.000000  0.810000 ScalE2=  1.000000  1.000000
 IRadAn=      0 IRanWt=     -1 IRanGd=            0 ICorTp=0 IEmpDi=  4
 NAtoms=    6 NActive=    6 NUniq=    6 SFac= 1.00D+00 NAtFMM=   60 NAOKFM=F Big=F
 Integral buffers will be    131072 words long.
 Raffenetti 2 integral format.
 Two-electron integral symmetry is turned on.
 Leave Link  301 at Wed Sep 18 00:22:03 2024, MaxMem=   268435456 cpu:         0.1
 (Enter /g100_work/pMI24_ChiCa/g09d1/g09d01/d01/build-node-6-2-59348/src/main/l302.exe)
 NPDir=0 NMtPBC=     1 NCelOv=     1 NCel=       1 NClECP=     1 NCelD=      1
         NCelK=      1 NCelE2=     1 NClLst=     1 CellRange=     0.0.
 One-electron integrals computed using PRISM.
 NBasis=   104 RedAO= T EigKep=  1.87D-03  NBF=   104
 NBsUse=   104 1.00D-06 EigRej= -1.00D+00 NBFU=   104
 Precomputing XC quadrature grid using
 IXCGrd= 4 IRadAn=           0 IRanWt=          -1 IRanGd=           0 AccXCQ= 0.00D+00.
 Generated NRdTot=       0 NPtTot=           0 NUsed=           0 NTot=          32
 NSgBfM=   104   104   104   104   104 MxSgAt=     6 MxSgA2=     6.
 Leave Link  302 at Wed Sep 18 00:22:03 2024, MaxMem=   268435456 cpu:         1.4
 (Enter /g100_work/pMI24_ChiCa/g09d1/g09d01/d01/build-node-6-2-59348/src/main/l303.exe)
 DipDrv:  MaxL=1.
 Leave Link  303 at Wed Sep 18 00:22:03 2024, MaxMem=   268435456 cpu:         0.2
 (Enter /g100_work/pMI24_ChiCa/g09d1/g09d01/d01/build-node-6-2-59348/src/main/l401.exe)
 Initial guess from the checkpoint file:  "/g100_scratch/userexternal/ecabiati/g16_14421831/Gau-30957.chk"
 B after Tr=    -0.000000    0.000000   -0.000000
         Rot=    0.962139    0.227261   -0.147062   -0.031837 Ang=  31.63 deg.
 Guess basis will be translated and rotated to current coordinates.
 JPrj=2 DoOrth=T DoCkMO=T.
 Generating alternative initial guess.
 ExpMin= 4.05D-02 ExpMax= 2.19D+04 ExpMxC= 3.30D+03 IAcc=2 IRadAn=         4 AccDes= 0.00D+00
 Harris functional with IExCor=  402 and IRadAn=       4 diagonalized for initial guess.
 HarFok:  IExCor=  402 AccDes= 0.00D+00 IRadAn=         4 IDoV= 1 UseB2=F ITyADJ=14
 ICtDFT=  3500011 ScaDFX=  1.000000  1.000000  1.000000  1.000000
 FoFCou: FMM=F IPFlag=           0 FMFlag=      100000 FMFlg1=           0
         NFxFlg=           0 DoJE=T BraDBF=F KetDBF=T FulRan=T
         wScrn=  0.000000 ICntrl=     500 IOpCl=  0 I1Cent=   200000004 NGrid=           0
         NMat0=    1 NMatS0=      1 NMatT0=    0 NMatD0=    1 NMtDS0=    0 NMtDT0=    0
 Petite list used in FoFCou.
 Harris En= -699.926503831938    
 Leave Link  401 at Wed Sep 18 00:22:03 2024, MaxMem=   268435456 cpu:         2.0
 (Enter /g100_work/pMI24_ChiCa/g09d1/g09d01/d01/build-node-6-2-59348/src/main/l502.exe)
 Closed shell SCF:
 Using DIIS extrapolation, IDIIS=  1040.
 Integral symmetry usage will be decided dynamically.
 Keep R1 ints in memory in canonical form, NReq=15889713.
 IVT=       54263 IEndB=       54263 NGot=   268435456 MDV=   253472664
 LenX=   253472664 LenY=   253461407
 Requested convergence on RMS density matrix=1.00D-08 within 128 cycles.
 Requested convergence on MAX density matrix=1.00D-06.
 Requested convergence on             energy=1.00D-06.
 No special actions if energy rises.
 FoFCou: FMM=F IPFlag=           0 FMFlag=           0 FMFlg1=           0
         NFxFlg=           0 DoJE=F BraDBF=F KetDBF=F FulRan=T
         wScrn=  0.000000 ICntrl=     600 IOpCl=  0 I1Cent=           0 NGrid=           0
         NMat0=    1 NMatS0=   5460 NMatT0=    0 NMatD0=    1 NMtDS0=    0 NMtDT0=    0
 Symmetry not used in FoFCou.

 Cycle   1  Pass 1  IDiag  1:
 E= -699.695199499736    
 DIIS: error= 7.53D-03 at cycle   1 NSaved=   1.
 NSaved= 1 IEnMin= 1 EnMin= -699.695199499736     IErMin= 1 ErrMin= 7.53D-03
 ErrMax= 7.53D-03  0.00D+00 EMaxC= 1.00D-01 BMatC= 1.39D-02 BMatP= 1.39D-02
 IDIUse=3 WtCom= 9.25D-01 WtEn= 7.53D-02
 Coeff-Com:  0.100D+01
 Coeff-En:   0.100D+01
 Coeff:      0.100D+01
 Gap=     0.664 Goal=   None    Shift=    0.000
 GapD=    0.664 DampG=2.000 DampE=1.000 DampFc=2.0000 IDamp=-1.
 RMSDP=3.00D-03 MaxDP=3.18D-02              OVMax= 7.30D-02

 Cycle   2  Pass 1  IDiag  1:
 E= -699.719254000374     Delta-E=       -0.024054500639 Rises=F Damp=F
 DIIS: error= 4.85D-03 at cycle   2 NSaved=   2.
 NSaved= 2 IEnMin= 2 EnMin= -699.719254000374     IErMin= 2 ErrMin= 4.85D-03
 ErrMax= 4.85D-03  0.00D+00 EMaxC= 1.00D-01 BMatC= 3.44D-03 BMatP= 1.39D-02
 IDIUse=3 WtCom= 9.51D-01 WtEn= 4.85D-02
 Coeff-Com:  0.216D+00 0.784D+00
 Coeff-En:   0.000D+00 0.100D+01
 Coeff:      0.205D+00 0.795D+00
 Gap=     0.211 Goal=   None    Shift=    0.000
 RMSDP=1.10D-03 MaxDP=1.97D-02 DE=-2.41D-02 OVMax= 2.81D-02

 Cycle   3  Pass 1  IDiag  1:
 E= -699.716956954958     Delta-E=        0.002297045416 Rises=F Damp=F
 DIIS: error= 7.05D-03 at cycle   3 NSaved=   3.
 NSaved= 3 IEnMin= 2 EnMin= -699.719254000374     IErMin= 2 ErrMin= 4.85D-03
 ErrMax= 7.05D-03  0.00D+00 EMaxC= 1.00D-01 BMatC= 6.59D-03 BMatP= 3.44D-03
 IDIUse=3 WtCom= 1.06D-01 WtEn= 8.94D-01
 Coeff-Com: -0.403D-01 0.600D+00 0.440D+00
 Coeff-En:   0.000D+00 0.620D+00 0.380D+00
 Coeff:     -0.429D-02 0.618D+00 0.386D+00
 Gap=     0.221 Goal=   None    Shift=    0.000
 RMSDP=6.93D-04 MaxDP=1.26D-02 DE= 2.30D-03 OVMax= 1.64D-02

 Cycle   4  Pass 1  IDiag  1:
 E= -699.721880580004     Delta-E=       -0.004923625046 Rises=F Damp=F
 DIIS: error= 8.92D-04 at cycle   4 NSaved=   4.
 NSaved= 4 IEnMin= 4 EnMin= -699.721880580004     IErMin= 4 ErrMin= 8.92D-04
 ErrMax= 8.92D-04  0.00D+00 EMaxC= 1.00D-01 BMatC= 1.15D-04 BMatP= 3.44D-03
 IDIUse=3 WtCom= 9.91D-01 WtEn= 8.92D-03
 Coeff-Com: -0.280D-01 0.299D+00 0.184D+00 0.545D+00
 Coeff-En:   0.000D+00 0.000D+00 0.000D+00 0.100D+01
 Coeff:     -0.277D-01 0.296D+00 0.183D+00 0.549D+00
 Gap=     0.221 Goal=   None    Shift=    0.000
 RMSDP=1.39D-04 MaxDP=2.61D-03 DE=-4.92D-03 OVMax= 3.07D-03

 Cycle   5  Pass 1  IDiag  1:
 E= -699.721951017822     Delta-E=       -0.000070437817 Rises=F Damp=F
 DIIS: error= 3.91D-04 at cycle   5 NSaved=   5.
 NSaved= 5 IEnMin= 5 EnMin= -699.721951017822     IErMin= 5 ErrMin= 3.91D-04
 ErrMax= 3.91D-04  0.00D+00 EMaxC= 1.00D-01 BMatC= 3.03D-05 BMatP= 1.15D-04
 IDIUse=3 WtCom= 9.96D-01 WtEn= 3.91D-03
 Coeff-Com: -0.102D-01 0.802D-01 0.375D-01 0.367D+00 0.526D+00
 Coeff-En:   0.000D+00 0.000D+00 0.000D+00 0.201D+00 0.799D+00
 Coeff:     -0.102D-01 0.799D-01 0.373D-01 0.366D+00 0.527D+00
 Gap=     0.221 Goal=   None    Shift=    0.000
 RMSDP=5.21D-05 MaxDP=7.51D-04 DE=-7.04D-05 OVMax= 1.19D-03

 Cycle   6  Pass 1  IDiag  1:
 E= -699.721972054676     Delta-E=       -0.000021036854 Rises=F Damp=F
 DIIS: error= 8.74D-05 at cycle   6 NSaved=   6.
 NSaved= 6 IEnMin= 6 EnMin= -699.721972054676     IErMin= 6 ErrMin= 8.74D-05
 ErrMax= 8.74D-05  0.00D+00 EMaxC= 1.00D-01 BMatC= 2.23D-06 BMatP= 3.03D-05
 IDIUse=1 WtCom= 1.00D+00 WtEn= 0.00D+00
 Coeff-Com: -0.254D-02 0.163D-01 0.270D-02 0.158D+00 0.298D+00 0.528D+00
 Coeff:     -0.254D-02 0.163D-01 0.270D-02 0.158D+00 0.298D+00 0.528D+00
 Gap=     0.221 Goal=   None    Shift=    0.000
 RMSDP=1.90D-05 MaxDP=6.95D-04 DE=-2.10D-05 OVMax= 3.07D-04

 Cycle   7  Pass 1  IDiag  1:
 E= -699.721973756519     Delta-E=       -0.000001701843 Rises=F Damp=F
 DIIS: error= 3.49D-05 at cycle   7 NSaved=   7.
 NSaved= 7 IEnMin= 7 EnMin= -699.721973756519     IErMin= 7 ErrMin= 3.49D-05
 ErrMax= 3.49D-05  0.00D+00 EMaxC= 1.00D-01 BMatC= 2.31D-07 BMatP= 2.23D-06
 IDIUse=1 WtCom= 1.00D+00 WtEn= 0.00D+00
 Coeff-Com: -0.169D-03-0.241D-02-0.435D-02 0.399D-01 0.923D-01 0.291D+00
 Coeff-Com:  0.584D+00
 Coeff:     -0.169D-03-0.241D-02-0.435D-02 0.399D-01 0.923D-01 0.291D+00
 Coeff:      0.584D+00
 Gap=     0.221 Goal=   None    Shift=    0.000
 RMSDP=4.75D-06 MaxDP=1.08D-04 DE=-1.70D-06 OVMax= 9.11D-05

 Cycle   8  Pass 1  IDiag  1:
 E= -699.721973917469     Delta-E=       -0.000000160949 Rises=F Damp=F
 DIIS: error= 1.27D-05 at cycle   8 NSaved=   8.
 NSaved= 8 IEnMin= 8 EnMin= -699.721973917469     IErMin= 8 ErrMin= 1.27D-05
 ErrMax= 1.27D-05  0.00D+00 EMaxC= 1.00D-01 BMatC= 1.76D-08 BMatP= 2.31D-07
 IDIUse=1 WtCom= 1.00D+00 WtEn= 0.00D+00
 Coeff-Com:  0.138D-03-0.296D-02-0.269D-02 0.600D-02 0.185D-01 0.104D+00
 Coeff-Com:  0.299D+00 0.578D+00
 Coeff:      0.138D-03-0.296D-02-0.269D-02 0.600D-02 0.185D-01 0.104D+00
 Coeff:      0.299D+00 0.578D+00
 Gap=     0.221 Goal=   None    Shift=    0.000
 RMSDP=1.30D-06 MaxDP=1.84D-05 DE=-1.61D-07 OVMax= 2.45D-05

 Cycle   9  Pass 1  IDiag  1:
 E= -699.721973931313     Delta-E=       -0.000000013845 Rises=F Damp=F
 DIIS: error= 7.84D-07 at cycle   9 NSaved=   9.
 NSaved= 9 IEnMin= 9 EnMin= -699.721973931313     IErMin= 9 ErrMin= 7.84D-07
 ErrMax= 7.84D-07  0.00D+00 EMaxC= 1.00D-01 BMatC= 1.56D-10 BMatP= 1.76D-08
 IDIUse=1 WtCom= 1.00D+00 WtEn= 0.00D+00
 Coeff-Com:  0.356D-04-0.489D-03-0.338D-03-0.701D-03-0.148D-02 0.647D-02
 Coeff-Com:  0.305D-01 0.107D+00 0.859D+00
 Coeff:      0.356D-04-0.489D-03-0.338D-03-0.701D-03-0.148D-02 0.647D-02
 Coeff:      0.305D-01 0.107D+00 0.859D+00
 Gap=     0.221 Goal=   None    Shift=    0.000
 RMSDP=2.65D-07 MaxDP=3.37D-06 DE=-1.38D-08 OVMax= 5.30D-06

 Cycle  10  Pass 1  IDiag  1:
 E= -699.721973931371     Delta-E=       -0.000000000058 Rises=F Damp=F
 DIIS: error= 7.97D-07 at cycle  10 NSaved=  10.
 NSaved=10 IEnMin=10 EnMin= -699.721973931371     IErMin= 9 ErrMin= 7.84D-07
 ErrMax= 7.97D-07  0.00D+00 EMaxC= 1.00D-01 BMatC= 9.34D-11 BMatP= 1.56D-10
 IDIUse=1 WtCom= 1.00D+00 WtEn= 0.00D+00
 Coeff-Com:  0.145D-04-0.151D-03-0.760D-04-0.731D-03-0.176D-02-0.106D-02
 Coeff-Com:  0.494D-02 0.384D-01 0.526D+00 0.434D+00
 Coeff:      0.145D-04-0.151D-03-0.760D-04-0.731D-03-0.176D-02-0.106D-02
 Coeff:      0.494D-02 0.384D-01 0.526D+00 0.434D+00
 Gap=     0.221 Goal=   None    Shift=    0.000
 RMSDP=1.14D-07 MaxDP=1.94D-06 DE=-5.79D-11 OVMax= 3.14D-06

 Cycle  11  Pass 1  IDiag  1:
 E= -699.721973931468     Delta-E=       -0.000000000097 Rises=F Damp=F
 DIIS: error= 3.32D-07 at cycle  11 NSaved=  11.
 NSaved=11 IEnMin=11 EnMin= -699.721973931468     IErMin=11 ErrMin= 3.32D-07
 ErrMax= 3.32D-07  0.00D+00 EMaxC= 1.00D-01 BMatC= 1.32D-11 BMatP= 9.34D-11
 IDIUse=1 WtCom= 1.00D+00 WtEn= 0.00D+00
 Coeff-Com:  0.360D-07 0.325D-04 0.355D-04-0.250D-03-0.555D-03-0.216D-02
 Coeff-Com: -0.420D-02-0.373D-02 0.958D-01 0.282D+00 0.633D+00
 Coeff:      0.360D-07 0.325D-04 0.355D-04-0.250D-03-0.555D-03-0.216D-02
 Coeff:     -0.420D-02-0.373D-02 0.958D-01 0.282D+00 0.633D+00
 Gap=     0.221 Goal=   None    Shift=    0.000
 RMSDP=3.82D-08 MaxDP=6.55D-07 DE=-9.67D-11 OVMax= 9.44D-07

 Cycle  12  Pass 1  IDiag  1:
 E= -699.721973931471     Delta-E=       -0.000000000003 Rises=F Damp=F
 DIIS: error= 2.03D-08 at cycle  12 NSaved=  12.
 NSaved=12 IEnMin=12 EnMin= -699.721973931471     IErMin=12 ErrMin= 2.03D-08
 ErrMax= 2.03D-08  0.00D+00 EMaxC= 1.00D-01 BMatC= 7.07D-14 BMatP= 1.32D-11
 IDIUse=1 WtCom= 1.00D+00 WtEn= 0.00D+00
 Coeff-Com: -0.609D-06 0.142D-04 0.109D-04-0.238D-04-0.334D-04-0.430D-03
 Coeff-Com: -0.110D-02-0.243D-02-0.330D-02 0.406D-01 0.114D+00 0.852D+00
 Coeff:     -0.609D-06 0.142D-04 0.109D-04-0.238D-04-0.334D-04-0.430D-03
 Coeff:     -0.110D-02-0.243D-02-0.330D-02 0.406D-01 0.114D+00 0.852D+00
 Gap=     0.221 Goal=   None    Shift=    0.000
 RMSDP=5.63D-09 MaxDP=8.26D-08 DE=-2.73D-12 OVMax= 1.34D-07

 SCF Done:  E(RB3LYP) =  -699.721973931     A.U. after   12 cycles
            NFock= 12  Conv=0.56D-08     -V/T= 2.0064
 KE= 6.952424527998D+02 PE=-2.200318263538D+03 EE= 5.382654522133D+02
 Leave Link  502 at Wed Sep 18 00:22:04 2024, MaxMem=   268435456 cpu:        11.2
 (Enter /g100_work/pMI24_ChiCa/g09d1/g09d01/d01/build-node-6-2-59348/src/main/l701.exe)
 Compute integral first derivatives.
 ... and contract with generalized density number  0.
 Leave Link  701 at Wed Sep 18 00:22:04 2024, MaxMem=   268435456 cpu:         1.6
 (Enter /g100_work/pMI24_ChiCa/g09d1/g09d01/d01/build-node-6-2-59348/src/main/l702.exe)
 L702 exits ... SP integral derivatives will be done elsewhere.
 Leave Link  702 at Wed Sep 18 00:22:04 2024, MaxMem=   268435456 cpu:         0.1
 (Enter /g100_work/pMI24_ChiCa/g09d1/g09d01/d01/build-node-6-2-59348/src/main/l703.exe)
 Compute integral first derivatives, UseDBF=F ICtDFT=           0.
 Integral derivatives from FoFJK, PRISM(SPDF).
 Calling FoFJK, ICntrl=      2127 FMM=F ISym2X=0 I1Cent= 0 IOpClX= 0 NMat=1 NMatS=1 NMatT=0.
 FoFJK:  IHMeth= 1 ICntrl=    2127 DoSepK=F KAlg= 0 I1Cent=   0 FoldK=F
 IRaf=         0 NMat=   1 IRICut=       1 DoRegI=T DoRafI=F ISym2E= 0.
 FoFCou: FMM=F IPFlag=           0 FMFlag=      100000 FMFlg1=         800
         NFxFlg=           0 DoJE=F BraDBF=F KetDBF=F FulRan=T
         wScrn=  0.000000 ICntrl=    2127 IOpCl=  0 I1Cent=           0 NGrid=           0
         NMat0=    1 NMatS0=      1 NMatT0=    0 NMatD0=    1 NMtDS0=    0 NMtDT0=    0
 Symmetry not used in FoFCou.
 Leave Link  703 at Wed Sep 18 00:22:05 2024, MaxMem=   268435456 cpu:         6.1
 (Enter /g100_work/pMI24_ChiCa/g09d1/g09d01/d01/build-node-6-2-59348/src/main/l716.exe)
 Dipole        = 1.25489435D+00 5.40969904D-02-1.06488227D-01
 ***** Axes restored to original set *****
 -------------------------------------------------------------------
 Center     Atomic                   Forces (Hartrees/Bohr)
 Number     Number              X              Y              Z
 -------------------------------------------------------------------
      1       16           0.053063820   -0.003813385   -0.038106389
      2        8           0.002724905   -0.006285794    0.016272622
      3        8          -0.064739147   -0.000610666    0.016861250
      4        8           0.007499852    0.014928511    0.004752941
      5        8           0.003514377   -0.008657888    0.002689164
      6        1          -0.002063807    0.004439224   -0.002469589
 -------------------------------------------------------------------
 Cartesian Forces:  Max     0.064739147 RMS     0.022968915
 Leave Link  716 at Wed Sep 18 00:22:05 2024, MaxMem=   268435456 cpu:         0.1
 (Enter /g100_work/pMI24_ChiCa/g09d1/g09d01/d01/build-node-6-2-59348/src/main/l103.exe)

 GradGradGradGradGradGradGradGradGradGradGradGradGradGradGradGradGradGrad
 Berny optimization.
 Using GEDIIS/GDIIS optimizer.
 FormGI is forming the generalized inverse of G from B-inverse, IUseBI=4.
 Internal  Forces:  Max     0.066903978 RMS     0.018500547
 Search for a local minimum.
 Step number   2 out of a maximum of   25
 All quantities printed in internal units (Hartrees-Bohrs-Radians)
 RMS Force = .18501D-01 SwitMx=.10000D-02 MixMth= 1
 Mixed Optimization -- RFO/linear search
 Update second derivatives using D2CorX and points    1    2
 DE= -2.70D-02 DEPred=-2.55D-02 R= 1.06D+00
 TightC=F SS=  1.41D+00  RLast= 3.00D-01 DXNew= 5.0454D-01 8.9871D-01
 Trust test= 1.06D+00 RLast= 3.00D-01 DXMaxT set to 5.05D-01
 The second derivative matrix:
                          R1        R2        R3        R4        R5
           R1           0.41358
           R2           0.01801   0.27129
           R3           0.00526  -0.03947   0.72349
           R4           0.00421  -0.02467  -0.00689   0.73051
           R5          -0.00741   0.02167   0.00588   0.00265   0.57857
           A1           0.01402  -0.02897  -0.00767  -0.00252  -0.00688
           A2           0.01401  -0.02692  -0.00708  -0.00209  -0.00749
           A3           0.01635  -0.03320  -0.00877  -0.00281  -0.00821
           A4          -0.01288   0.01933   0.00495   0.00080   0.00849
           A5          -0.01219   0.01644   0.00416   0.00037   0.00857
           A6          -0.01826   0.03005   0.00778   0.00168   0.01124
           A7           0.00274  -0.01355  -0.00376  -0.00213   0.00099
           D1           0.00052   0.00120   0.00037   0.00038  -0.00093
           D2           0.00131   0.00328   0.00100   0.00101  -0.00241
           D3          -0.00179  -0.00492  -0.00149  -0.00147   0.00343
                          A1        A2        A3        A4        A5
           A1           0.26930
           A2           0.02036   0.27140
           A3           0.02284   0.02407   0.27701
           A4          -0.02155  -0.02247  -0.02542   0.27314
           A5          -0.02134  -0.02220  -0.02516   0.02273   0.27228
           A6          -0.02915  -0.03047  -0.03441   0.03158   0.03107
           A7          -0.00034  -0.00008  -0.00032  -0.00062  -0.00082
           D1           0.00190   0.00193   0.00223  -0.00184  -0.00176
           D2           0.00492   0.00498   0.00576  -0.00474  -0.00454
           D3          -0.00695  -0.00703  -0.00813   0.00667   0.00638
                          A6        A7        D1        D2        D3
           A6           0.29300
           A7          -0.00054   0.15893
           D1          -0.00257   0.00028   0.01835
           D2          -0.00664   0.00073   0.00025   0.01889
           D3           0.00935  -0.00105  -0.00035  -0.00088   0.01947
 ITU=  1  0
 Use linear search instead of GDIIS.
     Eigenvalues ---    0.01825   0.15656   0.17520   0.17740   0.23615
     Eigenvalues ---    0.25000   0.25014   0.39624   0.44601   0.58439
     Eigenvalues ---    0.72460   0.73483
 RFO step:  Lambda=-1.27623876D-02 EMin= 1.82516550D-02
 Quartic linear search produced a step of  0.33521.
 Iteration  1 RMS(Cart)=  0.04989359 RMS(Int)=  0.00903858
 Iteration  2 RMS(Cart)=  0.00806114 RMS(Int)=  0.00168293
 Iteration  3 RMS(Cart)=  0.00000210 RMS(Int)=  0.00168293
 Iteration  4 RMS(Cart)=  0.00000000 RMS(Int)=  0.00168293
 ITry= 1 IFail=0 DXMaxC= 1.73D-01 DCOld= 1.00D+10 DXMaxT= 5.05D-01 DXLimC= 3.00D+00 Rises=F
 Variable       Old X    -DE/DX   Delta X   Delta X   Delta X     New X
                                 (Linear)    (Quad)   (Total)
    R1        3.14690   0.01382   0.00334   0.04145   0.04479   3.19168
    R2        2.97431  -0.06690  -0.05452  -0.17957  -0.23409   2.74022
    R3        2.82758  -0.01734  -0.00868  -0.02763  -0.03632   2.79127
    R4        2.83595  -0.00962  -0.00588  -0.01493  -0.02081   2.81514
    R5        1.82174   0.00391   0.00888   0.00497   0.01385   1.83560
    A1        1.81125  -0.00016  -0.03331   0.02898  -0.00656   1.80470
    A2        1.82330  -0.00092  -0.03237   0.02238  -0.01209   1.81121
    A3        1.79089  -0.00166  -0.03859   0.02360  -0.01724   1.77365
    A4        1.98744   0.00112   0.02730  -0.01209   0.01230   1.99973
    A5        1.99439   0.00165   0.02498  -0.00667   0.01503   2.00942
    A6        2.02045  -0.00069   0.03989  -0.03770  -0.00073   2.01972
    A7        1.86355  -0.00693  -0.01578  -0.03516  -0.05095   1.81260
    D1        2.09451  -0.00018  -0.00280  -0.00344  -0.00586   2.08865
    D2       -2.10167   0.00061  -0.00527   0.00525  -0.00007  -2.10173
    D3        0.01330  -0.00127   0.00446  -0.01709  -0.01297   0.00033
         Item               Value     Threshold  Converged?
 Maximum Force            0.066904     0.000450     NO 
 RMS     Force            0.018501     0.000300     NO 
 Maximum Displacement     0.173187     0.001800     NO 
 RMS     Displacement     0.057174     0.001200     NO 
 Predicted change in Energy=-1.006479D-02
 Lowest energy point so far.  Saving SCF results.
 GradGradGradGradGradGradGradGradGradGradGradGradGradGradGradGradGradGrad

 Leave Link  103 at Wed Sep 18 00:22:05 2024, MaxMem=   268435456 cpu:         1.2
 (Enter /g100_work/pMI24_ChiCa/g09d1/g09d01/d01/build-node-6-2-59348/src/main/l202.exe)
                          Input orientation:                          
 ---------------------------------------------------------------------
 Center     Atomic      Atomic             Coordinates (Angstroms)
 Number     Number       Type             X           Y           Z
 ---------------------------------------------------------------------
      1         16           0        0.028399   -0.005935   -0.094021
      2          8           0        0.032754   -0.027174    1.594807
      3          8           0        1.438071    0.008171   -0.433594
      4          8           0       -0.679133   -1.249928   -0.459571
      5          8           0       -0.703086    1.260732   -0.376348
      6          1           0       -0.439197    0.785988    1.838868
 ---------------------------------------------------------------------
                    Distance matrix (angstroms):
                    1          2          3          4          5
     1  S    0.000000
     2  O    1.688967   0.000000
     3  O    1.450063   2.467909   0.000000
     4  O    1.477074   2.494470   2.462934   0.000000
     5  O    1.489706   2.466904   2.481278   2.512154   0.000000
     6  H    2.140525   0.971357   3.048478   3.079829   2.280834
                    6
     6  H    0.000000
 Stoichiometry    HO4S(1-)
 Framework group  C1[X(HO4S)]
 Deg. of freedom    12
 Full point group                 C1      NOp   1
 RotChk:  IX=2 Diff= 1.82D+00
 Largest Abelian subgroup         C1      NOp   1
 Largest concise Abelian subgroup C1      NOp   1
                         Standard orientation:                         
 ---------------------------------------------------------------------
 Center     Atomic      Atomic             Coordinates (Angstroms)
 Number     Number       Type             X           Y           Z
 ---------------------------------------------------------------------
      1         16           0       -0.142625    0.061826    0.008595
      2          8           0        1.280212   -0.826497   -0.188958
      3          8           0       -0.712420    0.084676   -1.324632
      4          8           0       -0.914074   -0.724042    0.992987
      5          8           0        0.384038    1.368050    0.494013
      6          1           0        1.979945   -0.206708    0.075182
 ---------------------------------------------------------------------
 Rotational constants (GHZ):      5.1669784      4.9080535      4.8525110
 Leave Link  202 at Wed Sep 18 00:22:05 2024, MaxMem=   268435456 cpu:         0.1
 (Enter /g100_work/pMI24_ChiCa/g09d1/g09d01/d01/build-node-6-2-59348/src/main/l301.exe)
 Standard basis: 6-31+G(d,p) (6D, 7F)
 Ernie: Thresh=  0.10000D-02 Tol=  0.10000D-05 Strict=F.
 There are   104 symmetry adapted cartesian basis functions of A   symmetry.
 There are   104 symmetry adapted basis functions of A   symmetry.
   104 basis functions,   191 primitive gaussians,   104 cartesian basis functions
    25 alpha electrons       25 beta electrons
       nuclear repulsion energy       272.9847521768 Hartrees.
 IExCor=  402 DFT=T Ex+Corr=B3LYP ExCW=0 ScaHFX=  0.200000
 ScaDFX=  0.800000  0.720000  1.000000  0.810000 ScalE2=  1.000000  1.000000
 IRadAn=      0 IRanWt=     -1 IRanGd=            0 ICorTp=0 IEmpDi=  4
 NAtoms=    6 NActive=    6 NUniq=    6 SFac= 1.00D+00 NAtFMM=   60 NAOKFM=F Big=F
 Integral buffers will be    131072 words long.
 Raffenetti 2 integral format.
 Two-electron integral symmetry is turned on.
 Leave Link  301 at Wed Sep 18 00:22:05 2024, MaxMem=   268435456 cpu:         0.1
 (Enter /g100_work/pMI24_ChiCa/g09d1/g09d01/d01/build-node-6-2-59348/src/main/l302.exe)
 NPDir=0 NMtPBC=     1 NCelOv=     1 NCel=       1 NClECP=     1 NCelD=      1
         NCelK=      1 NCelE2=     1 NClLst=     1 CellRange=     0.0.
 One-electron integrals computed using PRISM.
 NBasis=   104 RedAO= T EigKep=  1.64D-03  NBF=   104
 NBsUse=   104 1.00D-06 EigRej= -1.00D+00 NBFU=   104
 Precomputing XC quadrature grid using
 IXCGrd= 4 IRadAn=           0 IRanWt=          -1 IRanGd=           0 AccXCQ= 0.00D+00.
 Generated NRdTot=       0 NPtTot=           0 NUsed=           0 NTot=          32
 NSgBfM=   104   104   104   104   104 MxSgAt=     6 MxSgA2=     6.
 Leave Link  302 at Wed Sep 18 00:22:05 2024, MaxMem=   268435456 cpu:         1.3
 (Enter /g100_work/pMI24_ChiCa/g09d1/g09d01/d01/build-node-6-2-59348/src/main/l303.exe)
 DipDrv:  MaxL=1.
 Leave Link  303 at Wed Sep 18 00:22:05 2024, MaxMem=   268435456 cpu:         0.2
 (Enter /g100_work/pMI24_ChiCa/g09d1/g09d01/d01/build-node-6-2-59348/src/main/l401.exe)
 Initial guess from the checkpoint file:  "/g100_scratch/userexternal/ecabiati/g16_14421831/Gau-30957.chk"
 B after Tr=     0.000000    0.000000   -0.000000
         Rot=    0.765164    0.630062    0.106636    0.078582 Ang=  80.16 deg.
 Guess basis will be translated and rotated to current coordinates.
 JPrj=2 DoOrth=T DoCkMO=T.
 Generating alternative initial guess.
 ExpMin= 4.05D-02 ExpMax= 2.19D+04 ExpMxC= 3.30D+03 IAcc=2 IRadAn=         4 AccDes= 0.00D+00
 Harris functional with IExCor=  402 and IRadAn=       4 diagonalized for initial guess.
 HarFok:  IExCor=  402 AccDes= 0.00D+00 IRadAn=         4 IDoV= 1 UseB2=F ITyADJ=14
 ICtDFT=  3500011 ScaDFX=  1.000000  1.000000  1.000000  1.000000
 FoFCou: FMM=F IPFlag=           0 FMFlag=      100000 FMFlg1=           0
         NFxFlg=           0 DoJE=T BraDBF=F KetDBF=T FulRan=T
         wScrn=  0.000000 ICntrl=     500 IOpCl=  0 I1Cent=   200000004 NGrid=           0
         NMat0=    1 NMatS0=      1 NMatT0=    0 NMatD0=    1 NMtDS0=    0 NMtDT0=    0
 Petite list used in FoFCou.
 Harris En= -699.926263303805    
 Leave Link  401 at Wed Sep 18 00:22:05 2024, MaxMem=   268435456 cpu:         2.0
 (Enter /g100_work/pMI24_ChiCa/g09d1/g09d01/d01/build-node-6-2-59348/src/main/l502.exe)
 Closed shell SCF:
 Using DIIS extrapolation, IDIIS=  1040.
 Integral symmetry usage will be decided dynamically.
 Keep R1 ints in memory in canonical form, NReq=15889713.
 IVT=       54263 IEndB=       54263 NGot=   268435456 MDV=   253472664
 LenX=   253472664 LenY=   253461407
 Requested convergence on RMS density matrix=1.00D-08 within 128 cycles.
 Requested convergence on MAX density matrix=1.00D-06.
 Requested convergence on             energy=1.00D-06.
 No special actions if energy rises.
 FoFCou: FMM=F IPFlag=           0 FMFlag=           0 FMFlg1=           0
         NFxFlg=           0 DoJE=F BraDBF=F KetDBF=F FulRan=T
         wScrn=  0.000000 ICntrl=     600 IOpCl=  0 I1Cent=           0 NGrid=           0
         NMat0=    1 NMatS0=   5460 NMatT0=    0 NMatD0=    1 NMtDS0=    0 NMtDT0=    0
 Symmetry not used in FoFCou.

 Cycle   1  Pass 1  IDiag  1:
 E= -699.717573625054    
 DIIS: error= 6.59D-03 at cycle   1 NSaved=   1.
 NSaved= 1 IEnMin= 1 EnMin= -699.717573625054     IErMin= 1 ErrMin= 6.59D-03
 ErrMax= 6.59D-03  0.00D+00 EMaxC= 1.00D-01 BMatC= 7.69D-03 BMatP= 7.69D-03
 IDIUse=3 WtCom= 9.34D-01 WtEn= 6.59D-02
 Coeff-Com:  0.100D+01
 Coeff-En:   0.100D+01
 Coeff:      0.100D+01
 Gap=     0.668 Goal=   None    Shift=    0.000
 GapD=    0.668 DampG=2.000 DampE=1.000 DampFc=2.0000 IDamp=-1.
 RMSDP=2.43D-03 MaxDP=3.35D-02              OVMax= 3.12D-02

 Cycle   2  Pass 1  IDiag  1:
 E= -699.725705805761     Delta-E=       -0.008132180708 Rises=F Damp=F
 DIIS: error= 4.62D-03 at cycle   2 NSaved=   2.
 NSaved= 2 IEnMin= 2 EnMin= -699.725705805761     IErMin= 2 ErrMin= 4.62D-03
 ErrMax= 4.62D-03  0.00D+00 EMaxC= 1.00D-01 BMatC= 3.93D-03 BMatP= 7.69D-03
 IDIUse=3 WtCom= 9.54D-01 WtEn= 4.62D-02
 Coeff-Com:  0.380D+00 0.620D+00
 Coeff-En:   0.000D+00 0.100D+01
 Coeff:      0.363D+00 0.637D+00
 Gap=     0.227 Goal=   None    Shift=    0.000
 RMSDP=9.45D-04 MaxDP=2.27D-02 DE=-8.13D-03 OVMax= 2.59D-02

 Cycle   3  Pass 1  IDiag  1:
 E= -699.726168758752     Delta-E=       -0.000462952990 Rises=F Damp=F
 DIIS: error= 4.41D-03 at cycle   3 NSaved=   3.
 NSaved= 3 IEnMin= 3 EnMin= -699.726168758752     IErMin= 3 ErrMin= 4.41D-03
 ErrMax= 4.41D-03  0.00D+00 EMaxC= 1.00D-01 BMatC= 3.16D-03 BMatP= 3.93D-03
 IDIUse=3 WtCom= 9.56D-01 WtEn= 4.41D-02
 Coeff-Com:  0.158D-01 0.469D+00 0.515D+00
 Coeff-En:   0.000D+00 0.466D+00 0.534D+00
 Coeff:      0.151D-01 0.469D+00 0.516D+00
 Gap=     0.230 Goal=   None    Shift=    0.000
 RMSDP=5.77D-04 MaxDP=1.07D-02 DE=-4.63D-04 OVMax= 1.19D-02

 Cycle   4  Pass 1  IDiag  1:
 E= -699.728509728050     Delta-E=       -0.002340969298 Rises=F Damp=F
 DIIS: error= 6.50D-04 at cycle   4 NSaved=   4.
 NSaved= 4 IEnMin= 4 EnMin= -699.728509728050     IErMin= 4 ErrMin= 6.50D-04
 ErrMax= 6.50D-04  0.00D+00 EMaxC= 1.00D-01 BMatC= 8.30D-05 BMatP= 3.16D-03
 IDIUse=3 WtCom= 9.93D-01 WtEn= 6.50D-03
 Coeff-Com: -0.133D-01 0.175D+00 0.252D+00 0.586D+00
 Coeff-En:   0.000D+00 0.000D+00 0.000D+00 0.100D+01
 Coeff:     -0.132D-01 0.174D+00 0.250D+00 0.589D+00
 Gap=     0.230 Goal=   None    Shift=    0.000
 RMSDP=1.09D-04 MaxDP=1.95D-03 DE=-2.34D-03 OVMax= 2.30D-03

 Cycle   5  Pass 1  IDiag  1:
 E= -699.728569618884     Delta-E=       -0.000059890834 Rises=F Damp=F
 DIIS: error= 2.94D-04 at cycle   5 NSaved=   5.
 NSaved= 5 IEnMin= 5 EnMin= -699.728569618884     IErMin= 5 ErrMin= 2.94D-04
 ErrMax= 2.94D-04  0.00D+00 EMaxC= 1.00D-01 BMatC= 1.24D-05 BMatP= 8.30D-05
 IDIUse=3 WtCom= 9.97D-01 WtEn= 2.94D-03
 Coeff-Com: -0.856D-02 0.658D-01 0.112D+00 0.350D+00 0.481D+00
 Coeff-En:   0.000D+00 0.000D+00 0.000D+00 0.242D-01 0.976D+00
 Coeff:     -0.853D-02 0.656D-01 0.112D+00 0.349D+00 0.482D+00
 Gap=     0.230 Goal=   None    Shift=    0.000
 RMSDP=3.65D-05 MaxDP=5.98D-04 DE=-5.99D-05 OVMax= 1.01D-03

 Cycle   6  Pass 1  IDiag  1:
 E= -699.728578197958     Delta-E=       -0.000008579073 Rises=F Damp=F
 DIIS: error= 8.26D-05 at cycle   6 NSaved=   6.
 NSaved= 6 IEnMin= 6 EnMin= -699.728578197958     IErMin= 6 ErrMin= 8.26D-05
 ErrMax= 8.26D-05  0.00D+00 EMaxC= 1.00D-01 BMatC= 1.24D-06 BMatP= 1.24D-05
 IDIUse=1 WtCom= 1.00D+00 WtEn= 0.00D+00
 Coeff-Com: -0.311D-02 0.182D-01 0.371D-01 0.137D+00 0.287D+00 0.524D+00
 Coeff:     -0.311D-02 0.182D-01 0.371D-01 0.137D+00 0.287D+00 0.524D+00
 Gap=     0.230 Goal=   None    Shift=    0.000
 RMSDP=1.24D-05 MaxDP=3.59D-04 DE=-8.58D-06 OVMax= 2.19D-04

 Cycle   7  Pass 1  IDiag  1:
 E= -699.728579166477     Delta-E=       -0.000000968519 Rises=F Damp=F
 DIIS: error= 9.08D-06 at cycle   7 NSaved=   7.
 NSaved= 7 IEnMin= 7 EnMin= -699.728579166477     IErMin= 7 ErrMin= 9.08D-06
 ErrMax= 9.08D-06  0.00D+00 EMaxC= 1.00D-01 BMatC= 2.50D-08 BMatP= 1.24D-06
 IDIUse=1 WtCom= 1.00D+00 WtEn= 0.00D+00
 Coeff-Com: -0.613D-04-0.203D-02-0.159D-02 0.270D-02 0.329D-01 0.160D+00
 Coeff-Com:  0.808D+00
 Coeff:     -0.613D-04-0.203D-02-0.159D-02 0.270D-02 0.329D-01 0.160D+00
 Coeff:      0.808D+00
 Gap=     0.230 Goal=   None    Shift=    0.000
 RMSDP=2.03D-06 MaxDP=4.76D-05 DE=-9.69D-07 OVMax= 3.34D-05

 Cycle   8  Pass 1  IDiag  1:
 E= -699.728579187446     Delta-E=       -0.000000020969 Rises=F Damp=F
 DIIS: error= 2.84D-06 at cycle   8 NSaved=   8.
 NSaved= 8 IEnMin= 8 EnMin= -699.728579187446     IErMin= 8 ErrMin= 2.84D-06
 ErrMax= 2.84D-06  0.00D+00 EMaxC= 1.00D-01 BMatC= 1.95D-09 BMatP= 2.50D-08
 IDIUse=1 WtCom= 1.00D+00 WtEn= 0.00D+00
 Coeff-Com:  0.182D-04-0.124D-02-0.145D-02-0.660D-03 0.119D-01 0.714D-01
 Coeff-Com:  0.398D+00 0.522D+00
 Coeff:      0.182D-04-0.124D-02-0.145D-02-0.660D-03 0.119D-01 0.714D-01
 Coeff:      0.398D+00 0.522D+00
 Gap=     0.230 Goal=   None    Shift=    0.000
 RMSDP=5.91D-07 MaxDP=9.00D-06 DE=-2.10D-08 OVMax= 1.46D-05

 Cycle   9  Pass 1  IDiag  1:
 E= -699.728579188474     Delta-E=       -0.000000001029 Rises=F Damp=F
 DIIS: error= 2.12D-06 at cycle   9 NSaved=   9.
 NSaved= 9 IEnMin= 9 EnMin= -699.728579188474     IErMin= 9 ErrMin= 2.12D-06
 ErrMax= 2.12D-06  0.00D+00 EMaxC= 1.00D-01 BMatC= 6.67D-10 BMatP= 1.95D-09
 IDIUse=1 WtCom= 1.00D+00 WtEn= 0.00D+00
 Coeff-Com:  0.277D-04-0.418D-03-0.724D-03-0.111D-02 0.725D-03 0.137D-01
 Coeff-Com:  0.937D-01 0.372D+00 0.522D+00
 Coeff:      0.277D-04-0.418D-03-0.724D-03-0.111D-02 0.725D-03 0.137D-01
 Coeff:      0.937D-01 0.372D+00 0.522D+00
 Gap=     0.230 Goal=   None    Shift=    0.000
 RMSDP=2.70D-07 MaxDP=3.82D-06 DE=-1.03D-09 OVMax= 5.76D-06

 Cycle  10  Pass 1  IDiag  1:
 E= -699.728579188954     Delta-E=       -0.000000000480 Rises=F Damp=F
 DIIS: error= 2.04D-07 at cycle  10 NSaved=  10.
 NSaved=10 IEnMin=10 EnMin= -699.728579188954     IErMin=10 ErrMin= 2.04D-07
 ErrMax= 2.04D-07  0.00D+00 EMaxC= 1.00D-01 BMatC= 1.23D-11 BMatP= 6.67D-10
 IDIUse=1 WtCom= 1.00D+00 WtEn= 0.00D+00
 Coeff-Com:  0.942D-05-0.105D-03-0.223D-03-0.427D-03-0.352D-03 0.164D-02
 Coeff-Com:  0.165D-01 0.120D+00 0.216D+00 0.648D+00
 Coeff:      0.942D-05-0.105D-03-0.223D-03-0.427D-03-0.352D-03 0.164D-02
 Coeff:      0.165D-01 0.120D+00 0.216D+00 0.648D+00
 Gap=     0.230 Goal=   None    Shift=    0.000
 RMSDP=4.80D-08 MaxDP=1.19D-06 DE=-4.80D-10 OVMax= 7.28D-07

 Cycle  11  Pass 1  IDiag  1:
 E= -699.728579188964     Delta-E=       -0.000000000010 Rises=F Damp=F
 DIIS: error= 1.28D-07 at cycle  11 NSaved=  11.
 NSaved=11 IEnMin=11 EnMin= -699.728579188964     IErMin=11 ErrMin= 1.28D-07
 ErrMax= 1.28D-07  0.00D+00 EMaxC= 1.00D-01 BMatC= 3.24D-12 BMatP= 1.23D-11
 IDIUse=1 WtCom= 1.00D+00 WtEn= 0.00D+00
 Coeff-Com:  0.321D-05-0.135D-04-0.501D-04-0.141D-03-0.330D-03-0.752D-03
 Coeff-Com: -0.154D-02 0.285D-01 0.697D-01 0.387D+00 0.518D+00
 Coeff:      0.321D-05-0.135D-04-0.501D-04-0.141D-03-0.330D-03-0.752D-03
 Coeff:     -0.154D-02 0.285D-01 0.697D-01 0.387D+00 0.518D+00
 Gap=     0.230 Goal=   None    Shift=    0.000
 RMSDP=1.73D-08 MaxDP=5.71D-07 DE=-9.89D-12 OVMax= 2.79D-07

 Cycle  12  Pass 1  IDiag  1:
 E= -699.728579188985     Delta-E=       -0.000000000021 Rises=F Damp=F
 DIIS: error= 1.38D-08 at cycle  12 NSaved=  12.
 NSaved=12 IEnMin=12 EnMin= -699.728579188985     IErMin=12 ErrMin= 1.38D-08
 ErrMax= 1.38D-08  0.00D+00 EMaxC= 1.00D-01 BMatC= 3.74D-14 BMatP= 3.24D-12
 IDIUse=1 WtCom= 1.00D+00 WtEn= 0.00D+00
 Coeff-Com:  0.711D-07 0.313D-05 0.310D-05-0.741D-05-0.564D-04-0.300D-03
 Coeff-Com: -0.134D-02-0.935D-03 0.199D-02 0.493D-01 0.129D+00 0.823D+00
 Coeff:      0.711D-07 0.313D-05 0.310D-05-0.741D-05-0.564D-04-0.300D-03
 Coeff:     -0.134D-02-0.935D-03 0.199D-02 0.493D-01 0.129D+00 0.823D+00
 Gap=     0.230 Goal=   None    Shift=    0.000
 RMSDP=2.83D-09 MaxDP=4.02D-08 DE=-2.10D-11 OVMax= 5.73D-08

 SCF Done:  E(RB3LYP) =  -699.728579189     A.U. after   12 cycles
            NFock= 12  Conv=0.28D-08     -V/T= 2.0059
 KE= 6.955927660500D+02 PE=-2.212519546595D+03 EE= 5.442134491792D+02
 Leave Link  502 at Wed Sep 18 00:22:06 2024, MaxMem=   268435456 cpu:        11.0
 (Enter /g100_work/pMI24_ChiCa/g09d1/g09d01/d01/build-node-6-2-59348/src/main/l701.exe)
 Compute integral first derivatives.
 ... and contract with generalized density number  0.
 Leave Link  701 at Wed Sep 18 00:22:06 2024, MaxMem=   268435456 cpu:         1.5
 (Enter /g100_work/pMI24_ChiCa/g09d1/g09d01/d01/build-node-6-2-59348/src/main/l702.exe)
 L702 exits ... SP integral derivatives will be done elsewhere.
 Leave Link  702 at Wed Sep 18 00:22:06 2024, MaxMem=   268435456 cpu:         0.1
 (Enter /g100_work/pMI24_ChiCa/g09d1/g09d01/d01/build-node-6-2-59348/src/main/l703.exe)
 Compute integral first derivatives, UseDBF=F ICtDFT=           0.
 Integral derivatives from FoFJK, PRISM(SPDF).
 Calling FoFJK, ICntrl=      2127 FMM=F ISym2X=0 I1Cent= 0 IOpClX= 0 NMat=1 NMatS=1 NMatT=0.
 FoFJK:  IHMeth= 1 ICntrl=    2127 DoSepK=F KAlg= 0 I1Cent=   0 FoldK=F
 IRaf=         0 NMat=   1 IRICut=       1 DoRegI=T DoRafI=F ISym2E= 0.
 FoFCou: FMM=F IPFlag=           0 FMFlag=      100000 FMFlg1=         800
         NFxFlg=           0 DoJE=F BraDBF=F KetDBF=F FulRan=T
         wScrn=  0.000000 ICntrl=    2127 IOpCl=  0 I1Cent=           0 NGrid=           0
         NMat0=    1 NMatS0=      1 NMatT0=    0 NMatD0=    1 NMtDS0=    0 NMtDT0=    0
 Symmetry not used in FoFCou.
 Leave Link  703 at Wed Sep 18 00:22:07 2024, MaxMem=   268435456 cpu:         6.5
 (Enter /g100_work/pMI24_ChiCa/g09d1/g09d01/d01/build-node-6-2-59348/src/main/l716.exe)
 Dipole        = 9.78387620D-01 1.47808516D-03 2.75012902D-02
 ***** Axes restored to original set *****
 -------------------------------------------------------------------
 Center     Atomic                   Forces (Hartrees/Bohr)
 Number     Number              X              Y              Z
 -------------------------------------------------------------------
      1       16          -0.024002090   -0.001139105    0.003432686
      2        8          -0.003111153    0.003266706    0.012224476
      3        8           0.033015112    0.000867217   -0.010305159
      4        8          -0.004070760   -0.002265988   -0.002408887
      5        8          -0.003425171    0.002372684   -0.001873926
      6        1           0.001594062   -0.003101514   -0.001069191
 -------------------------------------------------------------------
 Cartesian Forces:  Max     0.033015112 RMS     0.010587206
 Leave Link  716 at Wed Sep 18 00:22:07 2024, MaxMem=   268435456 cpu:         0.1
 (Enter /g100_work/pMI24_ChiCa/g09d1/g09d01/d01/build-node-6-2-59348/src/main/l103.exe)

 GradGradGradGradGradGradGradGradGradGradGradGradGradGradGradGradGradGrad
 Berny optimization.
 Using GEDIIS/GDIIS optimizer.
 FormGI is forming the generalized inverse of G from B-inverse, IUseBI=4.
 Internal  Forces:  Max     0.034515502 RMS     0.009788273
 Search for a local minimum.
 Step number   3 out of a maximum of   25
 All quantities printed in internal units (Hartrees-Bohrs-Radians)
 RMS Force = .97883D-02 SwitMx=.10000D-02 MixMth= 1
 Mixed Optimization -- RFO/linear search
 Update second derivatives using D2CorX and points    1    2    3
 DE= -6.61D-03 DEPred=-1.01D-02 R= 6.56D-01
 TightC=F SS=  1.41D+00  RLast= 2.50D-01 DXNew= 8.4853D-01 7.4945D-01
 Trust test= 6.56D-01 RLast= 2.50D-01 DXMaxT set to 7.49D-01
 The second derivative matrix:
                          R1        R2        R3        R4        R5
           R1           0.41008
           R2           0.05677   0.44913
           R3           0.01512  -0.01409   0.72548
           R4           0.01036  -0.00372  -0.00453   0.73270
           R5          -0.01208   0.00147   0.00329   0.00049   0.58033
           A1           0.01856   0.01436  -0.00007   0.00289  -0.01092
           A2           0.01884  -0.00253  -0.00385   0.00045  -0.00911
           A3           0.02191  -0.00911  -0.00595  -0.00048  -0.00957
           A4          -0.01791   0.00893   0.00490   0.00034   0.00842
           A5          -0.01769   0.00582   0.00421  -0.00007   0.00857
           A6          -0.02382  -0.01277   0.00084  -0.00336   0.01474
           A7           0.00611  -0.00463  -0.00307  -0.00132   0.00017
           D1           0.00091  -0.00185  -0.00048  -0.00015  -0.00047
           D2           0.00262   0.00646   0.00118   0.00125  -0.00262
           D3          -0.00324  -0.00140  -0.00009  -0.00067   0.00272
                          A1        A2        A3        A4        A5
           A1           0.27595
           A2           0.02391   0.27219
           A3           0.02623   0.02438   0.27672
           A4          -0.02296  -0.02141  -0.02367   0.27043
           A5          -0.02308  -0.02130  -0.02356   0.02004   0.26961
           A6          -0.03528  -0.03301  -0.03654   0.03168   0.03150
           A7           0.00211   0.00085   0.00043  -0.00044  -0.00062
           D1           0.00143   0.00136   0.00156  -0.00122  -0.00111
           D2           0.00568   0.00512   0.00580  -0.00446  -0.00425
           D3          -0.00652  -0.00607  -0.00693   0.00538   0.00503
                          A6        A7        D1        D2        D3
           A6           0.29813
           A7          -0.00269   0.15916
           D1          -0.00193  -0.00003   0.01830
           D2          -0.00720   0.00077   0.00012   0.01887
           D3           0.00850  -0.00053  -0.00017  -0.00063   0.01901
 ITU=  1  1  0
 Use linear search instead of GDIIS.
[...]
                       Q            Log10(Q)             Ln(Q)
 Total Bot       0.914023D+01          0.960957          2.212686
 Total V=0       0.610231D+13         12.785494         29.439688
 Vib (Bot)       0.301916D-11        -11.520114        -26.526043
 Vib (Bot)    1  0.512971D+00         -0.289907         -0.667535
 Vib (Bot)    2  0.507991D+00         -0.294144         -0.677292
 Vib (Bot)    3  0.317337D+00         -0.498479         -1.147790
 Vib (Bot)    4  0.312648D+00         -0.504944         -1.162677
 Vib (Bot)    5  0.301290D+00         -0.521016         -1.199683
 Vib (V=0)       0.201569D+01          0.304423          0.700959
 Vib (V=0)    1  0.121634D+01          0.085054          0.195844
 Vib (V=0)    2  0.121278D+01          0.083782          0.192915
 Vib (V=0)    3  0.109220D+01          0.038303          0.088196
 Vib (V=0)    4  0.108970D+01          0.037308          0.085905
 Vib (V=0)    5  0.108376D+01          0.034933          0.080436
 Electronic      0.100000D+01          0.000000          0.000000
 Translational   0.375268D+08          7.574341         17.440565
 Rotational      0.806734D+05          4.906730         11.298164
 
                                                              h04s- gas
                                                             IR Spectrum
 
     3                                                                                     11    1                                   
     8                                                                                     22    0  9         6  555    33           
     2                                                                                     21    8  8         8  311    65           
     2                                                                                     72    0  2         2  172    18           
 
     X                                                                                     XX    X  X         X  XXX    XX           
     X                                                                                     XX    X  X         X  XX                  
                                                                                           XX    X  X         X                      
                                                                                           XX    X  X         X                      
                                                                                           XX    X            X                      
                                                                                           XX    X            X                      
                                                                                           XX    X            X                      
                                                                                           XX    X            X                      
                                                                                           XX    X            X                      
                                                                                           XX                 X                      
                                                                                           XX                 X                      
                                                                                           XX                 X                      
                                                                                           XX                 X                      
                                                                                           XX                 X                      
                                                                                           XX                 X                      
                                                                                           XX                                        
                                                                                            X                                        
                                                                                            X                                        
                                                                                            X                                        
                                                                                            X                                        
 
 ***** Axes restored to original set *****
 -------------------------------------------------------------------
 Center     Atomic                   Forces (Hartrees/Bohr)
 Number     Number              X              Y              Z
 -------------------------------------------------------------------
      1       16          -0.000505693    0.000246343   -0.000649489
      2        8           0.000248736   -0.000213821    0.000381469
      3        8          -0.000138375   -0.000000542    0.000186925
      4        8           0.000186219   -0.000020543    0.000071482
      5        8           0.000276099   -0.000172124    0.000061488
      6        1          -0.000066986    0.000160687   -0.000051874
 -------------------------------------------------------------------
 Cartesian Forces:  Max     0.000649489 RMS     0.000261225
 Force constants in Cartesian coordinates: 
                1             2             3             4             5 
      1  0.882955D+00
      2  0.786538D-02  0.874711D+00
      3 -0.202262D-01  0.406983D-01  0.435976D+00
      4 -0.680385D-01  0.841553D-02  0.512351D-02  0.162413D+00
      5  0.870982D-02 -0.783396D-01 -0.788463D-02 -0.226425D+00  0.433108D+00
      6 -0.120792D-01  0.221549D-01 -0.118022D+00 -0.488144D-01  0.832338D-01
      7 -0.459126D+00 -0.584993D-02  0.896545D-01 -0.643242D-03  0.465527D-02
      8 -0.385895D-02 -0.917006D-01  0.175949D-03  0.121252D-02  0.141526D-01
      9  0.874974D-01  0.147690D-02 -0.101485D+00  0.299403D-01 -0.587427D-02
     10 -0.183339D+00 -0.157761D+00 -0.460832D-01  0.130420D-01 -0.639388D-02
     11 -0.159585D+00 -0.365969D+00 -0.814839D-01 -0.301015D-02  0.347986D-03
     12 -0.460088D-01 -0.787568D-01 -0.103532D+00 -0.925756D-02 -0.292489D-01
     13 -0.175745D+00  0.145723D+00 -0.314374D-01  0.104447D-01  0.657657D-02
     14  0.145618D+00 -0.340417D+00  0.534808D-01  0.673829D-02  0.251206D-02
     15 -0.319483D-01  0.542987D-01 -0.100286D+00 -0.172920D-01  0.299351D-01
     16  0.329430D-02  0.160699D-02  0.296880D-02 -0.117218D+00  0.212877D+00
     17  0.125135D-02  0.171502D-02 -0.498654D-02  0.213069D+00 -0.371781D+00
     18  0.227652D-01 -0.398720D-01 -0.126509D-01  0.403001D-01 -0.701611D-01
                6             7             8             9            10 
      6  0.223118D+00
      7  0.798682D-02  0.501577D+00
      8 -0.307153D-02  0.600948D-02  0.684709D-01
      9 -0.130925D-01 -0.110130D+00  0.133498D-02  0.839018D-01
     10 -0.920158D-03 -0.217576D-01 -0.380656D-01 -0.531766D-02  0.176908D+00
     11 -0.845322D-02 -0.904523D-02  0.482111D-02 -0.377892D-02  0.187067D+00
     12 -0.134051D-01  0.544356D-02  0.230152D-02  0.180582D-01  0.549938D-01
     13 -0.656948D-02 -0.196443D-01  0.358166D-01 -0.374740D-02  0.178642D-01
     14  0.117631D-01  0.791618D-02  0.523746D-02  0.292041D-02  0.146838D-01
     15 -0.214401D-01  0.667277D-02 -0.425636D-02  0.173428D-01  0.501757D-03
     16  0.603965D-01 -0.405866D-03 -0.111412D-02  0.175696D-02 -0.271787D-02
     17 -0.105627D+00 -0.368577D-02 -0.981436D-03  0.392091D-02  0.469759D-03
     18 -0.571581D-01  0.371983D-03  0.351544D-02 -0.472579D-02 -0.317453D-02
               11            12            13            14            15 
     11  0.391605D+00
     12  0.100679D+00  0.865812D-01
     13 -0.131372D-01 -0.829681D-03  0.170471D+00
     14 -0.324264D-01  0.457054D-02 -0.176189D+00  0.369801D+00
     15 -0.830159D-02  0.173271D-01  0.445695D-01 -0.761633D-01  0.803619D-01
     16 -0.228880D-02 -0.434129D-02 -0.339062D-02  0.123313D-02 -0.250369D-02
     17  0.162100D-02  0.454265D-03  0.121028D-02 -0.470746D-02  0.448747D-02
     18  0.133824D-02 -0.502887D-02 -0.198556D-02  0.342848D-02  0.669418D-02
               16            17            18 
     16  0.120438D+00
     17 -0.212314D+00  0.374134D+00
     18 -0.582772D-01  0.101751D+00  0.728695D-01
 FormGI is forming the generalized inverse of G from B-inverse, IUseBI=4.
 Force constants in internal coordinates: 
                1             2             3             4             5 
      1  0.181469D+00
      2  0.124117D-01  0.528895D+00
      3  0.124977D-01  0.161491D-01  0.529578D+00
      4  0.200321D-01  0.143135D-01  0.143268D-01  0.491324D+00
      5 -0.745757D-03 -0.308206D-02 -0.314761D-02 -0.552960D-02  0.524784D+00
      6  0.287800D-01  0.823659D-02 -0.132829D-01 -0.160898D-01  0.381279D-03
      7  0.290093D-01 -0.132073D-01  0.842280D-02 -0.160908D-01  0.714859D-03
      8  0.190840D-01 -0.143465D-01 -0.142698D-01  0.301542D-01 -0.135190D-01
      9 -0.201771D-01  0.135316D-01  0.134715D-01 -0.138671D-01  0.283834D-02
     10 -0.182440D-01  0.125133D-01 -0.121770D-01  0.790259D-02  0.310279D-02
     11 -0.180397D-01 -0.121097D-01  0.125499D-01  0.792790D-02  0.313062D-02
     12  0.292790D-01  0.427013D-02  0.450558D-02  0.731987D-02  0.185203D-01
     13 -0.140673D-02  0.109926D-02 -0.140780D-01  0.147336D-01 -0.185851D-02
     14  0.127422D-02  0.140598D-01 -0.110279D-02 -0.148664D-01  0.179913D-02
     15  0.318726D-04 -0.992999D-02  0.100856D-01 -0.976196D-04  0.714039D-04
                6             7             8             9            10 
      6  0.280456D+00
      7  0.173385D-01  0.281600D+00
      8  0.180817D-01  0.179330D-01  0.312214D+00
      9 -0.842228D-01 -0.847729D-01 -0.760205D-01  0.165061D+00
     10 -0.739446D-01 -0.742159D-01 -0.893863D-01  0.638852D-02  0.161061D+00
     11 -0.742500D-01 -0.739767D-01 -0.893469D-01  0.635293D-02  0.789128D-02
     12  0.234589D-01  0.243524D-01 -0.358758D-01  0.120057D-02 -0.521848D-02
     13  0.264204D-02 -0.386987D-01  0.350108D-01 -0.554038D-01  0.546640D-01
     14  0.383669D-01 -0.267819D-02 -0.343575D-01  0.555043D-01 -0.297705D-02
     15 -0.292865D-01  0.289730D-01 -0.236457D-03  0.166040D-03 -0.580379D-01
               11            12            13            14            15 
     11  0.161314D+00
     12 -0.506459D-02  0.143170D+00
     13  0.280871D-02 -0.111140D-01  0.507766D-01
     14 -0.549007D-01  0.111399D-01 -0.270581D-01  0.506641D-01
     15  0.583693D-01  0.310261D-03 -0.244275D-01 -0.243332D-01  0.504339D-01
 Leave Link  716 at Wed Sep 18 00:22:19 2024, MaxMem=   268435456 cpu:         0.2
 (Enter /g100_work/pMI24_ChiCa/g09d1/g09d01/d01/build-node-6-2-59348/src/main/l103.exe)

 GradGradGradGradGradGradGradGradGradGradGradGradGradGradGradGradGradGrad
 Berny optimization.
 Red2BG is reusing G-inverse.
 Internal  Forces:  Max     0.000421793 RMS     0.000201593
 Search for a local minimum.
 Step number   1 out of a maximum of    2
 All quantities printed in internal units (Hartrees-Bohrs-Radians)
 Second derivative matrix not updated -- analytic derivatives used.
 The second derivative matrix:
                          R1        R2        R3        R4        R5
           R1           0.18147
           R2           0.01241   0.52890
           R3           0.01250   0.01615   0.52958
           R4           0.02003   0.01431   0.01433   0.49132
           R5          -0.00075  -0.00308  -0.00315  -0.00553   0.52478
           A1           0.02878   0.00824  -0.01328  -0.01609   0.00038
           A2           0.02901  -0.01321   0.00842  -0.01609   0.00071
           A3           0.01908  -0.01435  -0.01427   0.03015  -0.01352
           A4          -0.02018   0.01353   0.01347  -0.01387   0.00284
           A5          -0.01824   0.01251  -0.01218   0.00790   0.00310
           A6          -0.01804  -0.01211   0.01255   0.00793   0.00313
           A7           0.02928   0.00427   0.00451   0.00732   0.01852
           D1          -0.00141   0.00110  -0.01408   0.01473  -0.00186
           D2           0.00127   0.01406  -0.00110  -0.01487   0.00180
           D3           0.00003  -0.00993   0.01009  -0.00010   0.00007
                          A1        A2        A3        A4        A5
           A1           0.28046
           A2           0.01734   0.28160
           A3           0.01808   0.01793   0.31221
           A4          -0.08422  -0.08477  -0.07602   0.16506
           A5          -0.07394  -0.07422  -0.08939   0.00639   0.16106
           A6          -0.07425  -0.07398  -0.08935   0.00635   0.00789
           A7           0.02346   0.02435  -0.03588   0.00120  -0.00522
           D1           0.00264  -0.03870   0.03501  -0.05540   0.05466
           D2           0.03837  -0.00268  -0.03436   0.05550  -0.00298
           D3          -0.02929   0.02897  -0.00024   0.00017  -0.05804
                          A6        A7        D1        D2        D3
           A6           0.16131
           A7          -0.00506   0.14317
           D1           0.00281  -0.01111   0.05078
           D2          -0.05490   0.01114  -0.02706   0.05066
           D3           0.05837   0.00031  -0.02443  -0.02433   0.05043
 ITU=  0
     Eigenvalues ---   -0.00050   0.11622   0.17624   0.20307   0.21606
     Eigenvalues ---    0.28248   0.30760   0.49263   0.50661   0.51910
     Eigenvalues ---    0.53371   0.55958
 Eigenvalue     1 is  -4.98D-04 should be greater than     0.000000 Eigenvector:
                          D2        D1        D3        A2        A1
   1                    0.58066   0.58058   0.56864   0.02811  -0.02663
                          A5        A6        R2        R3        A7
   1                    0.02047  -0.02013  -0.00599   0.00580  -0.00214
 Angle between quadratic step and forces=  82.23 degrees.
 Linear search not attempted -- first point.
 Iteration  1 RMS(Cart)=  0.00516407 RMS(Int)=  0.00004418
 Iteration  2 RMS(Cart)=  0.00003643 RMS(Int)=  0.00000018
 Iteration  3 RMS(Cart)=  0.00000000 RMS(Int)=  0.00000018
 ITry= 1 IFail=0 DXMaxC= 1.27D-02 DCOld= 1.00D+10 DXMaxT= 3.00D-01 DXLimC= 3.00D+00 Rises=F
 Variable       Old X    -DE/DX   Delta X   Delta X   Delta X     New X
                                 (Linear)    (Quad)   (Total)
    R1        3.24096   0.00033   0.00000   0.00241   0.00241   3.24338
    R2        2.79714  -0.00018   0.00000  -0.00011  -0.00011   2.79703
    R3        2.79682  -0.00009   0.00000  -0.00041  -0.00041   2.79641
    R4        2.82144  -0.00029   0.00000  -0.00077  -0.00077   2.82068
    R5        1.82933   0.00015   0.00000   0.00032   0.00032   1.82966
    A1        1.81690  -0.00042   0.00000  -0.00063  -0.00063   1.81627
    A2        1.81433  -0.00001   0.00000  -0.00077  -0.00077   1.81356
    A3        1.77066   0.00007   0.00000   0.00027   0.00027   1.77094
    A4        2.00347   0.00000   0.00000  -0.00009  -0.00009   2.00338
    A5        2.00844  -0.00002   0.00000  -0.00072  -0.00072   2.00772
    A6        2.00787   0.00029   0.00000   0.00165   0.00165   2.00952
    A7        1.79507  -0.00016   0.00000  -0.00114  -0.00114   1.79393
    D1        2.07538   0.00000   0.00000  -0.01534  -0.01534   2.06005
    D2       -2.10428  -0.00019   0.00000  -0.01605  -0.01605  -2.12033
    D3       -0.01525   0.00015   0.00000  -0.01442  -0.01442  -0.02967
         Item               Value     Threshold  Converged?
 Maximum Force            0.000422     0.000450     YES
 RMS     Force            0.000202     0.000300     YES
 Maximum Displacement     0.012748     0.001800     NO 
 RMS     Displacement     0.005166     0.001200     NO 
 Predicted change in Energy=-1.758998D-06
 GradGradGradGradGradGradGradGradGradGradGradGradGradGradGradGradGradGrad

 Leave Link  103 at Wed Sep 18 00:22:19 2024, MaxMem=   268435456 cpu:         1.0
 (Enter /g100_work/pMI24_ChiCa/g09d1/g09d01/d01/build-node-6-2-59348/src/main/l9999.exe)
 1\1\GINC-R500N003\Freq\RB3LYP\6-31+G(d,p)\H1O4S1(1-)\ECABIATI\18-Sep-2
 024\0\\#P Geom=AllCheck Guess=TCheck SCRF=Check GenChk RB3LYP/6-31+G(d
 ,p) Freq\\h04s- gas\\-1,1\S,0.0282355191,-0.0088131,-0.0949241482\O,0.
 0242828139,-0.0279506501,1.6200082194\O,1.4645727075,0.0093657766,-0.4
 520512289\O,-0.6881648635,-1.2491861618,-0.4673256833\O,-0.7104850701,
 1.2572044878,-0.3789468486\H,-0.4406325745,0.7912333941,1.8433799674\\
 Version=EM64L-G09RevD.01\State=1-A\HF=-699.7299043\RMSD=6.164e-09\RMSF
 =2.612e-04\ZeroPoint=0.0257074\Thermal=0.0300888\Dipole=-0.2667802,0.4
 647356,0.8007833\DipoleDeriv=2.5003664,-0.0260608,-0.0642043,-0.025700
 2,2.5272188,0.1083386,-0.0726455,0.1231864,2.4436433,-0.6018869,-0.066
 0407,0.0635326,-0.0661149,-0.5197071,-0.0974155,0.0331637,-0.0446638,-
 1.559335,-1.4045018,-0.0041031,0.2415243,-0.0047386,-0.7055613,-0.0146
 046,0.1574201,-0.0093877,-0.7009888,-0.8747679,-0.2991878,-0.1092176,-
 0.2973079,-1.229676,-0.2239583,-0.0723885,-0.1476052,-0.704468,-0.8925
 994,0.327178,-0.1138205,0.325627,-1.2622053,0.1954243,-0.0363867,0.062
 2974,-0.7592563,0.2733897,0.0682144,-0.0178145,0.0682347,0.1899309,0.0
 322155,-0.0091629,0.016173,0.2804048\Polar=40.1898149,-0.2299146,40.44
 14575,-0.7102576,1.2268999,39.6018045\PG=C01 [X(H1O4S1)]\NImag=1\\0.88
 295474,0.00786538,0.87471093,-0.02022621,0.04069829,0.43597618,-0.0680
 3850,0.00841553,0.00512351,0.16241331,0.00870982,-0.07833961,-0.007884
 63,-0.22642507,0.43310814,-0.01207921,0.02215493,-0.11802229,-0.048814
 42,0.08323382,0.22311807,-0.45912632,-0.00584993,0.08965448,-0.0006432
 4,0.00465527,0.00798682,0.50157735,-0.00385895,-0.09170063,0.00017595,
 0.00121252,0.01415263,-0.00307153,0.00600948,0.06847087,0.08749736,0.0
 0147690,-0.10148452,0.02994034,-0.00587427,-0.01309251,-0.11012960,0.0
 0133498,0.08390179,-0.18333899,-0.15776079,-0.04608321,0.01304204,-0.0
 0639388,-0.00092016,-0.02175760,-0.03806556,-0.00531766,0.17690824,-0.
 15958533,-0.36596880,-0.08148387,-0.00301015,0.00034799,-0.00845322,-0
 .00904523,0.00482111,-0.00377892,0.18706667,0.39160514,-0.04600883,-0.
 07875679,-0.10353248,-0.00925756,-0.02924889,-0.01340508,0.00544356,0.
 00230152,0.01805818,0.05499380,0.10067935,0.08658118,-0.17574522,0.145
 72282,-0.03143737,0.01044470,0.00657657,-0.00656948,-0.01964433,0.0358
 1664,-0.00374740,0.01786418,-0.01313717,-0.00082968,0.17047128,0.14561
 773,-0.34041691,0.05348080,0.00673829,0.00251206,0.01176308,0.00791618
 ,0.00523746,0.00292041,0.01468381,-0.03242643,0.00457054,-0.17618914,0
 .36980128,-0.03194834,0.05429870,-0.10028596,-0.01729199,0.02993509,-0
 .02144007,0.00667277,-0.00425636,0.01734284,0.00050176,-0.00830159,0.0
 1732705,0.04456950,-0.07616332,0.08036195,0.00329430,0.00160699,0.0029
 6880,-0.11721830,0.21287730,0.06039645,-0.00040587,-0.00111412,0.00175
 696,-0.00271787,-0.00228880,-0.00434129,-0.00339062,0.00123313,-0.0025
 0369,0.12043836,0.00125135,0.00171502,-0.00498654,0.21306887,-0.371781
 20,-0.10562708,-0.00368577,-0.00098144,0.00392091,0.00046976,0.0016210
 0,0.00045427,0.00121028,-0.00470746,0.00448747,-0.21231449,0.37413408,
 0.02276523,-0.03987202,-0.01265094,0.04030011,-0.07016113,-0.05715812,
 0.00037198,0.00351544,-0.00472579,-0.00317453,0.00133824,-0.00502887,-
 0.00198556,0.00342848,0.00669418,-0.05827723,0.10175098,0.07286954\\0.
 00050569,-0.00024634,0.00064949,-0.00024874,0.00021382,-0.00038147,0.0
 0013837,0.00000054,-0.00018693,-0.00018622,0.00002054,-0.00007148,-0.0
 0027610,0.00017212,-0.00006149,0.00006699,-0.00016069,0.00005187\\\@


 "MATHEMATICS IS THE ART OF GIVING THE SAME NAME
 TO DIFFERENT THINGS."
                    - H. POINCARE
 Job cpu time:       0 days  0 hours  1 minutes 25.7 seconds.
 File lengths (MBytes):  RWF=     13 Int=      0 D2E=      0 Chk=      2 Scr=      1
 Normal termination of Gaussian 09 at Wed Sep 18 00:22:19 2024.
