 Entering Gaussian System, Link 0=/g100_work/pMI24_ChiCa/g09d1/g09d01/d01/build-node-6-2-59348/src/main/g09
 Input=geom.com
 Output=geom.log
 Initial command:
 /g100_work/pMI24_ChiCa/g09d1/g09d01/d01/build-node-6-2-59348/src/main/l1.exe "/g100_scratch/userexternal/ecabiati/g16_14416803/Gau-49431.inp" -scrdir="/g100_scratch/userexternal/ecabiati/g16_14416803/"
 Entering Link 1 = /g100_work/pMI24_ChiCa/g09d1/g09d01/d01/build-node-6-2-59348/src/main/l1.exe PID=     49432.
  
 Copyright (c) 1988,1990,1992,1993,1995,1998,2003,2009,2013,
            Gaussian, Inc.  All Rights Reserved.
  
 This is part of the Gaussian(R) 09 program.  It is based on
 the Gaussian(R) 03 system (copyright 2003, Gaussian, Inc.),
 the Gaussian(R) 98 system (copyright 1998, Gaussian, Inc.),
 the Gaussian(R) 94 system (copyright 1995, Gaussian, Inc.),
 the Gaussian 92(TM) system (copyright 1992, Gaussian, Inc.),
 the Gaussian 90(TM) system (copyright 1990, Gaussian, Inc.),
 the Gaussian 88(TM) system (copyright 1988, Gaussian, Inc.),
 the Gaussian 86(TM) system (copyright 1986, Carnegie Mellon
 University), and the Gaussian 82(TM) system (copyright 1983,
 Carnegie Mellon University). Gaussian is a federally registered
 trademark of Gaussian, Inc.
  
 This software contains proprietary and confidential information,
 including trade secrets, belonging to Gaussian, Inc.
  
 This software is provided under written license and may be
 used, copied, transmitted, or stored only in accord with that
 written license.
  
 The following legend is applicable only to US Government
 contracts under FAR:
  
                    RESTRICTED RIGHTS LEGEND
  
 Use, reproduction and disclosure by the US Government is
 subject to restrictions as set forth in subparagraphs (a)
 and (c) of the Commercial Computer Software - Restricted
 Rights clause in FAR 52.227-19.
  
 Gaussian, Inc.
 340 Quinnipiac St., Bldg. 40, Wallingford CT 06492
  
  
 ---------------------------------------------------------------
 Warning -- This program may not be used in any manner that
 competes with the business of Gaussian, Inc. or will provide
 assistance to any competitor of Gaussian, Inc.  The licensee
 of this program is prohibited from giving any competitor of
 Gaussian, Inc. access to this program.  By using this program,
 the user acknowledges that Gaussian, Inc. is engaged in the
 business of creating and licensing software in the field of
 computational chemistry and represents and warrants to the
 licensee that it is not a competitor of Gaussian, Inc. and that
 it will not use this program in any manner prohibited above.
 ---------------------------------------------------------------
  

 Cite this work as:
 Gaussian 09, Revision D.01,
 M. J. Frisch, G. W. Trucks, H. B. Schlegel, G. E. Scuseria, 
 M. A. Robb, J. R. Cheeseman, G. Scalmani, V. Barone, B. Mennucci, 
 G. A. Petersson, H. Nakatsuji, M. Caricato, X. Li, H. P. Hratchian, 
 A. F. Izmaylov, J. Bloino, G. Zheng, J. L. Sonnenberg, M. Hada, 
 M. Ehara, K. Toyota, R. Fukuda, J. Hasegawa, M. Ishida, T. Nakajima, 
 Y. Honda, O. Kitao, H. Nakai, T. Vreven, J. A. Montgomery, Jr., 
 J. E. Peralta, F. Ogliaro, M. Bearpark, J. J. Heyd, E. Brothers, 
 K. N. Kudin, V. N. Staroverov, T. Keith, R. Kobayashi, J. Normand, 
 K. Raghavachari, A. Rendell, J. C. Burant, S. S. Iyengar, J. Tomasi, 
 M. Cossi, N. Rega, J. M. Millam, M. Klene, J. E. Knox, J. B. Cross, 
 V. Bakken, C. Adamo, J. Jaramillo, R. Gomperts, R. E. Stratmann, 
 O. Yazyev, A. J. Austin, R. Cammi, C. Pomelli, J. W. Ochterski, 
 R. L. Martin, K. Morokuma, V. G. Zakrzewski, G. A. Voth, 
 P. Salvador, J. J. Dannenberg, S. Dapprich, A. D. Daniels, 
 O. Farkas, J. B. Foresman, J. V. Ortiz, J. Cioslowski, 
 and D. J. Fox, Gaussian, Inc., Wallingford CT, 2013.
 
 ******************************************
 Gaussian 09:  EM64L-G09RevD.01 24-Apr-2013
                17-Sep-2024 
 ******************************************
 %nproc=24
 Will use up to   24 processors via shared memory.
 %mem=2Gb
 -------------------------------------------------
 #p B3LYP/6-31+g(d,p) opt scrf=(smd,solvent=water)
 -------------------------------------------------
 1/14=-1,18=20,19=15,26=3,38=1/1,3;
 2/9=110,12=2,17=6,18=5,40=1/2;
 3/5=1,6=6,7=111,11=2,16=1,25=1,30=1,70=32201,71=1,72=1,74=-5/1,2,3;
 4//1;
 5/5=2,38=5,53=1/2;
 6/7=2,8=2,9=2,10=2,28=1/1;
 7//1,2,3,16;
 1/14=-1,18=20,19=15,26=3/3(2);
 2/9=110/2;
 99//99;
 2/9=110/2;
 3/5=1,6=6,7=111,11=2,16=1,25=1,30=1,70=32205,71=1,72=1,74=-5/1,2,3;
 4/5=5,16=3,69=1/1;
 5/5=2,38=5,53=1/2;
 7//1,2,3,16;
 1/14=-1,18=20,19=15,26=3/3(-5);
 2/9=110/2;
 6/7=2,8=2,9=2,10=2,19=2,28=1/1;
 99/9=1/99;
 Leave Link    1 at Tue Sep 17 13:50:18 2024, MaxMem=   268435456 cpu:         0.2
 (Enter /g100_work/pMI24_ChiCa/g09d1/g09d01/d01/build-node-6-2-59348/src/main/l101.exe)
 ---------
 h04s- sol
 ---------
 Symbolic Z-matrix:
 Charge = -1 Multiplicity = 1
 s
 o                    1    os2
 o                    1    os3      2    oso3
 o                    1    os4      2    oso4     3    dih4     0
 o                    1    os5      3    oso5     2    dih5     0
 h                    2    ho6      1    hos6     5    dih6     0
       Variables:
  os2                   1.66                     
  os3                   1.66                     
  oso3                109.471                    
  os4                   1.51                     
  oso4                110.                       
  dih4                120.                       
  os5                   1.51                     
  oso5                110.                       
  dih5                120.                       
  ho6                   0.95                     
  hos6                109.471                    
  dih6                180.                       
 
     2 tetrahedral angles replaced.
 NAtoms=      6 NQM=        6 NQMF=       0 NMMI=      0 NMMIF=      0
                NMic=       0 NMicF=      0.
                    Isotopes and Nuclear Properties:
 (Nuclear quadrupole moments (NQMom) in fm**2, nuclear magnetic moments (NMagM)
  in nuclear magnetons)

  Atom         1           2           3           4           5           6
 IAtWgt=          32          16          16          16          16           1
 AtmWgt=  31.9720718  15.9949146  15.9949146  15.9949146  15.9949146   1.0078250
 NucSpn=           0           0           0           0           0           1
 AtZEff=   0.0000000   0.0000000   0.0000000   0.0000000   0.0000000   0.0000000
 NQMom=    0.0000000   0.0000000   0.0000000   0.0000000   0.0000000   0.0000000
 NMagM=    0.0000000   0.0000000   0.0000000   0.0000000   0.0000000   2.7928460
 AtZNuc=  16.0000000   8.0000000   8.0000000   8.0000000   8.0000000   1.0000000
 Leave Link  101 at Tue Sep 17 13:50:18 2024, MaxMem=   268435456 cpu:         0.2
 (Enter /g100_work/pMI24_ChiCa/g09d1/g09d01/d01/build-node-6-2-59348/src/main/l103.exe)

 GradGradGradGradGradGradGradGradGradGradGradGradGradGradGradGradGradGrad
 Berny optimization.
 Initialization pass.
                           ----------------------------
                           !    Initial Parameters    !
                           ! (Angstroms and Degrees)  !
 --------------------------                            --------------------------
 ! Name  Definition              Value          Derivative Info.                !
 --------------------------------------------------------------------------------
 ! R1    R(1,2)                  1.66           estimate D2E/DX2                !
 ! R2    R(1,3)                  1.66           estimate D2E/DX2                !
 ! R3    R(1,4)                  1.51           estimate D2E/DX2                !
 ! R4    R(1,5)                  1.51           estimate D2E/DX2                !
 ! R5    R(2,6)                  0.95           estimate D2E/DX2                !
 ! A1    A(2,1,3)              109.4712         estimate D2E/DX2                !
 ! A2    A(2,1,4)              110.0            estimate D2E/DX2                !
 ! A3    A(2,1,5)              109.2062         estimate D2E/DX2                !
 ! A4    A(3,1,4)              109.2062         estimate D2E/DX2                !
 ! A5    A(3,1,5)              110.0            estimate D2E/DX2                !
 ! A6    A(4,1,5)              108.945          estimate D2E/DX2                !
 ! A7    A(1,2,6)              109.4712         estimate D2E/DX2                !
 ! D1    D(3,1,2,6)            -59.5151         estimate D2E/DX2                !
 ! D2    D(4,1,2,6)             60.4849         estimate D2E/DX2                !
 ! D3    D(5,1,2,6)            180.0            estimate D2E/DX2                !
 --------------------------------------------------------------------------------
 Trust Radius=3.00D-01 FncErr=1.00D-07 GrdErr=1.00D-06
 Number of steps in this run=     25 maximum allowed number of steps=    100.
 GradGradGradGradGradGradGradGradGradGradGradGradGradGradGradGradGradGrad

 Leave Link  103 at Tue Sep 17 13:50:18 2024, MaxMem=   268435456 cpu:         0.1
 (Enter /g100_work/pMI24_ChiCa/g09d1/g09d01/d01/build-node-6-2-59348/src/main/l202.exe)
                          Input orientation:                          
 ---------------------------------------------------------------------
 Center     Atomic      Atomic             Coordinates (Angstroms)
 Number     Number       Type             X           Y           Z
 ---------------------------------------------------------------------
      1         16           0        0.000000    0.000000    0.000000
      2          8           0        0.000000    0.000000    1.660000
      3          8           0        1.565063    0.000000   -0.553333
      4          8           0       -0.709468   -1.228834   -0.516450
      5          8           0       -0.723403    1.228834   -0.496743
      6          1           0        0.454383   -0.771854    1.976667
 ---------------------------------------------------------------------
                    Distance matrix (angstroms):
                    1          2          3          4          5
     1  S    0.000000
     2  O    1.660000   0.000000
     3  O    1.660000   2.710769   0.000000
     4  O    1.510000   2.598137   2.585515   0.000000
     5  O    1.510000   2.585515   2.598137   2.457788   0.000000
     6  H    2.170123   0.950000   2.868844   2.789088   3.392298
                    6
     6  H    0.000000
 Stoichiometry    HO4S(1-)
 Framework group  C1[X(HO4S)]
 Deg. of freedom    12
 Full point group                 C1      NOp   1
 Largest Abelian subgroup         C1      NOp   1
 Largest concise Abelian subgroup C1      NOp   1
                         Standard orientation:                         
 ---------------------------------------------------------------------
 Center     Atomic      Atomic             Coordinates (Angstroms)
 Number     Number       Type             X           Y           Z
 ---------------------------------------------------------------------
      1         16           0        0.055793   -0.034287   -0.001782
      2          8           0       -1.580943    0.008478   -0.275396
      3          8           0        0.679314    1.498379   -0.135041
      4          8           0        0.334016   -0.564977    1.384242
      5          8           0        0.705206   -0.945960   -1.015298
      6          1           0       -1.993440    0.581236    0.360446
 ---------------------------------------------------------------------
 Rotational constants (GHZ):      4.8498798      4.5880511      4.3224506
 Leave Link  202 at Tue Sep 17 13:50:18 2024, MaxMem=   268435456 cpu:         0.1
 (Enter /g100_work/pMI24_ChiCa/g09d1/g09d01/d01/build-node-6-2-59348/src/main/l301.exe)
 Standard basis: 6-31+G(d,p) (6D, 7F)
 Ernie: Thresh=  0.10000D-02 Tol=  0.10000D-05 Strict=F.
 There are   104 symmetry adapted cartesian basis functions of A   symmetry.
 There are   104 symmetry adapted basis functions of A   symmetry.
   104 basis functions,   191 primitive gaussians,   104 cartesian basis functions
    25 alpha electrons       25 beta electrons
       nuclear repulsion energy       262.4635658979 Hartrees.
 IExCor=  402 DFT=T Ex+Corr=B3LYP ExCW=0 ScaHFX=  0.200000
 ScaDFX=  0.800000  0.720000  1.000000  0.810000 ScalE2=  1.000000  1.000000
 IRadAn=      0 IRanWt=     -1 IRanGd=            0 ICorTp=0 IEmpDi=  4
 NAtoms=    6 NActive=    6 NUniq=    6 SFac= 1.00D+00 NAtFMM=   60 NAOKFM=F Big=F
 Integral buffers will be    131072 words long.
 Raffenetti 2 integral format.
 Two-electron integral symmetry is turned on.
 ------------------------------------------------------------------------------
 Polarizable Continuum Model (PCM)
 =================================
 Model                : PCM (using non-symmetric T matrix).
 Atomic radii         : SMD-Coulomb.
 Polarization charges : Total charges.
 Charge compensation  : None.
 Solution method      : On-the-fly selection.
 Cavity type          : VdW (van der Waals Surface) (Alpha=1.000).
 Cavity algorithm     : GePol (No added spheres)
                        Default sphere list used, NSphG=    6.
                        Lebedev-Laikov grids with approx.  5.0 points / Ang**2.
                        Smoothing algorithm: Karplus/York (Gamma=1.0000).
                        Polarization charges: spherical gaussians, with
                                              point-specific exponents (IZeta= 3).
                        Self-potential: point-specific (ISelfS= 7).
                        Self-field    : sphere-specific E.n sum rule (ISelfD= 2).
 1st derivatives      : Analytical E(r).r(x)/FMM algorithm (CHGder, D1EAlg=3).
                        Cavity 1st derivative terms included.
 Solvent              : Water, Eps=  78.355300 Eps(inf)=   1.777849
 ------------------------------------------------------------------------------
 Spheres list:
 ISph  on   Nord     Re0    Alpha      Xe            Ye            Ze
    1   S      1    2.4900  1.000      0.055793     -0.034287     -0.001782
    2   O      2    1.5200  1.000     -1.580943      0.008478     -0.275396
    3   O      3    1.5200  1.000      0.679314      1.498379     -0.135041
    4   O      4    1.5200  1.000      0.334016     -0.564977      1.384242
    5   O      5    1.5200  1.000      0.705206     -0.945960     -1.015298
    6   H      6    1.2000  1.000     -1.993440      0.581236      0.360446
 ------------------------------------------------------------------------------
 GePol: Number of generator spheres                  =       6
 GePol: Total number of spheres                      =       6
 GePol: Number of exposed spheres                    =       6 (100.00%)
 GePol: Number of points                             =     593
 GePol: Average weight of points                     =       0.16
 GePol: Minimum weight of points                     =   0.18D-06
 GePol: Maximum weight of points                     =    0.21991
 GePol: Number of points with low weight             =      21
 GePol: Fraction of low-weight points (<1% of avg)   =       3.54%
 GePol: Cavity surface area                          =     92.315 Ang**2
 GePol: Cavity volume                                =     77.103 Ang**3
 ------------------------------------------------------------------------------
 Atomic radii for non-electrostatic terms: SMD-CDS.
 ------------------------------------------------------------------------------
 PCM non-electrostatic energy =         0.0009768580 Hartrees.
 Nuclear repulsion after PCM non-electrostatic terms =      262.4645427559 Hartrees.
 Leave Link  301 at Tue Sep 17 13:50:18 2024, MaxMem=   268435456 cpu:         0.2
 (Enter /g100_work/pMI24_ChiCa/g09d1/g09d01/d01/build-node-6-2-59348/src/main/l302.exe)
 NPDir=0 NMtPBC=     1 NCelOv=     1 NCel=       1 NClECP=     1 NCelD=      1
         NCelK=      1 NCelE2=     1 NClLst=     1 CellRange=     0.0.
 One-electron integrals computed using PRISM.
 NBasis=   104 RedAO= T EigKep=  2.22D-03  NBF=   104
 NBsUse=   104 1.00D-06 EigRej= -1.00D+00 NBFU=   104
 Precomputing XC quadrature grid using
 IXCGrd= 4 IRadAn=           0 IRanWt=          -1 IRanGd=           0 AccXCQ= 0.00D+00.
 Generated NRdTot=       0 NPtTot=           0 NUsed=           0 NTot=          32
 NSgBfM=   104   104   104   104   104 MxSgAt=     6 MxSgA2=     6.
 Leave Link  302 at Tue Sep 17 13:50:19 2024, MaxMem=   268435456 cpu:         1.3
 (Enter /g100_work/pMI24_ChiCa/g09d1/g09d01/d01/build-node-6-2-59348/src/main/l303.exe)
 DipDrv:  MaxL=1.
 Leave Link  303 at Tue Sep 17 13:50:19 2024, MaxMem=   268435456 cpu:         0.2
 (Enter /g100_work/pMI24_ChiCa/g09d1/g09d01/d01/build-node-6-2-59348/src/main/l401.exe)
 ExpMin= 4.05D-02 ExpMax= 2.19D+04 ExpMxC= 3.30D+03 IAcc=2 IRadAn=         4 AccDes= 0.00D+00
 Harris functional with IExCor=  402 and IRadAn=       4 diagonalized for initial guess.
 HarFok:  IExCor=  402 AccDes= 0.00D+00 IRadAn=         4 IDoV= 1 UseB2=F ITyADJ=14
 ICtDFT=  3500011 ScaDFX=  1.000000  1.000000  1.000000  1.000000
 FoFCou: FMM=F IPFlag=           0 FMFlag=      100000 FMFlg1=           0
         NFxFlg=           0 DoJE=T BraDBF=F KetDBF=T FulRan=T
         wScrn=  0.000000 ICntrl=     500 IOpCl=  0 I1Cent=   200000004 NGrid=           0
         NMat0=    1 NMatS0=      1 NMatT0=    0 NMatD0=    1 NMtDS0=    0 NMtDT0=    0
 Petite list used in FoFCou.
 Harris En= -699.915545536004    
 JPrj=0 DoOrth=F DoCkMO=F.
 Leave Link  401 at Tue Sep 17 13:50:19 2024, MaxMem=   268435456 cpu:         1.6
 (Enter /g100_work/pMI24_ChiCa/g09d1/g09d01/d01/build-node-6-2-59348/src/main/l502.exe)
 Closed shell SCF:
 Using DIIS extrapolation, IDIIS=  1040.
 Integral symmetry usage will be decided dynamically.
 Keep R1 ints in memory in canonical form, NReq=18294797.
 IVT=       54263 IEndB=       54263 NGot=   268435456 MDV=   253472664
 LenX=   253472664 LenY=   253461407
 Requested convergence on RMS density matrix=1.00D-08 within 128 cycles.
 Requested convergence on MAX density matrix=1.00D-06.
 Requested convergence on             energy=1.00D-06.
 No special actions if energy rises.
 FoFCou: FMM=F IPFlag=           0 FMFlag=           0 FMFlg1=           0
         NFxFlg=           0 DoJE=F BraDBF=F KetDBF=F FulRan=T
         wScrn=  0.000000 ICntrl=     600 IOpCl=  0 I1Cent=           0 NGrid=           0
         NMat0=    1 NMatS0=   5460 NMatT0=    0 NMatD0=    1 NMtDS0=    0 NMtDT0=    0
 Symmetry not used in FoFCou.

 Cycle   1  Pass 1  IDiag  1:
 Inv3:  Mode=1 IEnd=     1054947.
 Iteration    1 A*A^-1 deviation from unit magnitude is 3.77D-15 for    338.
 Iteration    1 A*A^-1 deviation from orthogonality  is 2.49D-15 for    425    227.
 Iteration    1 A^-1*A deviation from unit magnitude is 3.77D-15 for    114.
 Iteration    1 A^-1*A deviation from orthogonality  is 4.13D-11 for    516    438.
 E= -699.454236964116    
 DIIS: error= 5.43D-02 at cycle   1 NSaved=   1.
 NSaved= 1 IEnMin= 1 EnMin= -699.454236964116     IErMin= 1 ErrMin= 5.43D-02
 ErrMax= 5.43D-02  0.00D+00 EMaxC= 1.00D-01 BMatC= 4.82D-01 BMatP= 4.82D-01
 IDIUse=3 WtCom= 4.57D-01 WtEn= 5.43D-01
 Coeff-Com:  0.100D+01
 Coeff-En:   0.100D+01
 Coeff:      0.100D+01
 Gap=     0.095 Goal=   None    Shift=    0.000
 GapD=    0.095 DampG=0.500 DampE=0.500 DampFc=0.2500 IDamp=-1.
 Damping current iteration by 2.50D-01
 RMSDP=1.74D-02 MaxDP=6.39D-01              OVMax= 2.72D-01

 Cycle   2  Pass 1  IDiag  1:
 E= -699.585433490450     Delta-E=       -0.131196526334 Rises=F Damp=T
 DIIS: error= 1.76D-02 at cycle   2 NSaved=   2.
 NSaved= 2 IEnMin= 2 EnMin= -699.585433490450     IErMin= 2 ErrMin= 1.76D-02
 ErrMax= 1.76D-02  0.00D+00 EMaxC= 1.00D-01 BMatC= 5.35D-02 BMatP= 4.82D-01
 IDIUse=3 WtCom= 8.24D-01 WtEn= 1.76D-01
 Coeff-Com: -0.431D+00 0.143D+01
 Coeff-En:   0.000D+00 0.100D+01
 Coeff:     -0.356D+00 0.136D+01
 Gap=     0.243 Goal=   None    Shift=    0.000
 RMSDP=2.35D-03 MaxDP=5.25D-02 DE=-1.31D-01 OVMax= 1.92D-01

 Cycle   3  Pass 1  IDiag  1:
 E= -699.796754942307     Delta-E=       -0.211321451857 Rises=F Damp=F
 DIIS: error= 8.37D-03 at cycle   3 NSaved=   3.
 NSaved= 3 IEnMin= 3 EnMin= -699.796754942307     IErMin= 3 ErrMin= 8.37D-03
 ErrMax= 8.37D-03  0.00D+00 EMaxC= 1.00D-01 BMatC= 1.88D-02 BMatP= 5.35D-02
 IDIUse=3 WtCom= 9.16D-01 WtEn= 8.37D-02
 Coeff-Com: -0.234D+00 0.820D+00 0.415D+00
 Coeff-En:   0.000D+00 0.000D+00 0.100D+01
 Coeff:     -0.215D+00 0.751D+00 0.464D+00
 Gap=     0.246 Goal=   None    Shift=    0.000
 RMSDP=1.33D-03 MaxDP=3.18D-02 DE=-2.11D-01 OVMax= 3.33D-02

 Cycle   4  Pass 1  IDiag  1:
 E= -699.808867829071     Delta-E=       -0.012112886764 Rises=F Damp=F
 DIIS: error= 3.40D-03 at cycle   4 NSaved=   4.
 NSaved= 4 IEnMin= 4 EnMin= -699.808867829071     IErMin= 4 ErrMin= 3.40D-03
 ErrMax= 3.40D-03  0.00D+00 EMaxC= 1.00D-01 BMatC= 2.72D-03 BMatP= 1.88D-02
 IDIUse=3 WtCom= 9.66D-01 WtEn= 3.40D-02
 Coeff-Com: -0.262D-01 0.715D-01 0.268D+00 0.687D+00
 Coeff-En:   0.000D+00 0.000D+00 0.142D+00 0.858D+00
 Coeff:     -0.254D-01 0.691D-01 0.263D+00 0.693D+00
 Gap=     0.247 Goal=   None    Shift=    0.000
 RMSDP=4.80D-04 MaxDP=1.21D-02 DE=-1.21D-02 OVMax= 1.23D-02

 Cycle   5  Pass 1  IDiag  1:
 E= -699.810603692799     Delta-E=       -0.001735863729 Rises=F Damp=F
 DIIS: error= 1.68D-03 at cycle   5 NSaved=   5.
 NSaved= 5 IEnMin= 5 EnMin= -699.810603692799     IErMin= 5 ErrMin= 1.68D-03
 ErrMax= 1.68D-03  0.00D+00 EMaxC= 1.00D-01 BMatC= 3.32D-04 BMatP= 2.72D-03
 IDIUse=3 WtCom= 9.83D-01 WtEn= 1.68D-02
 Coeff-Com: -0.791D-02 0.151D-01 0.140D+00 0.420D+00 0.433D+00
 Coeff-En:   0.000D+00 0.000D+00 0.000D+00 0.563D-01 0.944D+00
 Coeff:     -0.777D-02 0.148D-01 0.138D+00 0.414D+00 0.441D+00
 Gap=     0.246 Goal=   None    Shift=    0.000
 RMSDP=1.80D-04 MaxDP=3.60D-03 DE=-1.74D-03 OVMax= 4.55D-03

 Cycle   6  Pass 1  IDiag  1:
 E= -699.810849378734     Delta-E=       -0.000245685934 Rises=F Damp=F
 DIIS: error= 3.97D-04 at cycle   6 NSaved=   6.
 NSaved= 6 IEnMin= 6 EnMin= -699.810849378734     IErMin= 6 ErrMin= 3.97D-04
 ErrMax= 3.97D-04  0.00D+00 EMaxC= 1.00D-01 BMatC= 2.84D-05 BMatP= 3.32D-04
 IDIUse=3 WtCom= 9.96D-01 WtEn= 3.97D-03
 Coeff-Com: -0.296D-02 0.567D-02 0.573D-01 0.173D+00 0.266D+00 0.501D+00
 Coeff-En:   0.000D+00 0.000D+00 0.000D+00 0.000D+00 0.214D-01 0.979D+00
 Coeff:     -0.295D-02 0.564D-02 0.571D-01 0.172D+00 0.266D+00 0.503D+00
 Gap=     0.246 Goal=   None    Shift=    0.000
 RMSDP=5.24D-05 MaxDP=1.02D-03 DE=-2.46D-04 OVMax= 1.11D-03

 Cycle   7  Pass 1  IDiag  1:
 E= -699.810870339089     Delta-E=       -0.000020960356 Rises=F Damp=F
 DIIS: error= 6.85D-05 at cycle   7 NSaved=   7.
 NSaved= 7 IEnMin= 7 EnMin= -699.810870339089     IErMin= 7 ErrMin= 6.85D-05
 ErrMax= 6.85D-05  0.00D+00 EMaxC= 1.00D-01 BMatC= 1.30D-06 BMatP= 2.84D-05
 IDIUse=1 WtCom= 1.00D+00 WtEn= 0.00D+00
 Coeff-Com:  0.541D-03-0.179D-02-0.881D-03-0.318D-02 0.392D-01 0.214D+00
 Coeff-Com:  0.752D+00
 Coeff:      0.541D-03-0.179D-02-0.881D-03-0.318D-02 0.392D-01 0.214D+00
 Coeff:      0.752D+00
 Gap=     0.246 Goal=   None    Shift=    0.000
 RMSDP=1.21D-05 MaxDP=4.48D-04 DE=-2.10D-05 OVMax= 2.25D-04

 Cycle   8  Pass 1  IDiag  1:
 E= -699.810871478422     Delta-E=       -0.000001139333 Rises=F Damp=F
 DIIS: error= 6.71D-06 at cycle   8 NSaved=   8.
 NSaved= 8 IEnMin= 8 EnMin= -699.810871478422     IErMin= 8 ErrMin= 6.71D-06
 ErrMax= 6.71D-06  0.00D+00 EMaxC= 1.00D-01 BMatC= 8.41D-09 BMatP= 1.30D-06
 IDIUse=1 WtCom= 1.00D+00 WtEn= 0.00D+00
 Coeff-Com:  0.204D-04-0.190D-03-0.971D-03-0.288D-02 0.453D-02 0.346D-01
 Coeff-Com:  0.148D+00 0.817D+00
 Coeff:      0.204D-04-0.190D-03-0.971D-03-0.288D-02 0.453D-02 0.346D-01
 Coeff:      0.148D+00 0.817D+00
 Gap=     0.246 Goal=   None    Shift=    0.000
 RMSDP=1.50D-06 MaxDP=3.07D-05 DE=-1.14D-06 OVMax= 3.70D-05

 Cycle   9  Pass 1  IDiag  1:
 E= -699.810871477189     Delta-E=        0.000000001233 Rises=F Damp=F
 DIIS: error= 6.97D-06 at cycle   9 NSaved=   9.
 NSaved= 9 IEnMin= 8 EnMin= -699.810871478422     IErMin= 8 ErrMin= 6.71D-06
 ErrMax= 6.97D-06  0.00D+00 EMaxC= 1.00D-01 BMatC= 1.13D-08 BMatP= 8.41D-09
 IDIUse=1 WtCom= 1.00D+00 WtEn= 0.00D+00
 Coeff-Com: -0.683D-04 0.106D-03-0.630D-03-0.173D-02-0.156D-02-0.135D-02
 Coeff-Com:  0.153D-01 0.589D+00 0.401D+00
 Coeff:     -0.683D-04 0.106D-03-0.630D-03-0.173D-02-0.156D-02-0.135D-02
 Coeff:      0.153D-01 0.589D+00 0.401D+00
 Gap=     0.246 Goal=   None    Shift=    0.000
 RMSDP=8.65D-07 MaxDP=1.65D-05 DE= 1.23D-09 OVMax= 2.42D-05

 Cycle  10  Pass 1  IDiag  1:
 E= -699.810871485639     Delta-E=       -0.000000008450 Rises=F Damp=F
 DIIS: error= 8.24D-07 at cycle  10 NSaved=  10.
 NSaved=10 IEnMin=10 EnMin= -699.810871485639     IErMin=10 ErrMin= 8.24D-07
 ErrMax= 8.24D-07  0.00D+00 EMaxC= 1.00D-01 BMatC= 1.22D-10 BMatP= 8.41D-09
 IDIUse=1 WtCom= 1.00D+00 WtEn= 0.00D+00
 Coeff-Com: -0.321D-04 0.557D-04-0.141D-03-0.293D-03-0.859D-03-0.315D-02
 Coeff-Com: -0.674D-02 0.100D+00 0.107D+00 0.804D+00
 Coeff:     -0.321D-04 0.557D-04-0.141D-03-0.293D-03-0.859D-03-0.315D-02
 Coeff:     -0.674D-02 0.100D+00 0.107D+00 0.804D+00
 Gap=     0.246 Goal=   None    Shift=    0.000
 RMSDP=1.07D-07 MaxDP=2.15D-06 DE=-8.45D-09 OVMax= 2.90D-06

 Cycle  11  Pass 1  IDiag  1:
 E= -699.810871485734     Delta-E=       -0.000000000095 Rises=F Damp=F
 DIIS: error= 1.42D-07 at cycle  11 NSaved=  11.
 NSaved=11 IEnMin=11 EnMin= -699.810871485734     IErMin=11 ErrMin= 1.42D-07
 ErrMax= 1.42D-07  0.00D+00 EMaxC= 1.00D-01 BMatC= 1.92D-12 BMatP= 1.22D-10
 IDIUse=1 WtCom= 1.00D+00 WtEn= 0.00D+00
 Coeff-Com: -0.195D-05 0.244D-05-0.712D-06 0.147D-04-0.331D-04-0.159D-03
 Coeff-Com: -0.704D-03-0.874D-02-0.479D-02 0.252D-01 0.989D+00
 Coeff:     -0.195D-05 0.244D-05-0.712D-06 0.147D-04-0.331D-04-0.159D-03
 Coeff:     -0.704D-03-0.874D-02-0.479D-02 0.252D-01 0.989D+00
 Gap=     0.246 Goal=   None    Shift=    0.000
 RMSDP=2.37D-08 MaxDP=5.34D-07 DE=-9.53D-11 OVMax= 5.99D-07

 Cycle  12  Pass 1  IDiag  1:
 E= -699.810871485739     Delta-E=       -0.000000000005 Rises=F Damp=F
 DIIS: error= 9.94D-09 at cycle  12 NSaved=  12.
 NSaved=12 IEnMin=12 EnMin= -699.810871485739     IErMin=12 ErrMin= 9.94D-09
 ErrMax= 9.94D-09  0.00D+00 EMaxC= 1.00D-01 BMatC= 3.90D-14 BMatP= 1.92D-12
 IDIUse=1 WtCom= 1.00D+00 WtEn= 0.00D+00
 Coeff-Com:  0.478D-06-0.107D-05 0.292D-05 0.827D-05 0.148D-04 0.462D-04
 Coeff-Com:  0.320D-04-0.402D-02-0.356D-02-0.163D-01 0.225D+00 0.799D+00
 Coeff:      0.478D-06-0.107D-05 0.292D-05 0.827D-05 0.148D-04 0.462D-04
 Coeff:      0.320D-04-0.402D-02-0.356D-02-0.163D-01 0.225D+00 0.799D+00
 Gap=     0.246 Goal=   None    Shift=    0.000
 RMSDP=3.31D-09 MaxDP=3.55D-08 DE=-4.77D-12 OVMax= 9.93D-08

 Error on total polarization charges =  0.04529
 SCF Done:  E(RB3LYP) =  -699.810871486     A.U. after   12 cycles
            NFock= 12  Conv=0.33D-08     -V/T= 2.0068
 KE= 6.950685328802D+02 PE=-2.191086662803D+03 EE= 5.337427156810D+02
 SMD-CDS (non-electrostatic) energy       (kcal/mol) =       0.61
 (included in total energy above)
 Leave Link  502 at Tue Sep 17 13:50:20 2024, MaxMem=   268435456 cpu:        24.6
 (Enter /g100_work/pMI24_ChiCa/g09d1/g09d01/d01/build-node-6-2-59348/src/main/l601.exe)
 Copying SCF densities to generalized density rwf, IOpCl= 0 IROHF=0.

 **********************************************************************

            Population analysis using the SCF density.

 **********************************************************************

 Orbital symmetries:
       Occupied  (A) (A) (A) (A) (A) (A) (A) (A) (A) (A) (A) (A)
                 (A) (A) (A) (A) (A) (A) (A) (A) (A) (A) (A) (A)
                 (A)
       Virtual   (A) (A) (A) (A) (A) (A) (A) (A) (A) (A) (A) (A)
                 (A) (A) (A) (A) (A) (A) (A) (A) (A) (A) (A) (A)
                 (A) (A) (A) (A) (A) (A) (A) (A) (A) (A) (A) (A)
                 (A) (A) (A) (A) (A) (A) (A) (A) (A) (A) (A) (A)
                 (A) (A) (A) (A) (A) (A) (A) (A) (A) (A) (A) (A)
                 (A) (A) (A) (A) (A) (A) (A) (A) (A) (A) (A) (A)
                 (A) (A) (A) (A) (A) (A) (A)
 The electronic state is 1-A.
 Alpha  occ. eigenvalues --  -89.15856 -19.22374 -19.15991 -19.15480 -19.14493
 Alpha  occ. eigenvalues --   -8.17407  -6.14045  -6.13834  -6.13777  -1.13625
 Alpha  occ. eigenvalues --   -1.04665  -0.98782  -0.93756  -0.66656  -0.54617
 Alpha  occ. eigenvalues --   -0.48986  -0.48079  -0.44019  -0.38232  -0.35993
 Alpha  occ. eigenvalues --   -0.34080  -0.33814  -0.30589  -0.28617  -0.27108
 Alpha virt. eigenvalues --   -0.02490   0.03643   0.04187   0.04694   0.04857
 Alpha virt. eigenvalues --    0.07689   0.09469   0.11850   0.15626   0.16828
 Alpha virt. eigenvalues --    0.17037   0.17881   0.18165   0.19089   0.21623
 Alpha virt. eigenvalues --    0.23993   0.24335   0.25667   0.27024   0.27569
 Alpha virt. eigenvalues --    0.27871   0.28549   0.30874   0.31584   0.36254
 Alpha virt. eigenvalues --    0.53706   0.54615   0.57265   0.62440   0.63666
 Alpha virt. eigenvalues --    0.74312   0.94706   0.98817   1.01716   1.07011
 Alpha virt. eigenvalues --    1.14577   1.15059   1.16924   1.18388   1.20249
 Alpha virt. eigenvalues --    1.21267   1.23573   1.24013   1.25751   1.30477
 Alpha virt. eigenvalues --    1.32063   1.33817   1.47098   1.50476   1.51119
 Alpha virt. eigenvalues --    1.55877   1.66238   1.71967   1.75613   1.76828
 Alpha virt. eigenvalues --    1.79981   1.80714   1.82604   1.83480   1.84688
 Alpha virt. eigenvalues --    1.85129   2.01376   2.06785   2.11581   2.16633
 Alpha virt. eigenvalues --    2.17815   2.33437   2.45320   2.57059   2.63302
 Alpha virt. eigenvalues --    2.68335   2.74072   2.82803   3.42953   3.98224
 Alpha virt. eigenvalues --    4.00057   4.03617   4.06245   4.18115
          Condensed to atoms (all electrons):
               1          2          3          4          5          6
     1  S   13.699595  -0.023778   0.290001   0.213468   0.221467   0.030094
     2  O   -0.023778   8.600877  -0.064495  -0.061630  -0.051354   0.236606
     3  O    0.290001  -0.064495   8.842252  -0.102704  -0.114935  -0.005029
     4  O    0.213468  -0.061630  -0.102704   8.849588  -0.130654  -0.005817
     5  O    0.221467  -0.051354  -0.114935  -0.130654   8.835235   0.007024
     6  H    0.030094   0.236606  -0.005029  -0.005817   0.007024   0.295925
 Mulliken charges:
               1
     1  S    1.569153
     2  O   -0.636226
     3  O   -0.845091
     4  O   -0.762252
     5  O   -0.766782
     6  H    0.441197
 Sum of Mulliken charges =  -1.00000
 Mulliken charges with hydrogens summed into heavy atoms:
               1
     1  S    1.569153
     2  O   -0.195028
     3  O   -0.845091
     4  O   -0.762252
     5  O   -0.766782
 Electronic spatial extent (au):  <R**2>=            400.7484
 Charge=             -1.0000 electrons
 Dipole moment (field-independent basis, Debye):
    X=             -5.5778    Y=              0.2872    Z=              0.8237  Tot=              5.6456
 Quadrupole moment (field-independent basis, Debye-Ang):
   XX=            -37.0168   YY=            -47.4762   ZZ=            -45.9170
   XY=             -3.8362   XZ=             -1.9237   YZ=              0.9119
 Traceless Quadrupole moment (field-independent basis, Debye-Ang):
   XX=              6.4532   YY=             -4.0062   ZZ=             -2.4470
   XY=             -3.8362   XZ=             -1.9237   YZ=              0.9119
 Octapole moment (field-independent basis, Debye-Ang**2):
  XXX=            -15.8307  YYY=             -9.5061  ZZZ=             -4.3081  XYY=            -10.1669
  XXY=              4.6229  XXZ=              7.1104  XZZ=             -6.0883  YZZ=              5.3159
  YYZ=              2.7853  XYZ=             -2.0762
 Hexadecapole moment (field-independent basis, Debye-Ang**3):
 XXXX=           -154.0690 YYYY=           -195.8931 ZZZZ=           -170.2829 XXXY=            -16.5114
 XXXZ=            -10.5456 YYYX=             -8.0643 YYYZ=              0.8261 ZZZX=             -0.8682
 ZZZY=              1.9949 XXYY=            -59.6036 XXZZ=            -56.8666 YYZZ=            -60.5657
 XXYZ=              2.2815 YYXZ=              0.6572 ZZXY=              0.5120
 N-N= 2.624645427559D+02 E-N=-2.191086663224D+03  KE= 6.950685328802D+02
 No NMR shielding tensors so no spin-rotation constants.
 Leave Link  601 at Tue Sep 17 13:50:20 2024, MaxMem=   268435456 cpu:         1.4
 (Enter /g100_work/pMI24_ChiCa/g09d1/g09d01/d01/build-node-6-2-59348/src/main/l701.exe)
 Compute integral first derivatives.
 ... and contract with generalized density number  0.
 D1PCM: PCM CHGder 1st derivatives, ID1Alg=3 FixD1E=F DoIter=F DoCFld=F I1PDM=0.
 GePol: Maximum number of non-zero 1st derivatives   =     398
 Leave Link  701 at Tue Sep 17 13:50:21 2024, MaxMem=   268435456 cpu:         4.2
 (Enter /g100_work/pMI24_ChiCa/g09d1/g09d01/d01/build-node-6-2-59348/src/main/l702.exe)
 L702 exits ... SP integral derivatives will be done elsewhere.
 Leave Link  702 at Tue Sep 17 13:50:21 2024, MaxMem=   268435456 cpu:         0.1
 (Enter /g100_work/pMI24_ChiCa/g09d1/g09d01/d01/build-node-6-2-59348/src/main/l703.exe)
 Compute integral first derivatives, UseDBF=F ICtDFT=           0.
 Integral derivatives from FoFJK, PRISM(SPDF).
 Calling FoFJK, ICntrl=      2127 FMM=F ISym2X=0 I1Cent= 0 IOpClX= 0 NMat=1 NMatS=1 NMatT=0.
 FoFJK:  IHMeth= 1 ICntrl=    2127 DoSepK=F KAlg= 0 I1Cent=   0 FoldK=F
 IRaf=         0 NMat=   1 IRICut=       1 DoRegI=T DoRafI=F ISym2E= 0.
 FoFCou: FMM=F IPFlag=           0 FMFlag=      100000 FMFlg1=         800
         NFxFlg=           0 DoJE=F BraDBF=F KetDBF=F FulRan=T
         wScrn=  0.000000 ICntrl=    2127 IOpCl=  0 I1Cent=           0 NGrid=           0
         NMat0=    1 NMatS0=      1 NMatT0=    0 NMatD0=    1 NMtDS0=    0 NMtDT0=    0
 Symmetry not used in FoFCou.
 Leave Link  703 at Tue Sep 17 13:50:21 2024, MaxMem=   268435456 cpu:         6.2
 (Enter /g100_work/pMI24_ChiCa/g09d1/g09d01/d01/build-node-6-2-59348/src/main/l716.exe)
 Dipole        =-2.19447201D+00 1.13009478D-01 3.24079850D-01
 ***** Axes restored to original set *****
 -------------------------------------------------------------------
 Center     Atomic                   Forces (Hartrees/Bohr)
 Number     Number              X              Y              Z
 -------------------------------------------------------------------
      1       16           0.050949944   -0.002545470   -0.082494856
      2        8          -0.015267251    0.029405500   -0.024172404
      3        8          -0.076023440    0.000558992    0.042798251
      4        8           0.011606132    0.008358271    0.023456700
      5        8           0.014392300   -0.011635457    0.031291456
      6        1           0.014342315   -0.024141837    0.009120854
 -------------------------------------------------------------------
 Cartesian Forces:  Max     0.082494856 RMS     0.034680765
 Leave Link  716 at Tue Sep 17 13:50:21 2024, MaxMem=   268435456 cpu:         0.1
 (Enter /g100_work/pMI24_ChiCa/g09d1/g09d01/d01/build-node-6-2-59348/src/main/l103.exe)

 GradGradGradGradGradGradGradGradGradGradGradGradGradGradGradGradGradGrad
 Berny optimization.
 FormGI is forming the generalized inverse of G from B-inverse, IUseBI=4.
 Internal  Forces:  Max     0.085937229 RMS     0.031090048
 Search for a local minimum.
 Step number   1 out of a maximum of   25
 All quantities printed in internal units (Hartrees-Bohrs-Radians)
 RMS Force = .31090D-01 SwitMx=.10000D-02 MixMth= 1
 Mixed Optimization -- RFO/linear search
 Second derivative matrix not updated -- first step.
 The second derivative matrix:
                          R1        R2        R3        R4        R5
           R1           0.41169
           R2           0.00000   0.41169
           R3           0.00000   0.00000   0.73458
           R4           0.00000   0.00000   0.00000   0.73458
           R5           0.00000   0.00000   0.00000   0.00000   0.57681
           A1           0.00000   0.00000   0.00000   0.00000   0.00000
           A2           0.00000   0.00000   0.00000   0.00000   0.00000
           A3           0.00000   0.00000   0.00000   0.00000   0.00000
           A4           0.00000   0.00000   0.00000   0.00000   0.00000
           A5           0.00000   0.00000   0.00000   0.00000   0.00000
           A6           0.00000   0.00000   0.00000   0.00000   0.00000
           A7           0.00000   0.00000   0.00000   0.00000   0.00000
           D1           0.00000   0.00000   0.00000   0.00000   0.00000
           D2           0.00000   0.00000   0.00000   0.00000   0.00000
           D3           0.00000   0.00000   0.00000   0.00000   0.00000
                          A1        A2        A3        A4        A5
           A1           0.25000
           A2           0.00000   0.25000
           A3           0.00000   0.00000   0.25000
           A4           0.00000   0.00000   0.00000   0.25000
           A5           0.00000   0.00000   0.00000   0.00000   0.25000
           A6           0.00000   0.00000   0.00000   0.00000   0.00000
           A7           0.00000   0.00000   0.00000   0.00000   0.00000
           D1           0.00000   0.00000   0.00000   0.00000   0.00000
           D2           0.00000   0.00000   0.00000   0.00000   0.00000
           D3           0.00000   0.00000   0.00000   0.00000   0.00000
                          A6        A7        D1        D2        D3
           A6           0.25000
           A7           0.00000   0.16000
           D1           0.00000   0.00000   0.01825
           D2           0.00000   0.00000   0.00000   0.01825
           D3           0.00000   0.00000   0.00000   0.00000   0.01825
 ITU=  0
     Eigenvalues ---    0.01825   0.16000   0.16025   0.16098   0.25000
     Eigenvalues ---    0.25000   0.25000   0.41169   0.41169   0.57681
     Eigenvalues ---    0.73458   0.73458
 RFO step:  Lambda=-3.71287309D-02 EMin= 1.82525757D-02
 Linear search not attempted -- first point.
 Maximum step size (   0.300) exceeded in Quadratic search.
    -- Step size scaled by   0.940
 Iteration  1 RMS(Cart)=  0.10046192 RMS(Int)=  0.00693156
 Iteration  2 RMS(Cart)=  0.00594900 RMS(Int)=  0.00347026
 Iteration  3 RMS(Cart)=  0.00002599 RMS(Int)=  0.00347022
 Iteration  4 RMS(Cart)=  0.00000024 RMS(Int)=  0.00347022
 ITry= 1 IFail=0 DXMaxC= 1.80D-01 DCOld= 1.00D+10 DXMaxT= 3.00D-01 DXLimC= 3.00D+00 Rises=F
 Variable       Old X    -DE/DX   Delta X   Delta X   Delta X     New X
                                 (Linear)    (Quad)   (Total)
    R1        3.13695  -0.01503   0.00000  -0.03147  -0.03147   3.10548
    R2        3.13695  -0.08594   0.00000  -0.17989  -0.17989   2.95706
    R3        2.85349  -0.02027   0.00000  -0.02468  -0.02468   2.82881
    R4        2.85349  -0.02667   0.00000  -0.03246  -0.03246   2.82102
    R5        1.79524   0.02947   0.00000   0.04510   0.04510   1.84034
    A1        1.91063  -0.02415   0.00000  -0.08373  -0.08844   1.82220
    A2        1.91986  -0.02079   0.00000  -0.06367  -0.06751   1.85235
    A3        1.90601  -0.03745   0.00000  -0.12218  -0.12704   1.77897
    A4        1.90601   0.02212   0.00000   0.07170   0.06678   1.97278
    A5        1.91986   0.02347   0.00000   0.06804   0.06039   1.98025
    A6        1.90145   0.03712   0.00000   0.13091   0.12607   2.02752
    A7        1.91063  -0.00129   0.00000  -0.00617  -0.00617   1.90446
    D1       -1.03873  -0.00272   0.00000  -0.01203  -0.00940  -1.04814
    D2        1.05566  -0.00344   0.00000  -0.01544  -0.01541   1.04026
    D3        3.14159   0.00637   0.00000   0.03109   0.02843  -3.11316
         Item               Value     Threshold  Converged?
 Maximum Force            0.085937     0.000450     NO 
 RMS     Force            0.031090     0.000300     NO 
 Maximum Displacement     0.179882     0.001800     NO 
 RMS     Displacement     0.102770     0.001200     NO 
 Predicted change in Energy=-2.012501D-02
 Lowest energy point so far.  Saving SCF results.
 GradGradGradGradGradGradGradGradGradGradGradGradGradGradGradGradGradGrad

 Leave Link  103 at Tue Sep 17 13:50:21 2024, MaxMem=   268435456 cpu:         1.4
 (Enter /g100_work/pMI24_ChiCa/g09d1/g09d01/d01/build-node-6-2-59348/src/main/l202.exe)
                          Input orientation:                          
 ---------------------------------------------------------------------
 Center     Atomic      Atomic             Coordinates (Angstroms)
 Number     Number       Type             X           Y           Z
 ---------------------------------------------------------------------
      1         16           0        0.002874   -0.012622   -0.073503
      2          8           0       -0.002362    0.026754    1.569365
      3          8           0        1.519666   -0.008510   -0.458144
      4          8           0       -0.696291   -1.278126   -0.461450
      5          8           0       -0.700256    1.259231   -0.414842
      6          1           0        0.462943   -0.758581    1.908714
 ---------------------------------------------------------------------
                    Distance matrix (angstroms):
                    1          2          3          4          5
     1  S    0.000000
     2  O    1.643348   0.000000
     3  O    1.564807   2.535469   0.000000
     4  O    1.496942   2.511664   2.553899   0.000000
     5  O    1.492820   2.437854   2.556774   2.537788   0.000000
     6  H    2.167326   0.973868   2.698385   2.689131   3.289910
                    6
     6  H    0.000000
 Stoichiometry    HO4S(1-)
 Framework group  C1[X(HO4S)]
 Deg. of freedom    12
 Full point group                 C1      NOp   1
 RotChk:  IX=0 Diff= 7.08D-01
 Largest Abelian subgroup         C1      NOp   1
 Largest concise Abelian subgroup C1      NOp   1
                         Standard orientation:                         
 ---------------------------------------------------------------------
 Center     Atomic      Atomic             Coordinates (Angstroms)
 Number     Number       Type             X           Y           Z
 ---------------------------------------------------------------------
      1         16           0        0.126357    0.004295    0.029800
      2          8           0       -1.437575   -0.411802   -0.255808
      3          8           0        0.333182    1.323863   -0.785420
      4          8           0        0.239720    0.205714    1.508791
      5          8           0        0.864450   -1.164431   -0.533947
      6          1           0       -2.019933    0.304527    0.054272
 ---------------------------------------------------------------------
 Rotational constants (GHZ):      4.8645140      4.7972023      4.7872486
 Leave Link  202 at Tue Sep 17 13:50:21 2024, MaxMem=   268435456 cpu:         0.1
 (Enter /g100_work/pMI24_ChiCa/g09d1/g09d01/d01/build-node-6-2-59348/src/main/l301.exe)
 Standard basis: 6-31+G(d,p) (6D, 7F)
 Ernie: Thresh=  0.10000D-02 Tol=  0.10000D-05 Strict=F.
 There are   104 symmetry adapted cartesian basis functions of A   symmetry.
 There are   104 symmetry adapted basis functions of A   symmetry.
   104 basis functions,   191 primitive gaussians,   104 cartesian basis functions
    25 alpha electrons       25 beta electrons
       nuclear repulsion energy       268.3957251324 Hartrees.
 IExCor=  402 DFT=T Ex+Corr=B3LYP ExCW=0 ScaHFX=  0.200000
 ScaDFX=  0.800000  0.720000  1.000000  0.810000 ScalE2=  1.000000  1.000000
 IRadAn=      0 IRanWt=     -1 IRanGd=            0 ICorTp=0 IEmpDi=  4
 NAtoms=    6 NActive=    6 NUniq=    6 SFac= 1.00D+00 NAtFMM=   60 NAOKFM=F Big=F
 Integral buffers will be    131072 words long.
 Raffenetti 2 integral format.
 Two-electron integral symmetry is turned on.
 ------------------------------------------------------------------------------
 Polarizable Continuum Model (PCM)
 =================================
 Model                : PCM (using non-symmetric T matrix).
 Atomic radii         : SMD-Coulomb.
 Polarization charges : Total charges.
 Charge compensation  : None.
 Solution method      : On-the-fly selection.
 Cavity type          : VdW (van der Waals Surface) (Alpha=1.000).
 Cavity algorithm     : GePol (No added spheres)
                        Default sphere list used, NSphG=    6.
                        Lebedev-Laikov grids with approx.  5.0 points / Ang**2.
                        Smoothing algorithm: Karplus/York (Gamma=1.0000).
                        Polarization charges: spherical gaussians, with
                                              point-specific exponents (IZeta= 3).
                        Self-potential: point-specific (ISelfS= 7).
                        Self-field    : sphere-specific E.n sum rule (ISelfD= 2).
 1st derivatives      : Analytical E(r).r(x)/FMM algorithm (CHGder, D1EAlg=3).
                        Cavity 1st derivative terms included.
 Solvent              : Water, Eps=  78.355300 Eps(inf)=   1.777849
 ------------------------------------------------------------------------------
 Spheres list:
 ISph  on   Nord     Re0    Alpha      Xe            Ye            Ze
    1   S      1    2.4900  1.000      0.126357      0.004295      0.029800
    2   O      2    1.5200  1.000     -1.437575     -0.411802     -0.255808
    3   O      3    1.5200  1.000      0.333182      1.323863     -0.785420
    4   O      4    1.5200  1.000      0.239720      0.205714      1.508791
    5   O      5    1.5200  1.000      0.864450     -1.164431     -0.533947
    6   H      6    1.2000  1.000     -2.019933      0.304527      0.054272
 ------------------------------------------------------------------------------
 GePol: Number of generator spheres                  =       6
 GePol: Total number of spheres                      =       6
 GePol: Number of exposed spheres                    =       6 (100.00%)
 GePol: Number of points                             =     595
 GePol: Average weight of points                     =       0.15
 GePol: Minimum weight of points                     =   0.64D-06
 GePol: Maximum weight of points                     =    0.21991
 GePol: Number of points with low weight             =      18
 GePol: Fraction of low-weight points (<1% of avg)   =       3.03%
 GePol: Cavity surface area                          =     90.994 Ang**2
 GePol: Cavity volume                                =     76.044 Ang**3
 ------------------------------------------------------------------------------
 Atomic radii for non-electrostatic terms: SMD-CDS.
 ------------------------------------------------------------------------------
 PCM non-electrostatic energy =         0.0009565526 Hartrees.
 Nuclear repulsion after PCM non-electrostatic terms =      268.3966816850 Hartrees.
 Leave Link  301 at Tue Sep 17 13:50:22 2024, MaxMem=   268435456 cpu:         0.2
 (Enter /g100_work/pMI24_ChiCa/g09d1/g09d01/d01/build-node-6-2-59348/src/main/l302.exe)
 NPDir=0 NMtPBC=     1 NCelOv=     1 NCel=       1 NClECP=     1 NCelD=      1
         NCelK=      1 NCelE2=     1 NClLst=     1 CellRange=     0.0.
 One-electron integrals computed using PRISM.
 NBasis=   104 RedAO= T EigKep=  1.93D-03  NBF=   104
 NBsUse=   104 1.00D-06 EigRej= -1.00D+00 NBFU=   104
 Precomputing XC quadrature grid using
 IXCGrd= 4 IRadAn=           0 IRanWt=          -1 IRanGd=           0 AccXCQ= 0.00D+00.
 Generated NRdTot=       0 NPtTot=           0 NUsed=           0 NTot=          32
 NSgBfM=   104   104   104   104   104 MxSgAt=     6 MxSgA2=     6.
 Leave Link  302 at Tue Sep 17 13:50:22 2024, MaxMem=   268435456 cpu:         1.4
 (Enter /g100_work/pMI24_ChiCa/g09d1/g09d01/d01/build-node-6-2-59348/src/main/l303.exe)
 DipDrv:  MaxL=1.
 Leave Link  303 at Tue Sep 17 13:50:22 2024, MaxMem=   268435456 cpu:         0.2
 (Enter /g100_work/pMI24_ChiCa/g09d1/g09d01/d01/build-node-6-2-59348/src/main/l401.exe)
 Initial guess from the checkpoint file:  "/g100_scratch/userexternal/ecabiati/g16_14416803/Gau-49432.chk"
 B after Tr=     0.000000    0.000000   -0.000000
         Rot=    0.967855    0.231283    0.021590   -0.096433 Ang=  29.13 deg.
 Guess basis will be translated and rotated to current coordinates.
 JPrj=2 DoOrth=T DoCkMO=T.
 Generating alternative initial guess.
 ExpMin= 4.05D-02 ExpMax= 2.19D+04 ExpMxC= 3.30D+03 IAcc=2 IRadAn=         4 AccDes= 0.00D+00
 Harris functional with IExCor=  402 and IRadAn=       4 diagonalized for initial guess.
 HarFok:  IExCor=  402 AccDes= 0.00D+00 IRadAn=         4 IDoV= 1 UseB2=F ITyADJ=14
 ICtDFT=  3500011 ScaDFX=  1.000000  1.000000  1.000000  1.000000
 FoFCou: FMM=F IPFlag=           0 FMFlag=      100000 FMFlg1=           0
         NFxFlg=           0 DoJE=T BraDBF=F KetDBF=T FulRan=T
         wScrn=  0.000000 ICntrl=     500 IOpCl=  0 I1Cent=   200000004 NGrid=           0
         NMat0=    1 NMatS0=      1 NMatT0=    0 NMatD0=    1 NMtDS0=    0 NMtDT0=    0
 Petite list used in FoFCou.
 Harris En= -699.927819887403    
 Leave Link  401 at Tue Sep 17 13:50:22 2024, MaxMem=   268435456 cpu:         2.0
 (Enter /g100_work/pMI24_ChiCa/g09d1/g09d01/d01/build-node-6-2-59348/src/main/l502.exe)
 Closed shell SCF:
 Using DIIS extrapolation, IDIIS=  1040.
 Integral symmetry usage will be decided dynamically.
 Keep R1 ints in memory in canonical form, NReq=18297722.
 IVT=       54263 IEndB=       54263 NGot=   268435456 MDV=   253472664
 LenX=   253472664 LenY=   253461407
 Requested convergence on RMS density matrix=1.00D-08 within 128 cycles.
 Requested convergence on MAX density matrix=1.00D-06.
 Requested convergence on             energy=1.00D-06.
 No special actions if energy rises.
 FoFCou: FMM=F IPFlag=           0 FMFlag=           0 FMFlg1=           0
         NFxFlg=           0 DoJE=F BraDBF=F KetDBF=F FulRan=T
         wScrn=  0.000000 ICntrl=     600 IOpCl=  0 I1Cent=           0 NGrid=           0
         NMat0=    1 NMatS0=   5460 NMatT0=    0 NMatD0=    1 NMtDS0=    0 NMtDT0=    0
 Symmetry not used in FoFCou.

 Cycle   1  Pass 1  IDiag  1:
 Inv3:  Mode=1 IEnd=     1062075.
 Iteration    1 A*A^-1 deviation from unit magnitude is 4.44D-15 for    373.
 Iteration    1 A*A^-1 deviation from orthogonality  is 2.68D-15 for    424     89.
 Iteration    1 A^-1*A deviation from unit magnitude is 3.89D-15 for    377.
 Iteration    1 A^-1*A deviation from orthogonality  is 1.33D-13 for    567    528.
 E= -699.809512475353    
 DIIS: error= 7.23D-03 at cycle   1 NSaved=   1.
 NSaved= 1 IEnMin= 1 EnMin= -699.809512475353     IErMin= 1 ErrMin= 7.23D-03
 ErrMax= 7.23D-03  0.00D+00 EMaxC= 1.00D-01 BMatC= 1.28D-02 BMatP= 1.28D-02
 IDIUse=3 WtCom= 9.28D-01 WtEn= 7.23D-02
 Coeff-Com:  0.100D+01
 Coeff-En:   0.100D+01
 Coeff:      0.100D+01
 Gap=     0.673 Goal=   None    Shift=    0.000
 GapD=    0.673 DampG=2.000 DampE=1.000 DampFc=2.0000 IDamp=-1.
 RMSDP=2.67D-03 MaxDP=3.39D-02              OVMax= 6.00D-02

 Cycle   2  Pass 1  IDiag  1:
 E= -699.831639196042     Delta-E=       -0.022126720689 Rises=F Damp=F
 DIIS: error= 3.28D-03 at cycle   2 NSaved=   2.
 NSaved= 2 IEnMin= 2 EnMin= -699.831639196042     IErMin= 2 ErrMin= 3.28D-03
 ErrMax= 3.28D-03  0.00D+00 EMaxC= 1.00D-01 BMatC= 2.32D-03 BMatP= 1.28D-02
 IDIUse=3 WtCom= 9.67D-01 WtEn= 3.28D-02
 Coeff-Com:  0.167D+00 0.833D+00
 Coeff-En:   0.000D+00 0.100D+01
 Coeff:      0.161D+00 0.839D+00
 Gap=     0.265 Goal=   None    Shift=    0.000
 RMSDP=8.43D-04 MaxDP=1.81D-02 DE=-2.21D-02 OVMax= 2.35D-02

 Cycle   3  Pass 1  IDiag  1:
 E= -699.830170450192     Delta-E=        0.001468745850 Rises=F Damp=F
 DIIS: error= 4.81D-03 at cycle   3 NSaved=   3.
 NSaved= 3 IEnMin= 2 EnMin= -699.831639196042     IErMin= 2 ErrMin= 3.28D-03
 ErrMax= 4.81D-03  0.00D+00 EMaxC= 1.00D-01 BMatC= 4.44D-03 BMatP= 2.32D-03
 IDIUse=3 WtCom= 1.26D-01 WtEn= 8.74D-01
 Coeff-Com: -0.395D-01 0.600D+00 0.440D+00
 Coeff-En:   0.000D+00 0.620D+00 0.380D+00
 Coeff:     -0.497D-02 0.618D+00 0.387D+00
 Gap=     0.271 Goal=   None    Shift=    0.000
 RMSDP=4.95D-04 MaxDP=1.07D-02 DE= 1.47D-03 OVMax= 1.30D-02

 Cycle   4  Pass 1  IDiag  1:
 E= -699.833451699688     Delta-E=       -0.003281249496 Rises=F Damp=F
 DIIS: error= 4.45D-04 at cycle   4 NSaved=   4.
 NSaved= 4 IEnMin= 4 EnMin= -699.833451699688     IErMin= 4 ErrMin= 4.45D-04
 ErrMax= 4.45D-04  0.00D+00 EMaxC= 1.00D-01 BMatC= 4.46D-05 BMatP= 2.32D-03
 IDIUse=3 WtCom= 9.96D-01 WtEn= 4.45D-03
 Coeff-Com: -0.230D-01 0.224D+00 0.135D+00 0.664D+00
 Coeff-En:   0.000D+00 0.000D+00 0.000D+00 0.100D+01
 Coeff:     -0.229D-01 0.223D+00 0.134D+00 0.666D+00
 Gap=     0.272 Goal=   None    Shift=    0.000
 RMSDP=9.50D-05 MaxDP=2.61D-03 DE=-3.28D-03 OVMax= 1.90D-03

 Cycle   5  Pass 1  IDiag  1:
 E= -699.833478345062     Delta-E=       -0.000026645374 Rises=F Damp=F
 DIIS: error= 2.59D-04 at cycle   5 NSaved=   5.
 NSaved= 5 IEnMin= 5 EnMin= -699.833478345062     IErMin= 5 ErrMin= 2.59D-04
 ErrMax= 2.59D-04  0.00D+00 EMaxC= 1.00D-01 BMatC= 1.58D-05 BMatP= 4.46D-05
 IDIUse=3 WtCom= 9.97D-01 WtEn= 2.59D-03
 Coeff-Com: -0.882D-02 0.671D-01 0.329D-01 0.411D+00 0.497D+00
 Coeff-En:   0.000D+00 0.000D+00 0.000D+00 0.218D+00 0.782D+00
 Coeff:     -0.880D-02 0.669D-01 0.328D-01 0.411D+00 0.498D+00
 Gap=     0.272 Goal=   None    Shift=    0.000
 RMSDP=3.39D-05 MaxDP=6.32D-04 DE=-2.66D-05 OVMax= 6.83D-04

 Cycle   6  Pass 1  IDiag  1:
 E= -699.833489564726     Delta-E=       -0.000011219664 Rises=F Damp=F
 DIIS: error= 5.52D-05 at cycle   6 NSaved=   6.
 NSaved= 6 IEnMin= 6 EnMin= -699.833489564726     IErMin= 6 ErrMin= 5.52D-05
 ErrMax= 5.52D-05  0.00D+00 EMaxC= 1.00D-01 BMatC= 9.09D-07 BMatP= 1.58D-05
 IDIUse=1 WtCom= 1.00D+00 WtEn= 0.00D+00
 Coeff-Com: -0.204D-02 0.126D-01 0.389D-02 0.153D+00 0.260D+00 0.572D+00
 Coeff:     -0.204D-02 0.126D-01 0.389D-02 0.153D+00 0.260D+00 0.572D+00
 Gap=     0.272 Goal=   None    Shift=    0.000
 RMSDP=1.18D-05 MaxDP=3.96D-04 DE=-1.12D-05 OVMax= 2.20D-04

 Cycle   7  Pass 1  IDiag  1:
 E= -699.833490247165     Delta-E=       -0.000000682439 Rises=F Damp=F
 DIIS: error= 1.87D-05 at cycle   7 NSaved=   7.
 NSaved= 7 IEnMin= 7 EnMin= -699.833490247165     IErMin= 7 ErrMin= 1.87D-05
 ErrMax= 1.87D-05  0.00D+00 EMaxC= 1.00D-01 BMatC= 9.20D-08 BMatP= 9.09D-07
 IDIUse=1 WtCom= 1.00D+00 WtEn= 0.00D+00
 Coeff-Com: -0.137D-03-0.213D-02-0.232D-02 0.321D-01 0.754D-01 0.292D+00
 Coeff-Com:  0.605D+00
 Coeff:     -0.137D-03-0.213D-02-0.232D-02 0.321D-01 0.754D-01 0.292D+00
 Coeff:      0.605D+00
 Gap=     0.272 Goal=   None    Shift=    0.000
 RMSDP=3.45D-06 MaxDP=1.23D-04 DE=-6.82D-07 OVMax= 6.41D-05

 Cycle   8  Pass 1  IDiag  1:
 E= -699.833490308605     Delta-E=       -0.000000061440 Rises=F Damp=F
 DIIS: error= 1.22D-05 at cycle   8 NSaved=   8.
 NSaved= 8 IEnMin= 8 EnMin= -699.833490308605     IErMin= 8 ErrMin= 1.22D-05
 ErrMax= 1.22D-05  0.00D+00 EMaxC= 1.00D-01 BMatC= 1.58D-08 BMatP= 9.20D-08
 IDIUse=1 WtCom= 1.00D+00 WtEn= 0.00D+00
 Coeff-Com:  0.139D-03-0.272D-02-0.194D-02 0.355D-02 0.183D-01 0.121D+00
 Coeff-Com:  0.363D+00 0.499D+00
 Coeff:      0.139D-03-0.272D-02-0.194D-02 0.355D-02 0.183D-01 0.121D+00
 Coeff:      0.363D+00 0.499D+00
 Gap=     0.272 Goal=   None    Shift=    0.000
 RMSDP=1.02D-06 MaxDP=2.49D-05 DE=-6.14D-08 OVMax= 1.92D-05

 Cycle   9  Pass 1  IDiag  1:
 E= -699.833490319756     Delta-E=       -0.000000011152 Rises=F Damp=F
 DIIS: error= 1.60D-06 at cycle   9 NSaved=   9.
 NSaved= 9 IEnMin= 9 EnMin= -699.833490319756     IErMin= 9 ErrMin= 1.60D-06
 ErrMax= 1.60D-06  0.00D+00 EMaxC= 1.00D-01 BMatC= 3.29D-10 BMatP= 1.58D-08
 IDIUse=1 WtCom= 1.00D+00 WtEn= 0.00D+00
 Coeff-Com:  0.665D-04-0.106D-02-0.761D-03 0.119D-03 0.384D-02 0.379D-01
 Coeff-Com:  0.124D+00 0.205D+00 0.631D+00
 Coeff:      0.665D-04-0.106D-02-0.761D-03 0.119D-03 0.384D-02 0.379D-01
 Coeff:      0.124D+00 0.205D+00 0.631D+00
 Gap=     0.272 Goal=   None    Shift=    0.000
 RMSDP=2.45D-07 MaxDP=3.90D-06 DE=-1.12D-08 OVMax= 5.80D-06

 Cycle  10  Pass 1  IDiag  1:
 E= -699.833490319904     Delta-E=       -0.000000000148 Rises=F Damp=F
 DIIS: error= 8.64D-07 at cycle  10 NSaved=  10.
 NSaved=10 IEnMin=10 EnMin= -699.833490319904     IErMin=10 ErrMin= 8.64D-07
 ErrMax= 8.64D-07  0.00D+00 EMaxC= 1.00D-01 BMatC= 1.67D-10 BMatP= 3.29D-10
 IDIUse=1 WtCom= 1.00D+00 WtEn= 0.00D+00
 Coeff-Com:  0.203D-04-0.246D-03-0.191D-03-0.499D-03-0.676D-03 0.480D-02
 Coeff-Com:  0.208D-01 0.517D-01 0.435D+00 0.489D+00
 Coeff:      0.203D-04-0.246D-03-0.191D-03-0.499D-03-0.676D-03 0.480D-02
 Coeff:      0.208D-01 0.517D-01 0.435D+00 0.489D+00
 Gap=     0.272 Goal=   None    Shift=    0.000
 RMSDP=1.17D-07 MaxDP=2.71D-06 DE=-1.48D-10 OVMax= 2.93D-06

 Cycle  11  Pass 1  IDiag  1:
 E= -699.833490320026     Delta-E=       -0.000000000122 Rises=F Damp=F
 DIIS: error= 9.10D-08 at cycle  11 NSaved=  11.
 NSaved=11 IEnMin=11 EnMin= -699.833490320026     IErMin=11 ErrMin= 9.10D-08
 ErrMax= 9.10D-08  0.00D+00 EMaxC= 1.00D-01 BMatC= 2.47D-12 BMatP= 1.67D-10
 IDIUse=1 WtCom= 1.00D+00 WtEn= 0.00D+00
 Coeff-Com: -0.146D-05 0.482D-04 0.271D-04-0.143D-03-0.608D-03-0.270D-02
 Coeff-Com: -0.766D-02-0.753D-02 0.572D-01 0.148D+00 0.814D+00
 Coeff:     -0.146D-05 0.482D-04 0.271D-04-0.143D-03-0.608D-03-0.270D-02
 Coeff:     -0.766D-02-0.753D-02 0.572D-01 0.148D+00 0.814D+00
 Gap=     0.272 Goal=   None    Shift=    0.000
 RMSDP=2.40D-08 MaxDP=5.97D-07 DE=-1.22D-10 OVMax= 4.82D-07

 Cycle  12  Pass 1  IDiag  1:
 E= -699.833490320041     Delta-E=       -0.000000000015 Rises=F Damp=F
 DIIS: error= 9.74D-09 at cycle  12 NSaved=  12.
 NSaved=12 IEnMin=12 EnMin= -699.833490320041     IErMin=12 ErrMin= 9.74D-09
 ErrMax= 9.74D-09  0.00D+00 EMaxC= 1.00D-01 BMatC= 1.72D-14 BMatP= 2.47D-12
 IDIUse=1 WtCom= 1.00D+00 WtEn= 0.00D+00
 Coeff-Com: -0.379D-06 0.673D-05 0.584D-05-0.500D-05-0.190D-04-0.266D-03
 Coeff-Com: -0.793D-03-0.130D-02-0.331D-02 0.618D-03 0.506D-01 0.955D+00
 Coeff:     -0.379D-06 0.673D-05 0.584D-05-0.500D-05-0.190D-04-0.266D-03
 Coeff:     -0.793D-03-0.130D-02-0.331D-02 0.618D-03 0.506D-01 0.955D+00
 Gap=     0.272 Goal=   None    Shift=    0.000
 RMSDP=2.69D-09 MaxDP=4.56D-08 DE=-1.48D-11 OVMax= 8.18D-08

 Error on total polarization charges =  0.04368
 SCF Done:  E(RB3LYP) =  -699.833490320     A.U. after   12 cycles
            NFock= 12  Conv=0.27D-08     -V/T= 2.0066
 KE= 6.952686201327D+02 PE=-2.203251316938D+03 EE= 5.397525248000D+02
 SMD-CDS (non-electrostatic) energy       (kcal/mol) =       0.60
 (included in total energy above)
 Leave Link  502 at Tue Sep 17 13:50:23 2024, MaxMem=   268435456 cpu:        25.1
 (Enter /g100_work/pMI24_ChiCa/g09d1/g09d01/d01/build-node-6-2-59348/src/main/l701.exe)
 Compute integral first derivatives.
 ... and contract with generalized density number  0.
 D1PCM: PCM CHGder 1st derivatives, ID1Alg=3 FixD1E=F DoIter=F DoCFld=F I1PDM=0.
 GePol: Maximum number of non-zero 1st derivatives   =     408
 Leave Link  701 at Tue Sep 17 13:50:24 2024, MaxMem=   268435456 cpu:         4.4
 (Enter /g100_work/pMI24_ChiCa/g09d1/g09d01/d01/build-node-6-2-59348/src/main/l702.exe)
 L702 exits ... SP integral derivatives will be done elsewhere.
 Leave Link  702 at Tue Sep 17 13:50:24 2024, MaxMem=   268435456 cpu:         0.1
 (Enter /g100_work/pMI24_ChiCa/g09d1/g09d01/d01/build-node-6-2-59348/src/main/l703.exe)
 Compute integral first derivatives, UseDBF=F ICtDFT=           0.
 Integral derivatives from FoFJK, PRISM(SPDF).
 Calling FoFJK, ICntrl=      2127 FMM=F ISym2X=0 I1Cent= 0 IOpClX= 0 NMat=1 NMatS=1 NMatT=0.
 FoFJK:  IHMeth= 1 ICntrl=    2127 DoSepK=F KAlg= 0 I1Cent=   0 FoldK=F
 IRaf=         0 NMat=   1 IRICut=       1 DoRegI=T DoRafI=F ISym2E= 0.
 FoFCou: FMM=F IPFlag=           0 FMFlag=      100000 FMFlg1=         800
         NFxFlg=           0 DoJE=F BraDBF=F KetDBF=F FulRan=T
         wScrn=  0.000000 ICntrl=    2127 IOpCl=  0 I1Cent=           0 NGrid=           0
         NMat0=    1 NMatS0=      1 NMatT0=    0 NMatD0=    1 NMtDS0=    0 NMtDT0=    0
 Symmetry not used in FoFCou.
 Leave Link  703 at Tue Sep 17 13:50:24 2024, MaxMem=   268435456 cpu:         6.3
 (Enter /g100_work/pMI24_ChiCa/g09d1/g09d01/d01/build-node-6-2-59348/src/main/l716.exe)
 Dipole        =-1.69061703D+00 1.09137552D-01 2.63218214D-01
 ***** Axes restored to original set *****
 -------------------------------------------------------------------
 Center     Atomic                   Forces (Hartrees/Bohr)
 Number     Number              X              Y              Z
 -------------------------------------------------------------------
      1       16           0.044785429    0.001990898   -0.019060957
      2        8          -0.002420341    0.001358438    0.004397398
      3        8          -0.052049688   -0.001219365    0.010452182
      4        8           0.005020225    0.011834234    0.001352930
      5        8           0.003880872   -0.012766187    0.001512531
      6        1           0.000783502   -0.001198017    0.001345917
 -------------------------------------------------------------------
 Cartesian Forces:  Max     0.052049688 RMS     0.017592977
 Leave Link  716 at Tue Sep 17 13:50:24 2024, MaxMem=   268435456 cpu:         0.1
 (Enter /g100_work/pMI24_ChiCa/g09d1/g09d01/d01/build-node-6-2-59348/src/main/l103.exe)

 GradGradGradGradGradGradGradGradGradGradGradGradGradGradGradGradGradGrad
 Berny optimization.
 Using GEDIIS/GDIIS optimizer.
 FormGI is forming the generalized inverse of G from B-inverse, IUseBI=4.
 Internal  Forces:  Max     0.053025871 RMS     0.014797333
 Search for a local minimum.
 Step number   2 out of a maximum of   25
 All quantities printed in internal units (Hartrees-Bohrs-Radians)
 RMS Force = .14797D-01 SwitMx=.10000D-02 MixMth= 1
 Mixed Optimization -- RFO/linear search
 Update second derivatives using D2CorX and points    1    2
 DE= -2.26D-02 DEPred=-2.01D-02 R= 1.12D+00
 TightC=F SS=  1.41D+00  RLast= 3.01D-01 DXNew= 5.0454D-01 9.0367D-01
 Trust test= 1.12D+00 RLast= 3.01D-01 DXMaxT set to 5.05D-01
 The second derivative matrix:
                          R1        R2        R3        R4        R5
           R1           0.42216
           R2          -0.00707   0.26515
           R3          -0.00214  -0.03651   0.72550
           R4           0.00010  -0.04342  -0.01089   0.72216
           R5          -0.01003   0.03163   0.00828   0.00702   0.58234
           A1           0.01436  -0.01761  -0.00491  -0.00213  -0.01246
           A2           0.01075  -0.01378  -0.00383  -0.00176  -0.00924
           A3           0.01650  -0.03186  -0.00856  -0.00577  -0.01241
           A4          -0.01213   0.01126   0.00324   0.00076   0.01112
           A5          -0.01172   0.00899   0.00266   0.00020   0.01106
           A6          -0.01931   0.02696   0.00743   0.00380   0.01622
           A7           0.00156   0.00067   0.00011   0.00051  -0.00177
           D1           0.00256   0.00374   0.00085   0.00159  -0.00335
           D2           0.00395   0.00576   0.00131   0.00245  -0.00517
           D3          -0.00668  -0.00966  -0.00219  -0.00412   0.00873
                          A1        A2        A3        A4        A5
           A1           0.26930
           A2           0.01442   0.26077
           A3           0.02156   0.01607   0.27318
           A4          -0.01649  -0.01234  -0.01871   0.26400
           A5          -0.01603  -0.01200  -0.01833   0.01357   0.26312
           A6          -0.02577  -0.01924  -0.02853   0.02210   0.02153
           A7           0.00223   0.00167   0.00269  -0.00184  -0.00176
           D1           0.00379   0.00286   0.00478  -0.00307  -0.00290
           D2           0.00587   0.00443   0.00739  -0.00475  -0.00449
           D3          -0.00991  -0.00748  -0.01248   0.00804   0.00759
                          A6        A7        D1        D2        D3
           A6           0.28434
           A7          -0.00303   0.16021
           D1          -0.00522   0.00032   0.01868
           D2          -0.00807   0.00049   0.00066   0.01928
           D3           0.01364  -0.00083  -0.00112  -0.00174   0.02119
 ITU=  1  0
 Use linear search instead of GDIIS.
     Eigenvalues ---    0.01825   0.16000   0.17272   0.17825   0.23317
     Eigenvalues ---    0.25000   0.25493   0.35878   0.43861   0.59232
     Eigenvalues ---    0.72048   0.73500
 RFO step:  Lambda=-8.93195936D-03 EMin= 1.82528642D-02
 Quartic linear search produced a step of  0.23090.
 Iteration  1 RMS(Cart)=  0.04456564 RMS(Int)=  0.00099536
 Iteration  2 RMS(Cart)=  0.00036076 RMS(Int)=  0.00095846
 Iteration  3 RMS(Cart)=  0.00000050 RMS(Int)=  0.00095846
 ITry= 1 IFail=0 DXMaxC= 1.40D-01 DCOld= 1.00D+10 DXMaxT= 5.05D-01 DXLimC= 3.00D+00 Rises=F
 Variable       Old X    -DE/DX   Delta X   Delta X   Delta X     New X
                                 (Linear)    (Quad)   (Total)
    R1        3.10548   0.00571  -0.00727   0.01804   0.01077   3.11625
    R2        2.95706  -0.05303  -0.04154  -0.14704  -0.18858   2.76848
    R3        2.82881  -0.01273  -0.00570  -0.02078  -0.02648   2.80233
    R4        2.82102  -0.01302  -0.00750  -0.02118  -0.02868   2.79234
    R5        1.84034   0.00189   0.01041   0.00297   0.01338   1.85373
    A1        1.82220   0.00677  -0.02042   0.04321   0.02147   1.84367
    A2        1.85235   0.00255  -0.01559   0.01705   0.00033   1.85268
    A3        1.77897   0.00168  -0.02933   0.01879  -0.01192   1.76705
    A4        1.97278  -0.00288   0.01542  -0.01676  -0.00278   1.97001
    A5        1.98025  -0.00010   0.01394   0.00034   0.01226   1.99251
    A6        2.02752  -0.00547   0.02911  -0.04442  -0.01675   2.01077
    A7        1.90446   0.00126  -0.00143   0.01012   0.00869   1.91315
    D1       -1.04814   0.00065  -0.00217   0.00285   0.00126  -1.04687
    D2        1.04026   0.00179  -0.00356   0.01232   0.00871   1.04897
    D3       -3.11316  -0.00248   0.00656  -0.02149  -0.01546  -3.12862
         Item               Value     Threshold  Converged?
 Maximum Force            0.053026     0.000450     NO 
 RMS     Force            0.014797     0.000300     NO 
 Maximum Displacement     0.139616     0.001800     NO 
 RMS     Displacement     0.044539     0.001200     NO 
 Predicted change in Energy=-6.061897D-03
 Lowest energy point so far.  Saving SCF results.
 GradGradGradGradGradGradGradGradGradGradGradGradGradGradGradGradGradGrad

 Leave Link  103 at Tue Sep 17 13:50:24 2024, MaxMem=   268435456 cpu:         1.1
 (Enter /g100_work/pMI24_ChiCa/g09d1/g09d01/d01/build-node-6-2-59348/src/main/l202.exe)
                          Input orientation:                          
 ---------------------------------------------------------------------
 Center     Atomic      Atomic             Coordinates (Angstroms)
 Number     Number       Type             X           Y           Z
 ---------------------------------------------------------------------
      1         16           0        0.028815   -0.011781   -0.081247
      2          8           0        0.002248    0.030156    1.567055
      3          8           0        1.445784   -0.013621   -0.453358
      4          8           0       -0.671760   -1.258542   -0.473506
      5          8           0       -0.681984    1.240520   -0.412824
      6          1           0        0.463471   -0.758586    1.924020
 ---------------------------------------------------------------------
                    Distance matrix (angstroms):
                    1          2          3          4          5
     1  S    0.000000
     2  O    1.649050   0.000000
     3  O    1.465016   2.483502   0.000000
     4  O    1.482931   2.505777   2.456466   0.000000
     5  O    1.477645   2.419314   2.470204   2.499819   0.000000
     6  H    2.183515   0.980950   2.678029   2.699414   3.281666
                    6
     6  H    0.000000
 Stoichiometry    HO4S(1-)
 Framework group  C1[X(HO4S)]
 Deg. of freedom    12
 Full point group                 C1      NOp   1
 RotChk:  IX=1 Diff= 9.59D-01
 Largest Abelian subgroup         C1      NOp   1
 Largest concise Abelian subgroup C1      NOp   1
                         Standard orientation:                         
 ---------------------------------------------------------------------
 Center     Atomic      Atomic             Coordinates (Angstroms)
 Number     Number       Type             X           Y           Z
 ---------------------------------------------------------------------
      1         16           0        0.130867    0.011270   -0.005053
      2          8           0       -1.486545   -0.289831    0.107566
      3          8           0        0.351751    0.473737   -1.377498
      4          8           0        0.428306    1.051866    1.008740
      5          8           0        0.693286   -1.324910    0.280854
      6          1           0       -1.988253    0.532781   -0.076447
 ---------------------------------------------------------------------
 Rotational constants (GHZ):      5.1302192      5.0000566      4.8856707
 Leave Link  202 at Tue Sep 17 13:50:24 2024, MaxMem=   268435456 cpu:         0.1
 (Enter /g100_work/pMI24_ChiCa/g09d1/g09d01/d01/build-node-6-2-59348/src/main/l301.exe)
 Standard basis: 6-31+G(d,p) (6D, 7F)
 Ernie: Thresh=  0.10000D-02 Tol=  0.10000D-05 Strict=F.
 There are   104 symmetry adapted cartesian basis functions of A   symmetry.
 There are   104 symmetry adapted basis functions of A   symmetry.
   104 basis functions,   191 primitive gaussians,   104 cartesian basis functions
    25 alpha electrons       25 beta electrons
       nuclear repulsion energy       273.6545631940 Hartrees.
 IExCor=  402 DFT=T Ex+Corr=B3LYP ExCW=0 ScaHFX=  0.200000
 ScaDFX=  0.800000  0.720000  1.000000  0.810000 ScalE2=  1.000000  1.000000
 IRadAn=      0 IRanWt=     -1 IRanGd=            0 ICorTp=0 IEmpDi=  4
 NAtoms=    6 NActive=    6 NUniq=    6 SFac= 1.00D+00 NAtFMM=   60 NAOKFM=F Big=F
 Integral buffers will be    131072 words long.
 Raffenetti 2 integral format.
 Two-electron integral symmetry is turned on.
 ------------------------------------------------------------------------------
 Polarizable Continuum Model (PCM)
 =================================
 Model                : PCM (using non-symmetric T matrix).
 Atomic radii         : SMD-Coulomb.
 Polarization charges : Total charges.
 Charge compensation  : None.
 Solution method      : On-the-fly selection.
 Cavity type          : VdW (van der Waals Surface) (Alpha=1.000).
 Cavity algorithm     : GePol (No added spheres)
                        Default sphere list used, NSphG=    6.
                        Lebedev-Laikov grids with approx.  5.0 points / Ang**2.
                        Smoothing algorithm: Karplus/York (Gamma=1.0000).
                        Polarization charges: spherical gaussians, with
                                              point-specific exponents (IZeta= 3).
                        Self-potential: point-specific (ISelfS= 7).
                        Self-field    : sphere-specific E.n sum rule (ISelfD= 2).
 1st derivatives      : Analytical E(r).r(x)/FMM algorithm (CHGder, D1EAlg=3).
                        Cavity 1st derivative terms included.
 Solvent              : Water, Eps=  78.355300 Eps(inf)=   1.777849
 ------------------------------------------------------------------------------
 Spheres list:
 ISph  on   Nord     Re0    Alpha      Xe            Ye            Ze
    1   S      1    2.4900  1.000      0.130867      0.011270     -0.005053
    2   O      2    1.5200  1.000     -1.486545     -0.289831      0.107566
    3   O      3    1.5200  1.000      0.351751      0.473737     -1.377498
    4   O      4    1.5200  1.000      0.428306      1.051866      1.008740
    5   O      5    1.5200  1.000      0.693286     -1.324910      0.280854
    6   H      6    1.2000  1.000     -1.988253      0.532781     -0.076447
 ------------------------------------------------------------------------------
 GePol: Number of generator spheres                  =       6
 GePol: Total number of spheres                      =       6
 GePol: Number of exposed spheres                    =       6 (100.00%)
 GePol: Number of points                             =     587
 GePol: Average weight of points                     =       0.15
 GePol: Minimum weight of points                     =   0.26D-07
 GePol: Maximum weight of points                     =    0.21991
 GePol: Number of points with low weight             =      19
 GePol: Fraction of low-weight points (<1% of avg)   =       3.24%
 GePol: Cavity surface area                          =     90.236 Ang**2
 GePol: Cavity volume                                =     75.296 Ang**3
 ------------------------------------------------------------------------------
 Atomic radii for non-electrostatic terms: SMD-CDS.
 ------------------------------------------------------------------------------
 PCM non-electrostatic energy =         0.0009803262 Hartrees.
 Nuclear repulsion after PCM non-electrostatic terms =      273.6555435202 Hartrees.
 Leave Link  301 at Tue Sep 17 13:50:24 2024, MaxMem=   268435456 cpu:         0.2
 (Enter /g100_work/pMI24_ChiCa/g09d1/g09d01/d01/build-node-6-2-59348/src/main/l302.exe)
 NPDir=0 NMtPBC=     1 NCelOv=     1 NCel=       1 NClECP=     1 NCelD=      1
         NCelK=      1 NCelE2=     1 NClLst=     1 CellRange=     0.0.
 One-electron integrals computed using PRISM.
 NBasis=   104 RedAO= T EigKep=  1.70D-03  NBF=   104
 NBsUse=   104 1.00D-06 EigRej= -1.00D+00 NBFU=   104
 Precomputing XC quadrature grid using
 IXCGrd= 4 IRadAn=           0 IRanWt=          -1 IRanGd=           0 AccXCQ= 0.00D+00.
 Generated NRdTot=       0 NPtTot=           0 NUsed=           0 NTot=          32
 NSgBfM=   104   104   104   104   104 MxSgAt=     6 MxSgA2=     6.
 Leave Link  302 at Tue Sep 17 13:50:25 2024, MaxMem=   268435456 cpu:         1.3
 (Enter /g100_work/pMI24_ChiCa/g09d1/g09d01/d01/build-node-6-2-59348/src/main/l303.exe)
 DipDrv:  MaxL=1.
 Leave Link  303 at Tue Sep 17 13:50:25 2024, MaxMem=   268435456 cpu:         0.2
 (Enter /g100_work/pMI24_ChiCa/g09d1/g09d01/d01/build-node-6-2-59348/src/main/l401.exe)
 Initial guess from the checkpoint file:  "/g100_scratch/userexternal/ecabiati/g16_14416803/Gau-49432.chk"
 B after Tr=    -0.000000    0.000000    0.000000
         Rot=    0.940755    0.331944   -0.038413    0.057594 Ang=  39.64 deg.
 Guess basis will be translated and rotated to current coordinates.
 JPrj=2 DoOrth=T DoCkMO=T.
 Generating alternative initial guess.
 ExpMin= 4.05D-02 ExpMax= 2.19D+04 ExpMxC= 3.30D+03 IAcc=2 IRadAn=         4 AccDes= 0.00D+00
 Harris functional with IExCor=  402 and IRadAn=       4 diagonalized for initial guess.
 HarFok:  IExCor=  402 AccDes= 0.00D+00 IRadAn=         4 IDoV= 1 UseB2=F ITyADJ=14
 ICtDFT=  3500011 ScaDFX=  1.000000  1.000000  1.000000  1.000000
 FoFCou: FMM=F IPFlag=           0 FMFlag=      100000 FMFlg1=           0
         NFxFlg=           0 DoJE=T BraDBF=F KetDBF=T FulRan=T
         wScrn=  0.000000 ICntrl=     500 IOpCl=  0 I1Cent=   200000004 NGrid=           0
         NMat0=    1 NMatS0=      1 NMatT0=    0 NMatD0=    1 NMtDS0=    0 NMtDT0=    0
 Petite list used in FoFCou.
 Harris En= -699.928634290927    
 Leave Link  401 at Tue Sep 17 13:50:25 2024, MaxMem=   268435456 cpu:         2.0
 (Enter /g100_work/pMI24_ChiCa/g09d1/g09d01/d01/build-node-6-2-59348/src/main/l502.exe)
 Closed shell SCF:
 Using DIIS extrapolation, IDIIS=  1040.
 Integral symmetry usage will be decided dynamically.
 Keep R1 ints in memory in canonical form, NReq=18287064.
 IVT=       54263 IEndB=       54263 NGot=   268435456 MDV=   253472664
 LenX=   253472664 LenY=   253461407
 Requested convergence on RMS density matrix=1.00D-08 within 128 cycles.
 Requested convergence on MAX density matrix=1.00D-06.
 Requested convergence on             energy=1.00D-06.
 No special actions if energy rises.
 FoFCou: FMM=F IPFlag=           0 FMFlag=           0 FMFlg1=           0
         NFxFlg=           0 DoJE=F BraDBF=F KetDBF=F FulRan=T
         wScrn=  0.000000 ICntrl=     600 IOpCl=  0 I1Cent=           0 NGrid=           0
         NMat0=    1 NMatS0=   5460 NMatT0=    0 NMatD0=    1 NMtDS0=    0 NMtDT0=    0
 Symmetry not used in FoFCou.

 Cycle   1  Pass 1  IDiag  1:
 Inv3:  Mode=1 IEnd=     1033707.
 Iteration    1 A*A^-1 deviation from unit magnitude is 4.00D-15 for    338.
 Iteration    1 A*A^-1 deviation from orthogonality  is 2.49D-15 for    484    214.
 Iteration    1 A^-1*A deviation from unit magnitude is 2.89D-15 for    352.
 Iteration    1 A^-1*A deviation from orthogonality  is 1.62D-09 for    489    469.
 Iteration    2 A*A^-1 deviation from unit magnitude is 5.44D-15 for     11.
 Iteration    2 A*A^-1 deviation from orthogonality  is 4.44D-15 for    437     78.
 Iteration    2 A^-1*A deviation from unit magnitude is 1.55D-15 for    341.
 Iteration    2 A^-1*A deviation from orthogonality  is 6.99D-16 for    543     22.
 E= -699.830499797257    
 DIIS: error= 6.12D-03 at cycle   1 NSaved=   1.
 NSaved= 1 IEnMin= 1 EnMin= -699.830499797257     IErMin= 1 ErrMin= 6.12D-03
 ErrMax= 6.12D-03  0.00D+00 EMaxC= 1.00D-01 BMatC= 4.77D-03 BMatP= 4.77D-03
 IDIUse=3 WtCom= 9.39D-01 WtEn= 6.12D-02
 Coeff-Com:  0.100D+01
 Coeff-En:   0.100D+01
 Coeff:      0.100D+01
 Gap=     0.673 Goal=   None    Shift=    0.000
 GapD=    0.673 DampG=2.000 DampE=1.000 DampFc=2.0000 IDamp=-1.
 RMSDP=1.69D-03 MaxDP=2.68D-02              OVMax= 2.22D-02

 Cycle   2  Pass 1  IDiag  1:
 E= -699.836025670660     Delta-E=       -0.005525873403 Rises=F Damp=F
 DIIS: error= 3.04D-03 at cycle   2 NSaved=   2.
 NSaved= 2 IEnMin= 2 EnMin= -699.836025670660     IErMin= 2 ErrMin= 3.04D-03
 ErrMax= 3.04D-03  0.00D+00 EMaxC= 1.00D-01 BMatC= 1.90D-03 BMatP= 4.77D-03
 IDIUse=3 WtCom= 9.70D-01 WtEn= 3.04D-02
 Coeff-Com:  0.337D+00 0.663D+00
 Coeff-En:   0.000D+00 0.100D+01
 Coeff:      0.327D+00 0.673D+00
 Gap=     0.273 Goal=   None    Shift=    0.000
 RMSDP=6.50D-04 MaxDP=1.72D-02 DE=-5.53D-03 OVMax= 1.80D-02

 Cycle   3  Pass 1  IDiag  1:
 E= -699.836223525566     Delta-E=       -0.000197854905 Rises=F Damp=F
 DIIS: error= 2.69D-03 at cycle   3 NSaved=   3.
 NSaved= 3 IEnMin= 3 EnMin= -699.836223525566     IErMin= 3 ErrMin= 2.69D-03
 ErrMax= 2.69D-03  0.00D+00 EMaxC= 1.00D-01 BMatC= 1.63D-03 BMatP= 1.90D-03
 IDIUse=3 WtCom= 9.73D-01 WtEn= 2.69D-02
 Coeff-Com:  0.314D-02 0.479D+00 0.518D+00
 Coeff-En:   0.000D+00 0.470D+00 0.530D+00
 Coeff:      0.305D-02 0.479D+00 0.518D+00
 Gap=     0.275 Goal=   None    Shift=    0.000
 RMSDP=3.45D-04 MaxDP=8.09D-03 DE=-1.98D-04 OVMax= 8.01D-03

 Cycle   4  Pass 1  IDiag  1:
 E= -699.837408082725     Delta-E=       -0.001184557159 Rises=F Damp=F
 DIIS: error= 3.32D-04 at cycle   4 NSaved=   4.
 NSaved= 4 IEnMin= 4 EnMin= -699.837408082725     IErMin= 4 ErrMin= 3.32D-04
 ErrMax= 3.32D-04  0.00D+00 EMaxC= 1.00D-01 BMatC= 3.06D-05 BMatP= 1.63D-03
 IDIUse=3 WtCom= 9.97D-01 WtEn= 3.32D-03
 Coeff-Com: -0.140D-01 0.171D+00 0.233D+00 0.609D+00
 Coeff-En:   0.000D+00 0.000D+00 0.000D+00 0.100D+01
 Coeff:     -0.140D-01 0.171D+00 0.233D+00 0.611D+00
 Gap=     0.276 Goal=   None    Shift=    0.000
 RMSDP=5.94D-05 MaxDP=1.33D-03 DE=-1.18D-03 OVMax= 1.14D-03

 Cycle   5  Pass 1  IDiag  1:
 E= -699.837431242860     Delta-E=       -0.000023160135 Rises=F Damp=F
 DIIS: error= 1.89D-04 at cycle   5 NSaved=   5.
 NSaved= 5 IEnMin= 5 EnMin= -699.837431242860     IErMin= 5 ErrMin= 1.89D-04
 ErrMax= 1.89D-04  0.00D+00 EMaxC= 1.00D-01 BMatC= 2.49D-06 BMatP= 3.06D-05
 IDIUse=3 WtCom= 9.98D-01 WtEn= 1.89D-03
 Coeff-Com: -0.633D-02 0.463D-01 0.773D-01 0.290D+00 0.593D+00
 Coeff-En:   0.000D+00 0.000D+00 0.000D+00 0.000D+00 0.100D+01
 Coeff:     -0.631D-02 0.462D-01 0.771D-01 0.289D+00 0.594D+00
 Gap=     0.275 Goal=   None    Shift=    0.000
 RMSDP=1.64D-05 MaxDP=3.20D-04 DE=-2.32D-05 OVMax= 4.32D-04

 Cycle   6  Pass 1  IDiag  1:
 E= -699.837432850458     Delta-E=       -0.000001607597 Rises=F Damp=F
 DIIS: error= 4.84D-05 at cycle   6 NSaved=   6.
 NSaved= 6 IEnMin= 6 EnMin= -699.837432850458     IErMin= 6 ErrMin= 4.84D-05
[...]
 Coeff:      0.163D+00 0.716D+00
 Gap=     0.275 Goal=   None    Shift=    0.000
 RMSDP=3.82D-09 MaxDP=5.83D-08 DE=-3.64D-12 OVMax= 6.42D-08

 Error on total polarization charges =  0.04283
 SCF Done:  E(RB3LYP) =  -699.838242614     A.U. after    8 cycles
            NFock=  8  Conv=0.38D-08     -V/T= 2.0063
 KE= 6.954635901660D+02 PE=-2.210027043300D+03 EE= 5.430707187875D+02
 SMD-CDS (non-electrostatic) energy       (kcal/mol) =       0.62
 (included in total energy above)
 Leave Link  502 at Tue Sep 17 13:50:37 2024, MaxMem=   268435456 cpu:        18.4
 (Enter /g100_work/pMI24_ChiCa/g09d1/g09d01/d01/build-node-6-2-59348/src/main/l701.exe)
 Compute integral first derivatives.
 ... and contract with generalized density number  0.
 D1PCM: PCM CHGder 1st derivatives, ID1Alg=3 FixD1E=F DoIter=F DoCFld=F I1PDM=0.
 GePol: Maximum number of non-zero 1st derivatives   =     424
 Leave Link  701 at Tue Sep 17 13:50:37 2024, MaxMem=   268435456 cpu:         4.3
 (Enter /g100_work/pMI24_ChiCa/g09d1/g09d01/d01/build-node-6-2-59348/src/main/l702.exe)
 L702 exits ... SP integral derivatives will be done elsewhere.
 Leave Link  702 at Tue Sep 17 13:50:37 2024, MaxMem=   268435456 cpu:         0.1
 (Enter /g100_work/pMI24_ChiCa/g09d1/g09d01/d01/build-node-6-2-59348/src/main/l703.exe)
 Compute integral first derivatives, UseDBF=F ICtDFT=           0.
 Integral derivatives from FoFJK, PRISM(SPDF).
 Calling FoFJK, ICntrl=      2127 FMM=F ISym2X=0 I1Cent= 0 IOpClX= 0 NMat=1 NMatS=1 NMatT=0.
 FoFJK:  IHMeth= 1 ICntrl=    2127 DoSepK=F KAlg= 0 I1Cent=   0 FoldK=F
 IRaf=         0 NMat=   1 IRICut=       1 DoRegI=T DoRafI=F ISym2E= 0.
 FoFCou: FMM=F IPFlag=           0 FMFlag=      100000 FMFlg1=         800
         NFxFlg=           0 DoJE=F BraDBF=F KetDBF=F FulRan=T
         wScrn=  0.000000 ICntrl=    2127 IOpCl=  0 I1Cent=           0 NGrid=           0
         NMat0=    1 NMatS0=      1 NMatT0=    0 NMatD0=    1 NMtDS0=    0 NMtDT0=    0
 Symmetry not used in FoFCou.
 Leave Link  703 at Tue Sep 17 13:50:38 2024, MaxMem=   268435456 cpu:         7.2
 (Enter /g100_work/pMI24_ChiCa/g09d1/g09d01/d01/build-node-6-2-59348/src/main/l716.exe)
 Dipole        =-1.55831323D+00 5.54357568D-01-2.88076563D-03
 ***** Axes restored to original set *****
 -------------------------------------------------------------------
 Center     Atomic                   Forces (Hartrees/Bohr)
 Number     Number              X              Y              Z
 -------------------------------------------------------------------
      1       16          -0.000191943    0.000098777   -0.000185182
      2        8          -0.000097263    0.000126841    0.000013850
      3        8           0.000057201   -0.000012910   -0.000038675
      4        8           0.000049813    0.000178319    0.000051251
      5        8           0.000070733   -0.000207082    0.000082662
      6        1           0.000111459   -0.000183945    0.000076094
 -------------------------------------------------------------------
 Cartesian Forces:  Max     0.000207082 RMS     0.000119080
 Leave Link  716 at Tue Sep 17 13:50:38 2024, MaxMem=   268435456 cpu:         0.1
 (Enter /g100_work/pMI24_ChiCa/g09d1/g09d01/d01/build-node-6-2-59348/src/main/l103.exe)

 GradGradGradGradGradGradGradGradGradGradGradGradGradGradGradGradGradGrad
 Berny optimization.
 Using GEDIIS/GDIIS optimizer.
 FormGI is forming the generalized inverse of G from B-inverse, IUseBI=4.
 Internal  Forces:  Max     0.000234692 RMS     0.000102216
 Search for a local minimum.
 Step number   7 out of a maximum of   25
 All quantities printed in internal units (Hartrees-Bohrs-Radians)
 RMS Force = .10222D-03 SwitMx=.10000D-02 MixMth= 2
 Mixed Optimization -- En-DIIS/RFO-DIIS
 Swapping is turned off.
 Update second derivatives using D2CorX and points    1    2    3    4    5
                                                      6    7
 DE= -3.94D-06 DEPred=-2.08D-06 R= 1.89D+00
 TightC=F SS=  1.41D+00  RLast= 4.63D-03 DXNew= 9.9400D-01 1.3890D-02
 Trust test= 1.89D+00 RLast= 4.63D-03 DXMaxT set to 5.91D-01
 The second derivative matrix:
                          R1        R2        R3        R4        R5
           R1           0.22797
           R2           0.03140   0.55199
           R3          -0.00604  -0.01388   0.74328
           R4           0.05218  -0.02815   0.00864   0.72899
           R5           0.00151   0.02307  -0.00729  -0.01308   0.59948
           A1           0.01608   0.01947  -0.01234  -0.01059  -0.00544
           A2           0.03392  -0.02033   0.01124  -0.00244  -0.00827
           A3           0.00882  -0.01732   0.00650   0.01409  -0.01989
           A4          -0.00705   0.01476  -0.00062  -0.00598   0.01391
           A5          -0.02976   0.02120  -0.00680   0.00397   0.01413
           A6          -0.01457  -0.01463   0.00694   0.00610   0.00908
           A7           0.04383  -0.00020  -0.00354  -0.01664   0.00623
           D1           0.00189  -0.01122  -0.00771  -0.00359  -0.00843
           D2          -0.00024   0.03611  -0.01877  -0.01210   0.00753
           D3           0.00499  -0.02745   0.02900   0.01572  -0.00102
                          A1        A2        A3        A4        A5
           A1           0.26913
           A2          -0.00579   0.29483
           A3           0.01845   0.02679   0.27821
           A4          -0.01967  -0.01956  -0.01944   0.26387
           A5          -0.01643  -0.03092  -0.02511   0.02073   0.26608
           A6          -0.00775  -0.01607  -0.04099   0.03621   0.03856
           A7          -0.00426  -0.00095   0.00826  -0.00522   0.00400
           D1           0.02843  -0.02746   0.00002  -0.00481   0.02385
           D2           0.03456  -0.02340  -0.01241   0.00977   0.02285
           D3          -0.06386   0.05039   0.01232  -0.00527  -0.04469
                          A6        A7        D1        D2        D3
           A6           0.24871
           A7           0.00449   0.15576
           D1          -0.02405  -0.00567   0.03031
           D2          -0.03106   0.00786   0.01038   0.03873
           D3           0.05497  -0.00429  -0.02551  -0.03246   0.08034
 ITU=  1  1  1  1  1  1  0
     Eigenvalues ---    0.01794   0.12725   0.17120   0.22452   0.23224
     Eigenvalues ---    0.25451   0.33132   0.39210   0.55153   0.61111
     Eigenvalues ---    0.73154   0.75922
 En-DIIS/RFO-DIIS IScMMF=        0 using points:     7    6    5
 RFO step:  Lambda=-2.01123797D-07.
 NNeg= 0 NP= 3 Switch=  2.50D-03 Rises=F DC=  7.04D-06 SmlDif=  1.00D-05
 RMS Error=  0.1350336079D-03 NUsed= 3 EDIIS=F
 DidBck=F Rises=F RFO-DIIS coefs:    1.03050    0.01292   -0.04342
 Iteration  1 RMS(Cart)=  0.00021441 RMS(Int)=  0.00000005
 Iteration  2 RMS(Cart)=  0.00000001 RMS(Int)=  0.00000004
 ITry= 1 IFail=0 DXMaxC= 3.59D-04 DCOld= 1.00D+10 DXMaxT= 5.91D-01 DXLimC= 3.00D+00 Rises=F
 Variable       Old X    -DE/DX   Delta X   Delta X   Delta X     New X
                                 (Linear)    (Quad)   (Total)
    R1        3.14217   0.00010   0.00022   0.00029   0.00051   3.14268
    R2        2.81186   0.00007  -0.00009   0.00013   0.00004   2.81190
    R3        2.81241  -0.00018   0.00001  -0.00023  -0.00022   2.81219
    R4        2.80172  -0.00023  -0.00003  -0.00031  -0.00034   2.80138
    R5        1.84267   0.00021  -0.00003   0.00036   0.00032   1.84300
    A1        1.84619   0.00004   0.00003   0.00001   0.00003   1.84622
    A2        1.84623  -0.00004  -0.00013  -0.00000  -0.00014   1.84609
    A3        1.77065  -0.00000  -0.00002   0.00005   0.00003   1.77068
    A4        1.97571   0.00001  -0.00000   0.00001   0.00000   1.97571
    A5        1.99877   0.00004   0.00013   0.00005   0.00017   1.99894
    A6        1.99894  -0.00004  -0.00002  -0.00010  -0.00012   1.99882
    A7        1.90682   0.00003  -0.00021   0.00021   0.00000   1.90682
    D1       -1.05158   0.00002  -0.00003   0.00010   0.00007  -1.05151
    D2        1.04890   0.00002  -0.00008   0.00011   0.00002   1.04893
    D3        3.14036  -0.00004  -0.00017   0.00002  -0.00015   3.14021
         Item               Value     Threshold  Converged?
 Maximum Force            0.000235     0.000450     YES
 RMS     Force            0.000102     0.000300     YES
 Maximum Displacement     0.000359     0.001800     YES
 RMS     Displacement     0.000214     0.001200     YES
 Predicted change in Energy=-1.366372D-07
 Optimization completed.
    -- Stationary point found.
                           ----------------------------
                           !   Optimized Parameters   !
                           ! (Angstroms and Degrees)  !
 --------------------------                            --------------------------
 ! Name  Definition              Value          Derivative Info.                !
 --------------------------------------------------------------------------------
 ! R1    R(1,2)                  1.6628         -DE/DX =    0.0001              !
 ! R2    R(1,3)                  1.488          -DE/DX =    0.0001              !
 ! R3    R(1,4)                  1.4883         -DE/DX =   -0.0002              !
 ! R4    R(1,5)                  1.4826         -DE/DX =   -0.0002              !
 ! R5    R(2,6)                  0.9751         -DE/DX =    0.0002              !
 ! A1    A(2,1,3)              105.7787         -DE/DX =    0.0                 !
 ! A2    A(2,1,4)              105.7812         -DE/DX =    0.0                 !
 ! A3    A(2,1,5)              101.4506         -DE/DX =    0.0                 !
 ! A4    A(3,1,4)              113.2            -DE/DX =    0.0                 !
 ! A5    A(3,1,5)              114.5211         -DE/DX =    0.0                 !
 ! A6    A(4,1,5)              114.5308         -DE/DX =    0.0                 !
 ! A7    A(1,2,6)              109.2525         -DE/DX =    0.0                 !
 ! D1    D(3,1,2,6)            -60.251          -DE/DX =    0.0                 !
 ! D2    D(4,1,2,6)             60.0976         -DE/DX =    0.0                 !
 ! D3    D(5,1,2,6)            179.9292         -DE/DX =    0.0                 !
 --------------------------------------------------------------------------------
 Lowest energy point so far.  Saving SCF results.
 GradGradGradGradGradGradGradGradGradGradGradGradGradGradGradGradGradGrad

 Largest change from initial coordinates is atom    4       0.366 Angstoms.
 Leave Link  103 at Tue Sep 17 13:50:38 2024, MaxMem=   268435456 cpu:         0.9
 (Enter /g100_work/pMI24_ChiCa/g09d1/g09d01/d01/build-node-6-2-59348/src/main/l202.exe)
                          Input orientation:                          
 ---------------------------------------------------------------------
 Center     Atomic      Atomic             Coordinates (Angstroms)
 Number     Number       Type             X           Y           Z
 ---------------------------------------------------------------------
      1         16           0        0.030484   -0.009570   -0.082854
      2          8           0        0.002803    0.028086    1.579253
      3          8           0        1.468909   -0.011554   -0.463627
      4          8           0       -0.680554   -1.257944   -0.471327
      5          8           0       -0.692942    1.240499   -0.417672
      6          1           0        0.457875   -0.761370    1.926367
 ---------------------------------------------------------------------
                    Distance matrix (angstroms):
                    1          2          3          4          5
     1  S    0.000000
     2  O    1.662764   0.000000
     3  O    1.487971   2.514835   0.000000
     4  O    1.488263   2.515101   2.484701   0.000000
     5  O    1.482606   2.437563   2.498669   2.499050   0.000000
     6  H    2.187426   0.975100   2.701201   2.700286   3.290346
                    6
     6  H    0.000000
 Stoichiometry    HO4S(1-)
 Framework group  C1[X(HO4S)]
 Deg. of freedom    12
 Full point group                 C1      NOp   1
 RotChk:  IX=1 Diff= 1.91D-14
 Largest Abelian subgroup         C1      NOp   1
 Largest concise Abelian subgroup C1      NOp   1
                         Standard orientation:                         
 ---------------------------------------------------------------------
 Center     Atomic      Atomic             Coordinates (Angstroms)
 Number     Number       Type             X           Y           Z
 ---------------------------------------------------------------------
      1         16           0        0.132023    0.011524   -0.000048
      2          8           0       -1.499621   -0.308667    0.000964
      3          8           0        0.392382    0.782016   -1.246086
      4          8           0        0.391579    0.794690    1.238583
      5          8           0        0.700663   -1.357681    0.006912
      6          1           0       -1.992395    0.532751   -0.002224
 ---------------------------------------------------------------------
 Rotational constants (GHZ):      5.0485239      4.9029045      4.8392442
 Leave Link  202 at Tue Sep 17 13:50:38 2024, MaxMem=   268435456 cpu:         0.1
 (Enter /g100_work/pMI24_ChiCa/g09d1/g09d01/d01/build-node-6-2-59348/src/main/l601.exe)
 Copying SCF densities to generalized density rwf, IOpCl= 0 IROHF=0.

 **********************************************************************

            Population analysis using the SCF density.

 **********************************************************************

 Orbital symmetries:
       Occupied  (A) (A) (A) (A) (A) (A) (A) (A) (A) (A) (A) (A)
                 (A) (A) (A) (A) (A) (A) (A) (A) (A) (A) (A) (A)
                 (A)
       Virtual   (A) (A) (A) (A) (A) (A) (A) (A) (A) (A) (A) (A)
                 (A) (A) (A) (A) (A) (A) (A) (A) (A) (A) (A) (A)
                 (A) (A) (A) (A) (A) (A) (A) (A) (A) (A) (A) (A)
                 (A) (A) (A) (A) (A) (A) (A) (A) (A) (A) (A) (A)
                 (A) (A) (A) (A) (A) (A) (A) (A) (A) (A) (A) (A)
                 (A) (A) (A) (A) (A) (A) (A) (A) (A) (A) (A) (A)
                 (A) (A) (A) (A) (A) (A) (A)
 The electronic state is 1-A.
 Alpha  occ. eigenvalues --  -89.14901 -19.19559 -19.14818 -19.14724 -19.14724
 Alpha  occ. eigenvalues --   -8.16533  -6.13159  -6.12956  -6.12944  -1.14993
 Alpha  occ. eigenvalues --   -1.02593  -0.99679  -0.99325  -0.63576  -0.53749
 Alpha  occ. eigenvalues --   -0.48664  -0.48063  -0.43671  -0.37403  -0.35559
 Alpha  occ. eigenvalues --   -0.35372  -0.34896  -0.31045  -0.29528  -0.27751
 Alpha virt. eigenvalues --   -0.00231   0.04267   0.05071   0.05076   0.07079
 Alpha virt. eigenvalues --    0.11254   0.12461   0.13392   0.15548   0.17129
 Alpha virt. eigenvalues --    0.17840   0.19215   0.20350   0.20356   0.21872
 Alpha virt. eigenvalues --    0.24261   0.24457   0.25599   0.27452   0.27853
 Alpha virt. eigenvalues --    0.27865   0.28797   0.31309   0.31823   0.36762
 Alpha virt. eigenvalues --    0.53715   0.59084   0.60723   0.65085   0.65531
 Alpha virt. eigenvalues --    0.74075   0.98352   0.99500   1.08892   1.08938
 Alpha virt. eigenvalues --    1.13953   1.14256   1.16140   1.19358   1.22117
 Alpha virt. eigenvalues --    1.23230   1.24647   1.25270   1.26412   1.31698
 Alpha virt. eigenvalues --    1.32680   1.36124   1.49013   1.51054   1.52000
 Alpha virt. eigenvalues --    1.58691   1.68564   1.75837   1.76092   1.76931
 Alpha virt. eigenvalues --    1.79681   1.81223   1.81655   1.82788   1.82949
 Alpha virt. eigenvalues --    1.85534   2.06048   2.12312   2.13298   2.24614
 Alpha virt. eigenvalues --    2.28479   2.34516   2.50008   2.62303   2.67265
 Alpha virt. eigenvalues --    2.77020   2.85894   2.86621   3.40677   3.97980
 Alpha virt. eigenvalues --    4.02587   4.03962   4.10104   4.22447
          Condensed to atoms (all electrons):
               1          2          3          4          5          6
     1  S   13.574328   0.004993   0.223371   0.223459   0.253243   0.032904
     2  O    0.004993   8.695380  -0.067854  -0.067826  -0.059308   0.229934
     3  O    0.223371  -0.067854   8.879959  -0.110012  -0.132370  -0.007683
     4  O    0.223459  -0.067826  -0.110012   8.879993  -0.132289  -0.007670
     5  O    0.253243  -0.059308  -0.132370  -0.132289   8.872659   0.009569
     6  H    0.032904   0.229934  -0.007683  -0.007670   0.009569   0.312759
 Mulliken charges:
               1
     1  S    1.687702
     2  O   -0.735318
     3  O   -0.785411
     4  O   -0.785655
     5  O   -0.811505
     6  H    0.430186
 Sum of Mulliken charges =  -1.00000
 Mulliken charges with hydrogens summed into heavy atoms:
               1
     1  S    1.687702
     2  O   -0.305132
     3  O   -0.785411
     4  O   -0.785655
     5  O   -0.811505
 Electronic spatial extent (au):  <R**2>=            377.7472
 Charge=             -1.0000 electrons
 Dipole moment (field-independent basis, Debye):
    X=             -3.9608    Y=              1.4090    Z=             -0.0073  Tot=              4.2040
 Quadrupole moment (field-independent basis, Debye-Ang):
   XX=            -36.3591   YY=            -45.6058   ZZ=            -46.3798
   XY=             -3.0706   XZ=              0.0123   YZ=             -0.0054
 Traceless Quadrupole moment (field-independent basis, Debye-Ang):
   XX=              6.4225   YY=             -2.8242   ZZ=             -3.5983
   XY=             -3.0706   XZ=              0.0123   YZ=             -0.0054
 Octapole moment (field-independent basis, Debye-Ang**2):
  XXX=            -12.3924  YYY=              5.2980  ZZZ=              0.0993  XYY=             -7.7028
  XXY=              9.4226  XXZ=             -0.0376  XZZ=             -4.5681  YZZ=             -7.3222
  YYZ=             -0.1044  XYZ=              0.0167
 Hexadecapole moment (field-independent basis, Debye-Ang**3):
 XXXX=           -137.4751 YYYY=           -172.7896 ZZZZ=           -171.2594 XXXY=            -14.9683
 XXXZ=              0.0581 YYYX=              0.9511 YYYZ=             -0.0281 ZZZX=              0.0441
 ZZZY=              0.0021 XXYY=            -54.7533 XXZZ=            -55.3959 YYZZ=            -58.4865
 XXYZ=             -0.0048 YYXZ=             -0.0363 ZZXY=             -3.0485
 N-N= 2.716544917327D+02 E-N=-2.210027047983D+03  KE= 6.954635901660D+02
 No NMR shielding tensors so no spin-rotation constants.
 Leave Link  601 at Tue Sep 17 13:50:38 2024, MaxMem=   268435456 cpu:         1.4
 (Enter /g100_work/pMI24_ChiCa/g09d1/g09d01/d01/build-node-6-2-59348/src/main/l9999.exe)
 B after Tr=    -0.008786    0.005981    0.012295
         Rot=    0.999998   -0.001424   -0.001559   -0.000493 Ang=  -0.25 deg.
 Final structure in terms of initial Z-matrix:
 S
 O,1,os2
 O,1,os3,2,oso3
 O,1,os4,2,oso4,3,dih4,0
 O,1,os5,3,oso5,2,dih5,0
 H,2,ho6,1,hos6,5,dih6,0
      Variables:
 os2=1.66276381
 os3=1.48797069
 oso3=105.77874934
 os4=1.48826252
 oso4=105.78121404
 dih4=120.34865067
 os5=1.48260637
 oso5=114.52109353
 dih5=110.83318744
 ho6=0.97510003
 hos6=109.25253933
 dih6=179.92916661
 1\1\GINC-R500N001\FOpt\RB3LYP\6-31+G(d,p)\H1O4S1(1-)\ECABIATI\17-Sep-2
 024\0\\#p B3LYP/6-31+g(d,p) opt scrf=(smd,solvent=water)\\h04s- sol\\-
 1,1\S,0.0306561301,-0.0096755134,-0.0830179013\O,0.0029751035,0.027980
 8518,1.5790889693\O,1.4690804848,-0.0116586899,-0.4637910861\O,-0.6803
 825405,-1.2580494454,-0.4714916657\O,-0.6927700974,1.2403937127,-0.417
 8358784\H,0.4580473153,-0.7614754953,1.9262028295\\Version=EM64L-G09Re
 vD.01\State=1-A\HF=-699.8382426\RMSD=3.816e-09\RMSF=1.191e-04\Dipole=0
 .3990406,-0.6979934,1.4454178\Quadrupole=-2.3053917,-1.5387985,3.84419
 02,-0.6482929,1.6225032,-2.8480935\PG=C01 [X(H1O4S1)]\\@


 NOTHING RESEMBLES A NEW PHENOMENON AS MUCH AS A MISTAKE.

                               -- ENRICO FERMI (?)
 Job cpu time:       0 days  0 hours  4 minutes 32.6 seconds.
 File lengths (MBytes):  RWF=     22 Int=      0 D2E=      0 Chk=      3 Scr=      1
 Normal termination of Gaussian 09 at Tue Sep 17 13:50:38 2024.
