 Entering Gaussian System, Link 0=/g100_work/pMI24_ChiCa/g09d1/g09d01/d01/build-node-6-2-59348/src/main/g09
 Input=geom.com
 Output=geom.log
 Initial command:
 /g100_work/pMI24_ChiCa/g09d1/g09d01/d01/build-node-6-2-59348/src/main/l1.exe "/g100_scratch/userexternal/ecabiati/g16_14421873/Gau-43973.inp" -scrdir="/g100_scratch/userexternal/ecabiati/g16_14421873/"
 Entering Link 1 = /g100_work/pMI24_ChiCa/g09d1/g09d01/d01/build-node-6-2-59348/src/main/l1.exe PID=     43974.
  
 Copyright (c) 1988,1990,1992,1993,1995,1998,2003,2009,2013,
            Gaussian, Inc.  All Rights Reserved.
  
 This is part of the Gaussian(R) 09 program.  It is based on
 the Gaussian(R) 03 system (copyright 2003, Gaussian, Inc.),
 the Gaussian(R) 98 system (copyright 1998, Gaussian, Inc.),
 the Gaussian(R) 94 system (copyright 1995, Gaussian, Inc.),
 the Gaussian 92(TM) system (copyright 1992, Gaussian, Inc.),
 the Gaussian 90(TM) system (copyright 1990, Gaussian, Inc.),
 the Gaussian 88(TM) system (copyright 1988, Gaussian, Inc.),
 the Gaussian 86(TM) system (copyright 1986, Carnegie Mellon
 University), and the Gaussian 82(TM) system (copyright 1983,
 Carnegie Mellon University). Gaussian is a federally registered
 trademark of Gaussian, Inc.
  
 This software contains proprietary and confidential information,
 including trade secrets, belonging to Gaussian, Inc.
  
 This software is provided under written license and may be
 used, copied, transmitted, or stored only in accord with that
 written license.
  
 The following legend is applicable only to US Government
 contracts under FAR:
  
                    RESTRICTED RIGHTS LEGEND
  
 Use, reproduction and disclosure by the US Government is
 subject to restrictions as set forth in subparagraphs (a)
 and (c) of the Commercial Computer Software - Restricted
 Rights clause in FAR 52.227-19.
  
 Gaussian, Inc.
 340 Quinnipiac St., Bldg. 40, Wallingford CT 06492
  
  
 ---------------------------------------------------------------
 Warning -- This program may not be used in any manner that
 competes with the business of Gaussian, Inc. or will provide
 assistance to any competitor of Gaussian, Inc.  The licensee
 of this program is prohibited from giving any competitor of
 Gaussian, Inc. access to this program.  By using this program,
 the user acknowledges that Gaussian, Inc. is engaged in the
 business of creating and licensing software in the field of
 computational chemistry and represents and warrants to the
 licensee that it is not a competitor of Gaussian, Inc. and that
 it will not use this program in any manner prohibited above.
 ---------------------------------------------------------------
  

 Cite this work as:
 Gaussian 09, Revision D.01,
 M. J. Frisch, G. W. Trucks, H. B. Schlegel, G. E. Scuseria, 
 M. A. Robb, J. R. Cheeseman, G. Scalmani, V. Barone, B. Mennucci, 
 G. A. Petersson, H. Nakatsuji, M. Caricato, X. Li, H. P. Hratchian, 
 A. F. Izmaylov, J. Bloino, G. Zheng, J. L. Sonnenberg, M. Hada, 
 M. Ehara, K. Toyota, R. Fukuda, J. Hasegawa, M. Ishida, T. Nakajima, 
 Y. Honda, O. Kitao, H. Nakai, T. Vreven, J. A. Montgomery, Jr., 
 J. E. Peralta, F. Ogliaro, M. Bearpark, J. J. Heyd, E. Brothers, 
 K. N. Kudin, V. N. Staroverov, T. Keith, R. Kobayashi, J. Normand, 
 K. Raghavachari, A. Rendell, J. C. Burant, S. S. Iyengar, J. Tomasi, 
 M. Cossi, N. Rega, J. M. Millam, M. Klene, J. E. Knox, J. B. Cross, 
 V. Bakken, C. Adamo, J. Jaramillo, R. Gomperts, R. E. Stratmann, 
 O. Yazyev, A. J. Austin, R. Cammi, C. Pomelli, J. W. Ochterski, 
 R. L. Martin, K. Morokuma, V. G. Zakrzewski, G. A. Voth, 
 P. Salvador, J. J. Dannenberg, S. Dapprich, A. D. Daniels, 
 O. Farkas, J. B. Foresman, J. V. Ortiz, J. Cioslowski, 
 and D. J. Fox, Gaussian, Inc., Wallingford CT, 2013.
 
 ******************************************
 Gaussian 09:  EM64L-G09RevD.01 24-Apr-2013
                18-Sep-2024 
 ******************************************
 %nproc=24
 Will use up to   24 processors via shared memory.
 %mem=2Gb
 ------------------------------------------------------
 #p B3LYP/6-31+g(d,p) opt freq scrf=(smd,solvent=water)
 ------------------------------------------------------
 1/14=-1,18=20,19=15,26=3,38=1/1,3;
 2/9=110,12=2,17=6,18=5,40=1/2;
 3/5=1,6=6,7=111,11=2,16=1,25=1,30=1,70=32201,71=1,72=1,74=-5/1,2,3;
 4//1;
 5/5=2,38=5,53=1/2;
 6/7=2,8=2,9=2,10=2,28=1/1;
 7//1,2,3,16;
 1/14=-1,18=20,19=15,26=3/3(2);
 2/9=110/2;
 99//99;
 2/9=110/2;
 3/5=1,6=6,7=111,11=2,16=1,25=1,30=1,70=32205,71=1,72=1,74=-5/1,2,3;
 4/5=5,16=3,69=1/1;
 5/5=2,38=5,53=1/2;
 7//1,2,3,16;
 1/14=-1,18=20,19=15,26=3/3(-5);
 2/9=110/2;
 6/7=2,8=2,9=2,10=2,19=2,28=1/1;
 99/9=1/99;
 Leave Link    1 at Wed Sep 18 00:23:10 2024, MaxMem=   268435456 cpu:         0.2
 (Enter /g100_work/pMI24_ChiCa/g09d1/g09d01/d01/build-node-6-2-59348/src/main/l101.exe)
 ---------
 h04s- sol
 ---------
 Symbolic Z-matrix:
 Charge = -1 Multiplicity = 1
 s
 o                    1    os2
 o                    1    os3      2    oso3
 o                    1    os4      2    oso4     3    dih4     0
 o                    1    os5      3    oso5     2    dih5     0
 h                    2    ho6      1    hos6     5    dih6     0
       Variables:
  os2                   1.66                     
  os3                   1.66                     
  oso3                109.471                    
  os4                   1.51                     
  oso4                110.                       
  dih4                120.                       
  os5                   1.51                     
  oso5                110.                       
  dih5                120.                       
  ho6                   0.95                     
  hos6                109.471                    
  dih6                  0.                       
 
     2 tetrahedral angles replaced.
 NAtoms=      6 NQM=        6 NQMF=       0 NMMI=      0 NMMIF=      0
                NMic=       0 NMicF=      0.
                    Isotopes and Nuclear Properties:
 (Nuclear quadrupole moments (NQMom) in fm**2, nuclear magnetic moments (NMagM)
  in nuclear magnetons)

  Atom         1           2           3           4           5           6
 IAtWgt=          32          16          16          16          16           1
 AtmWgt=  31.9720718  15.9949146  15.9949146  15.9949146  15.9949146   1.0078250
 NucSpn=           0           0           0           0           0           1
 AtZEff=   0.0000000   0.0000000   0.0000000   0.0000000   0.0000000   0.0000000
 NQMom=    0.0000000   0.0000000   0.0000000   0.0000000   0.0000000   0.0000000
 NMagM=    0.0000000   0.0000000   0.0000000   0.0000000   0.0000000   2.7928460
 AtZNuc=  16.0000000   8.0000000   8.0000000   8.0000000   8.0000000   1.0000000
 Leave Link  101 at Wed Sep 18 00:23:10 2024, MaxMem=   268435456 cpu:         0.2
 (Enter /g100_work/pMI24_ChiCa/g09d1/g09d01/d01/build-node-6-2-59348/src/main/l103.exe)

 GradGradGradGradGradGradGradGradGradGradGradGradGradGradGradGradGradGrad
 Berny optimization.
 Initialization pass.
                           ----------------------------
                           !    Initial Parameters    !
                           ! (Angstroms and Degrees)  !
 --------------------------                            --------------------------
 ! Name  Definition              Value          Derivative Info.                !
 --------------------------------------------------------------------------------
 ! R1    R(1,2)                  1.66           estimate D2E/DX2                !
 ! R2    R(1,3)                  1.66           estimate D2E/DX2                !
 ! R3    R(1,4)                  1.51           estimate D2E/DX2                !
 ! R4    R(1,5)                  1.51           estimate D2E/DX2                !
 ! R5    R(2,6)                  0.95           estimate D2E/DX2                !
 ! A1    A(2,1,3)              109.4712         estimate D2E/DX2                !
 ! A2    A(2,1,4)              110.0            estimate D2E/DX2                !
 ! A3    A(2,1,5)              109.2062         estimate D2E/DX2                !
 ! A4    A(3,1,4)              109.2062         estimate D2E/DX2                !
 ! A5    A(3,1,5)              110.0            estimate D2E/DX2                !
 ! A6    A(4,1,5)              108.945          estimate D2E/DX2                !
 ! A7    A(1,2,6)              109.4712         estimate D2E/DX2                !
 ! D1    D(3,1,2,6)            120.4849         estimate D2E/DX2                !
 ! D2    D(4,1,2,6)           -119.5151         estimate D2E/DX2                !
 ! D3    D(5,1,2,6)              0.0            estimate D2E/DX2                !
 --------------------------------------------------------------------------------
 Trust Radius=3.00D-01 FncErr=1.00D-07 GrdErr=1.00D-06
 Number of steps in this run=     25 maximum allowed number of steps=    100.
 GradGradGradGradGradGradGradGradGradGradGradGradGradGradGradGradGradGrad

 Leave Link  103 at Wed Sep 18 00:23:10 2024, MaxMem=   268435456 cpu:         0.1
 (Enter /g100_work/pMI24_ChiCa/g09d1/g09d01/d01/build-node-6-2-59348/src/main/l202.exe)
                          Input orientation:                          
 ---------------------------------------------------------------------
 Center     Atomic      Atomic             Coordinates (Angstroms)
 Number     Number       Type             X           Y           Z
 ---------------------------------------------------------------------
      1         16           0        0.000000    0.000000    0.000000
      2          8           0        0.000000    0.000000    1.660000
      3          8           0        1.565063    0.000000   -0.553333
      4          8           0       -0.709468   -1.228834   -0.516450
      5          8           0       -0.723403    1.228834   -0.496743
      6          1           0       -0.454383    0.771854    1.976667
 ---------------------------------------------------------------------
                    Distance matrix (angstroms):
                    1          2          3          4          5
     1  S    0.000000
     2  O    1.660000   0.000000
     3  O    1.660000   2.710769   0.000000
     4  O    1.510000   2.598137   2.585515   0.000000
     5  O    1.510000   2.585515   2.598137   2.457788   0.000000
     6  H    2.170123   0.950000   3.327885   3.206783   2.529616
                    6
     6  H    0.000000
 Stoichiometry    HO4S(1-)
 Framework group  C1[X(HO4S)]
 Deg. of freedom    12
 Full point group                 C1      NOp   1
 Largest Abelian subgroup         C1      NOp   1
 Largest concise Abelian subgroup C1      NOp   1
                         Standard orientation:                         
 ---------------------------------------------------------------------
 Center     Atomic      Atomic             Coordinates (Angstroms)
 Number     Number       Type             X           Y           Z
 ---------------------------------------------------------------------
      1         16           0       -0.049441   -0.032035   -0.004519
      2          8           0        1.466566    0.556398   -0.337787
      3          8           0       -1.114790    1.232903    0.138874
      4          8           0       -0.506537   -0.942551   -1.119026
      5          8           0       -0.004940   -0.818349    1.283825
      6          1           0        2.068665    0.285353    0.345229
 ---------------------------------------------------------------------
 Rotational constants (GHZ):      4.9128391      4.5360268      4.3168401
 Leave Link  202 at Wed Sep 18 00:23:10 2024, MaxMem=   268435456 cpu:         0.1
 (Enter /g100_work/pMI24_ChiCa/g09d1/g09d01/d01/build-node-6-2-59348/src/main/l301.exe)
 Standard basis: 6-31+G(d,p) (6D, 7F)
 Ernie: Thresh=  0.10000D-02 Tol=  0.10000D-05 Strict=F.
 There are   104 symmetry adapted cartesian basis functions of A   symmetry.
 There are   104 symmetry adapted basis functions of A   symmetry.
   104 basis functions,   191 primitive gaussians,   104 cartesian basis functions
    25 alpha electrons       25 beta electrons
       nuclear repulsion energy       262.4879045765 Hartrees.
 IExCor=  402 DFT=T Ex+Corr=B3LYP ExCW=0 ScaHFX=  0.200000
 ScaDFX=  0.800000  0.720000  1.000000  0.810000 ScalE2=  1.000000  1.000000
 IRadAn=      0 IRanWt=     -1 IRanGd=            0 ICorTp=0 IEmpDi=  4
 NAtoms=    6 NActive=    6 NUniq=    6 SFac= 1.00D+00 NAtFMM=   60 NAOKFM=F Big=F
 Integral buffers will be    131072 words long.
 Raffenetti 2 integral format.
 Two-electron integral symmetry is turned on.
 ------------------------------------------------------------------------------
 Polarizable Continuum Model (PCM)
 =================================
 Model                : PCM (using non-symmetric T matrix).
 Atomic radii         : SMD-Coulomb.
 Polarization charges : Total charges.
 Charge compensation  : None.
 Solution method      : On-the-fly selection.
 Cavity type          : VdW (van der Waals Surface) (Alpha=1.000).
 Cavity algorithm     : GePol (No added spheres)
                        Default sphere list used, NSphG=    6.
                        Lebedev-Laikov grids with approx.  5.0 points / Ang**2.
                        Smoothing algorithm: Karplus/York (Gamma=1.0000).
                        Polarization charges: spherical gaussians, with
                                              point-specific exponents (IZeta= 3).
                        Self-potential: point-specific (ISelfS= 7).
                        Self-field    : sphere-specific E.n sum rule (ISelfD= 2).
 1st derivatives      : Analytical E(r).r(x)/FMM algorithm (CHGder, D1EAlg=3).
                        Cavity 1st derivative terms included.
 Solvent              : Water, Eps=  78.355300 Eps(inf)=   1.777849
 ------------------------------------------------------------------------------
 Spheres list:
 ISph  on   Nord     Re0    Alpha      Xe            Ye            Ze
    1   S      1    2.4900  1.000     -0.049441     -0.032035     -0.004519
    2   O      2    1.5200  1.000      1.466566      0.556398     -0.337787
    3   O      3    1.5200  1.000     -1.114790      1.232903      0.138874
    4   O      4    1.5200  1.000     -0.506537     -0.942551     -1.119026
    5   O      5    1.5200  1.000     -0.004940     -0.818349      1.283825
    6   H      6    1.2000  1.000      2.068665      0.285353      0.345229
 ------------------------------------------------------------------------------
 GePol: Number of generator spheres                  =       6
 GePol: Total number of spheres                      =       6
 GePol: Number of exposed spheres                    =       6 (100.00%)
 GePol: Number of points                             =     606
 GePol: Average weight of points                     =       0.15
 GePol: Minimum weight of points                     =   0.11D-07
 GePol: Maximum weight of points                     =    0.21991
 GePol: Number of points with low weight             =      23
 GePol: Fraction of low-weight points (<1% of avg)   =       3.80%
 GePol: Cavity surface area                          =     91.904 Ang**2
 GePol: Cavity volume                                =     76.835 Ang**3
 ------------------------------------------------------------------------------
 Atomic radii for non-electrostatic terms: SMD-CDS.
 ------------------------------------------------------------------------------
 PCM non-electrostatic energy =         0.0009151420 Hartrees.
 Nuclear repulsion after PCM non-electrostatic terms =      262.4888197185 Hartrees.
 Leave Link  301 at Wed Sep 18 00:23:10 2024, MaxMem=   268435456 cpu:         0.1
 (Enter /g100_work/pMI24_ChiCa/g09d1/g09d01/d01/build-node-6-2-59348/src/main/l302.exe)
 NPDir=0 NMtPBC=     1 NCelOv=     1 NCel=       1 NClECP=     1 NCelD=      1
         NCelK=      1 NCelE2=     1 NClLst=     1 CellRange=     0.0.
 One-electron integrals computed using PRISM.
 NBasis=   104 RedAO= T EigKep=  2.10D-03  NBF=   104
 NBsUse=   104 1.00D-06 EigRej= -1.00D+00 NBFU=   104
 Precomputing XC quadrature grid using
 IXCGrd= 4 IRadAn=           0 IRanWt=          -1 IRanGd=           0 AccXCQ= 0.00D+00.
 Generated NRdTot=       0 NPtTot=           0 NUsed=           0 NTot=          32
 NSgBfM=   104   104   104   104   104 MxSgAt=     6 MxSgA2=     6.
 Leave Link  302 at Wed Sep 18 00:23:10 2024, MaxMem=   268435456 cpu:         1.3
 (Enter /g100_work/pMI24_ChiCa/g09d1/g09d01/d01/build-node-6-2-59348/src/main/l303.exe)
 DipDrv:  MaxL=1.
 Leave Link  303 at Wed Sep 18 00:23:10 2024, MaxMem=   268435456 cpu:         0.2
 (Enter /g100_work/pMI24_ChiCa/g09d1/g09d01/d01/build-node-6-2-59348/src/main/l401.exe)
 ExpMin= 4.05D-02 ExpMax= 2.19D+04 ExpMxC= 3.30D+03 IAcc=2 IRadAn=         4 AccDes= 0.00D+00
 Harris functional with IExCor=  402 and IRadAn=       4 diagonalized for initial guess.
 HarFok:  IExCor=  402 AccDes= 0.00D+00 IRadAn=         4 IDoV= 1 UseB2=F ITyADJ=14
 ICtDFT=  3500011 ScaDFX=  1.000000  1.000000  1.000000  1.000000
 FoFCou: FMM=F IPFlag=           0 FMFlag=      100000 FMFlg1=           0
         NFxFlg=           0 DoJE=T BraDBF=F KetDBF=T FulRan=T
         wScrn=  0.000000 ICntrl=     500 IOpCl=  0 I1Cent=   200000004 NGrid=           0
         NMat0=    1 NMatS0=      1 NMatT0=    0 NMatD0=    1 NMtDS0=    0 NMtDT0=    0
 Petite list used in FoFCou.
 Harris En= -699.914455649217    
 JPrj=0 DoOrth=F DoCkMO=F.
 Leave Link  401 at Wed Sep 18 00:23:10 2024, MaxMem=   268435456 cpu:         1.7
 (Enter /g100_work/pMI24_ChiCa/g09d1/g09d01/d01/build-node-6-2-59348/src/main/l502.exe)
 Closed shell SCF:
 Using DIIS extrapolation, IDIIS=  1040.
 Integral symmetry usage will be decided dynamically.
 Keep R1 ints in memory in canonical form, NReq=18312464.
 IVT=       54263 IEndB=       54263 NGot=   268435456 MDV=   253472664
 LenX=   253472664 LenY=   253461407
 Requested convergence on RMS density matrix=1.00D-08 within 128 cycles.
 Requested convergence on MAX density matrix=1.00D-06.
 Requested convergence on             energy=1.00D-06.
 No special actions if energy rises.
 FoFCou: FMM=F IPFlag=           0 FMFlag=           0 FMFlg1=           0
         NFxFlg=           0 DoJE=F BraDBF=F KetDBF=F FulRan=T
         wScrn=  0.000000 ICntrl=     600 IOpCl=  0 I1Cent=           0 NGrid=           0
         NMat0=    1 NMatS0=   5460 NMatT0=    0 NMatD0=    1 NMtDS0=    0 NMtDT0=    0
 Symmetry not used in FoFCou.

 Cycle   1  Pass 1  IDiag  1:
 Inv3:  Mode=1 IEnd=     1101708.
 Iteration    1 A*A^-1 deviation from unit magnitude is 3.55D-15 for     83.
 Iteration    1 A*A^-1 deviation from orthogonality  is 2.89D-15 for    587    152.
 Iteration    1 A^-1*A deviation from unit magnitude is 3.77D-15 for    318.
 Iteration    1 A^-1*A deviation from orthogonality  is 3.16D-15 for    265    263.
 E= -699.452529888409    
 DIIS: error= 4.75D-02 at cycle   1 NSaved=   1.
 NSaved= 1 IEnMin= 1 EnMin= -699.452529888409     IErMin= 1 ErrMin= 4.75D-02
 ErrMax= 4.75D-02  0.00D+00 EMaxC= 1.00D-01 BMatC= 4.83D-01 BMatP= 4.83D-01
 IDIUse=3 WtCom= 5.25D-01 WtEn= 4.75D-01
 Coeff-Com:  0.100D+01
 Coeff-En:   0.100D+01
 Coeff:      0.100D+01
 Gap=     0.093 Goal=   None    Shift=    0.000
 GapD=    0.093 DampG=0.500 DampE=0.500 DampFc=0.2500 IDamp=-1.
 Damping current iteration by 2.50D-01
 RMSDP=1.74D-02 MaxDP=6.41D-01              OVMax= 2.67D-01

 Cycle   2  Pass 1  IDiag  1:
 E= -699.583798467230     Delta-E=       -0.131268578821 Rises=F Damp=T
 DIIS: error= 1.61D-02 at cycle   2 NSaved=   2.
 NSaved= 2 IEnMin= 2 EnMin= -699.583798467230     IErMin= 2 ErrMin= 1.61D-02
 ErrMax= 1.61D-02  0.00D+00 EMaxC= 1.00D-01 BMatC= 5.37D-02 BMatP= 4.83D-01
 IDIUse=3 WtCom= 8.39D-01 WtEn= 1.61D-01
 Coeff-Com: -0.432D+00 0.143D+01
 Coeff-En:   0.000D+00 0.100D+01
 Coeff:     -0.363D+00 0.136D+01
 Gap=     0.242 Goal=   None    Shift=    0.000
 RMSDP=2.35D-03 MaxDP=5.05D-02 DE=-1.31D-01 OVMax= 2.04D-01

 Cycle   3  Pass 1  IDiag  1:
 E= -699.794954531313     Delta-E=       -0.211156064083 Rises=F Damp=F
 DIIS: error= 8.35D-03 at cycle   3 NSaved=   3.
 NSaved= 3 IEnMin= 3 EnMin= -699.794954531313     IErMin= 3 ErrMin= 8.35D-03
 ErrMax= 8.35D-03  0.00D+00 EMaxC= 1.00D-01 BMatC= 1.93D-02 BMatP= 5.37D-02
 IDIUse=3 WtCom= 9.17D-01 WtEn= 8.35D-02
 Coeff-Com: -0.241D+00 0.830D+00 0.412D+00
 Coeff-En:   0.000D+00 0.000D+00 0.100D+01
 Coeff:     -0.221D+00 0.760D+00 0.461D+00
 Gap=     0.247 Goal=   None    Shift=    0.000
 RMSDP=1.36D-03 MaxDP=3.08D-02 DE=-2.11D-01 OVMax= 3.40D-02

 Cycle   4  Pass 1  IDiag  1:
 E= -699.807515327518     Delta-E=       -0.012560796205 Rises=F Damp=F
 DIIS: error= 2.70D-03 at cycle   4 NSaved=   4.
 NSaved= 4 IEnMin= 4 EnMin= -699.807515327518     IErMin= 4 ErrMin= 2.70D-03
 ErrMax= 2.70D-03  0.00D+00 EMaxC= 1.00D-01 BMatC= 2.66D-03 BMatP= 1.93D-02
 IDIUse=3 WtCom= 9.73D-01 WtEn= 2.70D-02
 Coeff-Com: -0.297D-01 0.771D-01 0.263D+00 0.690D+00
 Coeff-En:   0.000D+00 0.000D+00 0.133D+00 0.867D+00
 Coeff:     -0.289D-01 0.751D-01 0.259D+00 0.694D+00
 Gap=     0.246 Goal=   None    Shift=    0.000
 RMSDP=4.78D-04 MaxDP=1.17D-02 DE=-1.26D-02 OVMax= 1.23D-02

 Cycle   5  Pass 1  IDiag  1:
 E= -699.809204871709     Delta-E=       -0.001689544190 Rises=F Damp=F
 DIIS: error= 1.29D-03 at cycle   5 NSaved=   5.
 NSaved= 5 IEnMin= 5 EnMin= -699.809204871709     IErMin= 5 ErrMin= 1.29D-03
 ErrMax= 1.29D-03  0.00D+00 EMaxC= 1.00D-01 BMatC= 3.37D-04 BMatP= 2.66D-03
 IDIUse=3 WtCom= 9.87D-01 WtEn= 1.29D-02
 Coeff-Com: -0.951D-02 0.171D-01 0.138D+00 0.422D+00 0.432D+00
 Coeff-En:   0.000D+00 0.000D+00 0.000D+00 0.604D-01 0.940D+00
 Coeff:     -0.939D-02 0.169D-01 0.136D+00 0.417D+00 0.439D+00
 Gap=     0.246 Goal=   None    Shift=    0.000
 RMSDP=1.79D-04 MaxDP=3.43D-03 DE=-1.69D-03 OVMax= 4.54D-03

 Cycle   6  Pass 1  IDiag  1:
 E= -699.809453716758     Delta-E=       -0.000248845050 Rises=F Damp=F
 DIIS: error= 3.88D-04 at cycle   6 NSaved=   6.
 NSaved= 6 IEnMin= 6 EnMin= -699.809453716758     IErMin= 6 ErrMin= 3.88D-04
 ErrMax= 3.88D-04  0.00D+00 EMaxC= 1.00D-01 BMatC= 2.82D-05 BMatP= 3.37D-04
 IDIUse=3 WtCom= 9.96D-01 WtEn= 3.88D-03
 Coeff-Com: -0.375D-02 0.671D-02 0.564D-01 0.174D+00 0.265D+00 0.502D+00
 Coeff-En:   0.000D+00 0.000D+00 0.000D+00 0.000D+00 0.182D-01 0.982D+00
 Coeff:     -0.374D-02 0.668D-02 0.562D-01 0.174D+00 0.264D+00 0.504D+00
 Gap=     0.245 Goal=   None    Shift=    0.000
 RMSDP=5.26D-05 MaxDP=1.07D-03 DE=-2.49D-04 OVMax= 1.15D-03

 Cycle   7  Pass 1  IDiag  1:
 E= -699.809474583352     Delta-E=       -0.000020866594 Rises=F Damp=F
 DIIS: error= 6.43D-05 at cycle   7 NSaved=   7.
 NSaved= 7 IEnMin= 7 EnMin= -699.809474583352     IErMin= 7 ErrMin= 6.43D-05
 ErrMax= 6.43D-05  0.00D+00 EMaxC= 1.00D-01 BMatC= 1.31D-06 BMatP= 2.82D-05
 IDIUse=1 WtCom= 1.00D+00 WtEn= 0.00D+00
 Coeff-Com:  0.478D-03-0.175D-02-0.130D-02-0.409D-02 0.370D-01 0.213D+00
 Coeff-Com:  0.757D+00
 Coeff:      0.478D-03-0.175D-02-0.130D-02-0.409D-02 0.370D-01 0.213D+00
 Coeff:      0.757D+00
 Gap=     0.245 Goal=   None    Shift=    0.000
 RMSDP=1.23D-05 MaxDP=4.65D-04 DE=-2.09D-05 OVMax= 2.29D-04

 Cycle   8  Pass 1  IDiag  1:
 E= -699.809475740613     Delta-E=       -0.000001157261 Rises=F Damp=F
 DIIS: error= 5.22D-06 at cycle   8 NSaved=   8.
 NSaved= 8 IEnMin= 8 EnMin= -699.809475740613     IErMin= 8 ErrMin= 5.22D-06
 ErrMax= 5.22D-06  0.00D+00 EMaxC= 1.00D-01 BMatC= 5.31D-09 BMatP= 1.31D-06
 IDIUse=1 WtCom= 1.00D+00 WtEn= 0.00D+00
 Coeff-Com: -0.408D-04-0.188D-05-0.995D-03-0.296D-02 0.279D-03 0.132D-01
 Coeff-Com:  0.766D-01 0.914D+00
 Coeff:     -0.408D-04-0.188D-05-0.995D-03-0.296D-02 0.279D-03 0.132D-01
 Coeff:      0.766D-01 0.914D+00
 Gap=     0.245 Goal=   None    Shift=    0.000
 RMSDP=1.16D-06 MaxDP=1.96D-05 DE=-1.16D-06 OVMax= 2.78D-05

 Cycle   9  Pass 1  IDiag  1:
 E= -699.809475742289     Delta-E=       -0.000000001677 Rises=F Damp=F
 DIIS: error= 5.20D-06 at cycle   9 NSaved=   9.
 NSaved= 9 IEnMin= 9 EnMin= -699.809475742289     IErMin= 9 ErrMin= 5.20D-06
 ErrMax= 5.20D-06  0.00D+00 EMaxC= 1.00D-01 BMatC= 4.59D-09 BMatP= 5.31D-09
 IDIUse=1 WtCom= 1.00D+00 WtEn= 0.00D+00
 Coeff-Com: -0.622D-04 0.101D-03-0.612D-03-0.175D-02-0.165D-02-0.182D-02
 Coeff-Com:  0.135D-01 0.598D+00 0.394D+00
 Coeff:     -0.622D-04 0.101D-03-0.612D-03-0.175D-02-0.165D-02-0.182D-02
 Coeff:      0.135D-01 0.598D+00 0.394D+00
 Gap=     0.245 Goal=   None    Shift=    0.000
 RMSDP=5.86D-07 MaxDP=1.24D-05 DE=-1.68D-09 OVMax= 1.72D-05

 Cycle  10  Pass 1  IDiag  1:
 E= -699.809475745617     Delta-E=       -0.000000003328 Rises=F Damp=F
 DIIS: error= 8.36D-07 at cycle  10 NSaved=  10.
 NSaved=10 IEnMin=10 EnMin= -699.809475745617     IErMin=10 ErrMin= 8.36D-07
 ErrMax= 8.36D-07  0.00D+00 EMaxC= 1.00D-01 BMatC= 1.86D-10 BMatP= 4.59D-09
 IDIUse=1 WtCom= 1.00D+00 WtEn= 0.00D+00
 Coeff-Com: -0.294D-04 0.532D-04-0.132D-03-0.282D-03-0.870D-03-0.328D-02
 Coeff-Com: -0.740D-02 0.998D-01 0.169D+00 0.743D+00
 Coeff:     -0.294D-04 0.532D-04-0.132D-03-0.282D-03-0.870D-03-0.328D-02
 Coeff:     -0.740D-02 0.998D-01 0.169D+00 0.743D+00
 Gap=     0.245 Goal=   None    Shift=    0.000
 RMSDP=1.30D-07 MaxDP=1.86D-06 DE=-3.33D-09 OVMax= 3.10D-06

 Cycle  11  Pass 1  IDiag  1:
 E= -699.809475745779     Delta-E=       -0.000000000162 Rises=F Damp=F
 DIIS: error= 9.65D-08 at cycle  11 NSaved=  11.
 NSaved=11 IEnMin=11 EnMin= -699.809475745779     IErMin=11 ErrMin= 9.65D-08
 ErrMax= 9.65D-08  0.00D+00 EMaxC= 1.00D-01 BMatC= 1.59D-12 BMatP= 1.86D-10
 IDIUse=1 WtCom= 1.00D+00 WtEn= 0.00D+00
 Coeff-Com: -0.110D-05 0.118D-05 0.301D-05 0.232D-04-0.201D-04-0.117D-03
 Coeff-Com: -0.640D-03-0.111D-01-0.595D-02 0.166D-01 0.100D+01
 Coeff:     -0.110D-05 0.118D-05 0.301D-05 0.232D-04-0.201D-04-0.117D-03
 Coeff:     -0.640D-03-0.111D-01-0.595D-02 0.166D-01 0.100D+01
 Gap=     0.245 Goal=   None    Shift=    0.000
 RMSDP=2.54D-08 MaxDP=5.53D-07 DE=-1.62D-10 OVMax= 7.52D-07

 Cycle  12  Pass 1  IDiag  1:
 E= -699.809475745765     Delta-E=        0.000000000013 Rises=F Damp=F
 DIIS: error= 1.14D-08 at cycle  12 NSaved=  12.
 NSaved=12 IEnMin=11 EnMin= -699.809475745779     IErMin=12 ErrMin= 1.14D-08
 ErrMax= 1.14D-08  0.00D+00 EMaxC= 1.00D-01 BMatC= 4.75D-14 BMatP= 1.59D-12
 IDIUse=1 WtCom= 1.00D+00 WtEn= 0.00D+00
 Coeff-Com:  0.618D-06-0.128D-05 0.359D-05 0.974D-05 0.171D-04 0.555D-04
 Coeff-Com:  0.522D-04-0.435D-02-0.530D-02-0.152D-01 0.226D+00 0.799D+00
 Coeff:      0.618D-06-0.128D-05 0.359D-05 0.974D-05 0.171D-04 0.555D-04
 Coeff:      0.522D-04-0.435D-02-0.530D-02-0.152D-01 0.226D+00 0.799D+00
 Gap=     0.245 Goal=   None    Shift=    0.000
 RMSDP=3.42D-09 MaxDP=4.41D-08 DE= 1.34D-11 OVMax= 1.09D-07

 Error on total polarization charges =  0.04532
 SCF Done:  E(RB3LYP) =  -699.809475746     A.U. after   12 cycles
            NFock= 12  Conv=0.34D-08     -V/T= 2.0068
 KE= 6.950751323733D+02 PE=-2.191135573056D+03 EE= 5.337621452185D+02
 SMD-CDS (non-electrostatic) energy       (kcal/mol) =       0.57
 (included in total energy above)
 Leave Link  502 at Wed Sep 18 00:23:12 2024, MaxMem=   268435456 cpu:        24.7
 (Enter /g100_work/pMI24_ChiCa/g09d1/g09d01/d01/build-node-6-2-59348/src/main/l601.exe)
 Copying SCF densities to generalized density rwf, IOpCl= 0 IROHF=0.

 **********************************************************************

            Population analysis using the SCF density.

 **********************************************************************

 Orbital symmetries:
       Occupied  (A) (A) (A) (A) (A) (A) (A) (A) (A) (A) (A) (A)
                 (A) (A) (A) (A) (A) (A) (A) (A) (A) (A) (A) (A)
                 (A)
       Virtual   (A) (A) (A) (A) (A) (A) (A) (A) (A) (A) (A) (A)
                 (A) (A) (A) (A) (A) (A) (A) (A) (A) (A) (A) (A)
                 (A) (A) (A) (A) (A) (A) (A) (A) (A) (A) (A) (A)
                 (A) (A) (A) (A) (A) (A) (A) (A) (A) (A) (A) (A)
                 (A) (A) (A) (A) (A) (A) (A) (A) (A) (A) (A) (A)
                 (A) (A) (A) (A) (A) (A) (A) (A) (A) (A) (A) (A)
                 (A) (A) (A) (A) (A) (A) (A)
 The electronic state is 1-A.
 Alpha  occ. eigenvalues --  -89.15863 -19.22203 -19.15669 -19.15637 -19.14689
 Alpha  occ. eigenvalues --   -8.17419  -6.14060  -6.13844  -6.13785  -1.13652
 Alpha  occ. eigenvalues --   -1.04490  -0.98773  -0.93886  -0.66718  -0.54292
 Alpha  occ. eigenvalues --   -0.49040  -0.48117  -0.44236  -0.38149  -0.35628
 Alpha  occ. eigenvalues --   -0.34167  -0.33842  -0.30579  -0.28713  -0.27150
 Alpha virt. eigenvalues --   -0.02609   0.03573   0.04262   0.04733   0.04923
 Alpha virt. eigenvalues --    0.07865   0.08972   0.11737   0.15208   0.16564
 Alpha virt. eigenvalues --    0.17044   0.17171   0.18287   0.19579   0.22746
 Alpha virt. eigenvalues --    0.23839   0.24294   0.24508   0.27399   0.27620
 Alpha virt. eigenvalues --    0.27939   0.29272   0.30859   0.31457   0.35589
 Alpha virt. eigenvalues --    0.53534   0.55278   0.58742   0.61172   0.63322
 Alpha virt. eigenvalues --    0.74502   0.94736   0.97169   1.01752   1.08916
 Alpha virt. eigenvalues --    1.14522   1.15018   1.17505   1.17886   1.21179
 Alpha virt. eigenvalues --    1.22091   1.23231   1.23978   1.25548   1.31007
 Alpha virt. eigenvalues --    1.32132   1.33716   1.46989   1.49878   1.51082
 Alpha virt. eigenvalues --    1.56768   1.65760   1.72697   1.74513   1.76813
 Alpha virt. eigenvalues --    1.79827   1.80626   1.82510   1.83443   1.84613
 Alpha virt. eigenvalues --    1.84838   1.98613   2.07550   2.12613   2.16678
 Alpha virt. eigenvalues --    2.17912   2.35090   2.43932   2.57138   2.63670
 Alpha virt. eigenvalues --    2.69517   2.74718   2.82567   3.44477   3.98500
 Alpha virt. eigenvalues --    4.00100   4.03531   4.07670   4.15616
          Condensed to atoms (all electrons):
               1          2          3          4          5          6
     1  S   13.685395  -0.015478   0.294477   0.202208   0.220499   0.020963
     2  O   -0.015478   8.605069  -0.066470  -0.062303  -0.061189   0.246780
     3  O    0.294477  -0.066470   8.842290  -0.126035  -0.106428   0.000523
     4  O    0.202208  -0.062303  -0.126035   8.861287  -0.118750  -0.000108
     5  O    0.220499  -0.061189  -0.106428  -0.118750   8.855072   0.001983
     6  H    0.020963   0.246780   0.000523  -0.000108   0.001983   0.289544
 Mulliken charges:
               1
     1  S    1.591937
     2  O   -0.646410
     3  O   -0.838357
     4  O   -0.756298
     5  O   -0.791187
     6  H    0.440314
 Sum of Mulliken charges =  -1.00000
 Mulliken charges with hydrogens summed into heavy atoms:
               1
     1  S    1.591937
     2  O   -0.206095
     3  O   -0.838357
     4  O   -0.756298
     5  O   -0.791187
 Electronic spatial extent (au):  <R**2>=            400.8741
 Charge=             -1.0000 electrons
 Dipole moment (field-independent basis, Debye):
    X=              6.0018    Y=             -0.0403    Z=              0.6502  Tot=              6.0371
 Quadrupole moment (field-independent basis, Debye-Ang):
   XX=            -37.0021   YY=            -47.5212   ZZ=            -45.8675
   XY=              2.5233   XZ=              1.9428   YZ=              0.0397
 Traceless Quadrupole moment (field-independent basis, Debye-Ang):
   XX=              6.4615   YY=             -4.0576   ZZ=             -2.4039
   XY=              2.5233   XZ=              1.9428   YZ=              0.0397
 Octapole moment (field-independent basis, Debye-Ang**2):
  XXX=             23.9603  YYY=             -4.2965  ZZZ=             -2.0615  XYY=              7.4610
  XXY=             -4.9587  XXZ=              6.5704  XZZ=              4.1046  YZZ=              6.9817
  YYZ=              0.0044  XYZ=              3.3382
 Hexadecapole moment (field-independent basis, Debye-Ang**3):
 XXXX=           -152.5344 YYYY=           -185.0138 ZZZZ=           -168.8641 XXXY=              9.5483
 XXXZ=             12.0469 YYYX=              7.6052 YYYZ=             -1.3287 ZZZX=             -0.7969
 ZZZY=              0.1189 XXYY=            -65.7130 XXZZ=            -57.5954 YYZZ=            -60.6802
 XXYZ=              1.1771 YYXZ=              0.0551 ZZXY=              0.4968
 N-N= 2.624888197185D+02 E-N=-2.191135573350D+03  KE= 6.950751323733D+02
 No NMR shielding tensors so no spin-rotation constants.
 Leave Link  601 at Wed Sep 18 00:23:12 2024, MaxMem=   268435456 cpu:         1.4
 (Enter /g100_work/pMI24_ChiCa/g09d1/g09d01/d01/build-node-6-2-59348/src/main/l701.exe)
 Compute integral first derivatives.
 ... and contract with generalized density number  0.
 D1PCM: PCM CHGder 1st derivatives, ID1Alg=3 FixD1E=F DoIter=F DoCFld=F I1PDM=0.
 GePol: Maximum number of non-zero 1st derivatives   =     409
 Leave Link  701 at Wed Sep 18 00:23:12 2024, MaxMem=   268435456 cpu:         4.2
 (Enter /g100_work/pMI24_ChiCa/g09d1/g09d01/d01/build-node-6-2-59348/src/main/l702.exe)
 L702 exits ... SP integral derivatives will be done elsewhere.
 Leave Link  702 at Wed Sep 18 00:23:12 2024, MaxMem=   268435456 cpu:         0.1
 (Enter /g100_work/pMI24_ChiCa/g09d1/g09d01/d01/build-node-6-2-59348/src/main/l703.exe)
 Compute integral first derivatives, UseDBF=F ICtDFT=           0.
 Integral derivatives from FoFJK, PRISM(SPDF).
 Calling FoFJK, ICntrl=      2127 FMM=F ISym2X=0 I1Cent= 0 IOpClX= 0 NMat=1 NMatS=1 NMatT=0.
 FoFJK:  IHMeth= 1 ICntrl=    2127 DoSepK=F KAlg= 0 I1Cent=   0 FoldK=F
 IRaf=         0 NMat=   1 IRICut=       1 DoRegI=T DoRafI=F ISym2E= 0.
 FoFCou: FMM=F IPFlag=           0 FMFlag=      100000 FMFlg1=         800
         NFxFlg=           0 DoJE=F BraDBF=F KetDBF=F FulRan=T
         wScrn=  0.000000 ICntrl=    2127 IOpCl=  0 I1Cent=           0 NGrid=           0
         NMat0=    1 NMatS0=      1 NMatT0=    0 NMatD0=    1 NMtDS0=    0 NMtDT0=    0
 Symmetry not used in FoFCou.
 Leave Link  703 at Wed Sep 18 00:23:13 2024, MaxMem=   268435456 cpu:         6.1
 (Enter /g100_work/pMI24_ChiCa/g09d1/g09d01/d01/build-node-6-2-59348/src/main/l716.exe)
 Dipole        = 2.36130550D+00-1.58511856D-02 2.55792014D-01
 ***** Axes restored to original set *****
 -------------------------------------------------------------------
 Center     Atomic                   Forces (Hartrees/Bohr)
 Number     Number              X              Y              Z
 -------------------------------------------------------------------
      1       16           0.047991621    0.002268033   -0.081849306
      2        8           0.017285889   -0.027304152   -0.022145470
      3        8          -0.077570549   -0.000710855    0.045219303
      4        8           0.014008816    0.009267043    0.026912058
      5        8           0.012005337   -0.007771475    0.023745496
      6        1          -0.013721113    0.024251405    0.008117918
 -------------------------------------------------------------------
 Cartesian Forces:  Max     0.081849306 RMS     0.034336510
 Leave Link  716 at Wed Sep 18 00:23:13 2024, MaxMem=   268435456 cpu:         0.1
 (Enter /g100_work/pMI24_ChiCa/g09d1/g09d01/d01/build-node-6-2-59348/src/main/l103.exe)

 GradGradGradGradGradGradGradGradGradGradGradGradGradGradGradGradGradGrad
 Berny optimization.
 FormGI is forming the generalized inverse of G from B-inverse, IUseBI=4.
 Internal  Forces:  Max     0.088194474 RMS     0.031008231
 Search for a local minimum.
 Step number   1 out of a maximum of   25
 All quantities printed in internal units (Hartrees-Bohrs-Radians)
 RMS Force = .31008D-01 SwitMx=.10000D-02 MixMth= 1
 Mixed Optimization -- RFO/linear search
 Second derivative matrix not updated -- first step.
 The second derivative matrix:
                          R1        R2        R3        R4        R5
           R1           0.41169
           R2           0.00000   0.41169
           R3           0.00000   0.00000   0.73458
           R4           0.00000   0.00000   0.00000   0.73458
           R5           0.00000   0.00000   0.00000   0.00000   0.57681
           A1           0.00000   0.00000   0.00000   0.00000   0.00000
           A2           0.00000   0.00000   0.00000   0.00000   0.00000
           A3           0.00000   0.00000   0.00000   0.00000   0.00000
           A4           0.00000   0.00000   0.00000   0.00000   0.00000
           A5           0.00000   0.00000   0.00000   0.00000   0.00000
           A6           0.00000   0.00000   0.00000   0.00000   0.00000
           A7           0.00000   0.00000   0.00000   0.00000   0.00000
           D1           0.00000   0.00000   0.00000   0.00000   0.00000
           D2           0.00000   0.00000   0.00000   0.00000   0.00000
           D3           0.00000   0.00000   0.00000   0.00000   0.00000
                          A1        A2        A3        A4        A5
           A1           0.25000
           A2           0.00000   0.25000
           A3           0.00000   0.00000   0.25000
           A4           0.00000   0.00000   0.00000   0.25000
           A5           0.00000   0.00000   0.00000   0.00000   0.25000
           A6           0.00000   0.00000   0.00000   0.00000   0.00000
           A7           0.00000   0.00000   0.00000   0.00000   0.00000
           D1           0.00000   0.00000   0.00000   0.00000   0.00000
           D2           0.00000   0.00000   0.00000   0.00000   0.00000
           D3           0.00000   0.00000   0.00000   0.00000   0.00000
                          A6        A7        D1        D2        D3
           A6           0.25000
           A7           0.00000   0.16000
           D1           0.00000   0.00000   0.01825
           D2           0.00000   0.00000   0.00000   0.01825
           D3           0.00000   0.00000   0.00000   0.00000   0.01825
 ITU=  0
     Eigenvalues ---    0.01825   0.16000   0.16025   0.16098   0.25000
     Eigenvalues ---    0.25000   0.25000   0.41169   0.41169   0.57681
     Eigenvalues ---    0.73458   0.73458
 RFO step:  Lambda=-3.70513234D-02 EMin= 1.82525757D-02
 Linear search not attempted -- first point.
 Maximum step size (   0.300) exceeded in Quadratic search.
    -- Step size scaled by   0.943
 Iteration  1 RMS(Cart)=  0.10181977 RMS(Int)=  0.00674684
 Iteration  2 RMS(Cart)=  0.00577732 RMS(Int)=  0.00349927
 Iteration  3 RMS(Cart)=  0.00002178 RMS(Int)=  0.00349924
 Iteration  4 RMS(Cart)=  0.00000020 RMS(Int)=  0.00349924
 ITry= 1 IFail=0 DXMaxC= 1.89D-01 DCOld= 1.00D+10 DXMaxT= 3.00D-01 DXLimC= 3.00D+00 Rises=F
 Variable       Old X    -DE/DX   Delta X   Delta X   Delta X     New X
                                 (Linear)    (Quad)   (Total)
    R1        3.13695  -0.01406   0.00000  -0.02955  -0.02955   3.10739
    R2        3.13695  -0.08819   0.00000  -0.18540  -0.18540   2.95154
    R3        2.85349  -0.02333   0.00000  -0.02852  -0.02852   2.82496
    R4        2.85349  -0.01990   0.00000  -0.02433  -0.02433   2.82915
    R5        1.79524   0.02903   0.00000   0.04462   0.04462   1.83986
    A1        1.91063  -0.03046   0.00000  -0.10694  -0.11208   1.79855
    A2        1.91986  -0.02839   0.00000  -0.09120  -0.09556   1.82431
    A3        1.90601  -0.02201   0.00000  -0.06761  -0.07154   1.83447
    A4        1.90601   0.02190   0.00000   0.06270   0.05529   1.96130
    A5        1.91986   0.02265   0.00000   0.07019   0.06417   1.98403
    A6        1.90145   0.03660   0.00000   0.13393   0.12998   2.03143
    A7        1.91063  -0.00304   0.00000  -0.01454  -0.01454   1.89609
    D1        2.10286   0.00147   0.00000   0.00408   0.00277   2.10563
    D2       -2.08593  -0.00814   0.00000  -0.04191  -0.03867  -2.12460
    D3       -0.00000   0.00593   0.00000   0.02521   0.02327   0.02327
         Item               Value     Threshold  Converged?
 Maximum Force            0.088194     0.000450     NO 
 RMS     Force            0.031008     0.000300     NO 
 Maximum Displacement     0.188641     0.001800     NO 
 RMS     Displacement     0.103949     0.001200     NO 
 Predicted change in Energy=-2.009454D-02
 Lowest energy point so far.  Saving SCF results.
 GradGradGradGradGradGradGradGradGradGradGradGradGradGradGradGradGradGrad

 Leave Link  103 at Wed Sep 18 00:23:13 2024, MaxMem=   268435456 cpu:         1.4
 (Enter /g100_work/pMI24_ChiCa/g09d1/g09d01/d01/build-node-6-2-59348/src/main/l202.exe)
                          Input orientation:                          
 ---------------------------------------------------------------------
 Center     Atomic      Atomic             Coordinates (Angstroms)
 Number     Number       Type             X           Y           Z
 ---------------------------------------------------------------------
      1         16           0       -0.007728    0.006614   -0.071697
      2          8           0        0.023768   -0.020646    1.572137
      3          8           0        1.506774    0.005381   -0.453509
      4          8           0       -0.692171   -1.266009   -0.454733
      5          8           0       -0.716375    1.276529   -0.427379
      6          1           0       -0.436459    0.769984    1.905320
 ---------------------------------------------------------------------
                    Distance matrix (angstroms):
                    1          2          3          4          5
     1  S    0.000000
     2  O    1.644362   0.000000
     3  O    1.561889   2.510623   0.000000
     4  O    1.494907   2.484291   2.540037   0.000000
     5  O    1.497123   2.495704   2.561034   2.542800   0.000000
     6  H    2.162207   0.973610   3.150373   3.127380   2.403419
                    6
     6  H    0.000000
 Stoichiometry    HO4S(1-)
 Framework group  C1[X(HO4S)]
 Deg. of freedom    12
 Full point group                 C1      NOp   1
 RotChk:  IX=0 Diff= 4.45D-01
 Largest Abelian subgroup         C1      NOp   1
 Largest concise Abelian subgroup C1      NOp   1
                         Standard orientation:                         
 ---------------------------------------------------------------------
 Center     Atomic      Atomic             Coordinates (Angstroms)
 Number     Number       Type             X           Y           Z
 ---------------------------------------------------------------------
      1         16           0       -0.100849   -0.056559    0.053153
      2          8           0        1.207881    0.483967   -0.782900
      3          8           0       -0.964340    1.233021    0.228833
      4          8           0       -0.743389   -1.051776   -0.858677
      5          8           0        0.450571   -0.590589    1.338503
      6          1           0        2.007792    0.307969   -0.256514
 ---------------------------------------------------------------------
 Rotational constants (GHZ):      4.9259757      4.7713919      4.7525891
 Leave Link  202 at Wed Sep 18 00:23:13 2024, MaxMem=   268435456 cpu:         0.1
 (Enter /g100_work/pMI24_ChiCa/g09d1/g09d01/d01/build-node-6-2-59348/src/main/l301.exe)
 Standard basis: 6-31+G(d,p) (6D, 7F)
 Ernie: Thresh=  0.10000D-02 Tol=  0.10000D-05 Strict=F.
 There are   104 symmetry adapted cartesian basis functions of A   symmetry.
 There are   104 symmetry adapted basis functions of A   symmetry.
   104 basis functions,   191 primitive gaussians,   104 cartesian basis functions
    25 alpha electrons       25 beta electrons
       nuclear repulsion energy       268.4045134592 Hartrees.
 IExCor=  402 DFT=T Ex+Corr=B3LYP ExCW=0 ScaHFX=  0.200000
 ScaDFX=  0.800000  0.720000  1.000000  0.810000 ScalE2=  1.000000  1.000000
 IRadAn=      0 IRanWt=     -1 IRanGd=            0 ICorTp=0 IEmpDi=  4
 NAtoms=    6 NActive=    6 NUniq=    6 SFac= 1.00D+00 NAtFMM=   60 NAOKFM=F Big=F
 Integral buffers will be    131072 words long.
 Raffenetti 2 integral format.
 Two-electron integral symmetry is turned on.
 ------------------------------------------------------------------------------
 Polarizable Continuum Model (PCM)
 =================================
 Model                : PCM (using non-symmetric T matrix).
 Atomic radii         : SMD-Coulomb.
 Polarization charges : Total charges.
 Charge compensation  : None.
 Solution method      : On-the-fly selection.
 Cavity type          : VdW (van der Waals Surface) (Alpha=1.000).
 Cavity algorithm     : GePol (No added spheres)
                        Default sphere list used, NSphG=    6.
                        Lebedev-Laikov grids with approx.  5.0 points / Ang**2.
                        Smoothing algorithm: Karplus/York (Gamma=1.0000).
                        Polarization charges: spherical gaussians, with
                                              point-specific exponents (IZeta= 3).
                        Self-potential: point-specific (ISelfS= 7).
                        Self-field    : sphere-specific E.n sum rule (ISelfD= 2).
 1st derivatives      : Analytical E(r).r(x)/FMM algorithm (CHGder, D1EAlg=3).
                        Cavity 1st derivative terms included.
 Solvent              : Water, Eps=  78.355300 Eps(inf)=   1.777849
 ------------------------------------------------------------------------------
 Spheres list:
 ISph  on   Nord     Re0    Alpha      Xe            Ye            Ze
    1   S      1    2.4900  1.000     -0.100849     -0.056559      0.053153
    2   O      2    1.5200  1.000      1.207881      0.483967     -0.782900
    3   O      3    1.5200  1.000     -0.964340      1.233021      0.228833
    4   O      4    1.5200  1.000     -0.743389     -1.051776     -0.858677
    5   O      5    1.5200  1.000      0.450571     -0.590589      1.338503
    6   H      6    1.2000  1.000      2.007792      0.307969     -0.256514
 ------------------------------------------------------------------------------
 GePol: Number of generator spheres                  =       6
 GePol: Total number of spheres                      =       6
 GePol: Number of exposed spheres                    =       6 (100.00%)
 GePol: Number of points                             =     602
 GePol: Average weight of points                     =       0.15
 GePol: Minimum weight of points                     =   0.14D-10
 GePol: Maximum weight of points                     =    0.21991
 GePol: Number of points with low weight             =      21
 GePol: Fraction of low-weight points (<1% of avg)   =       3.49%
 GePol: Cavity surface area                          =     90.856 Ang**2
 GePol: Cavity volume                                =     75.954 Ang**3
 ------------------------------------------------------------------------------
 Atomic radii for non-electrostatic terms: SMD-CDS.
 ------------------------------------------------------------------------------
 PCM non-electrostatic energy =         0.0008984830 Hartrees.
 Nuclear repulsion after PCM non-electrostatic terms =      268.4054119421 Hartrees.
 Leave Link  301 at Wed Sep 18 00:23:13 2024, MaxMem=   268435456 cpu:         0.1
 (Enter /g100_work/pMI24_ChiCa/g09d1/g09d01/d01/build-node-6-2-59348/src/main/l302.exe)
 NPDir=0 NMtPBC=     1 NCelOv=     1 NCel=       1 NClECP=     1 NCelD=      1
         NCelK=      1 NCelE2=     1 NClLst=     1 CellRange=     0.0.
 One-electron integrals computed using PRISM.
 NBasis=   104 RedAO= T EigKep=  1.84D-03  NBF=   104
 NBsUse=   104 1.00D-06 EigRej= -1.00D+00 NBFU=   104
 Precomputing XC quadrature grid using
 IXCGrd= 4 IRadAn=           0 IRanWt=          -1 IRanGd=           0 AccXCQ= 0.00D+00.
 Generated NRdTot=       0 NPtTot=           0 NUsed=           0 NTot=          32
 NSgBfM=   104   104   104   104   104 MxSgAt=     6 MxSgA2=     6.
 Leave Link  302 at Wed Sep 18 00:23:13 2024, MaxMem=   268435456 cpu:         1.4
 (Enter /g100_work/pMI24_ChiCa/g09d1/g09d01/d01/build-node-6-2-59348/src/main/l303.exe)
 DipDrv:  MaxL=1.
 Leave Link  303 at Wed Sep 18 00:23:13 2024, MaxMem=   268435456 cpu:         0.2
 (Enter /g100_work/pMI24_ChiCa/g09d1/g09d01/d01/build-node-6-2-59348/src/main/l401.exe)
 Initial guess from the checkpoint file:  "/g100_scratch/userexternal/ecabiati/g16_14421873/Gau-43974.chk"
 B after Tr=    -0.000000    0.000000   -0.000000
         Rot=    0.987043    0.070313   -0.144156   -0.004636 Ang=  18.47 deg.
 Guess basis will be translated and rotated to current coordinates.
 JPrj=2 DoOrth=T DoCkMO=T.
 Generating alternative initial guess.
 ExpMin= 4.05D-02 ExpMax= 2.19D+04 ExpMxC= 3.30D+03 IAcc=2 IRadAn=         4 AccDes= 0.00D+00
 Harris functional with IExCor=  402 and IRadAn=       4 diagonalized for initial guess.
 HarFok:  IExCor=  402 AccDes= 0.00D+00 IRadAn=         4 IDoV= 1 UseB2=F ITyADJ=14
 ICtDFT=  3500011 ScaDFX=  1.000000  1.000000  1.000000  1.000000
 FoFCou: FMM=F IPFlag=           0 FMFlag=      100000 FMFlg1=           0
         NFxFlg=           0 DoJE=T BraDBF=F KetDBF=T FulRan=T
         wScrn=  0.000000 ICntrl=     500 IOpCl=  0 I1Cent=   200000004 NGrid=           0
         NMat0=    1 NMatS0=      1 NMatT0=    0 NMatD0=    1 NMtDS0=    0 NMtDT0=    0
 Petite list used in FoFCou.
 Harris En= -699.927055748180    
 Leave Link  401 at Wed Sep 18 00:23:13 2024, MaxMem=   268435456 cpu:         2.0
 (Enter /g100_work/pMI24_ChiCa/g09d1/g09d01/d01/build-node-6-2-59348/src/main/l502.exe)
 Closed shell SCF:
 Using DIIS extrapolation, IDIIS=  1040.
 Integral symmetry usage will be decided dynamically.
 Keep R1 ints in memory in canonical form, NReq=18307194.
 IVT=       54263 IEndB=       54263 NGot=   268435456 MDV=   253472664
 LenX=   253472664 LenY=   253461407
 Requested convergence on RMS density matrix=1.00D-08 within 128 cycles.
 Requested convergence on MAX density matrix=1.00D-06.
 Requested convergence on             energy=1.00D-06.
 No special actions if energy rises.
 FoFCou: FMM=F IPFlag=           0 FMFlag=           0 FMFlg1=           0
         NFxFlg=           0 DoJE=F BraDBF=F KetDBF=F FulRan=T
         wScrn=  0.000000 ICntrl=     600 IOpCl=  0 I1Cent=           0 NGrid=           0
         NMat0=    1 NMatS0=   5460 NMatT0=    0 NMatD0=    1 NMtDS0=    0 NMtDT0=    0
 Symmetry not used in FoFCou.

 Cycle   1  Pass 1  IDiag  1:
 Inv3:  Mode=1 IEnd=     1087212.
 Iteration    1 A*A^-1 deviation from unit magnitude is 3.44D-15 for     76.
 Iteration    1 A*A^-1 deviation from orthogonality  is 4.00D-15 for    577     76.
 Iteration    1 A^-1*A deviation from unit magnitude is 3.11D-15 for     48.
 Iteration    1 A^-1*A deviation from orthogonality  is 7.91D-14 for    581    577.
 E= -699.808771987718    
 DIIS: error= 7.46D-03 at cycle   1 NSaved=   1.
 NSaved= 1 IEnMin= 1 EnMin= -699.808771987718     IErMin= 1 ErrMin= 7.46D-03
 ErrMax= 7.46D-03  0.00D+00 EMaxC= 1.00D-01 BMatC= 1.24D-02 BMatP= 1.24D-02
 IDIUse=3 WtCom= 9.25D-01 WtEn= 7.46D-02
 Coeff-Com:  0.100D+01
 Coeff-En:   0.100D+01
 Coeff:      0.100D+01
 Gap=     0.673 Goal=   None    Shift=    0.000
 GapD=    0.673 DampG=2.000 DampE=1.000 DampFc=2.0000 IDamp=-1.
 RMSDP=2.65D-03 MaxDP=3.17D-02              OVMax= 6.15D-02

 Cycle   2  Pass 1  IDiag  1:
 E= -699.830690232569     Delta-E=       -0.021918244851 Rises=F Damp=F
 DIIS: error= 3.54D-03 at cycle   2 NSaved=   2.
 NSaved= 2 IEnMin= 2 EnMin= -699.830690232569     IErMin= 2 ErrMin= 3.54D-03
 ErrMax= 3.54D-03  0.00D+00 EMaxC= 1.00D-01 BMatC= 1.86D-03 BMatP= 1.24D-02
 IDIUse=3 WtCom= 9.65D-01 WtEn= 3.54D-02
 Coeff-Com:  0.136D+00 0.864D+00
 Coeff-En:   0.000D+00 0.100D+01
 Coeff:      0.131D+00 0.869D+00
 Gap=     0.265 Goal=   None    Shift=    0.000
 RMSDP=7.58D-04 MaxDP=1.45D-02 DE=-2.19D-02 OVMax= 1.99D-02

 Cycle   3  Pass 1  IDiag  1:
 E= -699.829517128466     Delta-E=        0.001173104103 Rises=F Damp=F
 DIIS: error= 4.86D-03 at cycle   3 NSaved=   3.
 NSaved= 3 IEnMin= 2 EnMin= -699.830690232569     IErMin= 2 ErrMin= 3.54D-03
 ErrMax= 4.86D-03  0.00D+00 EMaxC= 1.00D-01 BMatC= 3.61D-03 BMatP= 1.86D-03
 IDIUse=3 WtCom= 1.25D-01 WtEn= 8.75D-01
 Coeff-Com: -0.395D-01 0.603D+00 0.437D+00
 Coeff-En:   0.000D+00 0.622D+00 0.378D+00
 Coeff:     -0.496D-02 0.620D+00 0.385D+00
 Gap=     0.272 Goal=   None    Shift=    0.000
 RMSDP=4.50D-04 MaxDP=9.26D-03 DE= 1.17D-03 OVMax= 1.21D-02

 Cycle   4  Pass 1  IDiag  1:
 E= -699.832169457749     Delta-E=       -0.002652329284 Rises=F Damp=F
 DIIS: error= 3.32D-04 at cycle   4 NSaved=   4.
 NSaved= 4 IEnMin= 4 EnMin= -699.832169457749     IErMin= 4 ErrMin= 3.32D-04
 ErrMax= 3.32D-04  0.00D+00 EMaxC= 1.00D-01 BMatC= 3.30D-05 BMatP= 1.86D-03
 IDIUse=3 WtCom= 9.97D-01 WtEn= 3.32D-03
 Coeff-Com: -0.220D-01 0.211D+00 0.130D+00 0.681D+00
 Coeff-En:   0.000D+00 0.000D+00 0.000D+00 0.100D+01
 Coeff:     -0.220D-01 0.210D+00 0.130D+00 0.682D+00
 Gap=     0.272 Goal=   None    Shift=    0.000
 RMSDP=8.89D-05 MaxDP=2.60D-03 DE=-2.65D-03 OVMax= 1.72D-03

 Cycle   5  Pass 1  IDiag  1:
 E= -699.832188139179     Delta-E=       -0.000018681430 Rises=F Damp=F
 DIIS: error= 2.27D-04 at cycle   5 NSaved=   5.
 NSaved= 5 IEnMin= 5 EnMin= -699.832188139179     IErMin= 5 ErrMin= 2.27D-04
 ErrMax= 2.27D-04  0.00D+00 EMaxC= 1.00D-01 BMatC= 1.43D-05 BMatP= 3.30D-05
 IDIUse=3 WtCom= 9.98D-01 WtEn= 2.27D-03
 Coeff-Com: -0.863D-02 0.643D-01 0.343D-01 0.424D+00 0.486D+00
 Coeff-En:   0.000D+00 0.000D+00 0.000D+00 0.257D+00 0.743D+00
 Coeff:     -0.861D-02 0.641D-01 0.343D-01 0.423D+00 0.487D+00
 Gap=     0.272 Goal=   None    Shift=    0.000
 RMSDP=3.42D-05 MaxDP=6.58D-04 DE=-1.87D-05 OVMax= 7.64D-04

 Cycle   6  Pass 1  IDiag  1:
 E= -699.832198385567     Delta-E=       -0.000010246388 Rises=F Damp=F
 DIIS: error= 6.39D-05 at cycle   6 NSaved=   6.
 NSaved= 6 IEnMin= 6 EnMin= -699.832198385567     IErMin= 6 ErrMin= 6.39D-05
 ErrMax= 6.39D-05  0.00D+00 EMaxC= 1.00D-01 BMatC= 9.16D-07 BMatP= 1.43D-05
 IDIUse=1 WtCom= 1.00D+00 WtEn= 0.00D+00
 Coeff-Com: -0.192D-02 0.108D-01 0.397D-02 0.157D+00 0.261D+00 0.570D+00
 Coeff:     -0.192D-02 0.108D-01 0.397D-02 0.157D+00 0.261D+00 0.570D+00
 Gap=     0.272 Goal=   None    Shift=    0.000
 RMSDP=1.17D-05 MaxDP=3.63D-04 DE=-1.02D-05 OVMax= 2.38D-04

 Cycle   7  Pass 1  IDiag  1:
 E= -699.832199063164     Delta-E=       -0.000000677597 Rises=F Damp=F
 DIIS: error= 1.95D-05 at cycle   7 NSaved=   7.
 NSaved= 7 IEnMin= 7 EnMin= -699.832199063164     IErMin= 7 ErrMin= 1.95D-05
 ErrMax= 1.95D-05  0.00D+00 EMaxC= 1.00D-01 BMatC= 9.30D-08 BMatP= 9.16D-07
 IDIUse=1 WtCom= 1.00D+00 WtEn= 0.00D+00
 Coeff-Com: -0.730D-04-0.294D-02-0.257D-02 0.311D-01 0.757D-01 0.294D+00
 Coeff-Com:  0.604D+00
 Coeff:     -0.730D-04-0.294D-02-0.257D-02 0.311D-01 0.757D-01 0.294D+00
 Coeff:      0.604D+00
 Gap=     0.272 Goal=   None    Shift=    0.000
 RMSDP=3.49D-06 MaxDP=1.29D-04 DE=-6.78D-07 OVMax= 6.53D-05

 Cycle   8  Pass 1  IDiag  1:
 E= -699.832199127660     Delta-E=       -0.000000064497 Rises=F Damp=F
 DIIS: error= 1.22D-05 at cycle   8 NSaved=   8.
 NSaved= 8 IEnMin= 8 EnMin= -699.832199127660     IErMin= 8 ErrMin= 1.22D-05
 ErrMax= 1.22D-05  0.00D+00 EMaxC= 1.00D-01 BMatC= 1.37D-08 BMatP= 9.30D-08
 IDIUse=1 WtCom= 1.00D+00 WtEn= 0.00D+00
 Coeff-Com:  0.151D-03-0.289D-02-0.203D-02 0.350D-02 0.197D-01 0.124D+00
 Coeff-Com:  0.355D+00 0.503D+00
 Coeff:      0.151D-03-0.289D-02-0.203D-02 0.350D-02 0.197D-01 0.124D+00
 Coeff:      0.355D+00 0.503D+00
 Gap=     0.272 Goal=   None    Shift=    0.000
 RMSDP=9.28D-07 MaxDP=1.85D-05 DE=-6.45D-08 OVMax= 1.83D-05

 Cycle   9  Pass 1  IDiag  1:
 E= -699.832199137409     Delta-E=       -0.000000009749 Rises=F Damp=F
 DIIS: error= 7.57D-07 at cycle   9 NSaved=   9.
 NSaved= 9 IEnMin= 9 EnMin= -699.832199137409     IErMin= 9 ErrMin= 7.57D-07
 ErrMax= 7.57D-07  0.00D+00 EMaxC= 1.00D-01 BMatC= 1.34D-10 BMatP= 1.37D-08
 IDIUse=1 WtCom= 1.00D+00 WtEn= 0.00D+00
 Coeff-Com:  0.434D-04-0.602D-03-0.444D-03-0.665D-03 0.389D-03 0.167D-01
 Coeff-Com:  0.575D-01 0.123D+00 0.804D+00
 Coeff:      0.434D-04-0.602D-03-0.444D-03-0.665D-03 0.389D-03 0.167D-01
 Coeff:      0.575D-01 0.123D+00 0.804D+00
 Gap=     0.272 Goal=   None    Shift=    0.000
 RMSDP=1.68D-07 MaxDP=2.63D-06 DE=-9.75D-09 OVMax= 3.33D-06

 Cycle  10  Pass 1  IDiag  1:
 E= -699.832199137495     Delta-E=       -0.000000000086 Rises=F Damp=F
 DIIS: error= 5.17D-07 at cycle  10 NSaved=  10.
 NSaved=10 IEnMin=10 EnMin= -699.832199137495     IErMin=10 ErrMin= 5.17D-07
 ErrMax= 5.17D-07  0.00D+00 EMaxC= 1.00D-01 BMatC= 4.40D-11 BMatP= 1.34D-10
 IDIUse=1 WtCom= 1.00D+00 WtEn= 0.00D+00
 Coeff-Com:  0.153D-04-0.168D-03-0.135D-03-0.532D-03-0.882D-03 0.243D-02
 Coeff-Com:  0.117D-01 0.391D-01 0.441D+00 0.507D+00
 Coeff:      0.153D-04-0.168D-03-0.135D-03-0.532D-03-0.882D-03 0.243D-02
 Coeff:      0.117D-01 0.391D-01 0.441D+00 0.507D+00
 Gap=     0.272 Goal=   None    Shift=    0.000
 RMSDP=7.73D-08 MaxDP=1.44D-06 DE=-8.57D-11 OVMax= 2.30D-06

 Cycle  11  Pass 1  IDiag  1:
 E= -699.832199137534     Delta-E=       -0.000000000039 Rises=F Damp=F
 DIIS: error= 2.37D-07 at cycle  11 NSaved=  11.
 NSaved=11 IEnMin=11 EnMin= -699.832199137534     IErMin=11 ErrMin= 2.37D-07
 ErrMax= 2.37D-07  0.00D+00 EMaxC= 1.00D-01 BMatC= 9.72D-12 BMatP= 4.40D-11
 IDIUse=1 WtCom= 1.00D+00 WtEn= 0.00D+00
 Coeff-Com: -0.158D-05 0.540D-04 0.302D-04-0.173D-03-0.696D-03-0.290D-02
 Coeff-Com: -0.785D-02-0.698D-02 0.790D-01 0.336D+00 0.604D+00
 Coeff:     -0.158D-05 0.540D-04 0.302D-04-0.173D-03-0.696D-03-0.290D-02
 Coeff:     -0.785D-02-0.698D-02 0.790D-01 0.336D+00 0.604D+00
 Gap=     0.272 Goal=   None    Shift=    0.000
 RMSDP=2.89D-08 MaxDP=4.30D-07 DE=-3.93D-11 OVMax= 6.55D-07

 Cycle  12  Pass 1  IDiag  1:
 E= -699.832199137529     Delta-E=        0.000000000005 Rises=F Damp=F
 DIIS: error= 9.89D-09 at cycle  12 NSaved=  12.
 NSaved=12 IEnMin=11 EnMin= -699.832199137534     IErMin=12 ErrMin= 9.89D-09
 ErrMax= 9.89D-09  0.00D+00 EMaxC= 1.00D-01 BMatC= 2.06D-14 BMatP= 9.72D-12
 IDIUse=1 WtCom= 1.00D+00 WtEn= 0.00D+00
 Coeff-Com: -0.435D-06 0.823D-05 0.641D-05-0.710D-05-0.289D-04-0.326D-03
 Coeff-Com: -0.903D-03-0.144D-02-0.294D-02 0.145D-01 0.527D-01 0.938D+00
 Coeff:     -0.435D-06 0.823D-05 0.641D-05-0.710D-05-0.289D-04-0.326D-03
 Coeff:     -0.903D-03-0.144D-02-0.294D-02 0.145D-01 0.527D-01 0.938D+00
 Gap=     0.272 Goal=   None    Shift=    0.000
 RMSDP=2.73D-09 MaxDP=4.84D-08 DE= 5.00D-12 OVMax= 7.90D-08

 Error on total polarization charges =  0.04334
 SCF Done:  E(RB3LYP) =  -699.832199138     A.U. after   12 cycles
            NFock= 12  Conv=0.27D-08     -V/T= 2.0066
 KE= 6.952746652161D+02 PE=-2.203265157645D+03 EE= 5.397528813495D+02
 SMD-CDS (non-electrostatic) energy       (kcal/mol) =       0.56
 (included in total energy above)
 Leave Link  502 at Wed Sep 18 00:23:15 2024, MaxMem=   268435456 cpu:        25.2
 (Enter /g100_work/pMI24_ChiCa/g09d1/g09d01/d01/build-node-6-2-59348/src/main/l701.exe)
 Compute integral first derivatives.
 ... and contract with generalized density number  0.
 D1PCM: PCM CHGder 1st derivatives, ID1Alg=3 FixD1E=F DoIter=F DoCFld=F I1PDM=0.
 GePol: Maximum number of non-zero 1st derivatives   =     414
 Leave Link  701 at Wed Sep 18 00:23:15 2024, MaxMem=   268435456 cpu:         4.2
 (Enter /g100_work/pMI24_ChiCa/g09d1/g09d01/d01/build-node-6-2-59348/src/main/l702.exe)
 L702 exits ... SP integral derivatives will be done elsewhere.
 Leave Link  702 at Wed Sep 18 00:23:15 2024, MaxMem=   268435456 cpu:         0.1
 (Enter /g100_work/pMI24_ChiCa/g09d1/g09d01/d01/build-node-6-2-59348/src/main/l703.exe)
 Compute integral first derivatives, UseDBF=F ICtDFT=           0.
 Integral derivatives from FoFJK, PRISM(SPDF).
 Calling FoFJK, ICntrl=      2127 FMM=F ISym2X=0 I1Cent= 0 IOpClX= 0 NMat=1 NMatS=1 NMatT=0.
 FoFJK:  IHMeth= 1 ICntrl=    2127 DoSepK=F KAlg= 0 I1Cent=   0 FoldK=F
 IRaf=         0 NMat=   1 IRICut=       1 DoRegI=T DoRafI=F ISym2E= 0.
 FoFCou: FMM=F IPFlag=           0 FMFlag=      100000 FMFlg1=         800
         NFxFlg=           0 DoJE=F BraDBF=F KetDBF=F FulRan=T
         wScrn=  0.000000 ICntrl=    2127 IOpCl=  0 I1Cent=           0 NGrid=           0
         NMat0=    1 NMatS0=      1 NMatT0=    0 NMatD0=    1 NMtDS0=    0 NMtDT0=    0
 Symmetry not used in FoFCou.
 Leave Link  703 at Wed Sep 18 00:23:16 2024, MaxMem=   268435456 cpu:         6.2
 (Enter /g100_work/pMI24_ChiCa/g09d1/g09d01/d01/build-node-6-2-59348/src/main/l716.exe)
 Dipole        = 1.85443858D+00-5.19545826D-02-1.25459048D-01
 ***** Axes restored to original set *****
 -------------------------------------------------------------------
 Center     Atomic                   Forces (Hartrees/Bohr)
 Number     Number              X              Y              Z
 -------------------------------------------------------------------
      1       16           0.047248415   -0.001588026   -0.020063448
      2        8          -0.001325737   -0.000740354    0.005711820
      3        8          -0.052206189    0.000288127    0.010607949
      4        8           0.003435526    0.012549971    0.001420811
      5        8           0.003399019   -0.011714606    0.000944667
      6        1          -0.000551034    0.001204889    0.001378201
 -------------------------------------------------------------------
 Cartesian Forces:  Max     0.052206189 RMS     0.018004877
 Leave Link  716 at Wed Sep 18 00:23:16 2024, MaxMem=   268435456 cpu:         0.1
 (Enter /g100_work/pMI24_ChiCa/g09d1/g09d01/d01/build-node-6-2-59348/src/main/l103.exe)

 GradGradGradGradGradGradGradGradGradGradGradGradGradGradGradGradGradGrad
 Berny optimization.
 Using GEDIIS/GDIIS optimizer.
 FormGI is forming the generalized inverse of G from B-inverse, IUseBI=4.
 Internal  Forces:  Max     0.053209859 RMS     0.014827831
 Search for a local minimum.
 Step number   2 out of a maximum of   25
 All quantities printed in internal units (Hartrees-Bohrs-Radians)
 RMS Force = .14828D-01 SwitMx=.10000D-02 MixMth= 1
 Mixed Optimization -- RFO/linear search
 Update second derivatives using D2CorX and points    1    2
 DE= -2.27D-02 DEPred=-2.01D-02 R= 1.13D+00
 TightC=F SS=  1.41D+00  RLast= 3.03D-01 DXNew= 5.0454D-01 9.0886D-01
 Trust test= 1.13D+00 RLast= 3.03D-01 DXMaxT set to 5.05D-01
 The second derivative matrix:
                          R1        R2        R3        R4        R5
           R1           0.42333
           R2          -0.00390   0.25984
           R3          -0.00020  -0.04025   0.72397
           R4          -0.00096  -0.03564  -0.00945   0.72622
           R5          -0.01094   0.03088   0.00735   0.00729   0.58227
           A1           0.01761  -0.02418  -0.00512  -0.00574  -0.01332
           A2           0.01450  -0.02146  -0.00462  -0.00509  -0.01069
           A3           0.01170  -0.01467  -0.00303  -0.00349  -0.00910
           A4          -0.01215   0.00619   0.00077   0.00150   0.01105
           A5          -0.01219   0.01035   0.00186   0.00247   0.01036
           A6          -0.02071   0.02757   0.00579   0.00655   0.01582
           A7           0.00267  -0.00000   0.00019  -0.00001  -0.00267
           D1          -0.00130  -0.00206  -0.00063  -0.00048   0.00167
           D2           0.00825   0.01233   0.00383   0.00286  -0.01044
           D3          -0.00659  -0.01011  -0.00313  -0.00235   0.00839
                          A1        A2        A3        A4        A5
           A1           0.27448
           A2           0.01998   0.26629
           A3           0.01643   0.01342   0.26102
           A4          -0.01814  -0.01492  -0.01207   0.26266
           A5          -0.01771  -0.01453  -0.01183   0.01265   0.26252
           A6          -0.02890  -0.02359  -0.01939   0.02135   0.02087
           A7           0.00415   0.00343   0.00275  -0.00280  -0.00284
           D1          -0.00227  -0.00189  -0.00148   0.00139   0.00147
           D2           0.01429   0.01192   0.00936  -0.00882  -0.00926
           D3          -0.01144  -0.00955  -0.00749   0.00705   0.00741
                          A6        A7        D1        D2        D3
           A6           0.28411
           A7          -0.00488   0.16061
           D1           0.00265  -0.00028   0.01836
           D2          -0.01672   0.00181  -0.00068   0.02262
           D3           0.01339  -0.00144   0.00054  -0.00346   0.02099
 ITU=  1  0
 Use linear search instead of GDIIS.
     Eigenvalues ---    0.01825   0.16013   0.17495   0.17714   0.23608
     Eigenvalues ---    0.25000   0.25048   0.35505   0.43974   0.59198
     Eigenvalues ---    0.72246   0.73463
 RFO step:  Lambda=-9.12127299D-03 EMin= 1.82543900D-02
 Quartic linear search produced a step of  0.22081.
 Iteration  1 RMS(Cart)=  0.04313833 RMS(Int)=  0.00093457
 Iteration  2 RMS(Cart)=  0.00017488 RMS(Int)=  0.00092292
 Iteration  3 RMS(Cart)=  0.00000021 RMS(Int)=  0.00092292
 ITry= 1 IFail=0 DXMaxC= 1.35D-01 DCOld= 1.00D+10 DXMaxT= 5.05D-01 DXLimC= 3.00D+00 Rises=F
 Variable       Old X    -DE/DX   Delta X   Delta X   Delta X     New X
                                 (Linear)    (Quad)   (Total)
    R1        3.10739   0.00705  -0.00653   0.02125   0.01472   3.12212
    R2        2.95154  -0.05321  -0.04094  -0.14885  -0.18979   2.76176
    R3        2.82496  -0.01263  -0.00630  -0.02085  -0.02715   2.79782
    R4        2.82915  -0.01177  -0.00537  -0.01942  -0.02479   2.80436
    R5        1.83986   0.00170   0.00985   0.00326   0.01311   1.85297
    A1        1.79855   0.00652  -0.02475   0.04328   0.01716   1.81571
    A2        1.82431   0.00249  -0.02110   0.01732  -0.00497   1.81933
    A3        1.83447   0.00217  -0.01580   0.01399  -0.00291   1.83156
    A4        1.96130  -0.00072   0.01221  -0.00134   0.00897   1.97027
    A5        1.98403  -0.00119   0.01417  -0.00526   0.00730   1.99133
    A6        2.03143  -0.00665   0.02870  -0.05035  -0.02281   2.00862
    A7        1.89609   0.00157  -0.00321   0.01339   0.01018   1.90627
    D1        2.10563  -0.00020   0.00061   0.00099   0.00133   2.10696
    D2       -2.12460   0.00268  -0.00854   0.02430   0.01644  -2.10816
    D3        0.02327  -0.00264   0.00514  -0.01800  -0.01327   0.01000
         Item               Value     Threshold  Converged?
 Maximum Force            0.053210     0.000450     NO 
 RMS     Force            0.014828     0.000300     NO 
 Maximum Displacement     0.135420     0.001800     NO 
 RMS     Displacement     0.043171     0.001200     NO 
 Predicted change in Energy=-6.127099D-03
 Lowest energy point so far.  Saving SCF results.
 GradGradGradGradGradGradGradGradGradGradGradGradGradGradGradGradGradGrad

 Leave Link  103 at Wed Sep 18 00:23:16 2024, MaxMem=   268435456 cpu:         1.0
 (Enter /g100_work/pMI24_ChiCa/g09d1/g09d01/d01/build-node-6-2-59348/src/main/l202.exe)
                          Input orientation:                          
 ---------------------------------------------------------------------
 Center     Atomic      Atomic             Coordinates (Angstroms)
 Number     Number       Type             X           Y           Z
 ---------------------------------------------------------------------
      1         16           0        0.019597    0.006250   -0.078560
      2          8           0        0.030246   -0.021417    1.573326
      3          8           0        1.435113    0.005518   -0.442120
      4          8           0       -0.673355   -1.245488   -0.459305
      5          8           0       -0.696983    1.255749   -0.435679
      6          1           0       -0.436810    0.771241    1.912479
 ---------------------------------------------------------------------
                    Distance matrix (angstroms):
                    1          2          3          4          5
     1  S    0.000000
     2  O    1.652153   0.000000
     3  O    1.461458   2.456908   0.000000
     4  O    1.480540   2.474873   2.451724   0.000000
     5  O    1.484004   2.489200   2.471629   2.501461   0.000000
     6  H    2.181228   0.980547   3.103958   3.122260   2.411697
                    6
     6  H    0.000000
 Stoichiometry    HO4S(1-)
 Framework group  C1[X(HO4S)]
 Deg. of freedom    12
 Full point group                 C1      NOp   1
 RotChk:  IX=3 Diff= 1.81D+00
 Largest Abelian subgroup         C1      NOp   1
 Largest concise Abelian subgroup C1      NOp   1
                         Standard orientation:                         
 ---------------------------------------------------------------------
 Center     Atomic      Atomic             Coordinates (Angstroms)
 Number     Number       Type             X           Y           Z
 ---------------------------------------------------------------------
      1         16           0       -0.122969   -0.045160   -0.005192
      2          8           0        1.352705    0.689666    0.104475
      3          8           0       -0.704007    0.126453    1.324772
      4          8           0       -0.836598    0.724912   -1.049089
      5          8           0        0.176968   -1.455074   -0.357965
      6          1           0        2.054960    0.034894   -0.094481
 ---------------------------------------------------------------------
 Rotational constants (GHZ):      5.1516017      4.9791951      4.8690344
 Leave Link  202 at Wed Sep 18 00:23:16 2024, MaxMem=   268435456 cpu:         0.1
 (Enter /g100_work/pMI24_ChiCa/g09d1/g09d01/d01/build-node-6-2-59348/src/main/l301.exe)
 Standard basis: 6-31+G(d,p) (6D, 7F)
 Ernie: Thresh=  0.10000D-02 Tol=  0.10000D-05 Strict=F.
 There are   104 symmetry adapted cartesian basis functions of A   symmetry.
 There are   104 symmetry adapted basis functions of A   symmetry.
   104 basis functions,   191 primitive gaussians,   104 cartesian basis functions
    25 alpha electrons       25 beta electrons
       nuclear repulsion energy       273.5424243911 Hartrees.
 IExCor=  402 DFT=T Ex+Corr=B3LYP ExCW=0 ScaHFX=  0.200000
 ScaDFX=  0.800000  0.720000  1.000000  0.810000 ScalE2=  1.000000  1.000000
 IRadAn=      0 IRanWt=     -1 IRanGd=            0 ICorTp=0 IEmpDi=  4
 NAtoms=    6 NActive=    6 NUniq=    6 SFac= 1.00D+00 NAtFMM=   60 NAOKFM=F Big=F
 Integral buffers will be    131072 words long.
 Raffenetti 2 integral format.
 Two-electron integral symmetry is turned on.
 ------------------------------------------------------------------------------
 Polarizable Continuum Model (PCM)
 =================================
 Model                : PCM (using non-symmetric T matrix).
 Atomic radii         : SMD-Coulomb.
 Polarization charges : Total charges.
 Charge compensation  : None.
 Solution method      : On-the-fly selection.
 Cavity type          : VdW (van der Waals Surface) (Alpha=1.000).
 Cavity algorithm     : GePol (No added spheres)
                        Default sphere list used, NSphG=    6.
                        Lebedev-Laikov grids with approx.  5.0 points / Ang**2.
                        Smoothing algorithm: Karplus/York (Gamma=1.0000).
                        Polarization charges: spherical gaussians, with
                                              point-specific exponents (IZeta= 3).
                        Self-potential: point-specific (ISelfS= 7).
                        Self-field    : sphere-specific E.n sum rule (ISelfD= 2).
 1st derivatives      : Analytical E(r).r(x)/FMM algorithm (CHGder, D1EAlg=3).
                        Cavity 1st derivative terms included.
 Solvent              : Water, Eps=  78.355300 Eps(inf)=   1.777849
 ------------------------------------------------------------------------------
 Spheres list:
 ISph  on   Nord     Re0    Alpha      Xe            Ye            Ze
    1   S      1    2.4900  1.000     -0.122969     -0.045160     -0.005192
    2   O      2    1.5200  1.000      1.352705      0.689666      0.104475
    3   O      3    1.5200  1.000     -0.704007      0.126453      1.324772
    4   O      4    1.5200  1.000     -0.836598      0.724912     -1.049089
    5   O      5    1.5200  1.000      0.176968     -1.455074     -0.357965
    6   H      6    1.2000  1.000      2.054960      0.034894     -0.094481
 ------------------------------------------------------------------------------
 GePol: Number of generator spheres                  =       6
 GePol: Total number of spheres                      =       6
 GePol: Number of exposed spheres                    =       6 (100.00%)
 GePol: Number of points                             =     590
 GePol: Average weight of points                     =       0.15
 GePol: Minimum weight of points                     =   0.33D-05
 GePol: Maximum weight of points                     =    0.21991
 GePol: Number of points with low weight             =      18
 GePol: Fraction of low-weight points (<1% of avg)   =       3.05%
 GePol: Cavity surface area                          =     90.178 Ang**2
 GePol: Cavity volume                                =     75.323 Ang**3
 ------------------------------------------------------------------------------
 Atomic radii for non-electrostatic terms: SMD-CDS.
 ------------------------------------------------------------------------------
 PCM non-electrostatic energy =         0.0009226827 Hartrees.
 Nuclear repulsion after PCM non-electrostatic terms =      273.5433470739 Hartrees.
 Leave Link  301 at Wed Sep 18 00:23:16 2024, MaxMem=   268435456 cpu:         0.2
 (Enter /g100_work/pMI24_ChiCa/g09d1/g09d01/d01/build-node-6-2-59348/src/main/l302.exe)
 NPDir=0 NMtPBC=     1 NCelOv=     1 NCel=       1 NClECP=     1 NCelD=      1
         NCelK=      1 NCelE2=     1 NClLst=     1 CellRange=     0.0.
 One-electron integrals computed using PRISM.
 NBasis=   104 RedAO= T EigKep=  1.64D-03  NBF=   104
 NBsUse=   104 1.00D-06 EigRej= -1.00D+00 NBFU=   104
 Precomputing XC quadrature grid using
 IXCGrd= 4 IRadAn=           0 IRanWt=          -1 IRanGd=           0 AccXCQ= 0.00D+00.
 Generated NRdTot=       0 NPtTot=           0 NUsed=           0 NTot=          32
 NSgBfM=   104   104   104   104   104 MxSgAt=     6 MxSgA2=     6.
 Leave Link  302 at Wed Sep 18 00:23:16 2024, MaxMem=   268435456 cpu:         1.4
 (Enter /g100_work/pMI24_ChiCa/g09d1/g09d01/d01/build-node-6-2-59348/src/main/l303.exe)
 DipDrv:  MaxL=1.
 Leave Link  303 at Wed Sep 18 00:23:16 2024, MaxMem=   268435456 cpu:         0.2
 (Enter /g100_work/pMI24_ChiCa/g09d1/g09d01/d01/build-node-6-2-59348/src/main/l401.exe)
 Initial guess from the checkpoint file:  "/g100_scratch/userexternal/ecabiati/g16_14421873/Gau-43974.chk"
 B after Tr=     0.000000    0.000000    0.000000
         Rot=    0.769908   -0.628830   -0.021562    0.106530 Ang= -79.31 deg.
 Guess basis will be translated and rotated to current coordinates.
 JPrj=2 DoOrth=T DoCkMO=T.
 Generating alternative initial guess.
 ExpMin= 4.05D-02 ExpMax= 2.19D+04 ExpMxC= 3.30D+03 IAcc=2 IRadAn=         4 AccDes= 0.00D+00
 Harris functional with IExCor=  402 and IRadAn=       4 diagonalized for initial guess.
 HarFok:  IExCor=  402 AccDes= 0.00D+00 IRadAn=         4 IDoV= 1 UseB2=F ITyADJ=14
 ICtDFT=  3500011 ScaDFX=  1.000000  1.000000  1.000000  1.000000
 FoFCou: FMM=F IPFlag=           0 FMFlag=      100000 FMFlg1=           0
         NFxFlg=           0 DoJE=T BraDBF=F KetDBF=T FulRan=T
         wScrn=  0.000000 ICntrl=     500 IOpCl=  0 I1Cent=   200000004 NGrid=           0
         NMat0=    1 NMatS0=      1 NMatT0=    0 NMatD0=    1 NMtDS0=    0 NMtDT0=    0
 Petite list used in FoFCou.
 Harris En= -699.927723841962    
 Leave Link  401 at Wed Sep 18 00:23:16 2024, MaxMem=   268435456 cpu:         2.0
 (Enter /g100_work/pMI24_ChiCa/g09d1/g09d01/d01/build-node-6-2-59348/src/main/l502.exe)
 Closed shell SCF:
 Using DIIS extrapolation, IDIIS=  1040.
 Integral symmetry usage will be decided dynamically.
 Keep R1 ints in memory in canonical form, NReq=18291042.
 IVT=       54263 IEndB=       54263 NGot=   268435456 MDV=   253472664
 LenX=   253472664 LenY=   253461407
 Requested convergence on RMS density matrix=1.00D-08 within 128 cycles.
 Requested convergence on MAX density matrix=1.00D-06.
 Requested convergence on             energy=1.00D-06.
 No special actions if energy rises.
 FoFCou: FMM=F IPFlag=           0 FMFlag=           0 FMFlg1=           0
         NFxFlg=           0 DoJE=F BraDBF=F KetDBF=F FulRan=T
         wScrn=  0.000000 ICntrl=     600 IOpCl=  0 I1Cent=           0 NGrid=           0
         NMat0=    1 NMatS0=   5460 NMatT0=    0 NMatD0=    1 NMtDS0=    0 NMtDT0=    0
 Symmetry not used in FoFCou.

 Cycle   1  Pass 1  IDiag  1:
 Inv3:  Mode=1 IEnd=     1044300.
 Iteration    1 A*A^-1 deviation from unit magnitude is 3.89D-15 for    451.
 Iteration    1 A*A^-1 deviation from orthogonality  is 4.66D-15 for    363    212.
 Iteration    1 A^-1*A deviation from unit magnitude is 4.44D-15 for    251.
 Iteration    1 A^-1*A deviation from orthogonality  is 8.35D-14 for    555    372.
 E= -699.829103091056    
 DIIS: error= 4.40D-03 at cycle   1 NSaved=   1.
 NSaved= 1 IEnMin= 1 EnMin= -699.829103091056     IErMin= 1 ErrMin= 4.40D-03
 ErrMax= 4.40D-03  0.00D+00 EMaxC= 1.00D-01 BMatC= 4.85D-03 BMatP= 4.85D-03
 IDIUse=3 WtCom= 9.56D-01 WtEn= 4.40D-02
 Coeff-Com:  0.100D+01
 Coeff-En:   0.100D+01
 Coeff:      0.100D+01
 Gap=     0.674 Goal=   None    Shift=    0.000
 GapD=    0.674 DampG=2.000 DampE=1.000 DampFc=2.0000 IDamp=-1.
 RMSDP=1.71D-03 MaxDP=2.67D-02              OVMax= 2.16D-02

 Cycle   2  Pass 1  IDiag  1:
 E= -699.834702216360     Delta-E=       -0.005599125304 Rises=F Damp=F
 DIIS: error= 2.91D-03 at cycle   2 NSaved=   2.
 NSaved= 2 IEnMin= 2 EnMin= -699.834702216360     IErMin= 2 ErrMin= 2.91D-03
 ErrMax= 2.91D-03  0.00D+00 EMaxC= 1.00D-01 BMatC= 1.94D-03 BMatP= 4.85D-03
 IDIUse=3 WtCom= 9.71D-01 WtEn= 2.91D-02
 Coeff-Com:  0.338D+00 0.662D+00
 Coeff-En:   0.000D+00 0.100D+01
 Coeff:      0.328D+00 0.672D+00
 Gap=     0.274 Goal=   None    Shift=    0.000
 RMSDP=6.55D-04 MaxDP=1.67D-02 DE=-5.60D-03 OVMax= 1.75D-02

 Cycle   3  Pass 1  IDiag  1:
 E= -699.834929902707     Delta-E=       -0.000227686347 Rises=F Damp=F
 DIIS: error= 2.58D-03 at cycle   3 NSaved=   3.
 NSaved= 3 IEnMin= 3 EnMin= -699.834929902707     IErMin= 3 ErrMin= 2.58D-03
 ErrMax= 2.58D-03  0.00D+00 EMaxC= 1.00D-01 BMatC= 1.61D-03 BMatP= 1.94D-03
 IDIUse=3 WtCom= 9.74D-01 WtEn= 2.58D-02
 Coeff-Com:  0.406D-02 0.476D+00 0.520D+00
 Coeff-En:   0.000D+00 0.465D+00 0.535D+00
 Coeff:      0.395D-02 0.476D+00 0.520D+00
 Gap=     0.276 Goal=   None    Shift=    0.000
 RMSDP=3.46D-04 MaxDP=7.97D-03 DE=-2.28D-04 OVMax= 7.96D-03

 Cycle   4  Pass 1  IDiag  1:
 E= -699.836104431527     Delta-E=       -0.001174528820 Rises=F Damp=F
 DIIS: error= 3.54D-04 at cycle   4 NSaved=   4.
 NSaved= 4 IEnMin= 4 EnMin= -699.836104431527     IErMin= 4 ErrMin= 3.54D-04
 ErrMax= 3.54D-04  0.00D+00 EMaxC= 1.00D-01 BMatC= 3.10D-05 BMatP= 1.61D-03
 IDIUse=3 WtCom= 9.96D-01 WtEn= 3.54D-03
 Coeff-Com: -0.137D-01 0.169D+00 0.234D+00 0.611D+00
 Coeff-En:   0.000D+00 0.000D+00 0.000D+00 0.100D+01
 Coeff:     -0.136D-01 0.168D+00 0.233D+00 0.613D+00
 Gap=     0.276 Goal=   None    Shift=    0.000
 RMSDP=5.99D-05 MaxDP=1.32D-03 DE=-1.17D-03 OVMax= 1.17D-03

 Cycle   5  Pass 1  IDiag  1:
 E= -699.836127485684     Delta-E=       -0.000023054157 Rises=F Damp=F
 DIIS: error= 1.97D-04 at cycle   5 NSaved=   5.
 NSaved= 5 IEnMin= 5 EnMin= -699.836127485684     IErMin= 5 ErrMin= 1.97D-04
 ErrMax= 1.97D-04  0.00D+00 EMaxC= 1.00D-01 BMatC= 3.01D-06 BMatP= 3.10D-05
 IDIUse=3 WtCom= 9.98D-01 WtEn= 1.97D-03
 Coeff-Com: -0.653D-02 0.488D-01 0.820D-01 0.306D+00 0.570D+00
 Coeff-En:   0.000D+00 0.000D+00 0.000D+00 0.000D+00 0.100D+01
 Coeff:     -0.652D-02 0.487D-01 0.818D-01 0.305D+00 0.571D+00
 Gap=     0.276 Goal=   None    Shift=    0.000
 RMSDP=1.77D-05 MaxDP=3.44D-04 DE=-2.31D-05 OVMax= 4.92D-04

 Cycle   6  Pass 1  IDiag  1:
 E= -699.836129424061     Delta-E=       -0.000001938377 Rises=F Damp=F
 DIIS: error= 4.37D-05 at cycle   6 NSaved=   6.
 NSaved= 6 IEnMin= 6 EnMin= -699.836129424061     IErMin= 6 ErrMin= 4.37D-05
 ErrMax= 4.37D-05  0.00D+00 EMaxC= 1.00D-01 BMatC= 5.09D-07 BMatP= 3.01D-06
 IDIUse=1 WtCom= 1.00D+00 WtEn= 0.00D+00
 Coeff-Com: -0.234D-02 0.128D-01 0.272D-01 0.123D+00 0.344D+00 0.495D+00
 Coeff:     -0.234D-02 0.128D-01 0.272D-01 0.123D+00 0.344D+00 0.495D+00
 Gap=     0.276 Goal=   None    Shift=    0.000
 RMSDP=7.13D-06 MaxDP=2.17D-04 DE=-1.94D-06 OVMax= 1.46D-04

[...]
 Vibration     5          0.879              1.197              0.601
                       Q            Log10(Q)             Ln(Q)
 Total Bot       0.125272D+02          1.097853          2.527899
 Total V=0       0.588132D+13         12.769474         29.402802
 Vib (Bot)       0.420103D-11        -11.376644        -26.195691
 Vib (Bot)    1  0.496901D+00         -0.303730         -0.699365
 Vib (Bot)    2  0.483993D+00         -0.315161         -0.725686
 Vib (Bot)    3  0.318621D+00         -0.496725         -1.143752
 Vib (Bot)    4  0.310545D+00         -0.507876         -1.169428
 Vib (Bot)    5  0.306934D+00         -0.512955         -1.181124
 Vib (V=0)       0.197232D+01          0.294978          0.679212
 Vib (V=0)    1  0.120492D+01          0.080958          0.186412
 Vib (V=0)    2  0.119588D+01          0.077688          0.178882
 Vib (V=0)    3  0.109289D+01          0.038577          0.088826
 Vib (V=0)    4  0.108859D+01          0.036864          0.084883
 Vib (V=0)    5  0.108669D+01          0.036107          0.083139
 Electronic      0.100000D+01          0.000000          0.000000
 Translational   0.375268D+08          7.574341         17.440565
 Rotational      0.794613D+05          4.900156         11.283025
 
                                                              h04s- sol
                                                             IR Spectrum
 
     3                                                                                      1 1 1                                    
     7                                                                                      1 1 0  9         6   555   33            
     4                                                                                      8 4 9  8         9   221   76            
     6                                                                                      5 3 1  2         4   401   57            
 
     X                                                                                      X X X  X         X   XXX   XX            
     X                                                                                      X X X  X         X    XX                 
     X                                                                                      X X X  X         X                       
     X                                                                                      X X X  X         X                       
     X                                                                                      X X X  X         X                       
     X                                                                                      X X X            X                       
                                                                                            X X X            X                       
                                                                                            X X X            X                       
                                                                                            X X              X                       
                                                                                            X X              X                       
                                                                                            X X              X                       
                                                                                            X X              X                       
                                                                                            X X                                      
                                                                                            X X                                      
                                                                                            X X                                      
                                                                                              X                                      
                                                                                              X                                      
                                                                                              X                                      
                                                                                              X                                      
                                                                                              X                                      
 
 ***** Axes restored to original set *****
 -------------------------------------------------------------------
 Center     Atomic                   Forces (Hartrees/Bohr)
 Number     Number              X              Y              Z
 -------------------------------------------------------------------
      1       16          -0.000278715    0.000054506   -0.000098051
      2        8           0.000179753   -0.000075634   -0.000034901
      3        8           0.000041290    0.000002707   -0.000062820
      4        8           0.000122668    0.000069126    0.000122872
      5        8          -0.000011185   -0.000131069    0.000035320
      6        1          -0.000053811    0.000080364    0.000037581
 -------------------------------------------------------------------
 Cartesian Forces:  Max     0.000278715 RMS     0.000105255
 Force constants in Cartesian coordinates: 
                1             2             3             4             5 
      1  0.770129D+00
      2 -0.921976D-02  0.784715D+00
      3 -0.887371D-02  0.136893D-01  0.416433D+00
      4 -0.580815D-01  0.119629D-01  0.316969D-02  0.161311D+00
      5  0.118850D-01 -0.721335D-01 -0.405915D-02 -0.219061D+00  0.399901D+00
      6 -0.115152D-01  0.202816D-01 -0.124927D+00 -0.690982D-01  0.114410D+00
      7 -0.406470D+00 -0.108413D-02  0.839150D-01 -0.757897D-02  0.623198D-02
      8  0.598207D-03 -0.743543D-01  0.527602D-03  0.125253D-02  0.127344D-01
      9  0.820221D-01  0.180487D-02 -0.890485D-01  0.331515D-01 -0.881399D-02
     10 -0.151676D+00 -0.140605D+00 -0.417179D-01  0.110895D-01 -0.891147D-02
     11 -0.142385D+00 -0.323667D+00 -0.736422D-01 -0.421380D-02 -0.551470D-02
     12 -0.418547D-01 -0.714823D-01 -0.892549D-01 -0.857725D-02 -0.329196D-01
     13 -0.153620D+00  0.140971D+00 -0.395478D-01  0.703168D-02  0.731599D-02
     14  0.141204D+00 -0.316479D+00  0.690048D-01  0.737602D-02 -0.133396D-02
     15 -0.385297D-01  0.673287D-01 -0.915059D-01 -0.170953D-01  0.294665D-01
     16 -0.281623D-03 -0.202422D-02  0.305476D-02 -0.113771D+00  0.202539D+00
     17 -0.208220D-02  0.191908D-02 -0.552039D-02  0.202683D+00 -0.333653D+00
     18  0.187512D-01 -0.316222D-01 -0.216962D-01  0.584495D-01 -0.980837D-01
                6             7             8             9            10 
      6  0.273532D+00
      7  0.122025D-01  0.474547D+00
      8 -0.287805D-02  0.156101D-02  0.650978D-01
      9 -0.223610D-01 -0.108438D+00  0.151220D-02  0.851173D-01
     10 -0.332372D-02 -0.320845D-01 -0.396785D-01 -0.416381D-02  0.162135D+00
     11 -0.118997D-01 -0.135622D-01 -0.176915D-02 -0.414031D-02  0.174906D+00
     12 -0.225651D-01  0.529022D-02  0.122995D-02  0.153585D-01  0.522317D-01
     13 -0.715523D-02 -0.291626D-01  0.368599D-01 -0.449286D-02  0.131424D-01
     14  0.123281D-01  0.115949D-01 -0.102086D-02  0.374666D-02  0.130427D-01
     15 -0.266982D-01  0.658624D-02 -0.265492D-02  0.139360D-01 -0.848145D-03
     16  0.788898D-01  0.748700D-03 -0.593182D-03  0.192140D-02 -0.260680D-02
     17 -0.132242D+00 -0.474156D-02 -0.687973D-03  0.589057D-02  0.124648D-02
     18 -0.769807D-01  0.444420D-03  0.226322D-02 -0.300221D-02 -0.217813D-02
               11            12            13            14            15 
     11  0.371399D+00
     12  0.963237D-01  0.853625D-01
     13 -0.119643D-01 -0.106979D-02  0.164296D+00
     14 -0.430596D-01  0.564008D-02 -0.174179D+00  0.364713D+00
     15 -0.741870D-02  0.140315D-01  0.521350D-01 -0.905753D-01  0.829439D-01
     16 -0.278124D-02 -0.602026D-02 -0.168700D-02  0.961631D-03 -0.224801D-02
     17  0.261174D-02  0.120820D-02  0.996442D-03 -0.281957D-02  0.385373D-02
     18  0.777146D-03 -0.293237D-02  0.130727D-03 -0.144393D-03  0.729279D-02
               16            17            18 
     16  0.117598D+00
     17 -0.198102D+00  0.332630D+00
     18 -0.755977D-01  0.126810D+00  0.973187D-01
 FormGI is forming the generalized inverse of G from B-inverse, IUseBI=4.
 Force constants in internal coordinates: 
                1             2             3             4             5 
      1  0.216243D+00
      2  0.184695D-01  0.502710D+00
      3  0.184296D-01  0.241955D-01  0.499441D+00
      4  0.185287D-01  0.211754D-01  0.212686D-01  0.492183D+00
      5  0.790054D-03 -0.461415D-02 -0.474652D-02 -0.485074D-02  0.503973D+00
      6  0.378288D-01  0.172508D-01 -0.205022D-01 -0.220291D-01 -0.168874D-02
      7  0.374260D-01 -0.201917D-01  0.150686D-01 -0.219753D-01 -0.187462D-02
      8  0.256223D-01 -0.229116D-01 -0.226886D-01  0.248012D-01 -0.123055D-01
      9 -0.288928D-01  0.202441D-01  0.202012D-01 -0.174067D-01  0.402318D-02
     10 -0.252943D-01  0.179853D-01 -0.171378D-01  0.151479D-01  0.423095D-02
     11 -0.253576D-01 -0.175972D-01  0.193440D-01  0.169562D-01  0.433552D-02
     12  0.376427D-01  0.531091D-02  0.543475D-02 -0.653079D-03  0.117727D-01
     13 -0.124355D-03  0.434161D-03 -0.211660D-01  0.189709D-01 -0.159231D-02
     14  0.509426D-04  0.218278D-01 -0.944573D-03 -0.194898D-01  0.136864D-02
     15 -0.136411D-03 -0.173707D-01  0.174859D-01  0.793624D-03 -0.105631D-03
                6             7             8             9            10 
      6  0.274156D+00
      7  0.586549D-02  0.273196D+00
      8  0.122828D-03 -0.178241D-03  0.271949D+00
      9 -0.807045D-01 -0.796860D-01 -0.608780D-01  0.160245D+00
     10 -0.763961D-01 -0.636107D-01 -0.776848D-01  0.712669D-02  0.155002D+00
     11 -0.632024D-01 -0.758345D-01 -0.776852D-01  0.781192D-02  0.942103D-02
     12  0.171198D-01  0.169950D-01 -0.290497D-01  0.772897D-03 -0.231845D-02
     13  0.841692D-02 -0.393771D-01  0.340319D-01 -0.553369D-01  0.511166D-01
     14  0.392210D-01 -0.820291D-02 -0.340699D-01  0.546244D-01 -0.135865D-02
     15 -0.292628D-01  0.296564D-01  0.143916D-03  0.178478D-03 -0.542608D-01
               11            12            13            14            15 
     11  0.153455D+00
     12 -0.213904D-02  0.146935D+00
     13  0.110603D-02 -0.782438D-02  0.507733D-01
     14 -0.501674D-01  0.776624D-02 -0.244412D-01  0.500645D-01
     15  0.536423D-01  0.205020D-04 -0.257337D-01 -0.254032D-01  0.484712D-01
 Leave Link  716 at Wed Sep 18 00:23:36 2024, MaxMem=   268435456 cpu:         0.2
 (Enter /g100_work/pMI24_ChiCa/g09d1/g09d01/d01/build-node-6-2-59348/src/main/l103.exe)

 GradGradGradGradGradGradGradGradGradGradGradGradGradGradGradGradGradGrad
 Berny optimization.
 Red2BG is reusing G-inverse.
 Internal  Forces:  Max     0.000158690 RMS     0.000071428
 Search for a local minimum.
 Step number   1 out of a maximum of    2
 All quantities printed in internal units (Hartrees-Bohrs-Radians)
 Second derivative matrix not updated -- analytic derivatives used.
 The second derivative matrix:
                          R1        R2        R3        R4        R5
           R1           0.21624
           R2           0.01847   0.50271
           R3           0.01843   0.02420   0.49944
           R4           0.01853   0.02118   0.02127   0.49218
           R5           0.00079  -0.00461  -0.00475  -0.00485   0.50397
           A1           0.03783   0.01725  -0.02050  -0.02203  -0.00169
           A2           0.03743  -0.02019   0.01507  -0.02198  -0.00187
           A3           0.02562  -0.02291  -0.02269   0.02480  -0.01231
           A4          -0.02889   0.02024   0.02020  -0.01741   0.00402
           A5          -0.02529   0.01799  -0.01714   0.01515   0.00423
           A6          -0.02536  -0.01760   0.01934   0.01696   0.00434
           A7           0.03764   0.00531   0.00543  -0.00065   0.01177
           D1          -0.00012   0.00043  -0.02117   0.01897  -0.00159
           D2           0.00005   0.02183  -0.00094  -0.01949   0.00137
           D3          -0.00014  -0.01737   0.01749   0.00079  -0.00011
                          A1        A2        A3        A4        A5
           A1           0.27416
           A2           0.00587   0.27320
           A3           0.00012  -0.00018   0.27195
           A4          -0.08070  -0.07969  -0.06088   0.16024
           A5          -0.07640  -0.06361  -0.07768   0.00713   0.15500
           A6          -0.06320  -0.07583  -0.07769   0.00781   0.00942
           A7           0.01712   0.01700  -0.02905   0.00077  -0.00232
           D1           0.00842  -0.03938   0.03403  -0.05534   0.05112
           D2           0.03922  -0.00820  -0.03407   0.05462  -0.00136
           D3          -0.02926   0.02966   0.00014   0.00018  -0.05426
                          A6        A7        D1        D2        D3
           A6           0.15346
           A7          -0.00214   0.14694
           D1           0.00111  -0.00782   0.05077
           D2          -0.05017   0.00777  -0.02444   0.05006
           D3           0.05364   0.00002  -0.02573  -0.02540   0.04847
 ITU=  0
     Eigenvalues ---   -0.00151   0.12145   0.19521   0.20106   0.20514
     Eigenvalues ---    0.27686   0.28758   0.46373   0.49209   0.49479
     Eigenvalues ---    0.50880   0.55359
 Eigenvalue     1 is  -1.51D-03 should be greater than     0.000000 Eigenvector:
                          D2        D3        D1        A1        A2
   1                    0.57704   0.57609   0.57602  -0.03796   0.03727
                          A6        A5        R2        R3        A4
   1                   -0.01577   0.01516  -0.00419   0.00390   0.00122
 Angle between quadratic step and forces=  79.16 degrees.
 Linear search not attempted -- first point.
 Iteration  1 RMS(Cart)=  0.00536535 RMS(Int)=  0.00005438
 Iteration  2 RMS(Cart)=  0.00004714 RMS(Int)=  0.00000010
 Iteration  3 RMS(Cart)=  0.00000000 RMS(Int)=  0.00000010
 ITry= 1 IFail=0 DXMaxC= 1.28D-02 DCOld= 1.00D+10 DXMaxT= 3.00D-01 DXLimC= 3.00D+00 Rises=F
 Variable       Old X    -DE/DX   Delta X   Delta X   Delta X     New X
                                 (Linear)    (Quad)   (Total)
    R1        3.15099  -0.00000   0.00000   0.00012   0.00012   3.15111
    R2        2.80665   0.00007   0.00000   0.00007   0.00007   2.80671
    R3        2.80689  -0.00016   0.00000  -0.00019  -0.00019   2.80670
    R4        2.81320  -0.00012   0.00000  -0.00030  -0.00030   2.81290
    R5        1.84078   0.00011   0.00000   0.00023   0.00023   1.84101
    A1        1.81788  -0.00005   0.00000  -0.00133  -0.00133   1.81655
    A2        1.81999  -0.00007   0.00000   0.00090   0.00090   1.82090
    A3        1.82599   0.00004   0.00000   0.00017   0.00017   1.82617
    A4        1.97994  -0.00003   0.00000  -0.00016  -0.00016   1.97979
    A5        1.99733   0.00004   0.00000   0.00055   0.00055   1.99788
    A6        1.99530   0.00005   0.00000  -0.00020  -0.00020   1.99510
    A7        1.89032  -0.00001   0.00000   0.00001   0.00001   1.89033
    D1        2.11000   0.00007   0.00000   0.01759   0.01759   2.12759
    D2       -2.09310  -0.00002   0.00000   0.01723   0.01723  -2.07587
    D3        0.00778   0.00003   0.00000   0.01749   0.01749   0.02528
         Item               Value     Threshold  Converged?
 Maximum Force            0.000159     0.000450     YES
 RMS     Force            0.000071     0.000300     YES
 Maximum Displacement     0.012753     0.001800     NO 
 RMS     Displacement     0.005366     0.001200     NO 
 Predicted change in Energy=-2.168216D-06
 GradGradGradGradGradGradGradGradGradGradGradGradGradGradGradGradGradGrad

 Leave Link  103 at Wed Sep 18 00:23:37 2024, MaxMem=   268435456 cpu:         1.0
 (Enter /g100_work/pMI24_ChiCa/g09d1/g09d01/d01/build-node-6-2-59348/src/main/l9999.exe)
 1\1\GINC-R500N003\Freq\RB3LYP\6-31+G(d,p)\H1O4S1(1-)\ECABIATI\18-Sep-2
 024\0\\#P Geom=AllCheck Guess=TCheck SCRF=Check GenChk RB3LYP/6-31+G(d
 ,p) Freq\\h04s- sol\\-1,1\S,0.0215188055,0.0049310492,-0.0798250454\O,
 0.0299142529,-0.0198459703,1.5874000141\O,1.4597741445,0.0059304527,-0
 .4503403279\O,-0.6860578829,-1.2441211618,-0.4611929273\O,-0.706446632
 1,1.2544114559,-0.4334355029\H,-0.4408941555,0.7705479208,1.9075340671
 \\Version=EM64L-G09RevD.01\State=1-A\HF=-699.8369838\RMSD=7.740e-10\RM
 SF=1.053e-04\ZeroPoint=0.0253749\Thermal=0.0297371\Dipole=-0.429178,0.
 7153041,1.4066356\DipoleDeriv=3.6079807,-0.0090994,-0.0529022,-0.00686
 48,3.5989836,0.0997251,-0.0580043,0.1056891,3.3020621,-0.80608,-0.0387
 436,0.1084332,-0.037318,-0.7614895,-0.1835815,0.0542233,-0.0881389,-1.
 9059719,-1.8730729,-0.0041732,0.2890016,0.0018807,-0.9495109,-0.022950
 7,0.201646,-0.0041665,-0.9181326,-1.1728204,-0.3904866,-0.124717,-0.39
 53157,-1.6430383,-0.2678391,-0.098465,-0.1836282,-0.9187961,-1.1727104
 ,0.4084134,-0.1572334,0.4045413,-1.6256767,0.2665038,-0.0797569,0.1364
 944,-0.9806347,0.416703,0.0340894,-0.0625822,0.0330765,0.3807318,0.108
 1425,-0.0196432,0.0337501,0.4214732\Polar=50.688686,-0.4201527,51.1085
 139,-0.4872327,0.8797213,47.2285451\PG=C01 [X(H1O4S1)]\NImag=1\\0.7701
 2857,-0.00921976,0.78471514,-0.00887371,0.01368928,0.41643280,-0.05808
 153,0.01196287,0.00316969,0.16131060,0.01188496,-0.07213347,-0.0040591
 5,-0.21906074,0.39990077,-0.01151518,0.02028160,-0.12492730,-0.0690982
 0,0.11441002,0.27353234,-0.40646962,-0.00108413,0.08391503,-0.00757897
 ,0.00623198,0.01220249,0.47454701,0.00059821,-0.07435430,0.00052760,0.
 00125253,0.01273444,-0.00287805,0.00156101,0.06509785,0.08202213,0.001
 80487,-0.08904846,0.03315155,-0.00881399,-0.02236105,-0.10843840,0.001
 51220,0.08511728,-0.15167577,-0.14060549,-0.04171793,0.01108950,-0.008
 91147,-0.00332372,-0.03208449,-0.03967849,-0.00416381,0.16213511,-0.14
 238476,-0.32366712,-0.07364218,-0.00421380,-0.00551470,-0.01189965,-0.
 01356219,-0.00176915,-0.00414031,0.17490628,0.37139885,-0.04185466,-0.
 07148230,-0.08925494,-0.00857725,-0.03291962,-0.02256510,0.00529022,0.
 00122995,0.01535848,0.05223174,0.09632370,0.08536247,-0.15362002,0.140
 97072,-0.03954783,0.00703168,0.00731599,-0.00715523,-0.02916264,0.0368
 5992,-0.00449286,0.01314245,-0.01196429,-0.00106979,0.16429553,0.14120
 355,-0.31647933,0.06900484,0.00737602,-0.00133396,0.01232812,0.0115949
 0,-0.00102086,0.00374666,0.01304268,-0.04305962,0.00564008,-0.17417878
 ,0.36471334,-0.03852974,0.06732871,-0.09150593,-0.01709534,0.02946648,
 -0.02669818,0.00658624,-0.00265492,0.01393595,-0.00084815,-0.00741870,
 0.01403147,0.05213499,-0.09057530,0.08294392,-0.00028162,-0.00202422,0
 .00305476,-0.11377127,0.20253928,0.07888984,0.00074870,-0.00059318,0.0
 0192140,-0.00260680,-0.00278124,-0.00602026,-0.00168700,0.00096163,-0.
 00224801,0.11759799,-0.00208220,0.00191908,-0.00552039,0.20268311,-0.3
 3365307,-0.13224204,-0.00474156,-0.00068797,0.00589057,0.00124648,0.00
 261174,0.00120820,0.00099644,-0.00281957,0.00385373,-0.19810227,0.3326
 2979,0.01875115,-0.03162216,-0.02169616,0.05844955,-0.09808374,-0.0769
 8071,0.00044442,0.00226322,-0.00300221,-0.00217813,0.00077715,-0.00293
 237,0.00013073,-0.00014439,0.00729279,-0.07559772,0.12680994,0.0973186
 6\\0.00027871,-0.00005451,0.00009805,-0.00017975,0.00007563,0.00003490
 ,-0.00004129,-0.00000271,0.00006282,-0.00012267,-0.00006913,-0.0001228
 7,0.00001118,0.00013107,-0.00003532,0.00005381,-0.00008036,-0.00003758
 \\\@


 EXPERIENCE IS THE FRUIT OF THE TREE OF ERRORS.
 Job cpu time:       0 days  0 hours  2 minutes  1.6 seconds.
 File lengths (MBytes):  RWF=     19 Int=      0 D2E=      0 Chk=      4 Scr=      1
 Normal termination of Gaussian 09 at Wed Sep 18 00:23:37 2024.
