 Entering Gaussian System, Link 0=/programs/64bit/g09/g09-gfortran/bin/g09
 Input=gas.com
 Output=gas.log
 Initial command:
 /programs/64bit/g09/g09-gfortran/bin/l1.exe /home/ospite/Desktop/MMfP/Project10/NH2-/Gau-23525.inp -scrdir=/home/ospite/Desktop/MMfP/Project10/NH2-/
 Entering Link 1 = /programs/64bit/g09/g09-gfortran/bin/l1.exe PID=     23526.
  
 Copyright (c) 1988,1990,1992,1993,1995,1998,2003,2009, Gaussian, Inc.
                  All Rights Reserved.
  
 This is part of the Gaussian(R) 09 program.  It is based on
 the Gaussian(R) 03 system (copyright 2003, Gaussian, Inc.),
 the Gaussian(R) 98 system (copyright 1998, Gaussian, Inc.),
 the Gaussian(R) 94 system (copyright 1995, Gaussian, Inc.),
 the Gaussian 92(TM) system (copyright 1992, Gaussian, Inc.),
 the Gaussian 90(TM) system (copyright 1990, Gaussian, Inc.),
 the Gaussian 88(TM) system (copyright 1988, Gaussian, Inc.),
 the Gaussian 86(TM) system (copyright 1986, Carnegie Mellon
 University), and the Gaussian 82(TM) system (copyright 1983,
 Carnegie Mellon University). Gaussian is a federally registered
 trademark of Gaussian, Inc.
  
 This software contains proprietary and confidential information,
 including trade secrets, belonging to Gaussian, Inc.
  
 This software is provided under written license and may be
 used, copied, transmitted, or stored only in accord with that
 written license.
  
 The following legend is applicable only to US Government
 contracts under FAR:
  
                    RESTRICTED RIGHTS LEGEND
  
 Use, reproduction and disclosure by the US Government is
 subject to restrictions as set forth in subparagraphs (a)
 and (c) of the Commercial Computer Software - Restricted
 Rights clause in FAR 52.227-19.
  
 Gaussian, Inc.
 340 Quinnipiac St., Bldg. 40, Wallingford CT 06492
  
  
 ---------------------------------------------------------------
 Warning -- This program may not be used in any manner that
 competes with the business of Gaussian, Inc. or will provide
 assistance to any competitor of Gaussian, Inc.  The licensee
 of this program is prohibited from giving any competitor of
 Gaussian, Inc. access to this program.  By using this program,
 the user acknowledges that Gaussian, Inc. is engaged in the
 business of creating and licensing software in the field of
 computational chemistry and represents and warrants to the
 licensee that it is not a competitor of Gaussian, Inc. and that
 it will not use this program in any manner prohibited above.
 ---------------------------------------------------------------
  

 Cite this work as:
 Gaussian 09, Revision A.02,
 M. J. Frisch, G. W. Trucks, H. B. Schlegel, G. E. Scuseria, 
 M. A. Robb, J. R. Cheeseman, G. Scalmani, V. Barone, B. Mennucci, 
 G. A. Petersson, H. Nakatsuji, M. Caricato, X. Li, H. P. Hratchian, 
 A. F. Izmaylov, J. Bloino, G. Zheng, J. L. Sonnenberg, M. Hada, 
 M. Ehara, K. Toyota, R. Fukuda, J. Hasegawa, M. Ishida, T. Nakajima, 
 Y. Honda, O. Kitao, H. Nakai, T. Vreven, J. A. Montgomery, Jr., 
 J. E. Peralta, F. Ogliaro, M. Bearpark, J. J. Heyd, E. Brothers, 
 K. N. Kudin, V. N. Staroverov, R. Kobayashi, J. Normand, 
 K. Raghavachari, A. Rendell, J. C. Burant, S. S. Iyengar, J. Tomasi, 
 M. Cossi, N. Rega, J. M. Millam, M. Klene, J. E. Knox, J. B. Cross, 
 V. Bakken, C. Adamo, J. Jaramillo, R. Gomperts, R. E. Stratmann, 
 O. Yazyev, A. J. Austin, R. Cammi, C. Pomelli, J. W. Ochterski, 
 R. L. Martin, K. Morokuma, V. G. Zakrzewski, G. A. Voth, 
 P. Salvador, J. J. Dannenberg, S. Dapprich, A. D. Daniels, 
 O. Farkas, J. B. Foresman, J. V. Ortiz, J. Cioslowski, 
 and D. J. Fox, Gaussian, Inc., Wallingford CT, 2009.
 
 ******************************************
 Gaussian 09:  EM64L-G09RevA.02 11-Jun-2009
                16-Sep-2024 
 ******************************************
 %mem=100Mb
 %nprocshared=2
 Will use up to    2 processors via shared memory.
 ------------------------
 #p B3LYP/6-31+g(d,p) opt
 ------------------------
 1/14=-1,18=20,19=15,26=3,38=1/1,3;
 2/9=110,12=2,17=6,18=5,40=1/2;
 3/5=1,6=6,7=111,11=2,16=1,25=1,30=1,71=1,74=-5/1,2,3;
 4//1;
 5/5=2,38=5/2;
 6/7=2,8=2,9=2,10=2,28=1/1;
 7//1,2,3,16;
 1/14=-1,18=20,19=15/3(2);
 2/9=110/2;
 99//99;
 2/9=110/2;
 3/5=1,6=6,7=111,11=2,16=1,25=1,30=1,71=1,74=-5/1,2,3;
 4/5=5,16=3/1;
 5/5=2,38=5/2;
 7//1,2,3,16;
 1/14=-1,18=20,19=15/3(-5);
 2/9=110/2;
 6/7=2,8=2,9=2,10=2,19=2,28=1/1;
 99/9=1/99;
 Leave Link    1 at Mon Sep 16 17:40:59 2024, MaxMem=   13107200 cpu:       0.1
 (Enter /programs/64bit/g09/g09-gfortran/bin/l101.exe)
 --------
 nh2- gas
 --------
 Symbolic Z-matrix:
 Charge = -1 Multiplicity = 1
 n
 h                    1    hn2
 h                    1    hn3      2    hnh3
       Variables:
  hn2                   1.03                     
  hn3                   1.03                     
  hnh3                109.471                    
 
     1 tetrahedral angles replaced.
 NAtoms=      3 NQM=      3 NQMF=      0 NMic=      0 NMicF=      0 NTot=      3.
                    Isotopes and Nuclear Properties:
 (Nuclear quadrupole moments (NQMom) in fm**2, nuclear magnetic moments (NMagM)
  in nuclear magnetons)

  Atom         1           2           3
 IAtWgt=          14           1           1
 AtmWgt=  14.0030740   1.0078250   1.0078250
 NucSpn=           2           1           1
 AtZEff=   0.0000000   0.0000000   0.0000000
 NQMom=    2.0440000   0.0000000   0.0000000
 NMagM=    0.4037610   2.7928460   2.7928460
 Leave Link  101 at Mon Sep 16 17:40:59 2024, MaxMem=   13107200 cpu:       0.2
 (Enter /programs/64bit/g09/g09-gfortran/bin/l103.exe)

 GradGradGradGradGradGradGradGradGradGradGradGradGradGradGradGradGradGrad
 Berny optimization.
 Initialization pass.
                           ----------------------------
                           !    Initial Parameters    !
                           ! (Angstroms and Degrees)  !
 --------------------------                            --------------------------
 ! Name  Definition              Value          Derivative Info.                !
 --------------------------------------------------------------------------------
 ! R1    R(1,2)                  1.03           estimate D2E/DX2                !
 ! R2    R(1,3)                  1.03           estimate D2E/DX2                !
 ! A1    A(2,1,3)              109.4712         estimate D2E/DX2                !
 --------------------------------------------------------------------------------
 Trust Radius=3.00D-01 FncErr=1.00D-07 GrdErr=1.00D-06
 Number of steps in this run=  20 maximum allowed number of steps= 100.
 GradGradGradGradGradGradGradGradGradGradGradGradGradGradGradGradGradGrad

 Leave Link  103 at Mon Sep 16 17:40:59 2024, MaxMem=   13107200 cpu:       0.0
 (Enter /programs/64bit/g09/g09-gfortran/bin/l202.exe)
                          Input orientation:                          
 ---------------------------------------------------------------------
 Center     Atomic      Atomic             Coordinates (Angstroms)
 Number     Number       Type             X           Y           Z
 ---------------------------------------------------------------------
      1          7           0        0.000000    0.000000    0.000000
      2          1           0        0.000000    0.000000    1.030000
      3          1           0        0.971093    0.000000   -0.343333
 ---------------------------------------------------------------------
                    Distance matrix (angstroms):
                    1          2          3
     1  N    0.000000
     2  H    1.030000   0.000000
     3  H    1.030000   1.681983   0.000000
 Stoichiometry    H2N(1-)
 Framework group  C2V[C2(N),SGV(H2)]
 Deg. of freedom     2
 Full point group                 C2V     NOp   4
 Largest Abelian subgroup         C2V     NOp   4
 Largest concise Abelian subgroup C2      NOp   2
                         Standard orientation:                         
 ---------------------------------------------------------------------
 Center     Atomic      Atomic             Coordinates (Angstroms)
 Number     Number       Type             X           Y           Z
 ---------------------------------------------------------------------
      1          7           0        0.000000    0.000000    0.132149
      2          1           0       -0.000000    0.840991   -0.462522
      3          1           0       -0.000000   -0.840991   -0.462522
 ---------------------------------------------------------------------
 Rotational constants (GHZ):    811.0607767    354.5021446    246.6814785
 Leave Link  202 at Mon Sep 16 17:40:59 2024, MaxMem=   13107200 cpu:       0.0
 (Enter /programs/64bit/g09/g09-gfortran/bin/l301.exe)
 Standard basis: 6-31+G(d,p) (6D, 7F)
 Ernie: Thresh=  0.10000D-02 Tol=  0.10000D-05 Strict=F.
 There are    14 symmetry adapted basis functions of A1  symmetry.
 There are     2 symmetry adapted basis functions of A2  symmetry.
 There are     5 symmetry adapted basis functions of B1  symmetry.
 There are     8 symmetry adapted basis functions of B2  symmetry.
 Integral buffers will be    131072 words long.
 Raffenetti 2 integral format.
 Two-electron integral symmetry is turned on.
    29 basis functions,    46 primitive gaussians,    29 cartesian basis functions
     5 alpha electrons        5 beta electrons
       nuclear repulsion energy         7.5073150062 Hartrees.
 IExCor=  402 DFT=T Ex+Corr=B3LYP ExCW=0 ScaHFX=  0.200000
 ScaDFX=  0.800000  0.720000  1.000000  0.810000 ScalE2=  1.000000  1.000000
 IRadAn=      0 IRanWt=     -1 IRanGd=            0 ICorTp=0
 NAtoms=    3 NActive=    3 NUniq=    2 SFac= 1.69D+00 NAtFMM=   80 NAOKFM=F Big=F
 Leave Link  301 at Mon Sep 16 17:40:59 2024, MaxMem=   13107200 cpu:       0.1
 (Enter /programs/64bit/g09/g09-gfortran/bin/l302.exe)
 NPDir=0 NMtPBC=     1 NCelOv=     1 NCel=       1 NClECP=     1 NCelD=      1
         NCelK=      1 NCelE2=     1 NClLst=     1 CellRange=     0.0.
 One-electron integrals computed using PRISM.
 One-electron integral symmetry used in STVInt
 NBasis=    29 RedAO= T  NBF=    14     2     5     8
 NBsUse=    29 1.00D-06 NBFU=    14     2     5     8
 Precomputing XC quadrature grid using
 IXCGrd= 2 IRadAn=           0 IRanWt=          -1 IRanGd=           0 AccXCQ= 1.00D-10.
 NRdTot=     189 NPtTot=       23944 NUsed=       25319 NTot=       25351
 NSgBfM=    29    29    29    29    29 NAtAll=     3     3.
 Leave Link  302 at Mon Sep 16 17:40:59 2024, MaxMem=   13107200 cpu:       0.3
 (Enter /programs/64bit/g09/g09-gfortran/bin/l303.exe)
 DipDrv:  MaxL=1.
 Leave Link  303 at Mon Sep 16 17:40:59 2024, MaxMem=   13107200 cpu:       0.0
 (Enter /programs/64bit/g09/g09-gfortran/bin/l401.exe)
 Harris functional with IExCor=  402 diagonalized for initial guess.
 ExpMin= 6.39D-02 ExpMax= 4.17D+03 ExpMxC= 6.27D+02 IAcc=2 IRadAn=         0 AccDes= 0.00D+00
 HarFok:  IExCor=  402 AccDes= 0.00D+00 IRadAn=         0 IDoV= 1
 ScaDFX=  1.000000  1.000000  1.000000  1.000000
 FoFCou: FMM=F IPFlag=           0 FMFlag=      100000 FMFlg1=           0
         NFxFlg=           0 DoJE=T BraDBF=F KetDBF=T FulRan=T
         Omega=  0.000000  0.000000  1.000000  0.000000  0.000000 ICntrl=     500 IOpCl=  0
         NMat0=    1 NMatS0=    1 NMatT0=    0 NMatD0=    1 NMtDS0=    0 NMtDT0=    0
         I1Cent=           4 NGrid=           0.
 Petite list used in FoFCou.
 Harris En= -56.1671040662187    
 Initial guess orbital symmetries:
       Occupied  (A1) (A1) (B2) (A1) (B1)
       Virtual   (A1) (B2) (A1) (B1) (B2) (A1) (B2) (A1) (B1) (B2)
                 (A1) (A1) (A2) (A1) (B1) (A1) (B2) (B2) (B1) (A2)
                 (A1) (A1) (B2) (A1)
 The electronic state of the initial guess is 1-A1.
 Leave Link  401 at Mon Sep 16 17:41:00 2024, MaxMem=   13107200 cpu:       0.4
 (Enter /programs/64bit/g09/g09-gfortran/bin/l502.exe)
 Closed shell SCF:
 Requested convergence on RMS density matrix=1.00D-08 within 128 cycles.
 Requested convergence on MAX density matrix=1.00D-06.
 Requested convergence on             energy=1.00D-06.
 No special actions if energy rises.
 Using DIIS extrapolation, IDIIS=  1040.
 Integral symmetry usage will be decided dynamically.
        25279 words used for storage of precomputed grid.
 Keep R1 ints in memory in canonical form, NReq=999788.
 IEnd=       46404 IEndB=       46404 NGot=    13107200 MDV=    12983449
 LenX=    12983449 LenY=    12982167
 Symmetry not used in FoFDir.
 MinBra= 0 MaxBra= 2 Meth= 1.
 IRaf=       0 NMat=   1 IRICut=       1 DoRegI=T DoRafI=F ISym2E= 0 JSym2E=0.
 Integral accuracy reduced to 1.0D-05 until final iterations.

 Cycle   1  Pass 0  IDiag  1:
 E= -55.6597820656792    
 DIIS: error= 1.07D-01 at cycle   1 NSaved=   1.
 NSaved= 1 IEnMin= 1 EnMin= -55.6597820656792     IErMin= 1 ErrMin= 1.07D-01
 ErrMax= 1.07D-01 EMaxC= 1.00D-01 BMatC= 2.27D-01 BMatP= 2.27D-01
 IDIUse=3 WtCom= 0.00D+00 WtEn= 1.00D+00
 Coeff-Com:  0.100D+01
 Coeff-En:   0.100D+01
 Coeff:      0.100D+01
 Gap=     0.041 Goal=   None    Shift=    0.000
 GapD=    0.041 DampG=0.250 DampE=0.250 DampFc=0.2500 IDamp=-1.
 Damping current iteration by 2.50D-01
 RMSDP=5.38D-02 MaxDP=8.21D-01              OVMax= 6.16D-01

 Cycle   2  Pass 0  IDiag  1:
 E= -55.7302134173994     Delta-E=       -0.070431351720 Rises=F Damp=T
 DIIS: error= 1.91D-02 at cycle   2 NSaved=   2.
 NSaved= 2 IEnMin= 2 EnMin= -55.7302134173994     IErMin= 2 ErrMin= 1.91D-02
 ErrMax= 1.91D-02 EMaxC= 1.00D-01 BMatC= 7.71D-03 BMatP= 2.27D-01
 IDIUse=3 WtCom= 8.09D-01 WtEn= 1.91D-01
 Coeff-Com: -0.187D+00 0.119D+01
 Coeff-En:   0.250D+00 0.750D+00
 Coeff:     -0.103D+00 0.110D+01
 Gap=     0.083 Goal=   None    Shift=    0.000
 RMSDP=1.05D-02 MaxDP=1.31D-01 DE=-7.04D-02 OVMax= 5.80D-01

 Cycle   3  Pass 0  IDiag  1:
 E= -55.9064383443889     Delta-E=       -0.176224926990 Rises=F Damp=F
 DIIS: error= 9.04D-03 at cycle   3 NSaved=   3.
 NSaved= 3 IEnMin= 3 EnMin= -55.9064383443889     IErMin= 3 ErrMin= 9.04D-03
 ErrMax= 9.04D-03 EMaxC= 1.00D-01 BMatC= 1.01D-03 BMatP= 7.71D-03
 IDIUse=3 WtCom= 9.10D-01 WtEn= 9.04D-02
 Coeff-Com: -0.781D-01 0.234D+00 0.845D+00
 Coeff-En:   0.000D+00 0.000D+00 0.100D+01
 Coeff:     -0.710D-01 0.212D+00 0.859D+00
 Gap=     0.169 Goal=   None    Shift=    0.000
 RMSDP=2.02D-03 MaxDP=2.33D-02 DE=-1.76D-01 OVMax= 3.03D-02

 Cycle   4  Pass 0  IDiag  1:
 E= -55.9082631117630     Delta-E=       -0.001824767374 Rises=F Damp=F
 DIIS: error= 1.35D-03 at cycle   4 NSaved=   4.
 NSaved= 4 IEnMin= 4 EnMin= -55.9082631117630     IErMin= 4 ErrMin= 1.35D-03
 ErrMax= 1.35D-03 EMaxC= 1.00D-01 BMatC= 4.22D-05 BMatP= 1.01D-03
 IDIUse=3 WtCom= 9.86D-01 WtEn= 1.35D-02
 Coeff-Com:  0.220D-01-0.341D-01-0.537D-01 0.107D+01
 Coeff-En:   0.000D+00 0.000D+00 0.000D+00 0.100D+01
 Coeff:      0.217D-01-0.337D-01-0.530D-01 0.106D+01
 Gap=     0.170 Goal=   None    Shift=    0.000
 RMSDP=2.53D-04 MaxDP=2.09D-03 DE=-1.82D-03 OVMax= 2.43D-03

 Cycle   5  Pass 0  IDiag  1:
 E= -55.9082739601126     Delta-E=       -0.000010848350 Rises=F Damp=F
 DIIS: error= 1.17D-03 at cycle   5 NSaved=   5.
 NSaved= 5 IEnMin= 5 EnMin= -55.9082739601126     IErMin= 5 ErrMin= 1.17D-03
 ErrMax= 1.17D-03 EMaxC= 1.00D-01 BMatC= 2.16D-05 BMatP= 4.22D-05
 IDIUse=3 WtCom= 9.88D-01 WtEn= 1.17D-02
 Coeff-Com:  0.962D-02-0.158D-01 0.404D-01-0.454D-01 0.101D+01
 Coeff-En:   0.000D+00 0.000D+00 0.000D+00 0.000D+00 0.100D+01
 Coeff:      0.951D-02-0.156D-01 0.400D-01-0.448D-01 0.101D+01
 Gap=     0.171 Goal=   None    Shift=    0.000
 RMSDP=8.72D-05 MaxDP=8.54D-04 DE=-1.08D-05 OVMax= 1.27D-03

 Cycle   6  Pass 0  IDiag  1:
 E= -55.9082935690395     Delta-E=       -0.000019608927 Rises=F Damp=F
 DIIS: error= 4.86D-04 at cycle   6 NSaved=   6.
 NSaved= 6 IEnMin= 6 EnMin= -55.9082935690395     IErMin= 6 ErrMin= 4.86D-04
 ErrMax= 4.86D-04 EMaxC= 1.00D-01 BMatC= 3.48D-06 BMatP= 2.16D-05
 IDIUse=3 WtCom= 9.95D-01 WtEn= 4.86D-03
 Coeff-Com:  0.113D-02-0.176D-02 0.181D-01-0.854D-01-0.213D+00 0.128D+01
 Coeff-En:   0.000D+00 0.000D+00 0.000D+00 0.000D+00 0.000D+00 0.100D+01
 Coeff:      0.113D-02-0.175D-02 0.180D-01-0.850D-01-0.212D+00 0.128D+01
 Gap=     0.171 Goal=   None    Shift=    0.000
 RMSDP=5.51D-05 MaxDP=6.33D-04 DE=-1.96D-05 OVMax= 8.63D-04

 Cycle   7  Pass 0  IDiag  1:
 E= -55.9082974286105     Delta-E=       -0.000003859571 Rises=F Damp=F
 DIIS: error= 4.49D-05 at cycle   7 NSaved=   7.
 NSaved= 7 IEnMin= 7 EnMin= -55.9082974286105     IErMin= 7 ErrMin= 4.49D-05
 ErrMax= 4.49D-05 EMaxC= 1.00D-01 BMatC= 2.73D-08 BMatP= 3.48D-06
 IDIUse=1 WtCom= 1.00D+00 WtEn= 0.00D+00
 Coeff-Com: -0.252D-04 0.198D-03 0.108D-02 0.211D-02-0.111D+00 0.209D+00
 Coeff-Com:  0.898D+00
 Coeff:     -0.252D-04 0.198D-03 0.108D-02 0.211D-02-0.111D+00 0.209D+00
 Coeff:      0.898D+00
 Gap=     0.171 Goal=   None    Shift=    0.000
 RMSDP=6.86D-06 MaxDP=7.90D-05 DE=-3.86D-06 OVMax= 1.07D-04

 Initial convergence to 1.0D-05 achieved.  Increase integral accuracy.
 Cycle   8  Pass 1  IDiag  1:
 E= -55.9083037560540     Delta-E=       -0.000006327443 Rises=F Damp=F
 DIIS: error= 5.35D-06 at cycle   1 NSaved=   1.
 NSaved= 1 IEnMin= 1 EnMin= -55.9083037560540     IErMin= 1 ErrMin= 5.35D-06
 ErrMax= 5.35D-06 EMaxC= 1.00D-01 BMatC= 3.25D-10 BMatP= 3.25D-10
 IDIUse=1 WtCom= 1.00D+00 WtEn= 0.00D+00
 Coeff-Com:  0.100D+01
 Coeff:      0.100D+01
 Gap=     0.171 Goal=   None    Shift=    0.000
 RMSDP=6.86D-06 MaxDP=7.90D-05 DE=-6.33D-06 OVMax= 4.28D-05

 Cycle   9  Pass 1  IDiag  1:
 E= -55.9083037560298     Delta-E=        0.000000000024 Rises=F Damp=F
 DIIS: error= 8.74D-06 at cycle   2 NSaved=   2.
 NSaved= 2 IEnMin= 1 EnMin= -55.9083037560540     IErMin= 1 ErrMin= 5.35D-06
 ErrMax= 8.74D-06 EMaxC= 1.00D-01 BMatC= 1.07D-09 BMatP= 3.25D-10
 IDIUse=1 WtCom= 1.00D+00 WtEn= 0.00D+00
 Coeff-Com:  0.687D+00 0.313D+00
 Coeff:      0.687D+00 0.313D+00
 Gap=     0.171 Goal=   None    Shift=    0.000
 RMSDP=9.23D-07 MaxDP=1.13D-05 DE= 2.42D-11 OVMax= 1.62D-05

 Cycle  10  Pass 1  IDiag  1:
 E= -55.9083037571211     Delta-E=       -0.000000001091 Rises=F Damp=F
 DIIS: error= 4.78D-07 at cycle   3 NSaved=   3.
 NSaved= 3 IEnMin= 3 EnMin= -55.9083037571211     IErMin= 3 ErrMin= 4.78D-07
 ErrMax= 4.78D-07 EMaxC= 1.00D-01 BMatC= 6.10D-12 BMatP= 3.25D-10
 IDIUse=1 WtCom= 1.00D+00 WtEn= 0.00D+00
 Coeff-Com: -0.331D-02 0.367D-01 0.967D+00
 Coeff:     -0.331D-02 0.367D-01 0.967D+00
 Gap=     0.171 Goal=   None    Shift=    0.000
 RMSDP=2.19D-07 MaxDP=2.32D-06 DE=-1.09D-09 OVMax= 2.99D-06

 Cycle  11  Pass 1  IDiag  1:
 E= -55.9083037571319     Delta-E=       -0.000000000011 Rises=F Damp=F
 DIIS: error= 2.76D-07 at cycle   4 NSaved=   4.
 NSaved= 4 IEnMin= 4 EnMin= -55.9083037571319     IErMin= 4 ErrMin= 2.76D-07
 ErrMax= 2.76D-07 EMaxC= 1.00D-01 BMatC= 1.52D-12 BMatP= 6.10D-12
 IDIUse=1 WtCom= 1.00D+00 WtEn= 0.00D+00
 Coeff-Com: -0.142D-01 0.319D-01-0.356D-01 0.102D+01
 Coeff:     -0.142D-01 0.319D-01-0.356D-01 0.102D+01
 Gap=     0.171 Goal=   None    Shift=    0.000
 RMSDP=5.29D-08 MaxDP=4.42D-07 DE=-1.08D-11 OVMax= 9.84D-07

 Cycle  12  Pass 1  IDiag  1:
 E= -55.9083037571338     Delta-E=       -0.000000000002 Rises=F Damp=F
 DIIS: error= 2.73D-08 at cycle   5 NSaved=   5.
 NSaved= 5 IEnMin= 5 EnMin= -55.9083037571338     IErMin= 5 ErrMin= 2.73D-08
 ErrMax= 2.73D-08 EMaxC= 1.00D-01 BMatC= 1.67D-14 BMatP= 1.52D-12
 IDIUse=1 WtCom= 1.00D+00 WtEn= 0.00D+00
 Coeff-Com: -0.151D-02 0.449D-02-0.216D-01 0.664D-01 0.952D+00
 Coeff:     -0.151D-02 0.449D-02-0.216D-01 0.664D-01 0.952D+00
 Gap=     0.171 Goal=   None    Shift=    0.000
 RMSDP=5.23D-09 MaxDP=4.73D-08 DE=-1.90D-12 OVMax= 1.00D-07

 SCF Done:  E(RB3LYP) =  -55.9083037571     A.U. after   12 cycles
             Convg  =    0.5226D-08             -V/T =  2.0098
 KE= 5.536826995577D+01 PE=-1.484767142578D+02 EE= 2.969282553871D+01
 Leave Link  502 at Mon Sep 16 17:41:01 2024, MaxMem=   13107200 cpu:       1.1
 (Enter /programs/64bit/g09/g09-gfortran/bin/l601.exe)
 Copying SCF densities to generalized density rwf, IOpCl= 0 IROHF=0.

 **********************************************************************

            Population analysis using the SCF density.

 **********************************************************************

 Orbital symmetries:
       Occupied  (A1) (A1) (B2) (A1) (B1)
       Virtual   (A1) (B2) (A1) (B1) (B2) (A1) (B2) (A1) (B1) (B2)
                 (A1) (A1) (A2) (A1) (B1) (A1) (B2) (B2) (B1) (A2)
                 (A1) (A1) (B2) (A1)
 The electronic state is 1-A1.
 Alpha  occ. eigenvalues --  -14.01220  -0.49690  -0.16188   0.00828   0.06855
 Alpha virt. eigenvalues --    0.23990   0.28817   0.31869   0.32503   0.45441
 Alpha virt. eigenvalues --    0.46206   1.12520   1.15653   1.16959   1.19963
 Alpha virt. eigenvalues --    1.26338   1.33855   1.78659   1.83158   1.92366
 Alpha virt. eigenvalues --    2.40147   2.43258   2.64995   2.82863   2.87762
 Alpha virt. eigenvalues --    3.18425   3.53024   3.68436   4.14082
          Condensed to atoms (all electrons):
              1          2          3
     1  N    7.772233   0.298831   0.298831
     2  H    0.298831   0.558748  -0.042526
     3  H    0.298831  -0.042526   0.558748
 Mulliken atomic charges:
              1
     1  N   -1.369894
     2  H    0.184947
     3  H    0.184947
 Sum of Mulliken atomic charges =  -1.00000
 Mulliken charges with hydrogens summed into heavy atoms:
              1
     1  N   -1.000000
 Sum of Mulliken charges with hydrogens summed into heavy atoms =  -1.00000
 Electronic spatial extent (au):  <R**2>=             34.6109
 Charge=             -1.0000 electrons
 Dipole moment (field-independent basis, Debye):
    X=             -0.0000    Y=              0.0000    Z=             -2.2798  Tot=              2.2798
 Quadrupole moment (field-independent basis, Debye-Ang):
   XX=            -14.8788   YY=             -9.4476   ZZ=            -12.7898
   XY=              0.0000   XZ=              0.0000   YZ=             -0.0000
 Traceless Quadrupole moment (field-independent basis, Debye-Ang):
   XX=             -2.5068   YY=              2.9245   ZZ=             -0.4177
   XY=              0.0000   XZ=              0.0000   YZ=             -0.0000
 Octapole moment (field-independent basis, Debye-Ang**2):
  XXX=              0.0000  YYY=              0.0000  ZZZ=             -3.7366  XYY=              0.0000
  XXY=              0.0000  XXZ=             -1.5305  XZZ=              0.0000  YZZ=             -0.0000
  YYZ=             -1.2605  XYZ=             -0.0000
 Hexadecapole moment (field-independent basis, Debye-Ang**3):
 XXXX=            -35.7935 YYYY=            -20.7917 ZZZZ=            -28.8843 XXXY=             -0.0000
 XXXZ=             -0.0000 YYYX=             -0.0000 YYYZ=             -0.0000 ZZZX=             -0.0000
 ZZZY=             -0.0000 XXYY=             -9.6369 XXZZ=            -10.8415 YYZZ=             -8.1597
 XXYZ=             -0.0000 YYXZ=             -0.0000 ZZXY=             -0.0000
 N-N= 7.507315006213D+00 E-N=-1.484767133850D+02  KE= 5.536826995577D+01
 Symmetry A1   KE= 5.037829948248D+01
 Symmetry A2   KE= 1.776901265691D-35
 Symmetry B1   KE= 2.551728309672D+00
 Symmetry B2   KE= 2.438242163617D+00
 No NMR shielding tensors so no spin-rotation constants.
 Leave Link  601 at Mon Sep 16 17:41:01 2024, MaxMem=   13107200 cpu:       0.2
 (Enter /programs/64bit/g09/g09-gfortran/bin/l701.exe)
 Compute integral first derivatives.
 ... and contract with generalized density number  0.
 Leave Link  701 at Mon Sep 16 17:41:02 2024, MaxMem=   13107200 cpu:       0.3
 (Enter /programs/64bit/g09/g09-gfortran/bin/l702.exe)
 L702 exits ... SP integral derivatives will be done elsewhere.
 Leave Link  702 at Mon Sep 16 17:41:02 2024, MaxMem=   13107200 cpu:       0.0
 (Enter /programs/64bit/g09/g09-gfortran/bin/l703.exe)
 Compute integral first derivatives, UseDBF=F ICtDFT=           0.
 Integral derivatives from FoFDir, PRISM(SPDF).
 Calling FoFJK, ICntrl=      2127 FMM=F ISym2X=1 I1Cent= 0 IOpClX= 0 NMat=1 NMatS=1 NMatT=0.
 FoFCou: FMM=F IPFlag=           0 FMFlag=      100000 FMFlg1=         800
         NFxFlg=           0 DoJE=F BraDBF=F KetDBF=F FulRan=T
         Omega=  0.000000  0.000000  1.000000  0.000000  0.000000 ICntrl=    2127 IOpCl=  0
         NMat0=    1 NMatS0=    1 NMatT0=    0 NMatD0=    1 NMtDS0=    0 NMtDT0=    0
         I1Cent=           0 NGrid=           0.
 Petite list used in FoFCou.
 Leave Link  703 at Mon Sep 16 17:41:02 2024, MaxMem=   13107200 cpu:       0.7
 (Enter /programs/64bit/g09/g09-gfortran/bin/l716.exe)
 Dipole        =-2.66422458D-17 0.00000000D+00-8.96939282D-01
 ***** Axes restored to original set *****
 -------------------------------------------------------------------
 Center     Atomic                   Forces (Hartrees/Bohr)
 Number     Number              X              Y              Z
 -------------------------------------------------------------------
      1        7          -0.009269188    0.000000000   -0.006554306
      2        1           0.008352305   -0.000000000   -0.001980484
      3        1           0.000916883   -0.000000000    0.008534790
 -------------------------------------------------------------------
 Cartesian Forces:  Max     0.009269188 RMS     0.005540190
 Leave Link  716 at Mon Sep 16 17:41:02 2024, MaxMem=   13107200 cpu:       0.0
 (Enter /programs/64bit/g09/g09-gfortran/bin/l103.exe)

 GradGradGradGradGradGradGradGradGradGradGradGradGradGradGradGradGradGrad
 Berny optimization.
 Internal  Forces:  Max     0.016257076 RMS     0.009524305
 Search for a local minimum.
 Step number   1 out of a maximum of   20
 All quantities printed in internal units (Hartrees-Bohrs-Radians)
 RMS Force = .95243D-02 SwitMx=.10000D-02 MixMth= 1
 Mixed Optimization -- RFO/linear search
 Second derivative matrix not updated -- first step.
 The second derivative matrix:
                          R1        R2        A1
           R1           0.42780
           R2           0.00000   0.42780
           A1           0.00000   0.00000   0.16000
     Eigenvalues ---    0.16000   0.42780   0.42780
 RFO step:  Lambda=-1.65320341D-03 EMin= 1.60000000D-01
 Linear search not attempted -- first point.
 Iteration  1 RMS(Cart)=  0.06119145 RMS(Int)=  0.00201345
 Iteration  2 RMS(Cart)=  0.00170745 RMS(Int)=  0.00000008
 Iteration  3 RMS(Cart)=  0.00000008 RMS(Int)=  0.00000000
 ClnCor:  largest displacement from symmetrization is 4.21D-15 for atom     3.
 Variable       Old X    -DE/DX   Delta X   Delta X   Delta X     New X
                                 (Linear)    (Quad)   (Total)
    R1        1.94642  -0.00198   0.00000  -0.00461  -0.00461   1.94181
    R2        1.94642  -0.00198   0.00000  -0.00461  -0.00461   1.94181
    A1        1.91063  -0.01626   0.00000  -0.10057  -0.10057   1.81007
         Item               Value     Threshold  Converged?
 Maximum Force            0.016257     0.000450     NO 
 RMS     Force            0.009524     0.000300     NO 
 Maximum Displacement     0.065271     0.001800     NO 
 RMS     Displacement     0.061991     0.001200     NO 
 Predicted change in Energy=-8.349961D-04
 GradGradGradGradGradGradGradGradGradGradGradGradGradGradGradGradGradGrad

 Leave Link  103 at Mon Sep 16 17:41:03 2024, MaxMem=   13107200 cpu:       0.0
 (Enter /programs/64bit/g09/g09-gfortran/bin/l202.exe)
                          Input orientation:                          
 ---------------------------------------------------------------------
 Center     Atomic      Atomic             Coordinates (Angstroms)
 Number     Number       Type             X           Y           Z
 ---------------------------------------------------------------------
      1          7           0       -0.021779   -0.000000   -0.015400
      2          1           0        0.029868   -0.000000    1.010860
      3          1           0        0.963004    0.000000   -0.308793
 ---------------------------------------------------------------------
                    Distance matrix (angstroms):
                    1          2          3
     1  N    0.000000
     2  H    1.027560   0.000000
     3  H    1.027560   1.616239   0.000000
 Stoichiometry    H2N(1-)
 Framework group  C2V[C2(N),SGV(H2)]
 Deg. of freedom     2
 Full point group                 C2V     NOp   4
 Largest Abelian subgroup         C2V     NOp   4
 Largest concise Abelian subgroup C2      NOp   2
                         Standard orientation:                         
 ---------------------------------------------------------------------
 Center     Atomic      Atomic             Coordinates (Angstroms)
 Number     Number       Type             X           Y           Z
 ---------------------------------------------------------------------
      1          7           0       -0.000000    0.000000    0.141041
      2          1           0       -0.000000    0.808120   -0.493642
      3          1           0       -0.000000   -0.808120   -0.493642
 ---------------------------------------------------------------------
 Rotational constants (GHZ):    712.0227797    383.9289014    249.4326422
 Leave Link  202 at Mon Sep 16 17:41:03 2024, MaxMem=   13107200 cpu:       0.0
 (Enter /programs/64bit/g09/g09-gfortran/bin/l301.exe)
 Standard basis: 6-31+G(d,p) (6D, 7F)
 Ernie: Thresh=  0.10000D-02 Tol=  0.10000D-05 Strict=F.
 There are    14 symmetry adapted basis functions of A1  symmetry.
 There are     2 symmetry adapted basis functions of A2  symmetry.
 There are     5 symmetry adapted basis functions of B1  symmetry.
 There are     8 symmetry adapted basis functions of B2  symmetry.
 Integral buffers will be    131072 words long.
 Raffenetti 2 integral format.
 Two-electron integral symmetry is turned on.
    29 basis functions,    46 primitive gaussians,    29 cartesian basis functions
     5 alpha electrons        5 beta electrons
       nuclear repulsion energy         7.5371946556 Hartrees.
 IExCor=  402 DFT=T Ex+Corr=B3LYP ExCW=0 ScaHFX=  0.200000
 ScaDFX=  0.800000  0.720000  1.000000  0.810000 ScalE2=  1.000000  1.000000
 IRadAn=      0 IRanWt=     -1 IRanGd=            0 ICorTp=0
 NAtoms=    3 NActive=    3 NUniq=    2 SFac= 1.69D+00 NAtFMM=   80 NAOKFM=F Big=F
 Leave Link  301 at Mon Sep 16 17:41:03 2024, MaxMem=   13107200 cpu:       0.1
 (Enter /programs/64bit/g09/g09-gfortran/bin/l302.exe)
 NPDir=0 NMtPBC=     1 NCelOv=     1 NCel=       1 NClECP=     1 NCelD=      1
         NCelK=      1 NCelE2=     1 NClLst=     1 CellRange=     0.0.
 One-electron integrals computed using PRISM.
 One-electron integral symmetry used in STVInt
 NBasis=    29 RedAO= T  NBF=    14     2     5     8
 NBsUse=    29 1.00D-06 NBFU=    14     2     5     8
 Precomputing XC quadrature grid using
 IXCGrd= 2 IRadAn=           0 IRanWt=          -1 IRanGd=           0 AccXCQ= 1.00D-10.
 NRdTot=     189 NPtTot=       23944 NUsed=       25319 NTot=       25351
 NSgBfM=    29    29    29    29    29 NAtAll=     3     3.
 Leave Link  302 at Mon Sep 16 17:41:03 2024, MaxMem=   13107200 cpu:       0.3
 (Enter /programs/64bit/g09/g09-gfortran/bin/l303.exe)
 DipDrv:  MaxL=1.
 Leave Link  303 at Mon Sep 16 17:41:03 2024, MaxMem=   13107200 cpu:       0.0
 (Enter /programs/64bit/g09/g09-gfortran/bin/l401.exe)
 Initial guess read from the read-write file.
 B after Tr=     0.000000    0.000000    0.000000
         Rot=    1.000000    0.000000    0.000000    0.000000 Ang=   0.00 deg.
 Guess basis will be translated and rotated to current coordinates.
 Initial guess orbital symmetries:
       Occupied  (A1) (A1) (B2) (A1) (B1)
       Virtual   (A1) (B2) (A1) (B1) (B2) (A1) (B2) (A1) (B1) (B2)
                 (A1) (A1) (A2) (A1) (B1) (A1) (B2) (B2) (B1) (A2)
                 (A1) (A1) (B2) (A1)
 The electronic state of the initial guess is 1-A1.
 Generating alternative initial guess.
 Harris functional with IExCor=  402 diagonalized for initial guess.
 ExpMin= 6.39D-02 ExpMax= 4.17D+03 ExpMxC= 6.27D+02 IAcc=2 IRadAn=         0 AccDes= 0.00D+00
 HarFok:  IExCor=  402 AccDes= 0.00D+00 IRadAn=         0 IDoV= 1
 ScaDFX=  1.000000  1.000000  1.000000  1.000000
 FoFCou: FMM=F IPFlag=           0 FMFlag=      100000 FMFlg1=           0
         NFxFlg=           0 DoJE=T BraDBF=F KetDBF=T FulRan=T
         Omega=  0.000000  0.000000  1.000000  0.000000  0.000000 ICntrl=     500 IOpCl=  0
         NMat0=    1 NMatS0=    1 NMatT0=    0 NMatD0=    1 NMtDS0=    0 NMtDT0=    0
         I1Cent=           4 NGrid=           0.
 Petite list used in FoFCou.
 Harris En= -56.1683124514703    
 Leave Link  401 at Mon Sep 16 17:41:03 2024, MaxMem=   13107200 cpu:       0.5
 (Enter /programs/64bit/g09/g09-gfortran/bin/l502.exe)
 Closed shell SCF:
 Requested convergence on RMS density matrix=1.00D-08 within 128 cycles.
 Requested convergence on MAX density matrix=1.00D-06.
 Requested convergence on             energy=1.00D-06.
 No special actions if energy rises.
 Using DIIS extrapolation, IDIIS=  1040.
 Integral symmetry usage will be decided dynamically.
        25279 words used for storage of precomputed grid.
 Keep R1 ints in memory in canonical form, NReq=999788.
 IEnd=       46404 IEndB=       46404 NGot=    13107200 MDV=    12983449
 LenX=    12983449 LenY=    12982167
 Symmetry not used in FoFDir.
 MinBra= 0 MaxBra= 2 Meth= 1.
 IRaf=       0 NMat=   1 IRICut=       1 DoRegI=T DoRafI=F ISym2E= 0 JSym2E=0.
 Integral accuracy reduced to 1.0D-05 until final iterations.

 Cycle   1  Pass 0  IDiag  1:
 E= -55.9088216705658    
 DIIS: error= 3.78D-03 at cycle   1 NSaved=   1.
 NSaved= 1 IEnMin= 1 EnMin= -55.9088216705658     IErMin= 1 ErrMin= 3.78D-03
 ErrMax= 3.78D-03 EMaxC= 1.00D-01 BMatC= 2.36D-04 BMatP= 2.36D-04
 IDIUse=3 WtCom= 9.62D-01 WtEn= 3.78D-02
 Coeff-Com:  0.100D+01
 Coeff-En:   0.100D+01
 Coeff:      0.100D+01
 Gap=     0.170 Goal=   None    Shift=    0.000
 GapD=    0.170 DampG=1.000 DampE=1.000 DampFc=1.0000 IDamp=-1.
 RMSDP=1.24D-03 MaxDP=1.14D-02              OVMax= 1.34D-02

 Cycle   2  Pass 0  IDiag  1:
 E= -55.9091934165333     Delta-E=       -0.000371745968 Rises=F Damp=F
 DIIS: error= 7.67D-04 at cycle   2 NSaved=   2.
 NSaved= 2 IEnMin= 2 EnMin= -55.9091934165333     IErMin= 2 ErrMin= 7.67D-04
 ErrMax= 7.67D-04 EMaxC= 1.00D-01 BMatC= 9.06D-06 BMatP= 2.36D-04
 IDIUse=3 WtCom= 9.92D-01 WtEn= 7.67D-03
 Coeff-Com:  0.831D-02 0.992D+00
 Coeff-En:   0.000D+00 0.100D+01
 Coeff:      0.825D-02 0.992D+00
 Gap=     0.168 Goal=   None    Shift=    0.000
 RMSDP=2.95D-04 MaxDP=3.33D-03 DE=-3.72D-04 OVMax= 4.73D-03

 Cycle   3  Pass 0  IDiag  1:
 E= -55.9091673197824     Delta-E=        0.000026096751 Rises=F Damp=F
 DIIS: error= 1.54D-03 at cycle   3 NSaved=   3.
 NSaved= 3 IEnMin= 2 EnMin= -55.9091934165333     IErMin= 2 ErrMin= 7.67D-04
 ErrMax= 1.54D-03 EMaxC= 1.00D-01 BMatC= 3.94D-05 BMatP= 9.06D-06
 IDIUse=3 WtCom= 2.03D-01 WtEn= 7.97D-01
 Coeff-Com: -0.279D-01 0.702D+00 0.326D+00
 Coeff-En:   0.000D+00 0.735D+00 0.265D+00
 Coeff:     -0.566D-02 0.729D+00 0.277D+00
 Gap=     0.169 Goal=   None    Shift=    0.000
 RMSDP=1.47D-04 MaxDP=1.69D-03 DE= 2.61D-05 OVMax= 2.45D-03

 Cycle   4  Pass 0  IDiag  1:
 E= -55.9092051153122     Delta-E=       -0.000037795530 Rises=F Damp=F
 DIIS: error= 1.67D-04 at cycle   4 NSaved=   4.
 NSaved= 4 IEnMin= 4 EnMin= -55.9092051153122     IErMin= 4 ErrMin= 1.67D-04
 ErrMax= 1.67D-04 EMaxC= 1.00D-01 BMatC= 5.66D-07 BMatP= 9.06D-06
 IDIUse=3 WtCom= 9.98D-01 WtEn= 1.67D-03
 Coeff-Com: -0.977D-02 0.115D+00-0.571D-01 0.952D+00
 Coeff-En:   0.000D+00 0.000D+00 0.000D+00 0.100D+01
 Coeff:     -0.975D-02 0.114D+00-0.570D-01 0.952D+00
 Gap=     0.169 Goal=   None    Shift=    0.000
 RMSDP=2.70D-05 MaxDP=1.89D-04 DE=-3.78D-05 OVMax= 4.00D-04

 Cycle   5  Pass 0  IDiag  1:
 E= -55.9092057115327     Delta-E=       -0.000000596220 Rises=F Damp=F
 DIIS: error= 7.24D-06 at cycle   5 NSaved=   5.
 NSaved= 5 IEnMin= 5 EnMin= -55.9092057115327     IErMin= 5 ErrMin= 7.24D-06
 ErrMax= 7.24D-06 EMaxC= 1.00D-01 BMatC= 1.45D-09 BMatP= 5.66D-07
 IDIUse=1 WtCom= 1.00D+00 WtEn= 0.00D+00
 Coeff-Com:  0.224D-03-0.155D-01-0.181D-01 0.791D-01 0.954D+00
 Coeff:      0.224D-03-0.155D-01-0.181D-01 0.791D-01 0.954D+00
 Gap=     0.169 Goal=   None    Shift=    0.000
 RMSDP=4.73D-06 MaxDP=3.27D-05 DE=-5.96D-07 OVMax= 6.51D-05

 Initial convergence to 1.0D-05 achieved.  Increase integral accuracy.
 Cycle   6  Pass 1  IDiag  1:
 E= -55.9092084573503     Delta-E=       -0.000002745818 Rises=F Damp=F
 DIIS: error= 2.55D-06 at cycle   1 NSaved=   1.
 NSaved= 1 IEnMin= 1 EnMin= -55.9092084573503     IErMin= 1 ErrMin= 2.55D-06
 ErrMax= 2.55D-06 EMaxC= 1.00D-01 BMatC= 1.18D-10 BMatP= 1.18D-10
 IDIUse=1 WtCom= 1.00D+00 WtEn= 0.00D+00
 Coeff-Com:  0.100D+01
 Coeff:      0.100D+01
 Gap=     0.169 Goal=   None    Shift=    0.000
 RMSDP=4.73D-06 MaxDP=3.27D-05 DE=-2.75D-06 OVMax= 1.93D-05

 Cycle   7  Pass 1  IDiag  1:
 E= -55.9092084576658     Delta-E=       -0.000000000315 Rises=F Damp=F
 DIIS: error= 1.20D-06 at cycle   2 NSaved=   2.
 NSaved= 2 IEnMin= 2 EnMin= -55.9092084576658     IErMin= 2 ErrMin= 1.20D-06
 ErrMax= 1.20D-06 EMaxC= 1.00D-01 BMatC= 2.21D-11 BMatP= 1.18D-10
 IDIUse=1 WtCom= 1.00D+00 WtEn= 0.00D+00
 Coeff-Com:  0.135D+00 0.865D+00
 Coeff:      0.135D+00 0.865D+00
 Gap=     0.169 Goal=   None    Shift=    0.000
 RMSDP=3.92D-07 MaxDP=4.20D-06 DE=-3.15D-10 OVMax= 6.05D-06

 Cycle   8  Pass 1  IDiag  1:
 E= -55.9092084576262     Delta-E=        0.000000000040 Rises=F Damp=F
 DIIS: error= 2.01D-06 at cycle   3 NSaved=   3.
 NSaved= 3 IEnMin= 2 EnMin= -55.9092084576658     IErMin= 2 ErrMin= 1.20D-06
 ErrMax= 2.01D-06 EMaxC= 1.00D-01 BMatC= 6.86D-11 BMatP= 2.21D-11
 IDIUse=1 WtCom= 1.00D+00 WtEn= 0.00D+00
 Coeff-Com:  0.221D-01 0.629D+00 0.349D+00
 Coeff:      0.221D-01 0.629D+00 0.349D+00
 Gap=     0.169 Goal=   None    Shift=    0.000
 RMSDP=2.24D-07 MaxDP=2.49D-06 DE= 3.96D-11 OVMax= 3.63D-06

 Cycle   9  Pass 1  IDiag  1:
 E= -55.9092084576923     Delta-E=       -0.000000000066 Rises=F Damp=F
 DIIS: error= 6.21D-08 at cycle   4 NSaved=   4.
 NSaved= 4 IEnMin= 4 EnMin= -55.9092084576923     IErMin= 4 ErrMin= 6.21D-08
 ErrMax= 6.21D-08 EMaxC= 1.00D-01 BMatC= 8.57D-14 BMatP= 2.21D-11
 IDIUse=1 WtCom= 1.00D+00 WtEn= 0.00D+00
 Coeff-Com: -0.117D-01 0.645D-01 0.447D-01 0.903D+00
 Coeff:     -0.117D-01 0.645D-01 0.447D-01 0.903D+00
 Gap=     0.169 Goal=   None    Shift=    0.000
 RMSDP=2.90D-08 MaxDP=2.84D-07 DE=-6.61D-11 OVMax= 3.02D-07

 Cycle  10  Pass 1  IDiag  1:
 E= -55.9092084576924     Delta-E=       -0.000000000000 Rises=F Damp=F
 DIIS: error= 3.03D-08 at cycle   5 NSaved=   5.
 NSaved= 5 IEnMin= 5 EnMin= -55.9092084576924     IErMin= 5 ErrMin= 3.03D-08
 ErrMax= 3.03D-08 EMaxC= 1.00D-01 BMatC= 1.78D-14 BMatP= 8.57D-14
 IDIUse=1 WtCom= 1.00D+00 WtEn= 0.00D+00
 Coeff-Com: -0.214D-02 0.229D-04-0.966D-02 0.183D+00 0.828D+00
 Coeff:     -0.214D-02 0.229D-04-0.966D-02 0.183D+00 0.828D+00
 Gap=     0.169 Goal=   None    Shift=    0.000
 RMSDP=5.13D-09 MaxDP=4.19D-08 DE=-1.28D-13 OVMax= 6.07D-08

 SCF Done:  E(RB3LYP) =  -55.9092084577     A.U. after   10 cycles
             Convg  =    0.5135D-08             -V/T =  2.0093
 KE= 5.539173545756D+01 PE=-1.485605404215D+02 EE= 2.972240185062D+01
 Leave Link  502 at Mon Sep 16 17:41:04 2024, MaxMem=   13107200 cpu:       1.0
 (Enter /programs/64bit/g09/g09-gfortran/bin/l701.exe)
 Compute integral first derivatives.
 ... and contract with generalized density number  0.
 Leave Link  701 at Mon Sep 16 17:41:05 2024, MaxMem=   13107200 cpu:       0.3
 (Enter /programs/64bit/g09/g09-gfortran/bin/l702.exe)
 L702 exits ... SP integral derivatives will be done elsewhere.
 Leave Link  702 at Mon Sep 16 17:41:05 2024, MaxMem=   13107200 cpu:       0.0
 (Enter /programs/64bit/g09/g09-gfortran/bin/l703.exe)
 Compute integral first derivatives, UseDBF=F ICtDFT=           0.
 Integral derivatives from FoFDir, PRISM(SPDF).
 Calling FoFJK, ICntrl=      2127 FMM=F ISym2X=1 I1Cent= 0 IOpClX= 0 NMat=1 NMatS=1 NMatT=0.
 FoFCou: FMM=F IPFlag=           0 FMFlag=      100000 FMFlg1=         800
         NFxFlg=           0 DoJE=F BraDBF=F KetDBF=F FulRan=T
         Omega=  0.000000  0.000000  1.000000  0.000000  0.000000 ICntrl=    2127 IOpCl=  0
         NMat0=    1 NMatS0=    1 NMatT0=    0 NMatD0=    1 NMtDS0=    0 NMtDT0=    0
         I1Cent=           0 NGrid=           0.
 Petite list used in FoFCou.
 Leave Link  703 at Mon Sep 16 17:41:06 2024, MaxMem=   13107200 cpu:       0.7
 (Enter /programs/64bit/g09/g09-gfortran/bin/l716.exe)
 Dipole        =-2.45728190D-17-2.22044605D-16-9.32982090D-01
 ***** Axes restored to original set *****
 -------------------------------------------------------------------
 Center     Atomic                   Forces (Hartrees/Bohr)
 Number     Number              X              Y              Z
 -------------------------------------------------------------------
      1        7          -0.004366971    0.000000000   -0.003087915
      2        1           0.000991922   -0.000000000    0.003229083
      3        1           0.003375049   -0.000000000   -0.000141168
 -------------------------------------------------------------------
 Cartesian Forces:  Max     0.004366971 RMS     0.002390430
 Leave Link  716 at Mon Sep 16 17:41:06 2024, MaxMem=   13107200 cpu:       0.1
 (Enter /programs/64bit/g09/g09-gfortran/bin/l103.exe)

 GradGradGradGradGradGradGradGradGradGradGradGradGradGradGradGradGradGrad
 Berny optimization.
 Using GEDIIS/GDIIS optimizer.
 Internal  Forces:  Max     0.003274858 RMS     0.002830591
 Search for a local minimum.
 Step number   2 out of a maximum of   20
 All quantities printed in internal units (Hartrees-Bohrs-Radians)
 RMS Force = .28306D-02 SwitMx=.10000D-02 MixMth= 1
 Mixed Optimization -- RFO/linear search
 Update second derivatives using D2CorX and points    1    2
 DE= -9.05D-04 DEPred=-8.35D-04 R= 1.08D+00
 SS=  1.41D+00  RLast= 1.01D-01 DXNew= 5.0454D-01 3.0234D-01
 Trust test= 1.08D+00 RLast= 1.01D-01 DXMaxT set to 3.02D-01
 The second derivative matrix:
                          R1        R2        A1
           R1           0.44357
           R2           0.01577   0.44357
           A1           0.03119   0.03119   0.14280
 Use linear search instead of GDIIS.
     Eigenvalues ---    0.13677   0.42780   0.46538
 RFO step:  Lambda=-6.50369780D-05 EMin= 1.36765308D-01
 Quartic linear search produced a step of  0.08210.
 Iteration  1 RMS(Cart)=  0.00774053 RMS(Int)=  0.00005334
 Iteration  2 RMS(Cart)=  0.00006186 RMS(Int)=  0.00000000
 Iteration  3 RMS(Cart)=  0.00000000 RMS(Int)=  0.00000000
 ClnCor:  largest displacement from symmetrization is 2.85D-15 for atom     1.
 Variable       Old X    -DE/DX   Delta X   Delta X   Delta X     New X
                                 (Linear)    (Quad)   (Total)
    R1        1.94181   0.00327  -0.00038   0.00849   0.00811   1.94992
    R2        1.94181   0.00327  -0.00038   0.00849   0.00811   1.94992
    A1        1.81007  -0.00161  -0.00826  -0.00609  -0.01434   1.79572
         Item               Value     Threshold  Converged?
 Maximum Force            0.003275     0.000450     NO 
 RMS     Force            0.002831     0.000300     NO 
 Maximum Displacement     0.008696     0.001800     NO 
 RMS     Displacement     0.007762     0.001200     NO 
 Predicted change in Energy=-3.854579D-05
 GradGradGradGradGradGradGradGradGradGradGradGradGradGradGradGradGradGrad

 Leave Link  103 at Mon Sep 16 17:41:06 2024, MaxMem=   13107200 cpu:       0.0
 (Enter /programs/64bit/g09/g09-gfortran/bin/l202.exe)
                          Input orientation:                          
 ---------------------------------------------------------------------
 Center     Atomic      Atomic             Coordinates (Angstroms)
 Number     Number       Type             X           Y           Z
 ---------------------------------------------------------------------
      1          7           0       -0.026381   -0.000000   -0.018654
      2          1           0        0.032872   -0.000000    1.011494
      3          1           0        0.964603    0.000000   -0.306172
 ---------------------------------------------------------------------
                    Distance matrix (angstroms):
                    1          2          3
     1  N    0.000000
     2  H    1.031851   0.000000
     3  H    1.031851   1.613805   0.000000
 Stoichiometry    H2N(1-)
 Framework group  C2V[C2(N),SGV(H2)]
 Deg. of freedom     2
 Full point group                 C2V     NOp   4
 Largest Abelian subgroup         C2V     NOp   4
 Largest concise Abelian subgroup C2      NOp   2
                         Standard orientation:                         
 ---------------------------------------------------------------------
 Center     Atomic      Atomic             Coordinates (Angstroms)
 Number     Number       Type             X           Y           Z
 ---------------------------------------------------------------------
      1          7           0       -0.000000    0.000000    0.142919
      2          1           0       -0.000000    0.806902   -0.500217
      3          1           0       -0.000000   -0.806902   -0.500217
 ---------------------------------------------------------------------
 Rotational constants (GHZ):    693.4263571    385.0881747    247.5908134
 Leave Link  202 at Mon Sep 16 17:41:06 2024, MaxMem=   13107200 cpu:       0.0
 (Enter /programs/64bit/g09/g09-gfortran/bin/l301.exe)
 Standard basis: 6-31+G(d,p) (6D, 7F)
 Ernie: Thresh=  0.10000D-02 Tol=  0.10000D-05 Strict=F.
 There are    14 symmetry adapted basis functions of A1  symmetry.
 There are     2 symmetry adapted basis functions of A2  symmetry.
 There are     5 symmetry adapted basis functions of B1  symmetry.
 There are     8 symmetry adapted basis functions of B2  symmetry.
 Integral buffers will be    131072 words long.
 Raffenetti 2 integral format.
 Two-electron integral symmetry is turned on.
    29 basis functions,    46 primitive gaussians,    29 cartesian basis functions
     5 alpha electrons        5 beta electrons
       nuclear repulsion energy         7.5077062529 Hartrees.
 IExCor=  402 DFT=T Ex+Corr=B3LYP ExCW=0 ScaHFX=  0.200000
 ScaDFX=  0.800000  0.720000  1.000000  0.810000 ScalE2=  1.000000  1.000000
 IRadAn=      0 IRanWt=     -1 IRanGd=            0 ICorTp=0
 NAtoms=    3 NActive=    3 NUniq=    2 SFac= 1.69D+00 NAtFMM=   80 NAOKFM=F Big=F
 Leave Link  301 at Mon Sep 16 17:41:06 2024, MaxMem=   13107200 cpu:       0.1
 (Enter /programs/64bit/g09/g09-gfortran/bin/l302.exe)
 NPDir=0 NMtPBC=     1 NCelOv=     1 NCel=       1 NClECP=     1 NCelD=      1
         NCelK=      1 NCelE2=     1 NClLst=     1 CellRange=     0.0.
 One-electron integrals computed using PRISM.
 One-electron integral symmetry used in STVInt
 NBasis=    29 RedAO= T  NBF=    14     2     5     8
 NBsUse=    29 1.00D-06 NBFU=    14     2     5     8
 Precomputing XC quadrature grid using
 IXCGrd= 2 IRadAn=           0 IRanWt=          -1 IRanGd=           0 AccXCQ= 1.00D-10.
 NRdTot=     189 NPtTot=       23944 NUsed=       25319 NTot=       25351
 NSgBfM=    29    29    29    29    29 NAtAll=     3     3.
 Leave Link  302 at Mon Sep 16 17:41:06 2024, MaxMem=   13107200 cpu:       0.3
 (Enter /programs/64bit/g09/g09-gfortran/bin/l303.exe)
 DipDrv:  MaxL=1.
 Leave Link  303 at Mon Sep 16 17:41:06 2024, MaxMem=   13107200 cpu:       0.0
 (Enter /programs/64bit/g09/g09-gfortran/bin/l401.exe)
 Initial guess read from the read-write file.
 B after Tr=     0.000000    0.000000    0.000000
         Rot=    1.000000    0.000000    0.000000    0.000000 Ang=   0.00 deg.
 Guess basis will be translated and rotated to current coordinates.
 Initial guess orbital symmetries:
       Occupied  (A1) (A1) (B2) (A1) (B1)
       Virtual   (A1) (B2) (A1) (B1) (B2) (A1) (B2) (A1) (B1) (B2)
                 (A1) (A1) (A1) (A2) (B1) (A1) (B2) (B2) (A2) (B1)
                 (A1) (A1) (B2) (A1)
 The electronic state of the initial guess is 1-A1.
 Leave Link  401 at Mon Sep 16 17:41:06 2024, MaxMem=   13107200 cpu:       0.2
 (Enter /programs/64bit/g09/g09-gfortran/bin/l502.exe)
 Closed shell SCF:
 Requested convergence on RMS density matrix=1.00D-08 within 128 cycles.
 Requested convergence on MAX density matrix=1.00D-06.
 Requested convergence on             energy=1.00D-06.
 No special actions if energy rises.
 Using DIIS extrapolation, IDIIS=  1040.
 Integral symmetry usage will be decided dynamically.
        25279 words used for storage of precomputed grid.
 Keep R1 ints in memory in canonical form, NReq=999788.
 IEnd=       46404 IEndB=       46404 NGot=    13107200 MDV=    12983449
 LenX=    12983449 LenY=    12982167
 Symmetry not used in FoFDir.
 MinBra= 0 MaxBra= 2 Meth= 1.
 IRaf=       0 NMat=   1 IRICut=       1 DoRegI=T DoRafI=F ISym2E= 0 JSym2E=0.

 Cycle   1  Pass 1  IDiag  1:
 E= -55.9092308441101    
 DIIS: error= 6.29D-04 at cycle   1 NSaved=   1.
 NSaved= 1 IEnMin= 1 EnMin= -55.9092308441101     IErMin= 1 ErrMin= 6.29D-04
 ErrMax= 6.29D-04 EMaxC= 1.00D-01 BMatC= 1.14D-05 BMatP= 1.14D-05
 IDIUse=3 WtCom= 9.94D-01 WtEn= 6.29D-03
 Coeff-Com:  0.100D+01
 Coeff-En:   0.100D+01
 Coeff:      0.100D+01
 Gap=     0.169 Goal=   None    Shift=    0.000
 RMSDP=2.77D-04 MaxDP=2.98D-03              OVMax= 2.63D-03

 Cycle   2  Pass 1  IDiag  1:
 E= -55.9092461289706     Delta-E=       -0.000015284860 Rises=F Damp=F
 DIIS: error= 5.42D-04 at cycle   2 NSaved=   2.
 NSaved= 2 IEnMin= 2 EnMin= -55.9092461289706     IErMin= 2 ErrMin= 5.42D-04
 ErrMax= 5.42D-04 EMaxC= 1.00D-01 BMatC= 4.65D-06 BMatP= 1.14D-05
 IDIUse=3 WtCom= 9.95D-01 WtEn= 5.42D-03
 Coeff-Com:  0.322D+00 0.678D+00
 Coeff-En:   0.000D+00 0.100D+01
 Coeff:      0.321D+00 0.679D+00
 Gap=     0.170 Goal=   None    Shift=    0.000
 RMSDP=1.27D-04 MaxDP=1.48D-03 DE=-1.53D-05 OVMax= 2.17D-03

 Cycle   3  Pass 1  IDiag  1:
 E= -55.9092442504026     Delta-E=        0.000001878568 Rises=F Damp=F
 DIIS: error= 6.35D-04 at cycle   3 NSaved=   3.
 NSaved= 3 IEnMin= 2 EnMin= -55.9092461289706     IErMin= 2 ErrMin= 5.42D-04
 ErrMax= 6.35D-04 EMaxC= 1.00D-01 BMatC= 6.76D-06 BMatP= 4.65D-06
 IDIUse=3 WtCom= 2.84D-01 WtEn= 7.16D-01
 Coeff-Com: -0.338D-01 0.559D+00 0.474D+00
 Coeff-En:   0.000D+00 0.562D+00 0.438D+00
 Coeff:     -0.960D-02 0.562D+00 0.448D+00
 Gap=     0.169 Goal=   None    Shift=    0.000
 RMSDP=6.62D-05 MaxDP=7.33D-04 DE= 1.88D-06 OVMax= 1.07D-03

 Cycle   4  Pass 1  IDiag  1:
 E= -55.9092507594250     Delta-E=       -0.000006509022 Rises=F Damp=F
 DIIS: error= 2.82D-05 at cycle   4 NSaved=   4.
 NSaved= 4 IEnMin= 4 EnMin= -55.9092507594250     IErMin= 4 ErrMin= 2.82D-05
 ErrMax= 2.82D-05 EMaxC= 1.00D-01 BMatC= 1.65D-08 BMatP= 4.65D-06
 IDIUse=1 WtCom= 1.00D+00 WtEn= 0.00D+00
 Coeff-Com: -0.111D-01 0.106D+00 0.534D-01 0.852D+00
 Coeff:     -0.111D-01 0.106D+00 0.534D-01 0.852D+00
 Gap=     0.169 Goal=   None    Shift=    0.000
 RMSDP=3.81D-06 MaxDP=4.15D-05 DE=-6.51D-06 OVMax= 5.89D-05

 Cycle   5  Pass 1  IDiag  1:
 E= -55.9092507764666     Delta-E=       -0.000000017042 Rises=F Damp=F
 DIIS: error= 1.90D-06 at cycle   5 NSaved=   5.
 NSaved= 5 IEnMin= 5 EnMin= -55.9092507764666     IErMin= 5 ErrMin= 1.90D-06
 ErrMax= 1.90D-06 EMaxC= 1.00D-01 BMatC= 7.04D-11 BMatP= 1.65D-08
 IDIUse=1 WtCom= 1.00D+00 WtEn= 0.00D+00
 Coeff-Com:  0.230D-03-0.771D-02-0.105D-01 0.837D-01 0.934D+00
 Coeff:      0.230D-03-0.771D-02-0.105D-01 0.837D-01 0.934D+00
 Gap=     0.169 Goal=   None    Shift=    0.000
 RMSDP=5.48D-07 MaxDP=6.27D-06 DE=-1.70D-08 OVMax= 4.18D-06

 Cycle   6  Pass 1  IDiag  1:
 E= -55.9092507765477     Delta-E=       -0.000000000081 Rises=F Damp=F
 DIIS: error= 1.27D-07 at cycle   6 NSaved=   6.
 NSaved= 6 IEnMin= 6 EnMin= -55.9092507765477     IErMin= 6 ErrMin= 1.27D-07
 ErrMax= 1.27D-07 EMaxC= 1.00D-01 BMatC= 3.69D-13 BMatP= 7.04D-11
 IDIUse=1 WtCom= 1.00D+00 WtEn= 0.00D+00
 Coeff-Com:  0.528D-04-0.991D-03-0.471D-03-0.407D-02 0.256D-01 0.980D+00
 Coeff:      0.528D-04-0.991D-03-0.471D-03-0.407D-02 0.256D-01 0.980D+00
 Gap=     0.169 Goal=   None    Shift=    0.000
 RMSDP=3.74D-08 MaxDP=2.57D-07 DE=-8.11D-11 OVMax= 4.57D-07

 Cycle   7  Pass 1  IDiag  1:
 E= -55.9092507765481     Delta-E=       -0.000000000000 Rises=F Damp=F
 DIIS: error= 1.10D-08 at cycle   7 NSaved=   7.
 NSaved= 7 IEnMin= 7 EnMin= -55.9092507765481     IErMin= 7 ErrMin= 1.10D-08
 ErrMax= 1.10D-08 EMaxC= 1.00D-01 BMatC= 1.45D-15 BMatP= 3.69D-13
 IDIUse=1 WtCom= 1.00D+00 WtEn= 0.00D+00
 Coeff-Com: -0.153D-05 0.479D-04 0.402D-04-0.228D-03-0.514D-02-0.807D-03
 Coeff-Com:  0.101D+01
 Coeff:     -0.153D-05 0.479D-04 0.402D-04-0.228D-03-0.514D-02-0.807D-03
 Coeff:      0.101D+01
 Gap=     0.169 Goal=   None    Shift=    0.000
 RMSDP=2.02D-09 MaxDP=1.36D-08 DE=-4.48D-13 OVMax= 2.42D-08

 SCF Done:  E(RB3LYP) =  -55.9092507765     A.U. after    7 cycles
             Convg  =    0.2021D-08             -V/T =  2.0095
 KE= 5.538212128835D+01 PE=-1.484954616606D+02 EE= 2.969638334277D+01
 Leave Link  502 at Mon Sep 16 17:41:07 2024, MaxMem=   13107200 cpu:       0.9
 (Enter /programs/64bit/g09/g09-gfortran/bin/l701.exe)
 Compute integral first derivatives.
 ... and contract with generalized density number  0.
 Leave Link  701 at Mon Sep 16 17:41:08 2024, MaxMem=   13107200 cpu:       0.3
 (Enter /programs/64bit/g09/g09-gfortran/bin/l702.exe)
 L702 exits ... SP integral derivatives will be done elsewhere.
 Leave Link  702 at Mon Sep 16 17:41:08 2024, MaxMem=   13107200 cpu:       0.0
 (Enter /programs/64bit/g09/g09-gfortran/bin/l703.exe)
 Compute integral first derivatives, UseDBF=F ICtDFT=           0.
 Integral derivatives from FoFDir, PRISM(SPDF).
 Calling FoFJK, ICntrl=      2127 FMM=F ISym2X=1 I1Cent= 0 IOpClX= 0 NMat=1 NMatS=1 NMatT=0.
 FoFCou: FMM=F IPFlag=           0 FMFlag=      100000 FMFlg1=         800
         NFxFlg=           0 DoJE=F BraDBF=F KetDBF=F FulRan=T
         Omega=  0.000000  0.000000  1.000000  0.000000  0.000000 ICntrl=    2127 IOpCl=  0
         NMat0=    1 NMatS0=    1 NMatT0=    0 NMatD0=    1 NMtDS0=    0 NMtDT0=    0
         I1Cent=           0 NGrid=           0.
 Petite list used in FoFCou.
 Leave Link  703 at Mon Sep 16 17:41:08 2024, MaxMem=   13107200 cpu:       0.7
 (Enter /programs/64bit/g09/g09-gfortran/bin/l716.exe)
 Dipole        =-2.42259330D-17 0.00000000D+00-9.32464717D-01
 ***** Axes restored to original set *****
 -------------------------------------------------------------------
 Center     Atomic                   Forces (Hartrees/Bohr)
 Number     Number              X              Y              Z
 -------------------------------------------------------------------
      1        7          -0.000540300    0.000000000   -0.000382050
      2        1           0.000032669   -0.000000000    0.000526873
      3        1           0.000507631   -0.000000000   -0.000144823
 -------------------------------------------------------------------
 Cartesian Forces:  Max     0.000540300 RMS     0.000332534
 Leave Link  716 at Mon Sep 16 17:41:09 2024, MaxMem=   13107200 cpu:       0.0
 (Enter /programs/64bit/g09/g09-gfortran/bin/l103.exe)

 GradGradGradGradGradGradGradGradGradGradGradGradGradGradGradGradGradGrad
 Berny optimization.
 Using GEDIIS/GDIIS optimizer.
 Internal  Forces:  Max     0.000527880 RMS     0.000431020
 Search for a local minimum.
 Step number   3 out of a maximum of   20
 All quantities printed in internal units (Hartrees-Bohrs-Radians)
 RMS Force = .43102D-03 SwitMx=.10000D-02 MixMth= 2
 Mixed Optimization -- En-DIIS/RFO-DIIS
 Update second derivatives using D2CorX and points    1    2    3
 DE= -4.23D-05 DEPred=-3.85D-05 R= 1.10D+00
 SS=  1.41D+00  RLast= 1.84D-02 DXNew= 5.0847D-01 5.5095D-02
 Trust test= 1.10D+00 RLast= 1.84D-02 DXMaxT set to 3.02D-01
 The second derivative matrix:
                          R1        R2        A1
           R1           0.41473
           R2          -0.01307   0.41473
           A1           0.03555   0.03555   0.15201
 Use linear search instead of GDIIS.
     Eigenvalues ---    0.14226   0.41141   0.42780
 RFO step:  Lambda=-3.46881413D-07 EMin= 1.42264843D-01
 Quartic linear search produced a step of  0.12882.
 Iteration  1 RMS(Cart)=  0.00084697 RMS(Int)=  0.00000030
 Iteration  2 RMS(Cart)=  0.00000035 RMS(Int)=  0.00000000
 ClnCor:  largest displacement from symmetrization is 1.35D-15 for atom     3.
 Variable       Old X    -DE/DX   Delta X   Delta X   Delta X     New X
                                 (Linear)    (Quad)   (Total)
    R1        1.94992   0.00053   0.00104   0.00034   0.00138   1.95130
    R2        1.94992   0.00053   0.00104   0.00034   0.00138   1.95130
    A1        1.79572  -0.00000  -0.00185   0.00115  -0.00070   1.79502
         Item               Value     Threshold  Converged?
 Maximum Force            0.000528     0.000450     NO 
 RMS     Force            0.000431     0.000300     NO 
 Maximum Displacement     0.000803     0.001800     YES
 RMS     Displacement     0.000847     0.001200     YES
 Predicted change in Energy=-7.267074D-07
 GradGradGradGradGradGradGradGradGradGradGradGradGradGradGradGradGradGrad

 Leave Link  103 at Mon Sep 16 17:41:09 2024, MaxMem=   13107200 cpu:       0.0
 (Enter /programs/64bit/g09/g09-gfortran/bin/l202.exe)
                          Input orientation:                          
 ---------------------------------------------------------------------
 Center     Atomic      Atomic             Coordinates (Angstroms)
 Number     Number       Type             X           Y           Z
 ---------------------------------------------------------------------
      1          7           0       -0.026782   -0.000000   -0.018938
      2          1           0        0.032872   -0.000000    1.011919
      3          1           0        0.965003    0.000000   -0.306314
 ---------------------------------------------------------------------
                    Distance matrix (angstroms):
                    1          2          3
     1  N    0.000000
     2  H    1.032581   0.000000
     3  H    1.032581   1.614498   0.000000
 Stoichiometry    H2N(1-)
 Framework group  C2V[C2(N),SGV(H2)]
 Deg. of freedom     2
 Full point group                 C2V     NOp   4
 Largest Abelian subgroup         C2V     NOp   4
 Largest concise Abelian subgroup C2      NOp   2
                         Standard orientation:                         
 ---------------------------------------------------------------------
 Center     Atomic      Atomic             Coordinates (Angstroms)
 Number     Number       Type             X           Y           Z
 ---------------------------------------------------------------------
      1          7           0       -0.000000   -0.000000    0.143083
      2          1           0        0.000000    0.807249   -0.500790
      3          1           0       -0.000000   -0.807249   -0.500790
 ---------------------------------------------------------------------
 Rotational constants (GHZ):    691.8403292    384.7573127    247.2517266
 Leave Link  202 at Mon Sep 16 17:41:09 2024, MaxMem=   13107200 cpu:       0.0
 (Enter /programs/64bit/g09/g09-gfortran/bin/l301.exe)
 Standard basis: 6-31+G(d,p) (6D, 7F)
 Ernie: Thresh=  0.10000D-02 Tol=  0.10000D-05 Strict=F.
 There are    14 symmetry adapted basis functions of A1  symmetry.
 There are     2 symmetry adapted basis functions of A2  symmetry.
 There are     5 symmetry adapted basis functions of B1  symmetry.
 There are     8 symmetry adapted basis functions of B2  symmetry.
 Integral buffers will be    131072 words long.
 Raffenetti 2 integral format.
 Two-electron integral symmetry is turned on.
    29 basis functions,    46 primitive gaussians,    29 cartesian basis functions
     5 alpha electrons        5 beta electrons
       nuclear repulsion energy         7.5024858487 Hartrees.
 IExCor=  402 DFT=T Ex+Corr=B3LYP ExCW=0 ScaHFX=  0.200000
 ScaDFX=  0.800000  0.720000  1.000000  0.810000 ScalE2=  1.000000  1.000000
 IRadAn=      0 IRanWt=     -1 IRanGd=            0 ICorTp=0
 NAtoms=    3 NActive=    3 NUniq=    2 SFac= 1.69D+00 NAtFMM=   80 NAOKFM=F Big=F
 Leave Link  301 at Mon Sep 16 17:41:09 2024, MaxMem=   13107200 cpu:       0.1
 (Enter /programs/64bit/g09/g09-gfortran/bin/l302.exe)
 NPDir=0 NMtPBC=     1 NCelOv=     1 NCel=       1 NClECP=     1 NCelD=      1
         NCelK=      1 NCelE2=     1 NClLst=     1 CellRange=     0.0.
 One-electron integrals computed using PRISM.
 One-electron integral symmetry used in STVInt
 NBasis=    29 RedAO= T  NBF=    14     2     5     8
 NBsUse=    29 1.00D-06 NBFU=    14     2     5     8
 Precomputing XC quadrature grid using
 IXCGrd= 2 IRadAn=           0 IRanWt=          -1 IRanGd=           0 AccXCQ= 1.00D-10.
 NRdTot=     189 NPtTot=       23944 NUsed=       25319 NTot=       25351
 NSgBfM=    29    29    29    29    29 NAtAll=     3     3.
 Leave Link  302 at Mon Sep 16 17:41:09 2024, MaxMem=   13107200 cpu:       0.3
 (Enter /programs/64bit/g09/g09-gfortran/bin/l303.exe)
 DipDrv:  MaxL=1.
 Leave Link  303 at Mon Sep 16 17:41:09 2024, MaxMem=   13107200 cpu:       0.1
 (Enter /programs/64bit/g09/g09-gfortran/bin/l401.exe)
 Initial guess read from the read-write file.
 B after Tr=     0.000000    0.000000    0.000000
         Rot=    1.000000    0.000000    0.000000    0.000000 Ang=   0.00 deg.
 Guess basis will be translated and rotated to current coordinates.
 Initial guess orbital symmetries:
       Occupied  (A1) (A1) (B2) (A1) (B1)
       Virtual   (A1) (B2) (A1) (B1) (B2) (A1) (B2) (A1) (B1) (B2)
                 (A1) (A1) (A1) (A2) (B1) (A1) (B2) (B2) (A2) (B1)
                 (A1) (A1) (B2) (A1)
 The electronic state of the initial guess is 1-A1.
 Leave Link  401 at Mon Sep 16 17:41:09 2024, MaxMem=   13107200 cpu:       0.1
 (Enter /programs/64bit/g09/g09-gfortran/bin/l502.exe)
 Closed shell SCF:
 Requested convergence on RMS density matrix=1.00D-08 within 128 cycles.
 Requested convergence on MAX density matrix=1.00D-06.
 Requested convergence on             energy=1.00D-06.
 No special actions if energy rises.
 Using DIIS extrapolation, IDIIS=  1040.
 Integral symmetry usage will be decided dynamically.
        25279 words used for storage of precomputed grid.
 Keep R1 ints in memory in canonical form, NReq=999788.
 IEnd=       46404 IEndB=       46404 NGot=    13107200 MDV=    12983449
 LenX=    12983449 LenY=    12982167
 Symmetry not used in FoFDir.
 MinBra= 0 MaxBra= 2 Meth= 1.
 IRaf=       0 NMat=   1 IRICut=       1 DoRegI=T DoRafI=F ISym2E= 0 JSym2E=0.

 Cycle   1  Pass 1  IDiag  1:
 E= -55.9092512315893    
 DIIS: error= 1.04D-04 at cycle   1 NSaved=   1.
 NSaved= 1 IEnMin= 1 EnMin= -55.9092512315893     IErMin= 1 ErrMin= 1.04D-04
 ErrMax= 1.04D-04 EMaxC= 1.00D-01 BMatC= 1.87D-07 BMatP= 1.87D-07
 IDIUse=3 WtCom= 9.99D-01 WtEn= 1.04D-03
 Coeff-Com:  0.100D+01
 Coeff-En:   0.100D+01
 Coeff:      0.100D+01
 Gap=     0.169 Goal=   None    Shift=    0.000
 RMSDP=2.87D-05 MaxDP=2.88D-04              OVMax= 3.52D-04

 Cycle   2  Pass 1  IDiag  1:
 E= -55.9092513728021     Delta-E=       -0.000000141213 Rises=F Damp=F
 DIIS: error= 9.71D-05 at cycle   2 NSaved=   2.
 NSaved= 2 IEnMin= 2 EnMin= -55.9092513728021     IErMin= 2 ErrMin= 9.71D-05
 ErrMax= 9.71D-05 EMaxC= 1.00D-01 BMatC= 1.45D-07 BMatP= 1.87D-07
 IDIUse=1 WtCom= 1.00D+00 WtEn= 0.00D+00
 Coeff-Com:  0.454D+00 0.546D+00
 Coeff:      0.454D+00 0.546D+00
 Gap=     0.169 Goal=   None    Shift=    0.000
 RMSDP=1.80D-05 MaxDP=2.16D-04 DE=-1.41D-07 OVMax= 3.14D-04

 Cycle   3  Pass 1  IDiag  1:
 E= -55.9092514320161     Delta-E=       -0.000000059214 Rises=F Damp=F
 DIIS: error= 7.13D-05 at cycle   3 NSaved=   3.
 NSaved= 3 IEnMin= 3 EnMin= -55.9092514320161     IErMin= 3 ErrMin= 7.13D-05
 ErrMax= 7.13D-05 EMaxC= 1.00D-01 BMatC= 8.87D-08 BMatP= 1.45D-07
 IDIUse=1 WtCom= 1.00D+00 WtEn= 0.00D+00
 Coeff-Com: -0.391D-02 0.439D+00 0.565D+00
 Coeff:     -0.391D-02 0.439D+00 0.565D+00
 Gap=     0.169 Goal=   None    Shift=    0.000
 RMSDP=7.84D-06 MaxDP=8.11D-05 DE=-5.92D-08 OVMax= 1.19D-04

 Cycle   4  Pass 1  IDiag  1:
 E= -55.9092515169388     Delta-E=       -0.000000084923 Rises=F Damp=F
 DIIS: error= 3.00D-06 at cycle   4 NSaved=   4.
 NSaved= 4 IEnMin= 4 EnMin= -55.9092515169388     IErMin= 4 ErrMin= 3.00D-06
 ErrMax= 3.00D-06 EMaxC= 1.00D-01 BMatC= 1.49D-10 BMatP= 8.87D-08
 IDIUse=1 WtCom= 1.00D+00 WtEn= 0.00D+00
 Coeff-Com: -0.117D-01 0.929D-01 0.121D+00 0.797D+00
 Coeff:     -0.117D-01 0.929D-01 0.121D+00 0.797D+00
 Gap=     0.169 Goal=   None    Shift=    0.000
 RMSDP=3.52D-07 MaxDP=2.24D-06 DE=-8.49D-08 OVMax= 5.78D-06

 Cycle   5  Pass 1  IDiag  1:
 E= -55.9092515170864     Delta-E=       -0.000000000148 Rises=F Damp=F
 DIIS: error= 2.80D-07 at cycle   5 NSaved=   5.
 NSaved= 5 IEnMin= 5 EnMin= -55.9092515170864     IErMin= 5 ErrMin= 2.80D-07
 ErrMax= 2.80D-07 EMaxC= 1.00D-01 BMatC= 1.46D-12 BMatP= 1.49D-10
 IDIUse=1 WtCom= 1.00D+00 WtEn= 0.00D+00
 Coeff-Com:  0.141D-03-0.582D-02-0.985D-02 0.332D-01 0.982D+00
 Coeff:      0.141D-03-0.582D-02-0.985D-02 0.332D-01 0.982D+00
 Gap=     0.169 Goal=   None    Shift=    0.000
 RMSDP=8.01D-08 MaxDP=1.01D-06 DE=-1.48D-10 OVMax= 1.19D-06

 Cycle   6  Pass 1  IDiag  1:
 E= -55.9092515170886     Delta-E=       -0.000000000002 Rises=F Damp=F
 DIIS: error= 3.79D-08 at cycle   6 NSaved=   6.
 NSaved= 6 IEnMin= 6 EnMin= -55.9092515170886     IErMin= 6 ErrMin= 3.79D-08
 ErrMax= 3.79D-08 EMaxC= 1.00D-01 BMatC= 1.56D-14 BMatP= 1.46D-12
 IDIUse=1 WtCom= 1.00D+00 WtEn= 0.00D+00
 Coeff-Com:  0.905D-04-0.820D-03-0.687D-03-0.118D-01-0.231D-01 0.104D+01
 Coeff:      0.905D-04-0.820D-03-0.687D-03-0.118D-01-0.231D-01 0.104D+01
 Gap=     0.169 Goal=   None    Shift=    0.000
 RMSDP=1.15D-08 MaxDP=1.24D-07 DE=-2.20D-12 OVMax= 1.66D-07

 Cycle   7  Pass 1  IDiag  1:
 E= -55.9092515170887     Delta-E=       -0.000000000000 Rises=F Damp=F
 DIIS: error= 6.02D-09 at cycle   7 NSaved=   7.
 NSaved= 7 IEnMin= 7 EnMin= -55.9092515170887     IErMin= 7 ErrMin= 6.02D-09
 ErrMax= 6.02D-09 EMaxC= 1.00D-01 BMatC= 8.30D-16 BMatP= 1.56D-14
 IDIUse=1 WtCom= 1.00D+00 WtEn= 0.00D+00
 Coeff-Com: -0.532D-05 0.144D-03 0.763D-04 0.169D-03-0.717D-02-0.821D-01
 Coeff-Com:  0.109D+01
 Coeff:     -0.532D-05 0.144D-03 0.763D-04 0.169D-03-0.717D-02-0.821D-01
 Coeff:      0.109D+01
 Gap=     0.169 Goal=   None    Shift=    0.000
 RMSDP=1.58D-09 MaxDP=1.34D-08 DE=-5.68D-14 OVMax= 2.77D-08

 SCF Done:  E(RB3LYP) =  -55.9092515171     A.U. after    7 cycles
             Convg  =    0.1582D-08             -V/T =  2.0096
 KE= 5.538022422060D+01 PE=-1.484836912462D+02 EE= 2.969172965983D+01
 Leave Link  502 at Mon Sep 16 17:41:10 2024, MaxMem=   13107200 cpu:       0.9
 (Enter /programs/64bit/g09/g09-gfortran/bin/l701.exe)
 Compute integral first derivatives.
 ... and contract with generalized density number  0.
 Leave Link  701 at Mon Sep 16 17:41:10 2024, MaxMem=   13107200 cpu:       0.3
 (Enter /programs/64bit/g09/g09-gfortran/bin/l702.exe)
 L702 exits ... SP integral derivatives will be done elsewhere.
 Leave Link  702 at Mon Sep 16 17:41:11 2024, MaxMem=   13107200 cpu:       0.0
 (Enter /programs/64bit/g09/g09-gfortran/bin/l703.exe)
 Compute integral first derivatives, UseDBF=F ICtDFT=           0.
 Integral derivatives from FoFDir, PRISM(SPDF).
 Calling FoFJK, ICntrl=      2127 FMM=F ISym2X=1 I1Cent= 0 IOpClX= 0 NMat=1 NMatS=1 NMatT=0.
 FoFCou: FMM=F IPFlag=           0 FMFlag=      100000 FMFlg1=         800
         NFxFlg=           0 DoJE=F BraDBF=F KetDBF=F FulRan=T
         Omega=  0.000000  0.000000  1.000000  0.000000  0.000000 ICntrl=    2127 IOpCl=  0
         NMat0=    1 NMatS0=    1 NMatT0=    0 NMatD0=    1 NMtDS0=    0 NMtDT0=    0
         I1Cent=           0 NGrid=           0.
 Petite list used in FoFCou.
 Leave Link  703 at Mon Sep 16 17:41:11 2024, MaxMem=   13107200 cpu:       0.7
 (Enter /programs/64bit/g09/g09-gfortran/bin/l716.exe)
 Dipole        =-2.42023100D-17 0.00000000D+00-9.31845592D-01
 ***** Axes restored to original set *****
 -------------------------------------------------------------------
 Center     Atomic                   Forces (Hartrees/Bohr)
 Number     Number              X              Y              Z
 -------------------------------------------------------------------
      1        7          -0.000005277    0.000000000   -0.000003732
      2        1          -0.000002922   -0.000000000    0.000009730
      3        1           0.000008200   -0.000000000   -0.000005998
 -------------------------------------------------------------------
 Cartesian Forces:  Max     0.000009730 RMS     0.000005251
 Leave Link  716 at Mon Sep 16 17:41:11 2024, MaxMem=   13107200 cpu:       0.1
 (Enter /programs/64bit/g09/g09-gfortran/bin/l103.exe)

 GradGradGradGradGradGradGradGradGradGradGradGradGradGradGradGradGradGrad
 Berny optimization.
 Using GEDIIS/GDIIS optimizer.
 Internal  Forces:  Max     0.000009545 RMS     0.000008724
 Search for a local minimum.
 Step number   4 out of a maximum of   20
 All quantities printed in internal units (Hartrees-Bohrs-Radians)
 RMS Force = .87236D-05 SwitMx=.10000D-02 MixMth= 2
 Mixed Optimization -- En-DIIS/RFO-DIIS
 Swaping is turned off.
 Update second derivatives using D2CorX and points    1    2    3    4
 DE= -7.41D-07 DEPred=-7.27D-07 R= 1.02D+00
 Trust test= 1.02D+00 RLast= 2.07D-03 DXMaxT set to 3.02D-01
 The second derivative matrix:
                          R1        R2        A1
           R1           0.40996
           R2          -0.01784   0.40996
           A1           0.03298   0.03298   0.14693
     Eigenvalues ---    0.13836   0.40070   0.42780
 En-DIIS/RFO-DIIS IScMMF=        0 using points:     4    3
 RFO step:  Lambda= 0.00000000D+00.
 DIIS coeffs:      1.01502     -0.01502
 Iteration  1 RMS(Cart)=  0.00003253 RMS(Int)=  0.00000000
 Iteration  2 RMS(Cart)=  0.00000000 RMS(Int)=  0.00000000
 ClnCor:  largest displacement from symmetrization is 1.62D-15 for atom     3.
 Variable       Old X    -DE/DX   Delta X   Delta X   Delta X     New X
                                  (DIIS)     (GDIIS)  (Total)
    R1        1.95130   0.00001   0.00002   0.00000   0.00002   1.95132
    R2        1.95130   0.00001   0.00002   0.00000   0.00002   1.95132
    A1        1.79502   0.00001  -0.00001   0.00005   0.00004   1.79506
         Item               Value     Threshold  Converged?
 Maximum Force            0.000010     0.000450     YES
 RMS     Force            0.000009     0.000300     YES
 Maximum Displacement     0.000035     0.001800     YES
 RMS     Displacement     0.000033     0.001200     YES
 Predicted change in Energy=-3.273733D-10
 Optimization completed.
    -- Stationary point found.
                           ----------------------------
                           !   Optimized Parameters   !
                           ! (Angstroms and Degrees)  !
 --------------------------                            --------------------------
 ! Name  Definition              Value          Derivative Info.                !
 --------------------------------------------------------------------------------
 ! R1    R(1,2)                  1.0326         -DE/DX =    0.0                 !
 ! R2    R(1,3)                  1.0326         -DE/DX =    0.0                 !
 ! A1    A(2,1,3)              102.8473         -DE/DX =    0.0                 !
 --------------------------------------------------------------------------------
 GradGradGradGradGradGradGradGradGradGradGradGradGradGradGradGradGradGrad

 Largest change from initial coordinates is atom    2       0.051 Angstoms.
 Leave Link  103 at Mon Sep 16 17:41:11 2024, MaxMem=   13107200 cpu:       0.0
 (Enter /programs/64bit/g09/g09-gfortran/bin/l202.exe)
                          Input orientation:                          
 ---------------------------------------------------------------------
 Center     Atomic      Atomic             Coordinates (Angstroms)
 Number     Number       Type             X           Y           Z
 ---------------------------------------------------------------------
      1          7           0       -0.026782   -0.000000   -0.018938
      2          1           0        0.032872   -0.000000    1.011919
      3          1           0        0.965003    0.000000   -0.306314
 ---------------------------------------------------------------------
                    Distance matrix (angstroms):
                    1          2          3
     1  N    0.000000
     2  H    1.032581   0.000000
     3  H    1.032581   1.614498   0.000000
 Stoichiometry    H2N(1-)
 Framework group  C2V[C2(N),SGV(H2)]
 Deg. of freedom     2
 Full point group                 C2V     NOp   4
 Largest Abelian subgroup         C2V     NOp   4
 Largest concise Abelian subgroup C2      NOp   2
                         Standard orientation:                         
 ---------------------------------------------------------------------
 Center     Atomic      Atomic             Coordinates (Angstroms)
 Number     Number       Type             X           Y           Z
 ---------------------------------------------------------------------
      1          7           0       -0.000000    0.000000    0.143083
      2          1           0       -0.000000    0.807249   -0.500790
      3          1           0       -0.000000   -0.807249   -0.500790
 ---------------------------------------------------------------------
 Rotational constants (GHZ):    691.8403292    384.7573127    247.2517266
 Leave Link  202 at Mon Sep 16 17:41:11 2024, MaxMem=   13107200 cpu:       0.0
 (Enter /programs/64bit/g09/g09-gfortran/bin/l601.exe)
 Copying SCF densities to generalized density rwf, IOpCl= 0 IROHF=0.

 **********************************************************************

            Population analysis using the SCF density.

 **********************************************************************

 Orbital symmetries:
       Occupied  (A1) (A1) (B2) (A1) (B1)
       Virtual   (A1) (B2) (A1) (B1) (B2) (A1) (B2) (A1) (B1) (B2)
                 (A1) (A1) (A1) (A2) (B1) (A1) (B2) (B2) (A2) (B1)
                 (A1) (A1) (B2) (A1)
 The electronic state is 1-A1.
 Alpha  occ. eigenvalues --  -14.01241  -0.49910  -0.14889  -0.00092   0.06900
 Alpha virt. eigenvalues --    0.23809   0.29113   0.31836   0.32532   0.44679
 Alpha virt. eigenvalues --    0.47337   1.12828   1.16114   1.17000   1.17682
 Alpha virt. eigenvalues --    1.28982   1.34995   1.78964   1.80156   1.90515
 Alpha virt. eigenvalues --    2.40279   2.48836   2.61578   2.84028   2.86883
 Alpha virt. eigenvalues --    3.18066   3.52121   3.70682   4.13119
          Condensed to atoms (all electrons):
              1          2          3
     1  N    7.779619   0.284988   0.284988
     2  H    0.284988   0.585317  -0.045103
     3  H    0.284988  -0.045103   0.585317
 Mulliken atomic charges:
              1
     1  N   -1.349595
     2  H    0.174798
     3  H    0.174798
 Sum of Mulliken atomic charges =  -1.00000
 Mulliken charges with hydrogens summed into heavy atoms:
              1
     1  N   -1.000000
 Sum of Mulliken charges with hydrogens summed into heavy atoms =  -1.00000
 Electronic spatial extent (au):  <R**2>=             34.4999
 Charge=             -1.0000 electrons
 Dipole moment (field-independent basis, Debye):
    X=             -0.0000    Y=             -0.0000    Z=             -2.3685  Tot=              2.3685
 Quadrupole moment (field-independent basis, Debye-Ang):
   XX=            -14.8494   YY=             -9.7061   ZZ=            -12.4905
   XY=              0.0000   XZ=              0.0000   YZ=              0.0000
 Traceless Quadrupole moment (field-independent basis, Debye-Ang):
   XX=             -2.5007   YY=              2.6426   ZZ=             -0.1419
   XY=              0.0000   XZ=              0.0000   YZ=              0.0000
 Octapole moment (field-independent basis, Debye-Ang**2):
  XXX=              0.0000  YYY=             -0.0000  ZZZ=             -3.8752  XYY=              0.0000
  XXY=              0.0000  XXZ=             -1.6353  XZZ=              0.0000  YZZ=             -0.0000
  YYZ=             -1.2569  XYZ=             -0.0000
 Hexadecapole moment (field-independent basis, Debye-Ang**3):
 XXXX=            -35.6664 YYYY=            -20.9116 ZZZZ=            -28.0658 XXXY=             -0.0000
 XXXZ=             -0.0000 YYYX=             -0.0000 YYYZ=              0.0000 ZZZX=             -0.0000
 ZZZY=              0.0000 XXYY=             -9.5817 XXZZ=            -10.7040 YYZZ=             -7.9945
 XXYZ=              0.0000 YYXZ=             -0.0000 ZZXY=             -0.0000
 N-N= 7.502485848657D+00 E-N=-1.484836910381D+02  KE= 5.538022422060D+01
 Symmetry A1   KE= 5.039127924142D+01
 Symmetry A2   KE= 2.447291988934D-35
 Symmetry B1   KE= 2.552074179028D+00
 Symmetry B2   KE= 2.436870800144D+00
 No NMR shielding tensors so no spin-rotation constants.
 Leave Link  601 at Mon Sep 16 17:41:12 2024, MaxMem=   13107200 cpu:       0.2
 (Enter /programs/64bit/g09/g09-gfortran/bin/l9999.exe)
 B after Tr=     0.203900   -0.000000    0.144180
         Rot=   -0.325057    0.627963   -0.627963   -0.325057 Ang= 217.94 deg.
 Final structure in terms of initial Z-matrix:
 N
 H,1,hn2
 H,1,hn3,2,hnh3
      Variables:
 hn2=1.03258117
 hn3=1.03258117
 hnh3=102.84729385
 1\1\GINC-MOLMOD\FOpt\RB3LYP\6-31+G(d,p)\H2N1(1-)\OSPITE\16-Sep-2024\0\
 \#p B3LYP/6-31+g(d,p) opt\\nh2- gas\\-1,1\N,-0.0267824154,0.,-0.018938
 0276\H,0.0328723599,0.,1.0119185041\H,0.9650033683,0.,-0.3063138099\\V
 ersion=EM64L-G09RevA.02\State=1-A1\HF=-55.9092515\RMSD=1.582e-09\RMSF=
 5.251e-06\Dipole=0.7608487,0.,0.5380013\Quadrupole=0.5845749,-1.859217
 3,1.2746424,0.,-0.9759029,0.\PG=C02V [C2(N1),SGV(H2)]\\@


 NO SCIENCE HAS EVER MADE MORE RAPID PROGRESS IN A
 SHORTER TIME THAN CHEMISTRY.
   -- MARTIN HEINRICH KLOPROTH, 1791
 (FIRST PROFESSOR OF CHEMISTRY AT THE UNIVERSITY OF BERLIN)
 Job cpu time:  0 days  0 hours  0 minutes 12.9 seconds.
 File lengths (MBytes):  RWF=      5 Int=      0 D2E=      0 Chk=      1 Scr=      1
 Normal termination of Gaussian 09 at Mon Sep 16 17:41:12 2024.
