 Entering Gaussian System, Link 0=/programs/64bit/g09/g09-gfortran/bin/g09
 Input=h_cc-pVQZ.com
 Output=h_cc-pVQZ.log
 Initial command:
 /programs/64bit/g09/g09-gfortran/bin/l1.exe /home/ospite/Desktop/MMfP/Project6/H/g09/MP2/Gau-7994.inp -scrdir=/home/ospite/Desktop/MMfP/Project6/H/g09/MP2/
 Entering Link 1 = /programs/64bit/g09/g09-gfortran/bin/l1.exe PID=      7995.
  
 Copyright (c) 1988,1990,1992,1993,1995,1998,2003,2009, Gaussian, Inc.
                  All Rights Reserved.
  
 This is part of the Gaussian(R) 09 program.  It is based on
 the Gaussian(R) 03 system (copyright 2003, Gaussian, Inc.),
 the Gaussian(R) 98 system (copyright 1998, Gaussian, Inc.),
 the Gaussian(R) 94 system (copyright 1995, Gaussian, Inc.),
 the Gaussian 92(TM) system (copyright 1992, Gaussian, Inc.),
 the Gaussian 90(TM) system (copyright 1990, Gaussian, Inc.),
 the Gaussian 88(TM) system (copyright 1988, Gaussian, Inc.),
 the Gaussian 86(TM) system (copyright 1986, Carnegie Mellon
 University), and the Gaussian 82(TM) system (copyright 1983,
 Carnegie Mellon University). Gaussian is a federally registered
 trademark of Gaussian, Inc.
  
 This software contains proprietary and confidential information,
 including trade secrets, belonging to Gaussian, Inc.
  
 This software is provided under written license and may be
 used, copied, transmitted, or stored only in accord with that
 written license.
  
 The following legend is applicable only to US Government
 contracts under FAR:
  
                    RESTRICTED RIGHTS LEGEND
  
 Use, reproduction and disclosure by the US Government is
 subject to restrictions as set forth in subparagraphs (a)
 and (c) of the Commercial Computer Software - Restricted
 Rights clause in FAR 52.227-19.
  
 Gaussian, Inc.
 340 Quinnipiac St., Bldg. 40, Wallingford CT 06492
  
  
 ---------------------------------------------------------------
 Warning -- This program may not be used in any manner that
 competes with the business of Gaussian, Inc. or will provide
 assistance to any competitor of Gaussian, Inc.  The licensee
 of this program is prohibited from giving any competitor of
 Gaussian, Inc. access to this program.  By using this program,
 the user acknowledges that Gaussian, Inc. is engaged in the
 business of creating and licensing software in the field of
 computational chemistry and represents and warrants to the
 licensee that it is not a competitor of Gaussian, Inc. and that
 it will not use this program in any manner prohibited above.
 ---------------------------------------------------------------
  

 Cite this work as:
 Gaussian 09, Revision A.02,
 M. J. Frisch, G. W. Trucks, H. B. Schlegel, G. E. Scuseria, 
 M. A. Robb, J. R. Cheeseman, G. Scalmani, V. Barone, B. Mennucci, 
 G. A. Petersson, H. Nakatsuji, M. Caricato, X. Li, H. P. Hratchian, 
 A. F. Izmaylov, J. Bloino, G. Zheng, J. L. Sonnenberg, M. Hada, 
 M. Ehara, K. Toyota, R. Fukuda, J. Hasegawa, M. Ishida, T. Nakajima, 
 Y. Honda, O. Kitao, H. Nakai, T. Vreven, J. A. Montgomery, Jr., 
 J. E. Peralta, F. Ogliaro, M. Bearpark, J. J. Heyd, E. Brothers, 
 K. N. Kudin, V. N. Staroverov, R. Kobayashi, J. Normand, 
 K. Raghavachari, A. Rendell, J. C. Burant, S. S. Iyengar, J. Tomasi, 
 M. Cossi, N. Rega, J. M. Millam, M. Klene, J. E. Knox, J. B. Cross, 
 V. Bakken, C. Adamo, J. Jaramillo, R. Gomperts, R. E. Stratmann, 
 O. Yazyev, A. J. Austin, R. Cammi, C. Pomelli, J. W. Ochterski, 
 R. L. Martin, K. Morokuma, V. G. Zakrzewski, G. A. Voth, 
 P. Salvador, J. J. Dannenberg, S. Dapprich, A. D. Daniels, 
 O. Farkas, J. B. Foresman, J. V. Ortiz, J. Cioslowski, 
 and D. J. Fox, Gaussian, Inc., Wallingford CT, 2009.
 
 ******************************************
 Gaussian 09:  EM64L-G09RevA.02 11-Jun-2009
                18-Aug-2024 
 ******************************************
 %mem=100MB
 ----------------------------------------
 #p mp2/cc-pVQZ opt freq pop=full gfinput
 ----------------------------------------
 1/18=20,19=15,38=1/1,3;
 2/9=110,12=2,17=6,18=5,40=1/2;
 3/5=16,6=2,11=9,16=1,24=10,25=1,30=1,71=1/1,2,3;
 4//1;
 5/5=2,38=5/2;
 8/6=4,10=1/1;
 9/15=2,16=-3/6;
 10/5=1/2;
 6/7=3/1;
 7/12=2/1,2,3,16;
 1/18=20,19=15/3(2);
 2/9=110/2;
 99//99;
 2/9=110/2;
 3/5=16,6=2,11=9,16=1,25=1,30=1,71=1/1,2,3;
 4/5=5,16=3/1;
 5/5=2,38=5/2;
 8/6=4,10=1/1;
 9/15=2,16=-3/6;
 10/5=1/2;
 7/12=2/1,2,3,16;
 1/18=20,19=15/3(-8);
 2/9=110/2;
 6/7=3/1;
 99//99;
 Leave Link    1 at Sun Aug 18 15:10:28 2024, MaxMem=   13107200 cpu:       0.1
 (Enter /programs/64bit/g09/g09-gfortran/bin/l101.exe)
 -------------------------------------
 hydogen (atom) with cc-pVQZ basis set
 -------------------------------------
 Symbolic Z-matrix:
 Charge =  0 Multiplicity = 2
 H
 
 NAtoms=      1 NQM=      1 NQMF=      0 NMic=      0 NMicF=      0 NTot=      1.
                    Isotopes and Nuclear Properties:
 (Nuclear quadrupole moments (NQMom) in fm**2, nuclear magnetic moments (NMagM)
  in nuclear magnetons)

  Atom         1
 IAtWgt=           1
 AtmWgt=   1.0078250
 NucSpn=           1
 AtZEff=   0.0000000
 NQMom=    0.0000000
 NMagM=    2.7928460
 Leave Link  101 at Sun Aug 18 15:10:28 2024, MaxMem=   13107200 cpu:       0.1
 (Enter /programs/64bit/g09/g09-gfortran/bin/l103.exe)

 GradGradGradGradGradGradGradGradGradGradGradGradGradGradGradGradGradGrad
 Berny optimization.
 Initialization pass.
 No Z-matrix variables, so optimization will use Cartesian coordinates.
 Trust Radius=1.00D-01 FncErr=1.00D-07 GrdErr=1.00D-07
 Number of steps in this run=  20 maximum allowed number of steps= 100.
 GradGradGradGradGradGradGradGradGradGradGradGradGradGradGradGradGradGrad

 Leave Link  103 at Sun Aug 18 15:10:28 2024, MaxMem=   13107200 cpu:       0.0
 (Enter /programs/64bit/g09/g09-gfortran/bin/l202.exe)
                          Input orientation:                          
 ---------------------------------------------------------------------
 Center     Atomic      Atomic             Coordinates (Angstroms)
 Number     Number       Type             X           Y           Z
 ---------------------------------------------------------------------
      1          1           0        0.000000    0.000000    0.000000
 ---------------------------------------------------------------------
 Stoichiometry    H(2)
 Framework group  OH[O(H)]
 Deg. of freedom     0
 Full point group                 OH      NOp  48
 Largest Abelian subgroup         D2H     NOp   8
 Largest concise Abelian subgroup C1      NOp   1
                         Standard orientation:                         
 ---------------------------------------------------------------------
 Center     Atomic      Atomic             Coordinates (Angstroms)
 Number     Number       Type             X           Y           Z
 ---------------------------------------------------------------------
      1          1           0        0.000000    0.000000    0.000000
 ---------------------------------------------------------------------
 Leave Link  202 at Sun Aug 18 15:10:29 2024, MaxMem=   13107200 cpu:       0.0
 (Enter /programs/64bit/g09/g09-gfortran/bin/l301.exe)
 Standard basis: CC-pVQZ (5D, 7F)
 Ernie: Thresh=  0.10000D-02 Tol=  0.10000D-05 Strict=F.
 AO basis set in the form of general basis input (Overlap normalization):
      1 0
 S   3 1.00       0.000000000000
      0.8264000000D+02  0.2295075779D-01
      0.1241000000D+02  0.1755401181D+00
      0.2824000000D+01  0.8647035510D+00
 S   1 1.00       0.000000000000
      0.7977000000D+00  0.1000000000D+01
 S   1 1.00       0.000000000000
      0.2581000000D+00  0.1000000000D+01
 S   1 1.00       0.000000000000
      0.8989000000D-01  0.1000000000D+01
 P   1 1.00       0.000000000000
      0.2292000000D+01  0.1000000000D+01
 P   1 1.00       0.000000000000
      0.8380000000D+00  0.1000000000D+01
 P   1 1.00       0.000000000000
      0.2920000000D+00  0.1000000000D+01
 D   1 1.00       0.000000000000
      0.2062000000D+01  0.1000000000D+01
 D   1 1.00       0.000000000000
      0.6620000000D+00  0.1000000000D+01
 F   1 1.00       0.000000000000
      0.1397000000D+01  0.1000000000D+01
 ****

 There are     8 symmetry adapted basis functions of AG  symmetry.
 There are     2 symmetry adapted basis functions of B1G symmetry.
 There are     2 symmetry adapted basis functions of B2G symmetry.
 There are     2 symmetry adapted basis functions of B3G symmetry.
 There are     1 symmetry adapted basis functions of AU  symmetry.
 There are     5 symmetry adapted basis functions of B1U symmetry.
 There are     5 symmetry adapted basis functions of B2U symmetry.
 There are     5 symmetry adapted basis functions of B3U symmetry.
 Integral buffers will be    131072 words long.
 Raffenetti 2 integral format.
 Two-electron integral symmetry is turned on.
    30 basis functions,    37 primitive gaussians,    35 cartesian basis functions
     1 alpha electrons        0 beta electrons
       nuclear repulsion energy         0.0000000000 Hartrees.
 IExCor=    0 DFT=F Ex=HF Corr=None ExCW=0 ScaHFX=  1.000000
 ScaDFX=  1.000000  1.000000  1.000000  1.000000 ScalE2=  1.000000  1.000000
 IRadAn=      0 IRanWt=     -1 IRanGd=            0 ICorTp=0
 NAtoms=    1 NActive=    1 NUniq=    1 SFac= 7.50D-01 NAtFMM=   80 NAOKFM=F Big=F
 Leave Link  301 at Sun Aug 18 15:10:29 2024, MaxMem=   13107200 cpu:       0.1
 (Enter /programs/64bit/g09/g09-gfortran/bin/l302.exe)
 NPDir=0 NMtPBC=     1 NCelOv=     1 NCel=       1 NClECP=     1 NCelD=      1
         NCelK=      1 NCelE2=     1 NClLst=     1 CellRange=     0.0.
 One-electron integrals computed using PRISM.
 NBasis=    30 RedAO= T  NBF=     8     2     2     2     1     5     5     5
 NBsUse=    30 1.00D-06 NBFU=     8     2     2     2     1     5     5     5
 Leave Link  302 at Sun Aug 18 15:10:29 2024, MaxMem=   13107200 cpu:       0.1
 (Enter /programs/64bit/g09/g09-gfortran/bin/l303.exe)
 DipDrv:  MaxL=1.
 Leave Link  303 at Sun Aug 18 15:10:29 2024, MaxMem=   13107200 cpu:       0.0
 (Enter /programs/64bit/g09/g09-gfortran/bin/l401.exe)
 Harris functional with IExCor=  205 diagonalized for initial guess.
 ExpMin= 8.99D-02 ExpMax= 8.26D+01 ExpMxC= 8.26D+01 IAcc=2 IRadAn=         0 AccDes= 0.00D+00
 HarFok:  IExCor=  205 AccDes= 0.00D+00 IRadAn=         0 IDoV= 1
 ScaDFX=  1.000000  1.000000  1.000000  1.000000
 FoFCou: FMM=F IPFlag=           0 FMFlag=      100000 FMFlg1=           0
         NFxFlg=           0 DoJE=T BraDBF=F KetDBF=T FulRan=T
         Omega=  0.000000  0.000000  1.000000  0.000000  0.000000 ICntrl=     500 IOpCl=  0
         NMat0=    1 NMatS0=    1 NMatT0=    0 NMatD0=    1 NMtDS0=    0 NMtDT0=    0
         I1Cent=           4 NGrid=           0.
 Petite list used in FoFCou.
 Harris En=-0.462627076595980    
 Initial guess orbital symmetries:
 Alpha Orbitals:
       Occupied  (A1G)
       Virtual   (A1G) (T1U) (T1U) (T1U) (A1G) (EG) (EG) (T2G)
                 (T2G) (T2G) (T1U) (T1U) (T1U) (?A) (?A) (A2U)
                 (?A) (?A) (?A) (?A) (A1G) (T1U) (T1U) (T1U) (EG)
                 (T2G) (EG) (T2G) (T2G)
 Beta  Orbitals:
       Virtual   (A1G) (A1G) (T1U) (T1U) (T1U) (A1G) (EG) (EG)
                 (T2G) (T2G) (T2G) (T1U) (T1U) (T1U) (?A) (?A)
                 (A2U) (?A) (?A) (?A) (?A) (A1G) (T1U) (T1U) (T1U)
                 (EG) (T2G) (EG) (T2G) (T2G)
 The electronic state of the initial guess is 2-A1G.
 Initial guess <Sx>= 0.0000 <Sy>= 0.0000 <Sz>= 0.5000 <S**2>= 0.7500 S= 0.5000
 Leave Link  401 at Sun Aug 18 15:10:29 2024, MaxMem=   13107200 cpu:       0.3
 (Enter /programs/64bit/g09/g09-gfortran/bin/l502.exe)
 UHF open shell SCF:
 Requested convergence on RMS density matrix=1.00D-08 within 128 cycles.
 Requested convergence on MAX density matrix=1.00D-06.
 Requested convergence on             energy=1.00D-06.
 No special actions if energy rises.
 Using DIIS extrapolation, IDIIS=  1040.
 Integral symmetry usage will be decided dynamically.
 Keep R1 and R2 ints in memory in canonical form, NReq=2360304.
 IEnd=       22753 IEndB=       22753 NGot=    13107200 MDV=    12704790
 LenX=    12704790 LenY=    12703124
 Symmetry not used in FoFDir.
 MinBra= 0 MaxBra= 3 Meth= 1.
 IRaf=       0 NMat=   1 IRICut=       1 DoRegI=T DoRafI=F ISym2E= 0 JSym2E=0.

 Cycle   1  Pass 1  IDiag  1:
 E=-0.495389165037610    
 DIIS: error= 1.98D-02 at cycle   1 NSaved=   1.
 NSaved= 1 IEnMin= 1 EnMin=-0.495389165037610     IErMin= 1 ErrMin= 1.98D-02
 ErrMax= 1.98D-02 EMaxC= 1.00D-01 BMatC= 4.85D-03 BMatP= 4.85D-03
 IDIUse=3 WtCom= 8.02D-01 WtEn= 1.98D-01
 Coeff-Com:  0.100D+01
 Coeff-En:   0.100D+01
 Coeff:      0.100D+01
 Gap=     0.760 Goal=   None    Shift=    0.000
 GapD=    0.760 DampG=2.000 DampE=0.500 DampFc=1.0000 IDamp=-1.
 RMSDP=2.25D-03 MaxDP=6.81D-02              OVMax= 5.85D-02

 Cycle   2  Pass 1  IDiag  1:
 E=-0.499245929108418     Delta-E=       -0.003856764071 Rises=F Damp=F
 DIIS: error= 8.15D-03 at cycle   2 NSaved=   2.
 NSaved= 2 IEnMin= 2 EnMin=-0.499245929108418     IErMin= 2 ErrMin= 8.15D-03
 ErrMax= 8.15D-03 EMaxC= 1.00D-01 BMatC= 7.46D-04 BMatP= 4.85D-03
 IDIUse=3 WtCom= 9.19D-01 WtEn= 8.15D-02
 Coeff-Com: -0.638D+00 0.164D+01
 Coeff-En:   0.000D+00 0.100D+01
 Coeff:     -0.586D+00 0.159D+01
 Gap=     0.767 Goal=   None    Shift=    0.000
 RMSDP=1.40D-03 MaxDP=3.51D-02 DE=-3.86D-03 OVMax= 3.62D-02

 Cycle   3  Pass 1  IDiag  1:
 E=-0.499944544724324     Delta-E=       -0.000698615616 Rises=F Damp=F
 DIIS: error= 4.01D-04 at cycle   3 NSaved=   3.
 NSaved= 3 IEnMin= 3 EnMin=-0.499944544724324     IErMin= 3 ErrMin= 4.01D-04
 ErrMax= 4.01D-04 EMaxC= 1.00D-01 BMatC= 1.35D-06 BMatP= 7.46D-04
 IDIUse=3 WtCom= 9.96D-01 WtEn= 4.01D-03
 Coeff-Com:  0.728D-01-0.231D+00 0.116D+01
 Coeff-En:   0.000D+00 0.000D+00 0.100D+01
 Coeff:      0.726D-01-0.230D+00 0.116D+01
 Gap=     0.767 Goal=   None    Shift=    0.000
 RMSDP=5.16D-05 MaxDP=1.20D-03 DE=-6.99D-04 OVMax= 1.43D-03

 Cycle   4  Pass 1  IDiag  1:
 E=-0.499945567751305     Delta-E=       -0.000001023027 Rises=F Damp=F
 DIIS: error= 9.82D-06 at cycle   4 NSaved=   4.
 NSaved= 4 IEnMin= 4 EnMin=-0.499945567751305     IErMin= 4 ErrMin= 9.82D-06
 ErrMax= 9.82D-06 EMaxC= 1.00D-01 BMatC= 1.38D-09 BMatP= 1.35D-06
 IDIUse=1 WtCom= 1.00D+00 WtEn= 0.00D+00
 Coeff-Com: -0.108D-01 0.358D-01-0.199D+00 0.117D+01
 Coeff:     -0.108D-01 0.358D-01-0.199D+00 0.117D+01
 Gap=     0.767 Goal=   None    Shift=    0.000
 RMSDP=2.25D-06 MaxDP=7.48D-05 DE=-1.02D-06 OVMax= 3.53D-05

 Cycle   5  Pass 1  IDiag  1:
 E=-0.499945568579921     Delta-E=       -0.000000000829 Rises=F Damp=F
 DIIS: error= 7.12D-07 at cycle   5 NSaved=   5.
 NSaved= 5 IEnMin= 5 EnMin=-0.499945568579921     IErMin= 5 ErrMin= 7.12D-07
 ErrMax= 7.12D-07 EMaxC= 1.00D-01 BMatC= 7.71D-12 BMatP= 1.38D-09
 IDIUse=1 WtCom= 1.00D+00 WtEn= 0.00D+00
 Coeff-Com:  0.220D-04-0.165D-03 0.159D-02-0.953D-01 0.109D+01
 Coeff:      0.220D-04-0.165D-03 0.159D-02-0.953D-01 0.109D+01
 Gap=     0.767 Goal=   None    Shift=    0.000
 RMSDP=1.41D-07 MaxDP=4.92D-06 DE=-8.29D-10 OVMax= 1.77D-06

 Cycle   6  Pass 1  IDiag  1:
 E=-0.499945568582988     Delta-E=       -0.000000000003 Rises=F Damp=F
 DIIS: error= 2.88D-10 at cycle   6 NSaved=   6.
 NSaved= 6 IEnMin= 6 EnMin=-0.499945568582988     IErMin= 6 ErrMin= 2.88D-10
 ErrMax= 2.88D-10 EMaxC= 1.00D-01 BMatC= 1.44D-18 BMatP= 7.71D-12
 IDIUse=1 WtCom= 1.00D+00 WtEn= 0.00D+00
 Coeff-Com: -0.831D-09 0.711D-08-0.904D-06-0.479D-04 0.311D-03 0.100D+01
 Coeff:     -0.831D-09 0.711D-08-0.904D-06-0.479D-04 0.311D-03 0.100D+01
 Gap=     0.767 Goal=   None    Shift=    0.000
 RMSDP=4.13D-11 MaxDP=1.47D-09 DE=-3.07D-12 OVMax= 5.32D-10

 SCF Done:  E(UHF) = -0.499945568583     A.U. after    6 cycles
             Convg  =    0.4132D-10             -V/T =  2.0000
 <Sx>= 0.0000 <Sy>= 0.0000 <Sz>= 0.5000 <S**2>= 0.7500 S= 0.5000
 <L.S>=  0.00000000000    
 KE= 4.999447883219D-01 PE=-9.998903569048D-01 EE=-1.110223024625D-16
 Annihilation of the first spin contaminant:
 S**2 before annihilation     0.7500,   after     0.7500
 Leave Link  502 at Sun Aug 18 15:10:30 2024, MaxMem=   13107200 cpu:       0.4
 (Enter /programs/64bit/g09/g09-gfortran/bin/l801.exe)
 Range of M.O.s used for correlation:     1    30
 NBasis=    30 NAE=     1 NBE=     0 NFC=     0 NFV=     0
 NROrb=     30 NOA=     1 NOB=     0 NVA=    29 NVB=    30
 *** There is no correlation energy for this system ***
 Leave Link  801 at Sun Aug 18 15:10:30 2024, MaxMem=   13107200 cpu:       0.0
 (Enter /programs/64bit/g09/g09-gfortran/bin/l906.exe)
 FulOut=F Deriv=T AODrv=T NAtomX=     1
   MMem=         522  MDisk=           1 MDiskD=           1
  W3Min=        2100 MinDsk=       61690 NBas6D=          35
 NBas2D=         714    NTT=         630    LW2=     3500000
    MDV=    13089058 MDiskM=        1584 NBas2p=         714
 Fully direct method using O(ONN) memory.
 IMap=   1
 JobTyp=2 Pass  1:  I=   1 to   1 NPSUse=  1 ParTrn=F ParDer=F DoDerP=T.
 Spin components of T(2) and E(2):
     alpha-alpha T2 =       0.0000000000D+00 E2=      0.0000000000D+00
     alpha-beta  T2 =       0.0000000000D+00 E2=      0.0000000000D+00
     beta-beta   T2 =       0.0000000000D+00 E2=      0.0000000000D+00
 The integrals were generated   1 times.
 (S**2,0)=  0.75000D+00           (S**2,1)=  0.75000D+00
 E(PUHF)=      -0.49994556858D+00        E(PMP2)=      -0.49994556858D+00
 ANorm=    0.1000000000D+01
 E2 =     0.0000000000D+00 EUMP2 =    -0.49994556858299D+00
 Leave Link  906 at Sun Aug 18 15:10:31 2024, MaxMem=   13107200 cpu:       0.9
 (Enter /programs/64bit/g09/g09-gfortran/bin/l1002.exe)
 Minotr:  UHF open shell wavefunction.
          Computing MP2/KS-MP2 derivatives.
          Using Z-Vector for PSCF gradient.
          Skipping F1 and S1 gradient terms here.
          IDoAtm=1
          Direct CPHF calculation.
          Differentiating once with respect to electric field.
                with respect to dipole field.
          Differentiating once with respect to nuclear coordinates.
          Using symmetry in CPHF.
          Requested convergence is 1.0D-10 RMS, and 1.0D-09 maximum.
          NewPWx=F KeepS1=T KeepF1=T KeepIn=T MapXYZ=F SortEE=F KeepMc=T.
          MDV=      13107186 using IRadAn=       0.
          Keep R1 and R2 ints in memory in canonical form, NReq=2338724.
 Symmetry not used in FoFDir.
 MinBra= 0 MaxBra= 3 Meth= 1.
 IRaf=       0 NMat=   1 IRICut=       1 DoRegI=T DoRafI=F ISym2E= 0 JSym2E=0.
          Solving linear equations separately, MaxMat=       0.
          There are     1 degrees of freedom in the 1st order CPHF.  IDoFFX=0.
 FoF2E skips out because all densities are zero.
 LinEq1:  Iter=  0 NonCon=     0 RMS=1.03D-18 Max=3.94D-18
 FoF2E skips out because all densities are zero.
 End of Minotr Frequency-dependent properties file   721 does not exist.
 End of Minotr Frequency-dependent properties file   722 does not exist.
 Leave Link 1002 at Sun Aug 18 15:10:31 2024, MaxMem=   13107200 cpu:       0.2
 (Enter /programs/64bit/g09/g09-gfortran/bin/l601.exe)
 Copying SCF densities to generalized density rwf, IOpCl= 1 IROHF=0.

 **********************************************************************

            Population analysis using the SCF density.

 **********************************************************************

 Orbital symmetries:
 Alpha Orbitals:
       Occupied  (A1G)
       Virtual   (A1G) (T1U) (T1U) (T1U) (A1G) (EG) (EG) (T2G)
                 (T2G) (T2G) (T1U) (T1U) (T1U) (?A) (A2U) (?A)
                 (?A) (?A) (?A) (?A) (A1G) (T1U) (T1U) (T1U) (T2G)
                 (EG) (T2G) (T2G) (EG)
 Beta  Orbitals:
       Virtual   (A1G) (A1G) (T1U) (T1U) (T1U) (A1G) (EG) (T2G)
                 (T2G) (T2G) (EG) (T1U) (T1U) (T1U) (?A) (?A) (A2U)
                 (?A) (?A) (?A) (?A) (A1G) (T1U) (T1U) (T1U) (EG)
                 (T2G) (EG) (T2G) (T2G)
 The electronic state is 2-A1G.
 Alpha  occ. eigenvalues --   -0.49995
 Alpha virt. eigenvalues --    0.26739   0.53193   0.53193   0.53193   1.49151
 Alpha virt. eigenvalues --    2.06816   2.06816   2.06816   2.06816   2.06816
 Alpha virt. eigenvalues --    2.35020   2.35020   2.35020   6.05504   6.05504
 Alpha virt. eigenvalues --    6.05504   6.05504   6.05504   6.05504   6.05504
 Alpha virt. eigenvalues --    7.29711   7.76335   7.76335   7.76335   8.12089
 Alpha virt. eigenvalues --    8.12089   8.12089   8.12089   8.12089
  Beta virt. eigenvalues --    0.04826   0.39059   0.60768   0.60768   0.60768
  Beta virt. eigenvalues --    1.61293   2.11295   2.11295   2.11295   2.11295
  Beta virt. eigenvalues --    2.11295   2.43200   2.43200   2.43200   6.08674
  Beta virt. eigenvalues --    6.08674   6.08674   6.08674   6.08674   6.08674
  Beta virt. eigenvalues --    6.08674   7.38043   7.82307   7.82307   7.82307
  Beta virt. eigenvalues --    8.16504   8.16504   8.16504   8.16504   8.16504
     Alpha Molecular Orbital Coefficients:
                           1         2         3         4         5
                       (A1G)--O  (A1G)--V  (T1U)--V  (T1U)--V  (T1U)--V
     Eigenvalues --    -0.49995   0.26739   0.53193   0.53193   0.53193
   1 1   H  1S          0.08741  -0.07886   0.00000   0.00000   0.00000
   2        2S          0.25687   0.05858   0.00000   0.00000   0.00000
   3        3S          0.49737  -1.50418   0.00000   0.00000   0.00000
   4        4S          0.29613   1.73977   0.00000   0.00000   0.00000
   5        5PX         0.00000   0.00000   0.00000   0.00000   0.07225
   6        5PY         0.00000   0.00000   0.00000   0.07225   0.00000
   7        5PZ         0.00000   0.00000   0.07225   0.00000   0.00000
   8        6PX         0.00000   0.00000   0.00000   0.00000  -0.25342
   9        6PY         0.00000   0.00000   0.00000  -0.25342   0.00000
  10        6PZ         0.00000   0.00000  -0.25342   0.00000   0.00000
  11        7PX         0.00000   0.00000   0.00000   0.00000   1.15006
  12        7PY         0.00000   0.00000   0.00000   1.15006   0.00000
  13        7PZ         0.00000   0.00000   1.15006   0.00000   0.00000
  14        8D 0        0.00000   0.00000   0.00000   0.00000   0.00000
  15        8D+1        0.00000   0.00000   0.00000   0.00000   0.00000
  16        8D-1        0.00000   0.00000   0.00000   0.00000   0.00000
  17        8D+2       -0.00000  -0.00000   0.00000   0.00000   0.00000
  18        8D-2        0.00000   0.00000   0.00000   0.00000   0.00000
  19        9D 0       -0.00000  -0.00000   0.00000   0.00000   0.00000
  20        9D+1        0.00000   0.00000   0.00000   0.00000   0.00000
  21        9D-1        0.00000   0.00000   0.00000   0.00000   0.00000
  22        9D+2        0.00000  -0.00000   0.00000   0.00000   0.00000
  23        9D-2        0.00000   0.00000   0.00000   0.00000   0.00000
  24       10F 0        0.00000   0.00000  -0.00000   0.00000   0.00000
  25       10F+1        0.00000   0.00000   0.00000   0.00000  -0.00000
  26       10F-1        0.00000   0.00000   0.00000   0.00000   0.00000
  27       10F+2        0.00000   0.00000   0.00000   0.00000   0.00000
  28       10F-2        0.00000   0.00000   0.00000   0.00000   0.00000
  29       10F+3        0.00000   0.00000   0.00000   0.00000   0.00000
  30       10F-3        0.00000   0.00000   0.00000  -0.00000   0.00000
                           6         7         8         9        10
                       (A1G)--V   (EG)--V   (EG)--V  (T2G)--V  (T2G)--V
     Eigenvalues --     1.49151   2.06816   2.06816   2.06816   2.06816
   1 1   H  1S         -0.02141   0.00000   0.00000   0.00000   0.00000
   2        2S         -1.88961  -0.00000  -0.00000   0.00000   0.00000
   3        3S          2.59124   0.00000   0.00000   0.00000   0.00000
   4        4S         -1.08210  -0.00000  -0.00000   0.00000   0.00000
   5        5PX         0.00000   0.00000   0.00000   0.00000   0.00000
   6        5PY         0.00000   0.00000   0.00000   0.00000   0.00000
   7        5PZ         0.00000   0.00000   0.00000   0.00000   0.00000
   8        6PX         0.00000   0.00000   0.00000   0.00000   0.00000
   9        6PY         0.00000   0.00000   0.00000   0.00000   0.00000
  10        6PZ         0.00000   0.00000   0.00000   0.00000   0.00000
  11        7PX         0.00000   0.00000   0.00000   0.00000   0.00000
  12        7PY         0.00000   0.00000   0.00000   0.00000   0.00000
  13        7PZ         0.00000   0.00000   0.00000   0.00000   0.00000
  14        8D 0        0.00000  -0.13782  -0.05100   0.00000   0.00000
  15        8D+1        0.00000   0.00000   0.00000   0.00000  -0.14695
  16        8D-1        0.00000   0.00000   0.00000   0.00000   0.00000
  17        8D+2        0.00000   0.05100  -0.13782   0.00000   0.00000
  18        8D-2        0.00000   0.00000   0.00000  -0.14695   0.00000
  19        9D 0       -0.00000   1.01173   0.37439   0.00000   0.00000
  20        9D+1        0.00000   0.00000   0.00000   0.00000   1.07878
  21        9D-1        0.00000   0.00000   0.00000   0.00000   0.00000
  22        9D+2       -0.00000  -0.37439   1.01173   0.00000   0.00000
  23        9D-2        0.00000   0.00000   0.00000   1.07878   0.00000
  24       10F 0        0.00000   0.00000   0.00000   0.00000   0.00000
  25       10F+1        0.00000   0.00000   0.00000   0.00000   0.00000
  26       10F-1        0.00000   0.00000   0.00000   0.00000   0.00000
  27       10F+2        0.00000   0.00000   0.00000   0.00000   0.00000
  28       10F-2        0.00000   0.00000   0.00000   0.00000   0.00000
  29       10F+3        0.00000   0.00000   0.00000   0.00000   0.00000
  30       10F-3        0.00000   0.00000   0.00000   0.00000   0.00000
                          11        12        13        14        15
                       (T2G)--V  (T1U)--V  (T1U)--V  (T1U)--V      V
     Eigenvalues --     2.06816   2.35020   2.35020   2.35020   6.05504
   1 1   H  1S          0.00000   0.00000   0.00000   0.00000   0.00000
   2        2S          0.00000   0.00000   0.00000   0.00000   0.00000
   3        3S          0.00000   0.00000   0.00000   0.00000   0.00000
   4        4S          0.00000   0.00000   0.00000   0.00000   0.00000
   5        5PX         0.00000   0.00000  -0.22542   0.00000   0.00000
   6        5PY         0.00000   0.00000   0.00000  -0.22542   0.00000
   7        5PZ         0.00000  -0.22542   0.00000   0.00000   0.00000
   8        6PX         0.00000   0.00000   1.64605   0.00000  -0.00000
   9        6PY         0.00000   0.00000   0.00000   1.64605   0.00000
  10        6PZ         0.00000   1.64605   0.00000   0.00000   0.00000
  11        7PX         0.00000   0.00000  -0.98003   0.00000   0.00000
  12        7PY         0.00000   0.00000   0.00000  -0.98003   0.00000
  13        7PZ         0.00000  -0.98003   0.00000   0.00000   0.00000
  14        8D 0        0.00000   0.00000   0.00000   0.00000   0.00000
  15        8D+1        0.00000   0.00000   0.00000   0.00000   0.00000
  16        8D-1       -0.14695   0.00000   0.00000   0.00000   0.00000
  17        8D+2        0.00000   0.00000   0.00000   0.00000   0.00000
  18        8D-2        0.00000   0.00000   0.00000   0.00000   0.00000
  19        9D 0        0.00000   0.00000   0.00000   0.00000   0.00000
  20        9D+1        0.00000   0.00000   0.00000   0.00000   0.00000
  21        9D-1        1.07878   0.00000   0.00000   0.00000   0.00000
  22        9D+2        0.00000   0.00000   0.00000   0.00000   0.00000
  23        9D-2        0.00000   0.00000   0.00000   0.00000   0.00000
  24       10F 0        0.00000   0.00000   0.00000   0.00000   0.00000
  25       10F+1        0.00000   0.00000  -0.00000   0.00000   0.52953
  26       10F-1        0.00000   0.00000   0.00000  -0.00000   0.00000
  27       10F+2        0.00000   0.00000   0.00000   0.00000   0.00000
  28       10F-2        0.00000   0.00000   0.00000   0.00000   0.00000
  29       10F+3        0.00000   0.00000  -0.00000   0.00000   0.84829
  30       10F-3        0.00000   0.00000   0.00000   0.00000   0.00000
                          16        17        18        19        20
                       (A2U)--V      V         V         V         V
     Eigenvalues --     6.05504   6.05504   6.05504   6.05504   6.05504
   1 1   H  1S          0.00000   0.00000   0.00000   0.00000   0.00000
   2        2S          0.00000   0.00000   0.00000   0.00000   0.00000
   3        3S          0.00000   0.00000   0.00000   0.00000   0.00000
   4        4S          0.00000   0.00000   0.00000   0.00000   0.00000
   5        5PX         0.00000   0.00000   0.00000   0.00000   0.00000
   6        5PY         0.00000   0.00000   0.00000   0.00000   0.00000
   7        5PZ         0.00000  -0.00000   0.00000   0.00000  -0.00000
   8        6PX         0.00000   0.00000   0.00000  -0.00000   0.00000
   9        6PY         0.00000   0.00000  -0.00000   0.00000   0.00000
  10        6PZ         0.00000   0.00000   0.00000   0.00000   0.00000
  11        7PX         0.00000   0.00000   0.00000  -0.00000   0.00000
  12        7PY         0.00000   0.00000  -0.00000   0.00000   0.00000
  13        7PZ         0.00000  -0.00000   0.00000   0.00000   0.00000
  14        8D 0        0.00000   0.00000   0.00000   0.00000   0.00000
  15        8D+1        0.00000   0.00000   0.00000   0.00000   0.00000
  16        8D-1        0.00000   0.00000   0.00000   0.00000   0.00000
  17        8D+2        0.00000   0.00000   0.00000   0.00000   0.00000
  18        8D-2        0.00000   0.00000   0.00000   0.00000   0.00000
  19        9D 0        0.00000   0.00000   0.00000   0.00000   0.00000
  20        9D+1        0.00000   0.00000   0.00000   0.00000   0.00000
  21        9D-1        0.00000   0.00000   0.00000   0.00000   0.00000
  22        9D+2        0.00000   0.00000   0.00000   0.00000   0.00000
  23        9D-2        0.00000   0.00000   0.00000   0.00000   0.00000
  24       10F 0        0.00000   0.98225   0.00000   0.00000   0.18759
  25       10F+1        0.00000   0.00000   0.00000   0.84829   0.00000
  26       10F-1        0.00000   0.00000   0.99929   0.00000   0.00000
  27       10F+2        0.00000  -0.18759   0.00000   0.00000   0.98225
  28       10F-2        1.00000   0.00000   0.00000   0.00000   0.00000
  29       10F+3        0.00000   0.00000   0.00000  -0.52953   0.00000
  30       10F-3        0.00000   0.00000  -0.03757   0.00000   0.00000
                          21        22        23        24        25
                           V     (A1G)--V  (T1U)--V  (T1U)--V  (T1U)--V
     Eigenvalues --     6.05504   7.29711   7.76335   7.76335   7.76335
   1 1   H  1S          0.00000  -1.63099   0.00000   0.00000   0.00000
   2        2S          0.00000   2.13756   0.00000   0.00000   0.00000
   3        3S          0.00000  -1.42887   0.00000   0.00000   0.00000
   4        4S          0.00000   0.49371   0.00000   0.00000   0.00000
   5        5PX         0.00000   0.00000   0.00000   1.63967   0.00000
   6        5PY        -0.00000   0.00000   1.63967   0.00000   0.00000
   7        5PZ         0.00000   0.00000   0.00000   0.00000   1.63967
   8        6PX         0.00000   0.00000   0.00000  -1.51764   0.00000
   9        6PY        -0.00000   0.00000  -1.51764   0.00000   0.00000
  10        6PZ         0.00000   0.00000   0.00000   0.00000  -1.51764
  11        7PX         0.00000   0.00000   0.00000   0.53939   0.00000
  12        7PY         0.00000   0.00000   0.53939   0.00000   0.00000
  13        7PZ         0.00000   0.00000   0.00000   0.00000   0.53939
  14        8D 0        0.00000   0.00000   0.00000   0.00000   0.00000
  15        8D+1        0.00000   0.00000   0.00000   0.00000   0.00000
  16        8D-1        0.00000   0.00000   0.00000   0.00000   0.00000
  17        8D+2        0.00000  -0.00000   0.00000   0.00000   0.00000
  18        8D-2        0.00000   0.00000   0.00000   0.00000   0.00000
  19        9D 0        0.00000  -0.00000   0.00000   0.00000   0.00000
  20        9D+1        0.00000   0.00000   0.00000   0.00000   0.00000
  21        9D-1        0.00000   0.00000   0.00000   0.00000   0.00000
  22        9D+2        0.00000   0.00000   0.00000   0.00000   0.00000
  23        9D-2        0.00000   0.00000   0.00000   0.00000   0.00000
  24       10F 0        0.00000   0.00000   0.00000   0.00000   0.00000
  25       10F+1        0.00000   0.00000   0.00000  -0.00000   0.00000
  26       10F-1        0.03757   0.00000  -0.00000   0.00000   0.00000
  27       10F+2        0.00000   0.00000   0.00000   0.00000  -0.00000
  28       10F-2        0.00000   0.00000   0.00000   0.00000   0.00000
  29       10F+3        0.00000   0.00000   0.00000  -0.00000   0.00000
  30       10F-3        0.99929   0.00000   0.00000   0.00000   0.00000
                          26        27        28        29        30
                       (T2G)--V   (EG)--V  (T2G)--V  (T2G)--V   (EG)--V
     Eigenvalues --     8.12089   8.12089   8.12089   8.12089   8.12089
   1 1   H  1S          0.00000   0.00000   0.00000   0.00000   0.00000
   2        2S          0.00000  -0.00000   0.00000   0.00000  -0.00000
   3        3S          0.00000   0.00000   0.00000   0.00000   0.00000
   4        4S          0.00000  -0.00000   0.00000   0.00000  -0.00000
   5        5PX         0.00000   0.00000   0.00000   0.00000   0.00000
   6        5PY         0.00000   0.00000   0.00000   0.00000   0.00000
   7        5PZ         0.00000   0.00000   0.00000   0.00000   0.00000
   8        6PX         0.00000   0.00000   0.00000   0.00000   0.00000
   9        6PY         0.00000   0.00000   0.00000   0.00000   0.00000
  10        6PZ         0.00000   0.00000   0.00000   0.00000   0.00000
  11        7PX         0.00000   0.00000   0.00000   0.00000   0.00000
  12        7PY         0.00000   0.00000   0.00000   0.00000   0.00000
  13        7PZ         0.00000   0.00000   0.00000   0.00000   0.00000
  14        8D 0        0.00000   1.18637   0.00000   0.00000   0.30037
  15        8D+1        0.00000   0.00000   0.00000   1.22381   0.00000
  16        8D-1        1.22381   0.00000   0.00000   0.00000   0.00000
  17        8D+2        0.00000  -0.30037   0.00000   0.00000   1.18637
  18        8D-2        0.00000   0.00000   1.22381   0.00000   0.00000
  19        9D 0        0.00000  -0.57803   0.00000   0.00000  -0.14635
  20        9D+1        0.00000   0.00000   0.00000  -0.59626   0.00000
  21        9D-1       -0.59626   0.00000   0.00000   0.00000   0.00000
  22        9D+2        0.00000   0.14635   0.00000   0.00000  -0.57803
  23        9D-2        0.00000   0.00000  -0.59626   0.00000   0.00000
  24       10F 0        0.00000   0.00000   0.00000   0.00000   0.00000
  25       10F+1        0.00000   0.00000   0.00000   0.00000   0.00000
  26       10F-1        0.00000   0.00000   0.00000   0.00000   0.00000
  27       10F+2        0.00000   0.00000   0.00000   0.00000   0.00000
  28       10F-2        0.00000   0.00000   0.00000   0.00000   0.00000
  29       10F+3        0.00000   0.00000   0.00000   0.00000   0.00000
  30       10F-3        0.00000   0.00000   0.00000   0.00000   0.00000
     Beta Molecular Orbital Coefficients:
                           1         2         3         4         5
                       (A1G)--V  (A1G)--V  (T1U)--V  (T1U)--V  (T1U)--V
     Eigenvalues --     0.04826   0.39059   0.60768   0.60768   0.60768
   1 1   H  1S          0.03871   0.10106   0.00000   0.00000   0.00000
   2        2S          0.16577  -0.10528   0.00000   0.00000   0.00000
   3        3S         -0.09276   1.79498   0.00000   0.00000   0.00000
   4        4S          0.98125  -1.52470   0.00000   0.00000   0.00000
   5        5PX         0.00000   0.00000   0.00000   0.07646   0.00000
   6        5PY         0.00000   0.00000   0.07646   0.00000   0.00000
   7        5PZ         0.00000   0.00000   0.00000   0.00000   0.07646
   8        6PX         0.00000   0.00000   0.00000  -0.29710   0.00000
   9        6PY         0.00000   0.00000  -0.29710   0.00000   0.00000
  10        6PZ         0.00000   0.00000   0.00000   0.00000  -0.29710
  11        7PX         0.00000   0.00000   0.00000   1.17613   0.00000
  12        7PY         0.00000   0.00000   1.17613   0.00000   0.00000
  13        7PZ         0.00000   0.00000   0.00000   0.00000   1.17613
  14        8D 0       -0.00000  -0.00000   0.00000   0.00000   0.00000
  15        8D+1        0.00000   0.00000   0.00000   0.00000   0.00000
  16        8D-1        0.00000   0.00000   0.00000   0.00000   0.00000
  17        8D+2       -0.00000  -0.00000   0.00000   0.00000   0.00000
  18        8D-2        0.00000   0.00000   0.00000   0.00000   0.00000
  19        9D 0       -0.00000   0.00000   0.00000   0.00000   0.00000
  20        9D+1        0.00000   0.00000   0.00000   0.00000   0.00000
  21        9D-1        0.00000   0.00000   0.00000   0.00000   0.00000
  22        9D+2        0.00000   0.00000   0.00000   0.00000   0.00000
  23        9D-2        0.00000   0.00000   0.00000   0.00000   0.00000
  24       10F 0        0.00000   0.00000   0.00000   0.00000  -0.00000
  25       10F+1        0.00000   0.00000   0.00000   0.00000   0.00000
  26       10F-1        0.00000   0.00000  -0.00000   0.00000   0.00000
  27       10F+2        0.00000   0.00000   0.00000   0.00000   0.00000
  28       10F-2        0.00000   0.00000   0.00000   0.00000   0.00000
  29       10F+3        0.00000   0.00000   0.00000   0.00000   0.00000
  30       10F-3        0.00000   0.00000  -0.00000   0.00000   0.00000
                           6         7         8         9        10
                       (A1G)--V   (EG)--V  (T2G)--V  (T2G)--V  (T2G)--V
     Eigenvalues --     1.61293   2.11295   2.11295   2.11295   2.11295
   1 1   H  1S         -0.01808   0.00000   0.00000   0.00000   0.00000
   2        2S         -1.91781   0.00000   0.00000   0.00000   0.00000
   3        3S          2.45809  -0.00000   0.00000   0.00000   0.00000
   4        4S         -1.00199   0.00000   0.00000   0.00000   0.00000
   5        5PX         0.00000   0.00000   0.00000   0.00000   0.00000
   6        5PY         0.00000   0.00000   0.00000   0.00000   0.00000
   7        5PZ         0.00000   0.00000   0.00000   0.00000   0.00000
   8        6PX         0.00000   0.00000   0.00000   0.00000   0.00000
   9        6PY         0.00000   0.00000   0.00000   0.00000   0.00000
  10        6PZ         0.00000   0.00000   0.00000   0.00000   0.00000
  11        7PX         0.00000   0.00000   0.00000   0.00000   0.00000
  12        7PY         0.00000   0.00000   0.00000   0.00000   0.00000
  13        7PZ         0.00000   0.00000   0.00000   0.00000   0.00000
  14        8D 0       -0.00000  -0.15002   0.00000   0.00000   0.00000
  15        8D+1        0.00000   0.00000   0.00000   0.00000  -0.15026
  16        8D-1        0.00000   0.00000  -0.15026   0.00000   0.00000
  17        8D+2       -0.00000   0.00836   0.00000   0.00000   0.00000
  18        8D-2        0.00000   0.00000   0.00000  -0.15026   0.00000
  19        9D 0        0.00000   1.07872   0.00000   0.00000   0.00000
  20        9D+1        0.00000   0.00000   0.00000   0.00000   1.08039
  21        9D-1        0.00000   0.00000   1.08039   0.00000   0.00000
  22        9D+2        0.00000  -0.06008   0.00000   0.00000   0.00000
  23        9D-2        0.00000   0.00000   0.00000   1.08039   0.00000
  24       10F 0        0.00000   0.00000   0.00000   0.00000   0.00000
  25       10F+1        0.00000   0.00000   0.00000   0.00000   0.00000
  26       10F-1        0.00000   0.00000   0.00000   0.00000   0.00000
  27       10F+2        0.00000   0.00000   0.00000   0.00000   0.00000
  28       10F-2        0.00000   0.00000   0.00000   0.00000   0.00000
  29       10F+3        0.00000   0.00000   0.00000   0.00000   0.00000
  30       10F-3        0.00000   0.00000   0.00000   0.00000   0.00000
                          11        12        13        14        15
                        (EG)--V  (T1U)--V  (T1U)--V  (T1U)--V      V
     Eigenvalues --     2.11295   2.43200   2.43200   2.43200   6.08674
   1 1   H  1S          0.00000   0.00000   0.00000   0.00000   0.00000
   2        2S          0.00000   0.00000   0.00000   0.00000   0.00000
   3        3S         -0.00000   0.00000   0.00000   0.00000   0.00000
   4        4S          0.00000   0.00000   0.00000   0.00000   0.00000
   5        5PX         0.00000   0.00000  -0.23364   0.00000   0.00000
   6        5PY         0.00000  -0.23364   0.00000   0.00000   0.00000
   7        5PZ         0.00000   0.00000   0.00000  -0.23364  -0.00000
   8        6PX         0.00000   0.00000   1.64790   0.00000   0.00000
   9        6PY         0.00000   1.64790   0.00000   0.00000   0.00000
  10        6PZ         0.00000   0.00000   0.00000   1.64790   0.00000
  11        7PX         0.00000   0.00000  -0.95115   0.00000   0.00000
  12        7PY         0.00000  -0.95115   0.00000   0.00000   0.00000
  13        7PZ         0.00000   0.00000   0.00000  -0.95115   0.00000
  14        8D 0       -0.00836   0.00000   0.00000   0.00000   0.00000
  15        8D+1        0.00000   0.00000   0.00000   0.00000   0.00000
  16        8D-1        0.00000   0.00000   0.00000   0.00000   0.00000
  17        8D+2       -0.15002   0.00000   0.00000   0.00000   0.00000
  18        8D-2        0.00000   0.00000   0.00000   0.00000   0.00000
  19        9D 0        0.06008   0.00000   0.00000   0.00000   0.00000
  20        9D+1        0.00000   0.00000   0.00000   0.00000   0.00000
  21        9D-1        0.00000   0.00000   0.00000   0.00000   0.00000
  22        9D+2        1.07872   0.00000   0.00000   0.00000   0.00000
  23        9D-2        0.00000   0.00000   0.00000   0.00000   0.00000
  24       10F 0        0.00000   0.00000   0.00000   0.00000   0.82938
  25       10F+1        0.00000   0.00000  -0.00000   0.00000   0.00000
  26       10F-1        0.00000  -0.00000   0.00000   0.00000   0.00000
  27       10F+2        0.00000   0.00000   0.00000  -0.00000  -0.55868
  28       10F-2        0.00000   0.00000   0.00000   0.00000   0.00000
  29       10F+3        0.00000   0.00000  -0.00000   0.00000   0.00000
  30       10F-3        0.00000   0.00000   0.00000   0.00000   0.00000
                          16        17        18        19        20
                           V     (A2U)--V      V         V         V
     Eigenvalues --     6.08674   6.08674   6.08674   6.08674   6.08674
   1 1   H  1S          0.00000   0.00000   0.00000   0.00000   0.00000
   2        2S          0.00000   0.00000   0.00000   0.00000   0.00000
   3        3S          0.00000   0.00000   0.00000   0.00000   0.00000
   4        4S          0.00000   0.00000   0.00000   0.00000   0.00000
   5        5PX         0.00000   0.00000   0.00000   0.00000   0.00000
   6        5PY         0.00000   0.00000   0.00000   0.00000   0.00000
   7        5PZ         0.00000   0.00000   0.00000   0.00000  -0.00000
   8        6PX        -0.00000   0.00000   0.00000   0.00000   0.00000
   9        6PY         0.00000   0.00000  -0.00000  -0.00000   0.00000
  10        6PZ         0.00000   0.00000   0.00000   0.00000   0.00000
  11        7PX        -0.00000   0.00000   0.00000   0.00000   0.00000
  12        7PY         0.00000   0.00000   0.00000  -0.00000   0.00000
  13        7PZ         0.00000   0.00000   0.00000   0.00000  -0.00000
  14        8D 0        0.00000   0.00000   0.00000   0.00000   0.00000
  15        8D+1        0.00000   0.00000   0.00000   0.00000   0.00000
  16        8D-1        0.00000   0.00000   0.00000   0.00000   0.00000
  17        8D+2        0.00000   0.00000   0.00000   0.00000   0.00000
  18        8D-2        0.00000   0.00000   0.00000   0.00000   0.00000
  19        9D 0        0.00000   0.00000   0.00000   0.00000   0.00000
  20        9D+1        0.00000   0.00000   0.00000   0.00000   0.00000
  21        9D-1        0.00000   0.00000   0.00000   0.00000   0.00000
  22        9D+2        0.00000   0.00000   0.00000   0.00000   0.00000
  23        9D-2        0.00000   0.00000   0.00000   0.00000   0.00000
  24       10F 0        0.00000   0.00000   0.00000   0.00000   0.55868
  25       10F+1        0.45658   0.00000   0.00000   0.00000   0.00000
  26       10F-1        0.00000   0.00000   0.87825   0.47821   0.00000
  27       10F+2        0.00000   0.00000   0.00000   0.00000   0.82938
  28       10F-2        0.00000   1.00000   0.00000   0.00000   0.00000
  29       10F+3        0.88968   0.00000   0.00000   0.00000   0.00000
  30       10F-3        0.00000   0.00000  -0.47821   0.87825   0.00000
                          21        22        23        24        25
                           V     (A1G)--V  (T1U)--V  (T1U)--V  (T1U)--V
     Eigenvalues --     6.08674   7.38043   7.82307   7.82307   7.82307
   1 1   H  1S          0.00000  -1.63169   0.00000   0.00000   0.00000
   2        2S          0.00000   2.11958   0.00000   0.00000   0.00000
   3        3S          0.00000  -1.41186   0.00000   0.00000   0.00000
   4        4S          0.00000   0.48746   0.00000   0.00000   0.00000
   5        5PX         0.00000   0.00000   0.00000   1.63833   0.00000
   6        5PY         0.00000   0.00000   1.63833   0.00000   0.00000
   7        5PZ         0.00000   0.00000   0.00000   0.00000   1.63833
   8        6PX        -0.00000   0.00000   0.00000  -1.50767   0.00000
   9        6PY         0.00000   0.00000  -1.50767   0.00000   0.00000
  10        6PZ         0.00000   0.00000   0.00000   0.00000  -1.50767
  11        7PX        -0.00000   0.00000   0.00000   0.53487   0.00000
  12        7PY         0.00000   0.00000   0.53487   0.00000   0.00000
  13        7PZ         0.00000   0.00000   0.00000   0.00000   0.53487
  14        8D 0        0.00000   0.00000   0.00000   0.00000   0.00000
  15        8D+1        0.00000   0.00000   0.00000   0.00000   0.00000
  16        8D-1        0.00000   0.00000   0.00000   0.00000   0.00000
  17        8D+2        0.00000   0.00000   0.00000   0.00000   0.00000
  18        8D-2        0.00000   0.00000   0.00000   0.00000   0.00000
  19        9D 0        0.00000  -0.00000   0.00000   0.00000   0.00000
  20        9D+1        0.00000   0.00000   0.00000   0.00000   0.00000
  21        9D-1        0.00000   0.00000   0.00000   0.00000   0.00000
  22        9D+2        0.00000  -0.00000   0.00000   0.00000   0.00000
  23        9D-2        0.00000   0.00000   0.00000   0.00000   0.00000
  24       10F 0        0.00000   0.00000   0.00000   0.00000   0.00000
  25       10F+1        0.88968   0.00000   0.00000  -0.00000   0.00000
  26       10F-1        0.00000   0.00000  -0.00000   0.00000   0.00000
  27       10F+2        0.00000   0.00000   0.00000   0.00000  -0.00000
  28       10F-2        0.00000   0.00000   0.00000   0.00000   0.00000
  29       10F+3       -0.45658   0.00000   0.00000  -0.00000   0.00000
  30       10F-3        0.00000   0.00000   0.00000   0.00000   0.00000
                          26        27        28        29        30
                        (EG)--V  (T2G)--V   (EG)--V  (T2G)--V  (T2G)--V
     Eigenvalues --     8.16504   8.16504   8.16504   8.16504   8.16504
   1 1   H  1S          0.00000   0.00000   0.00000   0.00000   0.00000
   2        2S         -0.00000   0.00000  -0.00000   0.00000   0.00000
   3        3S          0.00000   0.00000   0.00000   0.00000   0.00000
   4        4S         -0.00000   0.00000  -0.00000   0.00000   0.00000
   5        5PX         0.00000   0.00000   0.00000   0.00000   0.00000
   6        5PY         0.00000   0.00000   0.00000   0.00000   0.00000
   7        5PZ         0.00000   0.00000   0.00000   0.00000   0.00000
   8        6PX         0.00000   0.00000   0.00000   0.00000   0.00000
   9        6PY         0.00000   0.00000   0.00000   0.00000   0.00000
  10        6PZ         0.00000   0.00000   0.00000   0.00000   0.00000
  11        7PX         0.00000   0.00000   0.00000   0.00000   0.00000
  12        7PY         0.00000   0.00000   0.00000   0.00000   0.00000
  13        7PZ         0.00000   0.00000   0.00000   0.00000   0.00000
  14        8D 0        1.22294   0.00000   0.03388   0.00000   0.00000
  15        8D+1        0.00000   0.00000   0.00000   0.00000   1.22341
  16        8D-1        0.00000   1.22341   0.00000   0.00000   0.00000
  17        8D+2       -0.03388   0.00000   1.22294   0.00000   0.00000
  18        8D-2        0.00000   0.00000   0.00000   1.22341   0.00000
  19        9D 0       -0.59312   0.00000  -0.01643   0.00000   0.00000
  20        9D+1        0.00000   0.00000   0.00000   0.00000  -0.59335
  21        9D-1        0.00000  -0.59335   0.00000   0.00000   0.00000
  22        9D+2        0.01643   0.00000  -0.59312   0.00000   0.00000
  23        9D-2        0.00000   0.00000   0.00000  -0.59335   0.00000
  24       10F 0        0.00000   0.00000   0.00000   0.00000   0.00000
  25       10F+1        0.00000   0.00000   0.00000   0.00000   0.00000
  26       10F-1        0.00000   0.00000   0.00000   0.00000   0.00000
  27       10F+2        0.00000   0.00000   0.00000   0.00000   0.00000
  28       10F-2        0.00000   0.00000   0.00000   0.00000   0.00000
  29       10F+3        0.00000   0.00000   0.00000   0.00000   0.00000
  30       10F-3        0.00000   0.00000   0.00000   0.00000   0.00000
     Alpha Density Matrix:
                           1         2         3         4         5
   1 1   H  1S          0.00764
   2        2S          0.02245   0.06598
   3        3S          0.04347   0.12776   0.24738
   4        4S          0.02588   0.07607   0.14729   0.08769
   5        5PX         0.00000   0.00000   0.00000   0.00000   0.00000
   6        5PY         0.00000   0.00000   0.00000   0.00000   0.00000
   7        5PZ         0.00000   0.00000   0.00000   0.00000   0.00000
   8        6PX         0.00000   0.00000   0.00000   0.00000   0.00000
   9        6PY         0.00000   0.00000   0.00000   0.00000   0.00000
  10        6PZ         0.00000   0.00000   0.00000   0.00000   0.00000
  11        7PX         0.00000   0.00000   0.00000   0.00000   0.00000
  12        7PY         0.00000   0.00000   0.00000   0.00000   0.00000
  13        7PZ         0.00000   0.00000   0.00000   0.00000   0.00000
  14        8D 0       -0.00000  -0.00000  -0.00000  -0.00000   0.00000
  15        8D+1        0.00000   0.00000   0.00000   0.00000   0.00000
  16        8D-1       -0.00000  -0.00000  -0.00000  -0.00000   0.00000
  17        8D+2        0.00000  -0.00000   0.00000  -0.00000   0.00000
  18        8D-2        0.00000   0.00000   0.00000   0.00000   0.00000
  19        9D 0        0.00000   0.00000  -0.00000   0.00000   0.00000
  20        9D+1       -0.00000  -0.00000  -0.00000  -0.00000   0.00000
  21        9D-1        0.00000   0.00000   0.00000   0.00000   0.00000
  22        9D+2       -0.00000  -0.00000  -0.00000  -0.00000   0.00000
  23        9D-2       -0.00000  -0.00000  -0.00000  -0.00000   0.00000
  24       10F 0        0.00000   0.00000   0.00000   0.00000   0.00000
  25       10F+1        0.00000   0.00000   0.00000   0.00000   0.00000
  26       10F-1        0.00000   0.00000   0.00000   0.00000   0.00000
  27       10F+2        0.00000   0.00000   0.00000   0.00000   0.00000
  28       10F-2        0.00000   0.00000   0.00000   0.00000   0.00000
  29       10F+3        0.00000   0.00000   0.00000   0.00000   0.00000
  30       10F-3        0.00000   0.00000   0.00000   0.00000   0.00000
                           6         7         8         9        10
   6        5PY         0.00000
   7        5PZ         0.00000   0.00000
   8        6PX         0.00000   0.00000   0.00000
   9        6PY         0.00000   0.00000   0.00000   0.00000
  10        6PZ         0.00000   0.00000   0.00000   0.00000   0.00000
  11        7PX         0.00000   0.00000   0.00000   0.00000   0.00000
  12        7PY         0.00000   0.00000   0.00000   0.00000   0.00000
  13        7PZ         0.00000   0.00000   0.00000   0.00000   0.00000
  14        8D 0        0.00000   0.00000   0.00000   0.00000   0.00000
  15        8D+1        0.00000   0.00000   0.00000   0.00000   0.00000
  16        8D-1        0.00000   0.00000   0.00000   0.00000   0.00000
  17        8D+2        0.00000   0.00000   0.00000   0.00000   0.00000
  18        8D-2        0.00000   0.00000   0.00000   0.00000   0.00000
  19        9D 0        0.00000   0.00000   0.00000   0.00000   0.00000
  20        9D+1        0.00000   0.00000   0.00000   0.00000   0.00000
  21        9D-1        0.00000   0.00000   0.00000   0.00000   0.00000
  22        9D+2        0.00000   0.00000   0.00000   0.00000   0.00000
  23        9D-2        0.00000   0.00000   0.00000   0.00000   0.00000
  24       10F 0        0.00000   0.00000   0.00000   0.00000   0.00000
  25       10F+1        0.00000   0.00000   0.00000   0.00000   0.00000
  26       10F-1        0.00000   0.00000   0.00000   0.00000   0.00000
  27       10F+2        0.00000   0.00000   0.00000   0.00000   0.00000
  28       10F-2        0.00000   0.00000   0.00000   0.00000   0.00000
  29       10F+3        0.00000   0.00000   0.00000   0.00000   0.00000
  30       10F-3        0.00000   0.00000   0.00000   0.00000   0.00000
                          11        12        13        14        15
  11        7PX         0.00000
  12        7PY         0.00000   0.00000
  13        7PZ         0.00000   0.00000   0.00000
  14        8D 0        0.00000   0.00000   0.00000   0.00000
  15        8D+1        0.00000   0.00000   0.00000   0.00000   0.00000
  16        8D-1        0.00000   0.00000   0.00000  -0.00000   0.00000
  17        8D+2        0.00000   0.00000   0.00000  -0.00000  -0.00000
  18        8D-2        0.00000   0.00000   0.00000   0.00000   0.00000
  19        9D 0        0.00000   0.00000   0.00000  -0.00000  -0.00000
  20        9D+1        0.00000   0.00000   0.00000  -0.00000  -0.00000
  21        9D-1        0.00000   0.00000   0.00000   0.00000  -0.00000
  22        9D+2        0.00000   0.00000   0.00000   0.00000   0.00000
  23        9D-2        0.00000   0.00000   0.00000   0.00000  -0.00000
  24       10F 0        0.00000   0.00000   0.00000   0.00000   0.00000
  25       10F+1        0.00000   0.00000   0.00000   0.00000   0.00000
  26       10F-1        0.00000   0.00000   0.00000   0.00000   0.00000
  27       10F+2        0.00000   0.00000   0.00000   0.00000   0.00000
  28       10F-2        0.00000   0.00000   0.00000   0.00000   0.00000
  29       10F+3        0.00000   0.00000   0.00000   0.00000   0.00000
  30       10F-3        0.00000   0.00000   0.00000   0.00000   0.00000
                          16        17        18        19        20
  16        8D-1        0.00000
  17        8D+2       -0.00000   0.00000
  18        8D-2        0.00000   0.00000   0.00000
  19        9D 0        0.00000  -0.00000  -0.00000   0.00000
  20        9D+1       -0.00000   0.00000   0.00000   0.00000   0.00000
  21        9D-1       -0.00000   0.00000   0.00000  -0.00000   0.00000
  22        9D+2        0.00000  -0.00000  -0.00000   0.00000  -0.00000
  23        9D-2       -0.00000  -0.00000  -0.00000   0.00000  -0.00000
  24       10F 0        0.00000   0.00000   0.00000   0.00000   0.00000
  25       10F+1        0.00000   0.00000   0.00000   0.00000   0.00000
  26       10F-1        0.00000   0.00000   0.00000   0.00000   0.00000
  27       10F+2        0.00000   0.00000   0.00000   0.00000   0.00000
  28       10F-2        0.00000   0.00000   0.00000   0.00000   0.00000
  29       10F+3        0.00000   0.00000   0.00000   0.00000   0.00000
  30       10F-3        0.00000   0.00000   0.00000   0.00000   0.00000
                          21        22        23        24        25
  21        9D-1        0.00000
  22        9D+2       -0.00000   0.00000
  23        9D-2        0.00000   0.00000   0.00000
  24       10F 0        0.00000   0.00000   0.00000   0.00000
  25       10F+1        0.00000   0.00000   0.00000   0.00000   0.00000
  26       10F-1        0.00000   0.00000   0.00000   0.00000   0.00000
  27       10F+2        0.00000   0.00000   0.00000   0.00000   0.00000
  28       10F-2        0.00000   0.00000   0.00000   0.00000   0.00000
  29       10F+3        0.00000   0.00000   0.00000   0.00000   0.00000
  30       10F-3        0.00000   0.00000   0.00000   0.00000   0.00000
                          26        27        28        29        30
  26       10F-1        0.00000
  27       10F+2        0.00000   0.00000
  28       10F-2        0.00000   0.00000   0.00000
  29       10F+3        0.00000   0.00000   0.00000   0.00000
  30       10F-3        0.00000   0.00000   0.00000   0.00000   0.00000
     Beta Density Matrix:
                           1         2         3         4         5
   1 1   H  1S          0.00000
   2        2S          0.00000   0.00000
   3        3S          0.00000   0.00000   0.00000
   4        4S          0.00000   0.00000   0.00000   0.00000
   5        5PX         0.00000   0.00000   0.00000   0.00000   0.00000
   6        5PY         0.00000   0.00000   0.00000   0.00000   0.00000
   7        5PZ         0.00000   0.00000   0.00000   0.00000   0.00000
   8        6PX         0.00000   0.00000   0.00000   0.00000   0.00000
   9        6PY         0.00000   0.00000   0.00000   0.00000   0.00000
  10        6PZ         0.00000   0.00000   0.00000   0.00000   0.00000
  11        7PX         0.00000   0.00000   0.00000   0.00000   0.00000
  12        7PY         0.00000   0.00000   0.00000   0.00000   0.00000
  13        7PZ         0.00000   0.00000   0.00000   0.00000   0.00000
  14        8D 0        0.00000   0.00000   0.00000   0.00000   0.00000
  15        8D+1        0.00000   0.00000   0.00000   0.00000   0.00000
  16        8D-1        0.00000   0.00000   0.00000   0.00000   0.00000
  17        8D+2        0.00000   0.00000   0.00000   0.00000   0.00000
  18        8D-2        0.00000   0.00000   0.00000   0.00000   0.00000
  19        9D 0        0.00000   0.00000   0.00000   0.00000   0.00000
  20        9D+1        0.00000   0.00000   0.00000   0.00000   0.00000
  21        9D-1        0.00000   0.00000   0.00000   0.00000   0.00000
  22        9D+2        0.00000   0.00000   0.00000   0.00000   0.00000
  23        9D-2        0.00000   0.00000   0.00000   0.00000   0.00000
  24       10F 0        0.00000   0.00000   0.00000   0.00000   0.00000
  25       10F+1        0.00000   0.00000   0.00000   0.00000   0.00000
  26       10F-1        0.00000   0.00000   0.00000   0.00000   0.00000
  27       10F+2        0.00000   0.00000   0.00000   0.00000   0.00000
  28       10F-2        0.00000   0.00000   0.00000   0.00000   0.00000
  29       10F+3        0.00000   0.00000   0.00000   0.00000   0.00000
  30       10F-3        0.00000   0.00000   0.00000   0.00000   0.00000
                           6         7         8         9        10
   6        5PY         0.00000
   7        5PZ         0.00000   0.00000
   8        6PX         0.00000   0.00000   0.00000
   9        6PY         0.00000   0.00000   0.00000   0.00000
  10        6PZ         0.00000   0.00000   0.00000   0.00000   0.00000
  11        7PX         0.00000   0.00000   0.00000   0.00000   0.00000
  12        7PY         0.00000   0.00000   0.00000   0.00000   0.00000
  13        7PZ         0.00000   0.00000   0.00000   0.00000   0.00000
  14        8D 0        0.00000   0.00000   0.00000   0.00000   0.00000
  15        8D+1        0.00000   0.00000   0.00000   0.00000   0.00000
  16        8D-1        0.00000   0.00000   0.00000   0.00000   0.00000
  17        8D+2        0.00000   0.00000   0.00000   0.00000   0.00000
  18        8D-2        0.00000   0.00000   0.00000   0.00000   0.00000
  19        9D 0        0.00000   0.00000   0.00000   0.00000   0.00000
  20        9D+1        0.00000   0.00000   0.00000   0.00000   0.00000
  21        9D-1        0.00000   0.00000   0.00000   0.00000   0.00000
  22        9D+2        0.00000   0.00000   0.00000   0.00000   0.00000
  23        9D-2        0.00000   0.00000   0.00000   0.00000   0.00000
  24       10F 0        0.00000   0.00000   0.00000   0.00000   0.00000
  25       10F+1        0.00000   0.00000   0.00000   0.00000   0.00000
  26       10F-1        0.00000   0.00000   0.00000   0.00000   0.00000
  27       10F+2        0.00000   0.00000   0.00000   0.00000   0.00000
  28       10F-2        0.00000   0.00000   0.00000   0.00000   0.00000
  29       10F+3        0.00000   0.00000   0.00000   0.00000   0.00000
  30       10F-3        0.00000   0.00000   0.00000   0.00000   0.00000
                          11        12        13        14        15
  11        7PX         0.00000
  12        7PY         0.00000   0.00000
  13        7PZ         0.00000   0.00000   0.00000
  14        8D 0        0.00000   0.00000   0.00000   0.00000
  15        8D+1        0.00000   0.00000   0.00000   0.00000   0.00000
  16        8D-1        0.00000   0.00000   0.00000   0.00000   0.00000
  17        8D+2        0.00000   0.00000   0.00000   0.00000   0.00000
  18        8D-2        0.00000   0.00000   0.00000   0.00000   0.00000
  19        9D 0        0.00000   0.00000   0.00000   0.00000   0.00000
  20        9D+1        0.00000   0.00000   0.00000   0.00000   0.00000
  21        9D-1        0.00000   0.00000   0.00000   0.00000   0.00000
  22        9D+2        0.00000   0.00000   0.00000   0.00000   0.00000
  23        9D-2        0.00000   0.00000   0.00000   0.00000   0.00000
  24       10F 0        0.00000   0.00000   0.00000   0.00000   0.00000
  25       10F+1        0.00000   0.00000   0.00000   0.00000   0.00000
  26       10F-1        0.00000   0.00000   0.00000   0.00000   0.00000
  27       10F+2        0.00000   0.00000   0.00000   0.00000   0.00000
  28       10F-2        0.00000   0.00000   0.00000   0.00000   0.00000
  29       10F+3        0.00000   0.00000   0.00000   0.00000   0.00000
  30       10F-3        0.00000   0.00000   0.00000   0.00000   0.00000
                          16        17        18        19        20
  16        8D-1        0.00000
  17        8D+2        0.00000   0.00000
  18        8D-2        0.00000   0.00000   0.00000
  19        9D 0        0.00000   0.00000   0.00000   0.00000
  20        9D+1        0.00000   0.00000   0.00000   0.00000   0.00000
  21        9D-1        0.00000   0.00000   0.00000   0.00000   0.00000
  22        9D+2        0.00000   0.00000   0.00000   0.00000   0.00000
  23        9D-2        0.00000   0.00000   0.00000   0.00000   0.00000
  24       10F 0        0.00000   0.00000   0.00000   0.00000   0.00000
  25       10F+1        0.00000   0.00000   0.00000   0.00000   0.00000
  26       10F-1        0.00000   0.00000   0.00000   0.00000   0.00000
  27       10F+2        0.00000   0.00000   0.00000   0.00000   0.00000
  28       10F-2        0.00000   0.00000   0.00000   0.00000   0.00000
  29       10F+3        0.00000   0.00000   0.00000   0.00000   0.00000
  30       10F-3        0.00000   0.00000   0.00000   0.00000   0.00000
                          21        22        23        24        25
  21        9D-1        0.00000
  22        9D+2        0.00000   0.00000
  23        9D-2        0.00000   0.00000   0.00000
  24       10F 0        0.00000   0.00000   0.00000   0.00000
  25       10F+1        0.00000   0.00000   0.00000   0.00000   0.00000
  26       10F-1        0.00000   0.00000   0.00000   0.00000   0.00000
  27       10F+2        0.00000   0.00000   0.00000   0.00000   0.00000
  28       10F-2        0.00000   0.00000   0.00000   0.00000   0.00000
  29       10F+3        0.00000   0.00000   0.00000   0.00000   0.00000
  30       10F-3        0.00000   0.00000   0.00000   0.00000   0.00000
                          26        27        28        29        30
  26       10F-1        0.00000
  27       10F+2        0.00000   0.00000
  28       10F-2        0.00000   0.00000   0.00000
  29       10F+3        0.00000   0.00000   0.00000   0.00000
  30       10F-3        0.00000   0.00000   0.00000   0.00000   0.00000
    Full Mulliken population analysis:
                           1         2         3         4         5
   1 1   H  1S          0.00764
   2        2S          0.01599   0.06598
   3        3S          0.01668   0.10181   0.24738
   4        4S          0.00488   0.03565   0.12064   0.08769
   5        5PX         0.00000   0.00000   0.00000   0.00000   0.00000
   6        5PY         0.00000   0.00000   0.00000   0.00000   0.00000
   7        5PZ         0.00000   0.00000   0.00000   0.00000   0.00000
   8        6PX         0.00000   0.00000   0.00000   0.00000   0.00000
   9        6PY         0.00000   0.00000   0.00000   0.00000   0.00000
  10        6PZ         0.00000   0.00000   0.00000   0.00000   0.00000
  11        7PX         0.00000   0.00000   0.00000   0.00000   0.00000
  12        7PY         0.00000   0.00000   0.00000   0.00000   0.00000
  13        7PZ         0.00000   0.00000   0.00000   0.00000   0.00000
  14        8D 0        0.00000   0.00000   0.00000   0.00000   0.00000
  15        8D+1        0.00000   0.00000   0.00000   0.00000   0.00000
  16        8D-1        0.00000   0.00000   0.00000   0.00000   0.00000
  17        8D+2        0.00000   0.00000   0.00000   0.00000   0.00000
  18        8D-2        0.00000   0.00000   0.00000   0.00000   0.00000
  19        9D 0        0.00000   0.00000   0.00000   0.00000   0.00000
  20        9D+1        0.00000   0.00000   0.00000   0.00000   0.00000
  21        9D-1        0.00000   0.00000   0.00000   0.00000   0.00000
  22        9D+2        0.00000   0.00000   0.00000   0.00000   0.00000
  23        9D-2        0.00000   0.00000   0.00000   0.00000   0.00000
  24       10F 0        0.00000   0.00000   0.00000   0.00000   0.00000
  25       10F+1        0.00000   0.00000   0.00000   0.00000   0.00000
  26       10F-1        0.00000   0.00000   0.00000   0.00000   0.00000
  27       10F+2        0.00000   0.00000   0.00000   0.00000   0.00000
  28       10F-2        0.00000   0.00000   0.00000   0.00000   0.00000
  29       10F+3        0.00000   0.00000   0.00000   0.00000   0.00000
  30       10F-3        0.00000   0.00000   0.00000   0.00000   0.00000
                           6         7         8         9        10
   6        5PY         0.00000
   7        5PZ         0.00000   0.00000
   8        6PX         0.00000   0.00000   0.00000
   9        6PY         0.00000   0.00000   0.00000   0.00000
  10        6PZ         0.00000   0.00000   0.00000   0.00000   0.00000
  11        7PX         0.00000   0.00000   0.00000   0.00000   0.00000
  12        7PY         0.00000   0.00000   0.00000   0.00000   0.00000
  13        7PZ         0.00000   0.00000   0.00000   0.00000   0.00000
  14        8D 0        0.00000   0.00000   0.00000   0.00000   0.00000
  15        8D+1        0.00000   0.00000   0.00000   0.00000   0.00000
  16        8D-1        0.00000   0.00000   0.00000   0.00000   0.00000
  17        8D+2        0.00000   0.00000   0.00000   0.00000   0.00000
  18        8D-2        0.00000   0.00000   0.00000   0.00000   0.00000
  19        9D 0        0.00000   0.00000   0.00000   0.00000   0.00000
  20        9D+1        0.00000   0.00000   0.00000   0.00000   0.00000
  21        9D-1        0.00000   0.00000   0.00000   0.00000   0.00000
  22        9D+2        0.00000   0.00000   0.00000   0.00000   0.00000
  23        9D-2        0.00000   0.00000   0.00000   0.00000   0.00000
  24       10F 0        0.00000   0.00000   0.00000   0.00000   0.00000
  25       10F+1        0.00000   0.00000   0.00000   0.00000   0.00000
  26       10F-1        0.00000   0.00000   0.00000   0.00000   0.00000
  27       10F+2        0.00000   0.00000   0.00000   0.00000   0.00000
  28       10F-2        0.00000   0.00000   0.00000   0.00000   0.00000
  29       10F+3        0.00000   0.00000   0.00000   0.00000   0.00000
  30       10F-3        0.00000   0.00000   0.00000   0.00000   0.00000
                          11        12        13        14        15
  11        7PX         0.00000
  12        7PY         0.00000   0.00000
  13        7PZ         0.00000   0.00000   0.00000
  14        8D 0        0.00000   0.00000   0.00000   0.00000
  15        8D+1        0.00000   0.00000   0.00000   0.00000   0.00000
  16        8D-1        0.00000   0.00000   0.00000   0.00000   0.00000
  17        8D+2        0.00000   0.00000   0.00000   0.00000   0.00000
  18        8D-2        0.00000   0.00000   0.00000   0.00000   0.00000
  19        9D 0        0.00000   0.00000   0.00000  -0.00000   0.00000
  20        9D+1        0.00000   0.00000   0.00000   0.00000  -0.00000
  21        9D-1        0.00000   0.00000   0.00000   0.00000   0.00000
  22        9D+2        0.00000   0.00000   0.00000   0.00000   0.00000
  23        9D-2        0.00000   0.00000   0.00000   0.00000   0.00000
  24       10F 0        0.00000   0.00000   0.00000   0.00000   0.00000
  25       10F+1        0.00000   0.00000   0.00000   0.00000   0.00000
  26       10F-1        0.00000   0.00000   0.00000   0.00000   0.00000
  27       10F+2        0.00000   0.00000   0.00000   0.00000   0.00000
  28       10F-2        0.00000   0.00000   0.00000   0.00000   0.00000
  29       10F+3        0.00000   0.00000   0.00000   0.00000   0.00000
  30       10F-3        0.00000   0.00000   0.00000   0.00000   0.00000
                          16        17        18        19        20
  16        8D-1        0.00000
  17        8D+2        0.00000   0.00000
  18        8D-2        0.00000   0.00000   0.00000
  19        9D 0        0.00000   0.00000   0.00000   0.00000
  20        9D+1        0.00000   0.00000   0.00000   0.00000   0.00000
  21        9D-1       -0.00000   0.00000   0.00000   0.00000   0.00000
  22        9D+2        0.00000  -0.00000   0.00000   0.00000   0.00000
  23        9D-2        0.00000   0.00000  -0.00000   0.00000   0.00000
  24       10F 0        0.00000   0.00000   0.00000   0.00000   0.00000
  25       10F+1        0.00000   0.00000   0.00000   0.00000   0.00000
  26       10F-1        0.00000   0.00000   0.00000   0.00000   0.00000
  27       10F+2        0.00000   0.00000   0.00000   0.00000   0.00000
  28       10F-2        0.00000   0.00000   0.00000   0.00000   0.00000
  29       10F+3        0.00000   0.00000   0.00000   0.00000   0.00000
  30       10F-3        0.00000   0.00000   0.00000   0.00000   0.00000
                          21        22        23        24        25
  21        9D-1        0.00000
  22        9D+2        0.00000   0.00000
  23        9D-2        0.00000   0.00000   0.00000
  24       10F 0        0.00000   0.00000   0.00000   0.00000
  25       10F+1        0.00000   0.00000   0.00000   0.00000   0.00000
  26       10F-1        0.00000   0.00000   0.00000   0.00000   0.00000
  27       10F+2        0.00000   0.00000   0.00000   0.00000   0.00000
  28       10F-2        0.00000   0.00000   0.00000   0.00000   0.00000
  29       10F+3        0.00000   0.00000   0.00000   0.00000   0.00000
  30       10F-3        0.00000   0.00000   0.00000   0.00000   0.00000
                          26        27        28        29        30
  26       10F-1        0.00000
  27       10F+2        0.00000   0.00000
  28       10F-2        0.00000   0.00000   0.00000
  29       10F+3        0.00000   0.00000   0.00000   0.00000
  30       10F-3        0.00000   0.00000   0.00000   0.00000   0.00000
     Gross orbital populations:
                         Total     Alpha     Beta      Spin
   1 1   H  1S          0.04519   0.04519   0.00000   0.04519
   2        2S          0.21944   0.21944   0.00000   0.21944
   3        3S          0.48651   0.48651   0.00000   0.48651
   4        4S          0.24886   0.24886   0.00000   0.24886
   5        5PX         0.00000   0.00000   0.00000   0.00000
   6        5PY         0.00000   0.00000   0.00000   0.00000
   7        5PZ         0.00000   0.00000   0.00000   0.00000
   8        6PX         0.00000   0.00000   0.00000   0.00000
   9        6PY         0.00000   0.00000   0.00000   0.00000
  10        6PZ         0.00000   0.00000   0.00000   0.00000
  11        7PX         0.00000   0.00000   0.00000   0.00000
  12        7PY         0.00000   0.00000   0.00000   0.00000
  13        7PZ         0.00000   0.00000   0.00000   0.00000
  14        8D 0        0.00000   0.00000   0.00000   0.00000
  15        8D+1        0.00000   0.00000   0.00000   0.00000
  16        8D-1        0.00000   0.00000   0.00000   0.00000
  17        8D+2        0.00000   0.00000   0.00000   0.00000
  18        8D-2        0.00000   0.00000   0.00000   0.00000
  19        9D 0        0.00000   0.00000   0.00000   0.00000
  20        9D+1        0.00000   0.00000   0.00000   0.00000
  21        9D-1        0.00000   0.00000   0.00000   0.00000
  22        9D+2        0.00000   0.00000   0.00000   0.00000
  23        9D-2        0.00000   0.00000   0.00000   0.00000
  24       10F 0        0.00000   0.00000   0.00000   0.00000
  25       10F+1        0.00000   0.00000   0.00000   0.00000
  26       10F-1        0.00000   0.00000   0.00000   0.00000
  27       10F+2        0.00000   0.00000   0.00000   0.00000
  28       10F-2        0.00000   0.00000   0.00000   0.00000
  29       10F+3        0.00000   0.00000   0.00000   0.00000
  30       10F-3        0.00000   0.00000   0.00000   0.00000
          Condensed to atoms (all electrons):
              1
     1  H    1.000000
 Mulliken atomic charges:
              1
     1  H   -0.000000
 Sum of Mulliken atomic charges =  -0.00000
 Mulliken charges with hydrogens summed into heavy atoms:
              1
 Sum of Mulliken charges with hydrogens summed into heavy atoms =  -0.00000
          Atomic-Atomic Spin Densities.
              1
     1  H    1.000000
 Mulliken atomic spin densities:
              1
     1  H    1.000000
 Sum of Mulliken atomic spin densities =   1.00000
 Electronic spatial extent (au):  <R**2>=              2.9966
 Charge=             -0.0000 electrons
 Dipole moment (field-independent basis, Debye):
    X=              0.0000    Y=              0.0000    Z=              0.0000  Tot=              0.0000
 Quadrupole moment (field-independent basis, Debye-Ang):
   XX=             -1.3435   YY=             -1.3435   ZZ=             -1.3435
   XY=              0.0000   XZ=              0.0000   YZ=              0.0000
 Traceless Quadrupole moment (field-independent basis, Debye-Ang):
   XX=              0.0000   YY=              0.0000   ZZ=              0.0000
   XY=              0.0000   XZ=              0.0000   YZ=              0.0000
 Octapole moment (field-independent basis, Debye-Ang**2):
  XXX=              0.0000  YYY=              0.0000  ZZZ=              0.0000  XYY=              0.0000
  XXY=              0.0000  XXZ=              0.0000  XZZ=              0.0000  YZZ=              0.0000
  YYZ=              0.0000  XYZ=              0.0000
 Hexadecapole moment (field-independent basis, Debye-Ang**3):
 XXXX=             -1.6779 YYYY=             -1.6779 ZZZZ=             -1.6779 XXXY=              0.0000
 XXXZ=              0.0000 YYYX=              0.0000 YYYZ=             -0.0000 ZZZX=              0.0000
 ZZZY=             -0.0000 XXYY=             -0.5593 XXZZ=             -0.5593 YYZZ=             -0.5593
 XXYZ=             -0.0000 YYXZ=              0.0000 ZZXY=              0.0000
 N-N= 0.000000000000D+00 E-N=-9.998903569048D-01  KE= 4.999447883219D-01
 Symmetry AG   KE= 4.999447883219D-01
 Symmetry B1G  KE= 1.944627084012D-62
 Symmetry B2G  KE= 1.722082116401D-62
 Symmetry B3G  KE= 1.954935305427D-62
 Symmetry AU   KE= 0.000000000000D+00
 Symmetry B1U  KE= 0.000000000000D+00
 Symmetry B2U  KE= 0.000000000000D+00
 Symmetry B3U  KE= 0.000000000000D+00
 Orbital energies and kinetic energies (alpha):
                                 1                 2
   1         (A1G)--O         -0.499946          0.499945
   2         (A1G)--V          0.267390          0.444564
   3         (T1U)--V          0.531935          0.663067
   4         (T1U)--V          0.531935          0.663067
   5         (T1U)--V          0.531935          0.663067
   6         (A1G)--V          1.491512          2.094163
   7         (EG)--V           2.068160          2.202080
   8         (EG)--V           2.068160          2.202080
   9         (T2G)--V          2.068160          2.202080
  10         (T2G)--V          2.068160          2.202080
  11         (T2G)--V          2.068160          2.202080
  12         (T1U)--V          2.350202          2.665401
  13         (T1U)--V          2.350202          2.665401
  14         (T1U)--V          2.350202          2.665401
  15         V                 6.055038          6.286500
  16         (A2U)--V          6.055038          6.286500
  17         V                 6.055038          6.286500
  18         V                 6.055038          6.286500
  19         V                 6.055038          6.286500
  20         V                 6.055038          6.286500
  21         V                 6.055038          6.286500
  22         (A1G)--V          7.297110          9.732530
  23         (T1U)--V          7.763352          8.633531
  24         (T1U)--V          7.763352          8.633531
  25         (T1U)--V          7.763352          8.633531
  26         (T2G)--V          8.120893          8.639697
  27         (EG)--V           8.120893          8.639697
  28         (T2G)--V          8.120893          8.639697
  29         (T2G)--V          8.120893          8.639697
  30         (EG)--V           8.120893          8.639697
 Orbital energies and kinetic energies (beta):
                                 1                 2
   1         (A1G)--V          0.048258          0.186141
   2         (A1G)--V          0.390589          0.648676
   3         (T1U)--V          0.607678          0.656940
   4         (T1U)--V          0.607678          0.656940
   5         (T1U)--V          0.607678          0.656940
   6         (A1G)--V          1.612930          2.182740
   7         (EG)--V           2.112951          2.201592
   8         (T2G)--V          2.112951          2.201592
   9         (T2G)--V          2.112951          2.201592
  10         (T2G)--V          2.112951          2.201592
  11         (EG)--V           2.112951          2.201592
  12         (T1U)--V          2.431999          2.668059
  13         (T1U)--V          2.431999          2.668059
  14         (T1U)--V          2.431999          2.668059
  15         V                 6.086744          6.286500
  16         V                 6.086744          6.286500
  17         (A2U)--V          6.086744          6.286500
  18         V                 6.086744          6.286500
  19         V                 6.086744          6.286500
  20         V                 6.086744          6.286500
  21         V                 6.086744          6.286500
  22         (A1G)--V          7.380432          9.753644
  23         (T1U)--V          7.823070          8.637000
  24         (T1U)--V          7.823070          8.637000
  25         (T1U)--V          7.823070          8.637000
  26         (EG)--V           8.165039          8.640184
  27         (T2G)--V          8.165039          8.640184
  28         (EG)--V           8.165039          8.640184
  29         (T2G)--V          8.165039          8.640184
  30         (T2G)--V          8.165039          8.640184
 Total kinetic energy from orbitals= 4.999447883219D-01
                          Isotropic Fermi Contact Couplings
        Atom                 a.u.       MegaHertz       Gauss      10(-4) cm-1
     1  H(1)               0.29852    1334.35964     476.13268     445.09447
 --------------------------------------------------------
       Center         ----  Spin Dipole Couplings  ----
                      3XX-RR        3YY-RR        3ZZ-RR
[...]
          MDV=      13107186 using IRadAn=       2.
          Keep R1 and R2 ints in memory in canonical form, NReq=2338724.
 Symmetry not used in FoFDir.
 MinBra= 0 MaxBra= 3 Meth= 1.
 IRaf=       0 NMat=   1 IRICut=       1 DoRegI=T DoRafI=F ISym2E= 0 JSym2E=0.
          Solving linear equations simultaneously, MaxMat=       0.
 FoF2E skips out because all densities are zero.
          There are     6 degrees of freedom in the 1st order CPHF.  IDoFFX=5.
      3 vectors produced by pass  0 Test12= 4.83D-16 1.67D-08 XBig12= 8.16D-01 9.03D-01.
 AX will form     3 AO Fock derivatives at one time.
      3 vectors produced by pass  1 Test12= 4.83D-16 1.67D-08 XBig12= 2.77D-04 1.62D-02.
      3 vectors produced by pass  2 Test12= 4.83D-16 1.67D-08 XBig12= 2.41D-07 4.78D-04.
 Inverted reduced A of dimension     9 with in-core refinement.
 FullF1:  Do perturbations    1 to     6.
 Saving first derivative matrices.
 End of Minotr Frequency-dependent properties file   721 does not exist.
 End of Minotr Frequency-dependent properties file   722 does not exist.
 Leave Link 1002 at Sun Aug 18 15:10:38 2024, MaxMem=   13107200 cpu:       0.2
 (Enter /programs/64bit/g09/g09-gfortran/bin/l811.exe)
 MDV=    13107200.
 Form MO integral derivatives with frozen-active canonical formalism.
 MOERI=1 MOERIx=1 NAtoms=     1 NAtomX=     1.
 Discarding MO integrals.
 MO basis two electron integral derivatives will not be stored on disk.
 IAlg= 3 DoFC=T DoPWx=T Debug=F.
 Frozen-core window:  NFC=   0 NFV=   0.
 Reordered first order wavefunction length =          406
 In DefCFB: NBatch=  1 ICI=  1 ICA= 30 LFMax= 15
            Large arrays: LIAPS=      121800 LIARS=      514500 words.
 In StABat: MaxSiz= 35 MinSiz= 35 NAtomB=  1
 DoIAMN: NPSUse=  1.
 In DefCFB: NBatch=  1 ICI=  1 ICA= 30 LFMax= 15
            Large arrays: LIAPS=      121800 LIARS=      514500 words.
 In StABat: MaxSiz= 35 MinSiz= 35 NAtomB=  1
 Leave Link  811 at Sun Aug 18 15:10:39 2024, MaxMem=   13107200 cpu:       1.4
 (Enter /programs/64bit/g09/g09-gfortran/bin/l804.exe)
 Frozen-core window:  NFC=   0 NFV=   0.
 Open-shell transformation, MDV=    13107200 ITran=4 ISComp=1.
 Semi-Direct transformation.
 ModeAB=           2 MOrb=             1 LenV=      12878890
 LASXX=        12615 LTotXX=       12615 LenRXX=       12615
 LTotAB=       13950 MaxLAS=       18900 LenRXY=       18900
 NonZer=       25230 LenScr=      785920 LnRSAI=           0
 LnScr1=           0 LExtra=           0 Total=       817435
 MaxDsk=          -1 SrtSym=           F ITran=            4
 DoSDTr:  NPSUse=  1
 JobTyp=1 Pass  1:  I=   1 to   1.
 (rs|ai) integrals will be sorted in core.
 Complete sort for first half transformation.
 First half transformation complete.
 Complete sort for second half transformation.
 Second half transformation complete.
 Spin components of T(2) and E(2):
     alpha-alpha T2 =       0.0000000000D+00 E2=      0.0000000000D+00
     alpha-beta  T2 =       0.0000000000D+00 E2=      0.0000000000D+00
     beta-beta   T2 =       0.0000000000D+00 E2=      0.0000000000D+00
 ANorm=    0.1414213562D+01
 E2 =     0.0000000000D+00 EUMP2 =    -0.49994556858299D+00
 Leave Link  804 at Sun Aug 18 15:10:40 2024, MaxMem=   13107200 cpu:       0.3
 (Enter /programs/64bit/g09/g09-gfortran/bin/l1002.exe)
 Minotr:  UHF open shell wavefunction.
          Computing MP2/KS-MP2 derivatives.
          Using Z-Vector for PSCF gradient.
          Skipping F1 and S1 gradient terms here.
          IDoAtm=1
          Using MO integrals in the linear equations.
          Forming densities via direct SCF.
          Differentiating once with respect to electric field.
                with respect to dipole field.
          Differentiating once with respect to nuclear coordinates.
          Using symmetry in CPHF.
          Requested convergence is 1.0D-10 RMS, and 1.0D-09 maximum.
          NewPWx=F KeepS1=T KeepF1=T KeepIn=T MapXYZ=F SortEE=F KeepMc=T.
          MDV=      13107186 using IRadAn=       0.
          Solving linear equations separately, MaxMat=       0.
          There are     1 degrees of freedom in the 1st order CPHF.  IDoFFX=0.
 FoF2E skips out because all densities are zero.
 LinEq1:  Iter=  0 NonCon=     0 RMS=1.23D-18 Max=4.66D-18
 FoF2E skips out because all densities are zero.
 End of Minotr Frequency-dependent properties file   721 does not exist.
 End of Minotr Frequency-dependent properties file   722 does not exist.
 Leave Link 1002 at Sun Aug 18 15:10:40 2024, MaxMem=   13107200 cpu:       0.1
 (Enter /programs/64bit/g09/g09-gfortran/bin/l1102.exe)
 Use density number 2.
 Symmetrizing basis deriv contribution to polar:
 IMax=3 JMax=2 DiffMx= 0.00D+00
 Leave Link 1102 at Sun Aug 18 15:10:40 2024, MaxMem=   13107200 cpu:       0.0
 (Enter /programs/64bit/g09/g09-gfortran/bin/l1110.exe)
 Forming Gx(P) for generalized density number  2 NAtomX=     1.
 Integral derivatives from FoFDir/FoFCou, PRISM(SPDF).
 Do as many integral derivatives as possible in FoFDir.
 G2DrvN: MDV=      13107088.
 G2DrvN: will do     2 centers at a time, making    1 passes doing MaxLOS=3.
 Calling FoFCou, ICntrl=  3107 FMM=F I1Cent=   0 AccDes= 0.00D+00.
 FoFCou: FMM=F IPFlag=           0 FMFlag=      100000 FMFlg1=           0
         NFxFlg=           0 DoJE=F BraDBF=F KetDBF=F FulRan=T
         Omega=  0.000000  0.000000  1.000000  0.000000  0.000000 ICntrl=    3107 IOpCl=  1
         NMat0=    1 NMatS0=    1 NMatT0=    0 NMatD0=    1 NMtDS0=    0 NMtDT0=    0
         I1Cent=           0 NGrid=           0.
 Petite list used in FoFCou.
 FoFDir/FoFCou used for L=0 through L=3.
 End of G2Drv Frequency-dependent properties file   721 does not exist.
 End of G2Drv Frequency-dependent properties file   722 does not exist.
 Leave Link 1110 at Sun Aug 18 15:10:40 2024, MaxMem=   13107200 cpu:       0.1
 (Enter /programs/64bit/g09/g09-gfortran/bin/l1112.exe)
 MP22nd: MDV=      13107200
 This link is doing NAtomX=     1 total of     6 degrees of freedom.
 Using gON3 I/O method in MakUI.
 Frozen-core window:  NFC=   0 NFV=   0.
 Using Ix for Sx.
 Use MO integrals over full window.
 Illegal file or unit passed to FileIO.
FileIO: IOper= 1 IFilNo(1)=****** Len=           0 IPos=           0 Q=  140730267677520


 dumping /fiocom/, unit = 1 NFiles =   116 SizExt =    524288 WInBlk =       512
                   defal = T LstWrd =     1592832 FType=2 FMxFil=10000

 Number           0          0          0          5          7         15         16         25
 Base        288204     279500     396800     345088     326144     345929     326609     279552
 End         288256     279552    1592832     345929     326609     357703     340094     279581
 End1        288256     279552    1592832     345929     326609     357703     340094     280064
 Wr Pntr     288204     279500     357888     345088     326144     345929     326609     279552
 Rd Pntr     288204     279500     357888     345088     326144     345929     326609     279552
 Length          52         52    1196032        841        465      11774      13485         29

 Number         110        201        203        501        502        503        508        511
 Base        259584     345088     326144      43520      72192     180224     195584     181760
 End         259613     357703     345044      44520      76342     180228     195614     181772
 End1        260096     357888     345088      44544      76800     180736     196096     182272
 Wr Pntr     259584     345088     326144      43520      72192     180224     195584     181760
 Rd Pntr     259584     345088     326144      43520      72192     180224     195614     181760
 Length          29      12615      18900       1000       4150          4         30         12

 Number         514        515        516        517        518        520        521        522
 Base        202752     200704     199168     205824     204288     197632     190464     206848
 End         203217     202564     200563     205854     205683     197642     190499     206908
 End1        203264     202752     200704     206336     205824     198144     190976     207360
 Wr Pntr     202752     200704     199168     205824     204288     197632     190464     206848
 Rd Pntr     203217     200704     199168     205824     204288     197632     190464     206908
 Length         465       1860       1395         30       1395         10         35         60

 Number         523        524        526        528        530        532        534        536
 Base        206336     210944     211968     212992     213504     215040     209920     208896
 End         206396     211844     212868     213457     213969     215505     210385     209361
 End1        206848     211968     212992     213504     214016     215552     210432     209408
 Wr Pntr     206336     210944     211968     212992     213504     215040     209920     208896
 Rd Pntr     206336     211844     212868     212992     213504     215040     209920     208896
 Length          60        900        900        465        465        465        465        465

 Number         538        540        545        547        548        549        551        552
 Base        209408     215552     207872     217088     217600     219648     189440     188416
 End         209873     216452     207900     217148     219400     220548     189478     188435
 End1        209920     216576     208384     217600     219648     220672     189952     188928
 Wr Pntr     209408     215552     207872     217088     217600     219648     189440     188416
 Rd Pntr     209408     215552     207900     217088     217600     219648     189478     188416
 Length         465        900         28         60       1800        900         38         19

 Number         559        562        563        564        565        569        571        575
 Base        192512     182272     214016     214528     195072     207360     210432     181248
 End         192514     188378     214046     214558     195552     207362     210897     181361
 End1        193024     188416     214528     215040     195584     207872     210944     181760
 Wr Pntr     192512     182272     214016     214528     195072     207360     210432     181248
 Rd Pntr     192512     188378     214016     214528     195072     207360     210432     181248
 Length           2       6106         30         30        480          2        465        113

 Number         577        579        580        581        582        583        584        585
 Base        194048     188928     191488     194560     193536     193024     196096     234496
 End         194100     188936     192008     194864     193626     193026     196102     234502
 End1        194560     189440     192512     195072     194048     193536     196608     235008
 Wr Pntr     194048     188928     191488     194560     193536     193024     196096     234496
 Rd Pntr     194048     188928     191488     194560     193536     193024     196096     234496
 Length          52          8        520        304         90          2          6          6

 Number         588        589        590        591        592        593        594        596
 Base        235008     236544     239616     259072     273920     282624     247808     253440
 End         236403     239334     245196     259246     279500     288204     253388     259020
 End1        236544     239616     245248     259584     279500     288204     253440     259072
 Wr Pntr     235008     236544     239616     259072     273920     282624     247808     253440
 Rd Pntr     235008     236544     239616     259072     273920     282624     253388     259020
 Length        1395       2790       5580        174       5580       5580       5580       5580

 Number         598        603        605        606        607        619        631        634
 Base         76800     260096     198656     208384     216576     196608     228864     280064
 End          76802     261957     198657     208444     216636     196805     232406     282144
 End1         77312     262144     199168     208896     217088     197120     232448     282624
 Wr Pntr      76800     260096     198656     208384     216576     196608     228864     280064
 Rd Pntr      76800     261027     198656     208384     216576     196608     228864     280064
 Length           2       1861          1         60         60        197       3542       2080

 Number         651        654        655        656        657        658        659        670
 Base        309248     320512     270848     232448     288256     221184     271872     190976
 End         320048     326092     271778     234190     309160     228534     272802     191180
 End1        320512     326144     271872     234496     309248     228864     272896     191488
 Wr Pntr     320048     320512     270848     232448     288256     226584     271872     190976
 Rd Pntr     320048     320512     270848     232448     309160     223884     271872     191180
 Length       10800       5580        930       1742      20904       7350        930        204

 Number         674        685        694        695        698        989        991        992
 Base        180736     203264     220672     197120     189952      44544      65536      65024
 End         180777     204164     220732     197179     189958      64544      72098      65033
 End1        181248     204288     221184     197632     190464      65024      72192      65536
 Wr Pntr     180736     203264     220672     197120     189952      44544      65536      65024
 Rd Pntr     180736     203264     220672     197120     189952      44544      72098      65033
 Length          41        900         60         59          6      20000       6562          9

 Number         993        994        995        996        997        998        999       2982
 Base         43008      40448      42496      41472      41984      40960      77312     385536
 End          43208      40478      42516      41672      42076      41160     179816     396336
 End1         43520      40960      43008      41984      42496      41472     180224     396800
 Wr Pntr      43008      40448      42496      41472      41984      40960      77312     396336
 Rd Pntr      43208      40478      42516      41672      42072      41160      79816     390936
 Length         200         30         20        200         92        200     102504      10800

 Number        2983       2984       2985       2986       2987       2988       2989       2990
 Base        270336     269312     268288     267776     267264     198144     368640     363520
 End         270365     270212     269129     267777     267729     198609     374040     368566
 End1        270848     270336     269312     268288     267776     198656     374272     368640
 Wr Pntr     270365     270212     269129     267777     267729     198609     374040     368566
 Rd Pntr     270336     269312     268288     267776     267264     198144     368640     363520
 Length          29        900        841          1        465        465       5400       5046

 Number        2991       2992       2993       2994       2995       2996       2997       2998
 Base        247296     357888     262144     246784     246272     245760     245248     273408
 End         247302     363288     267190     246790     246446     245934     245254     273417
 End1        247808     363520     267264     247296     246784     246272     245760     273920
 Wr Pntr     247302     363288     267190     246790     246272     245760     245254     273417
 Rd Pntr     247296     357888     262144     246784     246272     245760     245254     273417
 Length           6       5400       5046          6        174        174          6          9

 Number        2999       9997       9998       9999
 Base        272896     379904     374784     374272
 End         272902     385304     379830     374278
 End1        273408     385536     379904     374784
 Wr Pntr     272896     379904     379830     374278
 Rd Pntr     272896     379904     374784     374272
 Length           6       5400       5046          6


 dumping /fiocom/, unit = 2 NFiles =    37 SizExt =         0 WInBlk =       512
                   defal = F LstWrd =       90112 FType=2 FMxFil=10000

 Number           0        501        502        503        508        511        520        521
 Base         86315      43748      44748      86185      40448      49102      75577      76806
 End          90112      44748      48898      86189      40478      49114      75587      76841
 End1         90112      44748      48898      86189      40478      49114      75587      76841
 Wr Pntr      86315      43748      44748      86185      40448      49102      75577      76806
 Rd Pntr      86315      43748      44748      86185      40448      49102      75577      76806
 Length        3797       1000       4150          4         30         12         10         35

 Number         522        524        526        536        538        545        548        551
 Base         40678      76869      77769      42818      43283      76841      78669      75606
 End          40738      77769      78669      43283      43748      76869      80469      75644
 End1         40738      77769      78669      43283      43748      76869      80469      75644
 Wr Pntr      40678      76869      77769      42818      43283      76841      78669      75606
 Rd Pntr      40678      76869      77769      42818      43283      76841      78669      75606
 Length          60        900        900        465        465         28       1800         38

 Number         552        562        569        575        584        603        605        607
 Base         75587      69471      75644      75646      49114      80668      80666      86195
 End          75606      75577      75646      76806      49120      82529      80668      86255
 End1         75606      75577      75646      76806      49120      82529      80668      86255
 Wr Pntr      75587      69471      75644      75646      49114      80668      80666      86195
 Rd Pntr      75587      69471      75644      75646      49114      80668      80666      86195
 Length          19       6106          2       1160          6       1861          2         60

 Number         619        631        634        670        672        674        694        695
 Base         80469      82529      40738      48898      86071      86144      86255      49120
 End          80666      86071      42818      49102      86144      86185      86315      49179
 End1         80666      86071      42818      49102      86144      86185      86315      49179
 Wr Pntr      80469      82529      40738      48898      86071      86144      86255      49120
 Rd Pntr      80469      82529      40738      48898      86071      86144      86255      49120
 Length         197       3542       2080        204         73         41         60         59

 Number         698        989        993        997        998
 Base         86189      49179      69179      69379      40478
 End          86195      69179      69379      69471      40678
 End1         86195      69179      69379      69471      40678
 Wr Pntr      86189      49179      69179      69379      40478
 Rd Pntr      86189      49179      69179      69379      40478
 Length           6      20000        200         92        200


 dumping /fiocom/, unit = 3 NFiles =     1 SizExt =    524288 WInBlk =       512
                   defal = T LstWrd =       65536 FType=2 FMxFil=10000

 Number           0
 Base         40448
 End          65536
 End1         65536
 Wr Pntr      40448
 Rd Pntr      40448
 Length       25088
 Error termination in NtrErr:
 NtrErr Called from FileIO.
