 Entering Gaussian System, Link 0=/programs/64bit/g09/g09-gfortran/bin/g09
 Input=ch3_+.com
 Output=ch3_+.log
 Initial command:
 /programs/64bit/g09/g09-gfortran/bin/l1.exe /home/ospite/Desktop/MMfP/Project6/CH3/g09/MP2/Gau-8879.inp -scrdir=/home/ospite/Desktop/MMfP/Project6/CH3/g09/MP2/
 Entering Link 1 = /programs/64bit/g09/g09-gfortran/bin/l1.exe PID=      8880.
  
 Copyright (c) 1988,1990,1992,1993,1995,1998,2003,2009, Gaussian, Inc.
                  All Rights Reserved.
  
 This is part of the Gaussian(R) 09 program.  It is based on
 the Gaussian(R) 03 system (copyright 2003, Gaussian, Inc.),
 the Gaussian(R) 98 system (copyright 1998, Gaussian, Inc.),
 the Gaussian(R) 94 system (copyright 1995, Gaussian, Inc.),
 the Gaussian 92(TM) system (copyright 1992, Gaussian, Inc.),
 the Gaussian 90(TM) system (copyright 1990, Gaussian, Inc.),
 the Gaussian 88(TM) system (copyright 1988, Gaussian, Inc.),
 the Gaussian 86(TM) system (copyright 1986, Carnegie Mellon
 University), and the Gaussian 82(TM) system (copyright 1983,
 Carnegie Mellon University). Gaussian is a federally registered
 trademark of Gaussian, Inc.
  
 This software contains proprietary and confidential information,
 including trade secrets, belonging to Gaussian, Inc.
  
 This software is provided under written license and may be
 used, copied, transmitted, or stored only in accord with that
 written license.
  
 The following legend is applicable only to US Government
 contracts under FAR:
  
                    RESTRICTED RIGHTS LEGEND
  
 Use, reproduction and disclosure by the US Government is
 subject to restrictions as set forth in subparagraphs (a)
 and (c) of the Commercial Computer Software - Restricted
 Rights clause in FAR 52.227-19.
  
 Gaussian, Inc.
 340 Quinnipiac St., Bldg. 40, Wallingford CT 06492
  
  
 ---------------------------------------------------------------
 Warning -- This program may not be used in any manner that
 competes with the business of Gaussian, Inc. or will provide
 assistance to any competitor of Gaussian, Inc.  The licensee
 of this program is prohibited from giving any competitor of
 Gaussian, Inc. access to this program.  By using this program,
 the user acknowledges that Gaussian, Inc. is engaged in the
 business of creating and licensing software in the field of
 computational chemistry and represents and warrants to the
 licensee that it is not a competitor of Gaussian, Inc. and that
 it will not use this program in any manner prohibited above.
 ---------------------------------------------------------------
  

 Cite this work as:
 Gaussian 09, Revision A.02,
 M. J. Frisch, G. W. Trucks, H. B. Schlegel, G. E. Scuseria, 
 M. A. Robb, J. R. Cheeseman, G. Scalmani, V. Barone, B. Mennucci, 
 G. A. Petersson, H. Nakatsuji, M. Caricato, X. Li, H. P. Hratchian, 
 A. F. Izmaylov, J. Bloino, G. Zheng, J. L. Sonnenberg, M. Hada, 
 M. Ehara, K. Toyota, R. Fukuda, J. Hasegawa, M. Ishida, T. Nakajima, 
 Y. Honda, O. Kitao, H. Nakai, T. Vreven, J. A. Montgomery, Jr., 
 J. E. Peralta, F. Ogliaro, M. Bearpark, J. J. Heyd, E. Brothers, 
 K. N. Kudin, V. N. Staroverov, R. Kobayashi, J. Normand, 
 K. Raghavachari, A. Rendell, J. C. Burant, S. S. Iyengar, J. Tomasi, 
 M. Cossi, N. Rega, J. M. Millam, M. Klene, J. E. Knox, J. B. Cross, 
 V. Bakken, C. Adamo, J. Jaramillo, R. Gomperts, R. E. Stratmann, 
 O. Yazyev, A. J. Austin, R. Cammi, C. Pomelli, J. W. Ochterski, 
 R. L. Martin, K. Morokuma, V. G. Zakrzewski, G. A. Voth, 
 P. Salvador, J. J. Dannenberg, S. Dapprich, A. D. Daniels, 
 O. Farkas, J. B. Foresman, J. V. Ortiz, J. Cioslowski, 
 and D. J. Fox, Gaussian, Inc., Wallingford CT, 2009.
 
 ******************************************
 Gaussian 09:  EM64L-G09RevA.02 11-Jun-2009
                17-Aug-2024 
 ******************************************
 %mem=100MB
 ----------------------------------------------------------------
 #p mp2/6-31+G opt freq symmetry=(follow,pg=C3v) pop=full gfinput
 ----------------------------------------------------------------
 1/18=20,19=15,38=1/1,3;
 2/9=110,12=2,17=6,18=5,19=2314885530821997379,40=1/2;
 3/5=1,6=6,7=10,11=9,16=1,24=10,25=1,30=1,71=1/1,2,3;
 4//1;
 5/5=2,38=5/2;
 8/6=4,10=2/1;
 9/15=2,16=-3/6;
 10/5=1/2;
 6/7=3/1;
 7/12=2/1,2,3,16;
 1/18=20,19=15/3(2);
 2/9=110,15=5,19=2314885530821997379/2;
 99//99;
 2/9=110,15=5,19=2314885530821997379/2;
 3/5=1,6=6,7=10,11=9,16=1,25=1,30=1,71=1/1,2,3;
 4/5=5,16=3/1;
 5/5=2,38=5/2;
 8/6=4,10=2/1;
 9/15=2,16=-3/6;
 10/5=1/2;
 7/12=2/1,2,3,16;
 1/18=20,19=15/3(-8);
 2/9=110,15=5,19=2314885530821997379/2;
 6/7=3/1;
 99//99;
 Leave Link    1 at Sat Aug 17 18:00:45 2024, MaxMem=   13107200 cpu:       0.1
 (Enter /programs/64bit/g09/g09-gfortran/bin/l101.exe)
 ---------------------------------------------------------
 methyl with imposed symmetry and hf/6-31+G basis function
 ---------------------------------------------------------
 Symbolic Z-matrix:
 Charge =  0 Multiplicity = 2
 C1
 H2                   1    d
 H3                   1    d        2    a
 H4                   1    d        2    -a       3    t        0
       Variables:
  d                     1.09                     
  a                   120.                       
  t                     0.                       
 
 NAtoms=      4 NQM=      4 NQMF=      0 NMic=      0 NMicF=      0 NTot=      4.
                    Isotopes and Nuclear Properties:
 (Nuclear quadrupole moments (NQMom) in fm**2, nuclear magnetic moments (NMagM)
  in nuclear magnetons)

  Atom         1           2           3           4
 IAtWgt=          12           1           1           1
 AtmWgt=  12.0000000   1.0078250   1.0078250   1.0078250
 NucSpn=           0           1           1           1
 AtZEff=   0.0000000   0.0000000   0.0000000   0.0000000
 NQMom=    0.0000000   0.0000000   0.0000000   0.0000000
 NMagM=    0.0000000   2.7928460   2.7928460   2.7928460
 Leave Link  101 at Sat Aug 17 18:00:45 2024, MaxMem=   13107200 cpu:       0.1
 (Enter /programs/64bit/g09/g09-gfortran/bin/l103.exe)

 GradGradGradGradGradGradGradGradGradGradGradGradGradGradGradGradGradGrad
 Berny optimization.
 Initialization pass.
                           ----------------------------
                           !    Initial Parameters    !
                           ! (Angstroms and Degrees)  !
 --------------------------                            --------------------------
 ! Name  Definition              Value          Derivative Info.                !
 --------------------------------------------------------------------------------
 ! R1    R(1,2)                  1.09           estimate D2E/DX2                !
 ! R2    R(1,3)                  1.09           estimate D2E/DX2                !
 ! R3    R(1,4)                  1.09           estimate D2E/DX2                !
 ! A1    A(2,1,3)              120.0            estimate D2E/DX2                !
 ! A2    A(2,1,4)              120.0            estimate D2E/DX2                !
 ! A3    A(3,1,4)              120.0            estimate D2E/DX2                !
 ! D1    D(2,1,4,3)            180.0            estimate D2E/DX2                !
 --------------------------------------------------------------------------------
 Trust Radius=3.00D-01 FncErr=1.00D-07 GrdErr=1.00D-07
 Number of steps in this run=  20 maximum allowed number of steps= 100.
 GradGradGradGradGradGradGradGradGradGradGradGradGradGradGradGradGradGrad

 Leave Link  103 at Sat Aug 17 18:00:45 2024, MaxMem=   13107200 cpu:       0.0
 (Enter /programs/64bit/g09/g09-gfortran/bin/l202.exe)
                          Input orientation:                          
 ---------------------------------------------------------------------
 Center     Atomic      Atomic             Coordinates (Angstroms)
 Number     Number       Type             X           Y           Z
 ---------------------------------------------------------------------
      1          6           0        0.000000    0.000000    0.000000
      2          1           0        0.000000    0.000000    1.090000
      3          1           0        0.943968    0.000000   -0.545000
      4          1           0       -0.943968    0.000000   -0.545000
 ---------------------------------------------------------------------
                    Distance matrix (angstroms):
                    1          2          3          4
     1  C    0.000000
     2  H    1.090000   0.000000
     3  H    1.090000   1.887935   0.000000
     4  H    1.090000   1.887935   1.887935   0.000000
 Symm:  InNGrp=C3V  InAxis=0.
 This structure is nearly, but not quite of a higher symmetry.
 Consider Symm=Loose if the higher symmetry is desired.
 Stoichiometry    CH3(2)
 Framework group  C2[C2(CH),X(H2)]
 Deg. of freedom     3
 Full point group                 C2      NOp   2
 Largest Abelian subgroup         C2      NOp   2
 Largest concise Abelian subgroup C2      NOp   2
                         Standard orientation:                         
 ---------------------------------------------------------------------
 Center     Atomic      Atomic             Coordinates (Angstroms)
 Number     Number       Type             X           Y           Z
 ---------------------------------------------------------------------
      1          6           0        0.000000    0.000000    0.000000
      2          1           0        0.000000    0.000000    1.090000
      3          1           0        0.000000    0.943968   -0.545000
      4          1           0       -0.000000   -0.943968   -0.545000
 ---------------------------------------------------------------------
 Rotational constants (GHZ):    281.3764836    281.3764836    140.6882418
 Leave Link  202 at Sat Aug 17 18:00:45 2024, MaxMem=   13107200 cpu:       0.0
 (Enter /programs/64bit/g09/g09-gfortran/bin/l301.exe)
 Standard basis: 6-31+G (6D, 7F)
 Ernie: Thresh=  0.10000D-02 Tol=  0.10000D-05 Strict=F.
 AO basis set in the form of general basis input (Overlap normalization):
      1 0
 S   6 1.00       0.000000000000
      0.3047524880D+04  0.1834737132D-02
      0.4573695180D+03  0.1403732281D-01
      0.1039486850D+03  0.6884262226D-01
      0.2921015530D+02  0.2321844432D+00
      0.9286662960D+01  0.4679413484D+00
      0.3163926960D+01  0.3623119853D+00
 SP   3 1.00       0.000000000000
      0.7868272350D+01 -0.1193324198D+00  0.6899906659D-01
      0.1881288540D+01 -0.1608541517D+00  0.3164239610D+00
      0.5442492580D+00  0.1143456438D+01  0.7443082909D+00
 SP   1 1.00       0.000000000000
      0.1687144782D+00  0.1000000000D+01  0.1000000000D+01
 SP   1 1.00       0.000000000000
      0.4380000000D-01  0.1000000000D+01  0.1000000000D+01
 ****
      2 0
 S   3 1.00       0.000000000000
      0.1873113696D+02  0.3349460434D-01
      0.2825394365D+01  0.2347269535D+00
      0.6401216923D+00  0.8137573261D+00
 S   1 1.00       0.000000000000
      0.1612777588D+00  0.1000000000D+01
 ****
      3 0
 S   3 1.00       0.000000000000
      0.1873113696D+02  0.3349460434D-01
      0.2825394365D+01  0.2347269535D+00
      0.6401216923D+00  0.8137573261D+00
 S   1 1.00       0.000000000000
      0.1612777588D+00  0.1000000000D+01
 ****
      4 0
 S   3 1.00       0.000000000000
      0.1873113696D+02  0.3349460434D-01
      0.2825394365D+01  0.2347269535D+00
      0.6401216923D+00  0.8137573261D+00
 S   1 1.00       0.000000000000
      0.1612777588D+00  0.1000000000D+01
 ****

 There are    11 symmetry adapted basis functions of A   symmetry.
 There are     8 symmetry adapted basis functions of B   symmetry.
 Integral buffers will be    131072 words long.
 Raffenetti 2 integral format.
 Two-electron integral symmetry is turned on.
    19 basis functions,    38 primitive gaussians,    19 cartesian basis functions
     5 alpha electrons        4 beta electrons
       nuclear repulsion energy         9.5795885928 Hartrees.
 IExCor=    0 DFT=F Ex=HF Corr=None ExCW=0 ScaHFX=  1.000000
 ScaDFX=  1.000000  1.000000  1.000000  1.000000 ScalE2=  1.000000  1.000000
 IRadAn=      0 IRanWt=     -1 IRanGd=            0 ICorTp=0
 NAtoms=    4 NActive=    4 NUniq=    3 SFac= 1.33D+00 NAtFMM=   80 NAOKFM=F Big=F
 Leave Link  301 at Sat Aug 17 18:00:46 2024, MaxMem=   13107200 cpu:       0.1
 (Enter /programs/64bit/g09/g09-gfortran/bin/l302.exe)
 NPDir=0 NMtPBC=     1 NCelOv=     1 NCel=       1 NClECP=     1 NCelD=      1
         NCelK=      1 NCelE2=     1 NClLst=     1 CellRange=     0.0.
 One-electron integrals computed using PRISM.
 One-electron integral symmetry used in STVInt
 NBasis=    19 RedAO= T  NBF=    11     8
 NBsUse=    19 1.00D-06 NBFU=    11     8
 Leave Link  302 at Sat Aug 17 18:00:46 2024, MaxMem=   13107200 cpu:       0.1
 (Enter /programs/64bit/g09/g09-gfortran/bin/l303.exe)
 DipDrv:  MaxL=1.
 Leave Link  303 at Sat Aug 17 18:00:46 2024, MaxMem=   13107200 cpu:       0.0
 (Enter /programs/64bit/g09/g09-gfortran/bin/l401.exe)
 Harris functional with IExCor=  205 diagonalized for initial guess.
 ExpMin= 4.38D-02 ExpMax= 3.05D+03 ExpMxC= 4.57D+02 IAcc=2 IRadAn=         0 AccDes= 0.00D+00
 HarFok:  IExCor=  205 AccDes= 0.00D+00 IRadAn=         0 IDoV= 1
 ScaDFX=  1.000000  1.000000  1.000000  1.000000
 FoFCou: FMM=F IPFlag=           0 FMFlag=      100000 FMFlg1=           0
         NFxFlg=           0 DoJE=T BraDBF=F KetDBF=T FulRan=T
         Omega=  0.000000  0.000000  1.000000  0.000000  0.000000 ICntrl=     500 IOpCl=  0
         NMat0=    1 NMatS0=    1 NMatT0=    0 NMatD0=    1 NMtDS0=    0 NMtDT0=    0
         I1Cent=           4 NGrid=           0.
 Petite list used in FoFCou.
 Harris En= -39.6179651572035    
 Initial guess orbital symmetries:
 Alpha Orbitals:
       Occupied  (A) (A) (B) (A) (B)
       Virtual   (A) (B) (A) (B) (B) (A) (A) (A) (B) (B) (A) (A)
                 (B) (A)
 Beta  Orbitals:
       Occupied  (A) (A) (B) (A)
       Virtual   (B) (A) (B) (A) (B) (B) (A) (A) (A) (B) (B) (A)
                 (A) (B) (A)
 The electronic state of the initial guess is 2-B.
 Initial guess <Sx>= 0.0000 <Sy>= 0.0000 <Sz>= 0.5000 <S**2>= 0.7500 S= 0.5000
 Leave Link  401 at Sat Aug 17 18:00:46 2024, MaxMem=   13107200 cpu:       0.4
 (Enter /programs/64bit/g09/g09-gfortran/bin/l502.exe)
 UHF open shell SCF:
 Requested convergence on RMS density matrix=1.00D-08 within 128 cycles.
 Requested convergence on MAX density matrix=1.00D-06.
 Requested convergence on             energy=1.00D-06.
 No special actions if energy rises.
 Using DIIS extrapolation, IDIIS=  1040.
 Integral symmetry usage will be decided dynamically.
 Keep R1 and R2 ints in memory in canonical form, NReq=856098.
 IEnd=       19787 IEndB=       19787 NGot=    13107200 MDV=    13068198
 LenX=    13068198 LenY=    13067316
 Symmetry not used in FoFDir.
 MinBra= 0 MaxBra= 1 Meth= 1.
 IRaf=       0 NMat=   1 IRICut=       1 DoRegI=T DoRafI=F ISym2E= 0 JSym2E=0.

 Cycle   1  Pass 1  IDiag  1:
 E= -39.4892532901273    
 DIIS: error= 4.35D-02 at cycle   1 NSaved=   1.
 NSaved= 1 IEnMin= 1 EnMin= -39.4892532901273     IErMin= 1 ErrMin= 4.35D-02
 ErrMax= 4.35D-02 EMaxC= 1.00D-01 BMatC= 2.19D-01 BMatP= 2.19D-01
 IDIUse=3 WtCom= 5.65D-01 WtEn= 4.35D-01
 Coeff-Com:  0.100D+01
 Coeff-En:   0.100D+01
 Coeff:      0.100D+01
 Gap=     0.428 Goal=   None    Shift=    0.000
 Gap=     0.635 Goal=   None    Shift=    0.000
 GapD=    0.428 DampG=2.000 DampE=0.500 DampFc=1.0000 IDamp=-1.
 RMSDP=1.25D-02 MaxDP=1.19D-01              OVMax= 1.08D-01

 Cycle   2  Pass 1  IDiag  1:
 E= -39.5412196307533     Delta-E=       -0.051966340626 Rises=F Damp=F
 DIIS: error= 1.58D-02 at cycle   2 NSaved=   2.
 NSaved= 2 IEnMin= 2 EnMin= -39.5412196307533     IErMin= 2 ErrMin= 1.58D-02
 ErrMax= 1.58D-02 EMaxC= 1.00D-01 BMatC= 2.33D-02 BMatP= 2.19D-01
 IDIUse=3 WtCom= 8.42D-01 WtEn= 1.58D-01
 Coeff-Com:  0.215D+00 0.785D+00
 Coeff-En:   0.000D+00 0.100D+01
 Coeff:      0.181D+00 0.819D+00
 Gap=     0.480 Goal=   None    Shift=    0.000
 Gap=     0.644 Goal=   None    Shift=    0.000
 RMSDP=3.35D-03 MaxDP=3.57D-02 DE=-5.20D-02 OVMax= 2.92D-02

 Cycle   3  Pass 1  IDiag  1:
 E= -39.5475165867029     Delta-E=       -0.006296955950 Rises=F Damp=F
 DIIS: error= 3.68D-03 at cycle   3 NSaved=   3.
 NSaved= 3 IEnMin= 3 EnMin= -39.5475165867029     IErMin= 3 ErrMin= 3.68D-03
 ErrMax= 3.68D-03 EMaxC= 1.00D-01 BMatC= 6.35D-04 BMatP= 2.33D-02
 IDIUse=3 WtCom= 9.63D-01 WtEn= 3.68D-02
 Coeff-Com: -0.303D-01 0.294D-02 0.103D+01
 Coeff-En:   0.000D+00 0.000D+00 0.100D+01
 Coeff:     -0.292D-01 0.283D-02 0.103D+01
 Gap=     0.478 Goal=   None    Shift=    0.000
 Gap=     0.634 Goal=   None    Shift=    0.000
 RMSDP=9.14D-04 MaxDP=5.89D-03 DE=-6.30D-03 OVMax= 7.47D-03

 Cycle   4  Pass 1  IDiag  1:
 E= -39.5478715847267     Delta-E=       -0.000354998024 Rises=F Damp=F
 DIIS: error= 1.60D-03 at cycle   4 NSaved=   4.
 NSaved= 4 IEnMin= 4 EnMin= -39.5478715847267     IErMin= 4 ErrMin= 1.60D-03
 ErrMax= 1.60D-03 EMaxC= 1.00D-01 BMatC= 1.75D-04 BMatP= 6.35D-04
 IDIUse=3 WtCom= 9.84D-01 WtEn= 1.60D-02
 Coeff-Com:  0.266D-01-0.437D-01-0.135D+01 0.237D+01
 Coeff-En:   0.000D+00 0.000D+00 0.000D+00 0.100D+01
 Coeff:      0.262D-01-0.430D-01-0.133D+01 0.235D+01
 Gap=     0.482 Goal=   None    Shift=    0.000
 Gap=     0.634 Goal=   None    Shift=    0.000
 RMSDP=1.16D-03 MaxDP=6.11D-03 DE=-3.55D-04 OVMax= 8.16D-03

 Cycle   5  Pass 1  IDiag  1:
 E= -39.5480713241756     Delta-E=       -0.000199739449 Rises=F Damp=F
 DIIS: error= 3.50D-04 at cycle   5 NSaved=   5.
 NSaved= 5 IEnMin= 5 EnMin= -39.5480713241756     IErMin= 5 ErrMin= 3.50D-04
 ErrMax= 3.50D-04 EMaxC= 1.00D-01 BMatC= 9.00D-06 BMatP= 1.75D-04
 IDIUse=3 WtCom= 9.96D-01 WtEn= 3.50D-03
 Coeff-Com: -0.121D-01 0.271D-01 0.670D+00-0.137D+01 0.169D+01
 Coeff-En:   0.000D+00 0.000D+00 0.000D+00 0.000D+00 0.100D+01
 Coeff:     -0.120D-01 0.270D-01 0.668D+00-0.137D+01 0.168D+01
 Gap=     0.483 Goal=   None    Shift=    0.000
 Gap=     0.633 Goal=   None    Shift=    0.000
 RMSDP=2.69D-04 MaxDP=1.55D-03 DE=-2.00D-04 OVMax= 2.01D-03

 Cycle   6  Pass 1  IDiag  1:
 E= -39.5480813016221     Delta-E=       -0.000009977447 Rises=F Damp=F
 DIIS: error= 5.98D-05 at cycle   6 NSaved=   6.
 NSaved= 6 IEnMin= 6 EnMin= -39.5480813016221     IErMin= 6 ErrMin= 5.98D-05
 ErrMax= 5.98D-05 EMaxC= 1.00D-01 BMatC= 1.72D-07 BMatP= 9.00D-06
 IDIUse=1 WtCom= 1.00D+00 WtEn= 0.00D+00
 Coeff-Com:  0.511D-02-0.119D-01-0.284D+00 0.592D+00-0.820D+00 0.152D+01
 Coeff:      0.511D-02-0.119D-01-0.284D+00 0.592D+00-0.820D+00 0.152D+01
 Gap=     0.483 Goal=   None    Shift=    0.000
 Gap=     0.633 Goal=   None    Shift=    0.000
 RMSDP=2.81D-05 MaxDP=1.95D-04 DE=-9.98D-06 OVMax= 2.80D-04

 Cycle   7  Pass 1  IDiag  1:
 E= -39.5480814637344     Delta-E=       -0.000000162112 Rises=F Damp=F
 DIIS: error= 1.09D-05 at cycle   7 NSaved=   7.
 NSaved= 7 IEnMin= 7 EnMin= -39.5480814637344     IErMin= 7 ErrMin= 1.09D-05
 ErrMax= 1.09D-05 EMaxC= 1.00D-01 BMatC= 4.36D-09 BMatP= 1.72D-07
 IDIUse=1 WtCom= 1.00D+00 WtEn= 0.00D+00
 Coeff-Com: -0.114D-02 0.250D-02 0.633D-01-0.132D+00 0.192D+00-0.466D+00
 Coeff-Com:  0.134D+01
 Coeff:     -0.114D-02 0.250D-02 0.633D-01-0.132D+00 0.192D+00-0.466D+00
 Coeff:      0.134D+01
 Gap=     0.482 Goal=   None    Shift=    0.000
 Gap=     0.633 Goal=   None    Shift=    0.000
 RMSDP=3.76D-06 MaxDP=4.55D-05 DE=-1.62D-07 OVMax= 3.89D-05

 Cycle   8  Pass 1  IDiag  1:
 E= -39.5480814672386     Delta-E=       -0.000000003504 Rises=F Damp=F
 DIIS: error= 2.93D-06 at cycle   8 NSaved=   8.
 NSaved= 8 IEnMin= 8 EnMin= -39.5480814672386     IErMin= 8 ErrMin= 2.93D-06
 ErrMax= 2.93D-06 EMaxC= 1.00D-01 BMatC= 1.50D-10 BMatP= 4.36D-09
 IDIUse=1 WtCom= 1.00D+00 WtEn= 0.00D+00
 Coeff-Com:  0.188D-03-0.383D-03-0.104D-01 0.217D-01-0.327D-01 0.995D-01
 Coeff-Com: -0.429D+00 0.135D+01
 Coeff:      0.188D-03-0.383D-03-0.104D-01 0.217D-01-0.327D-01 0.995D-01
 Coeff:     -0.429D+00 0.135D+01
 Gap=     0.482 Goal=   None    Shift=    0.000
 Gap=     0.633 Goal=   None    Shift=    0.000
 RMSDP=7.33D-07 MaxDP=1.21D-05 DE=-3.50D-09 OVMax= 1.04D-05

 Cycle   9  Pass 1  IDiag  1:
 E= -39.5480814673738     Delta-E=       -0.000000000135 Rises=F Damp=F
 DIIS: error= 6.94D-07 at cycle   9 NSaved=   9.
 NSaved= 9 IEnMin= 9 EnMin= -39.5480814673738     IErMin= 9 ErrMin= 6.94D-07
 ErrMax= 6.94D-07 EMaxC= 1.00D-01 BMatC= 1.18D-11 BMatP= 1.50D-10
 IDIUse=1 WtCom= 1.00D+00 WtEn= 0.00D+00
 Coeff-Com: -0.162D-04 0.974D-05 0.870D-03-0.186D-02 0.381D-02-0.238D-01
 Coeff-Com:  0.165D+00-0.805D+00 0.166D+01
 Coeff:     -0.162D-04 0.974D-05 0.870D-03-0.186D-02 0.381D-02-0.238D-01
 Coeff:      0.165D+00-0.805D+00 0.166D+01
 Gap=     0.482 Goal=   None    Shift=    0.000
 Gap=     0.633 Goal=   None    Shift=    0.000
 RMSDP=2.54D-07 MaxDP=3.48D-06 DE=-1.35D-10 OVMax= 4.06D-06

 Cycle  10  Pass 1  IDiag  1:
 E= -39.5480814673858     Delta-E=       -0.000000000012 Rises=F Damp=F
 DIIS: error= 3.82D-08 at cycle  10 NSaved=  10.
 NSaved=10 IEnMin=10 EnMin= -39.5480814673858     IErMin=10 ErrMin= 3.82D-08
 ErrMax= 3.82D-08 EMaxC= 1.00D-01 BMatC= 9.88D-14 BMatP= 1.18D-11
 IDIUse=1 WtCom= 1.00D+00 WtEn= 0.00D+00
 Coeff-Com:  0.698D-06 0.596D-05-0.322D-04 0.723D-04-0.404D-03 0.478D-02
 Coeff-Com: -0.387D-01 0.202D+00-0.471D+00 0.130D+01
 Coeff:      0.698D-06 0.596D-05-0.322D-04 0.723D-04-0.404D-03 0.478D-02
 Coeff:     -0.387D-01 0.202D+00-0.471D+00 0.130D+01
 Gap=     0.482 Goal=   None    Shift=    0.000
 Gap=     0.633 Goal=   None    Shift=    0.000
 RMSDP=3.09D-08 MaxDP=3.00D-07 DE=-1.21D-11 OVMax= 2.15D-07

 Cycle  11  Pass 1  IDiag  1:
 E= -39.5480814673859     Delta-E=       -0.000000000000 Rises=F Damp=F
 DIIS: error= 2.84D-09 at cycle  11 NSaved=  11.
 NSaved=11 IEnMin=11 EnMin= -39.5480814673859     IErMin=11 ErrMin= 2.84D-09
 ErrMax= 2.84D-09 EMaxC= 1.00D-01 BMatC= 5.61D-16 BMatP= 9.88D-14
 IDIUse=1 WtCom= 1.00D+00 WtEn= 0.00D+00
 Coeff-Com: -0.135D-07-0.739D-06-0.500D-06 0.614D-06 0.293D-04-0.458D-03
 Coeff-Com:  0.380D-02-0.201D-01 0.485D-01-0.179D+00 0.115D+01
 Coeff:     -0.135D-07-0.739D-06-0.500D-06 0.614D-06 0.293D-04-0.458D-03
 Coeff:      0.380D-02-0.201D-01 0.485D-01-0.179D+00 0.115D+01
 Gap=     0.482 Goal=   None    Shift=    0.000
 Gap=     0.633 Goal=   None    Shift=    0.000
 RMSDP=2.08D-09 MaxDP=1.51D-08 DE=-5.68D-14 OVMax= 1.04D-08

 SCF Done:  E(UHF) =  -39.5480814674     A.U. after   11 cycles
             Convg  =    0.2083D-08             -V/T =  2.0007
 <Sx>= 0.0000 <Sy>= 0.0000 <Sz>= 0.5000 <S**2>= 0.7618 S= 0.5059
 <L.S>=  0.00000000000    
 KE= 3.952073534934D+01 PE=-1.108422870752D+02 EE= 2.219388166569D+01
 Annihilation of the first spin contaminant:
 S**2 before annihilation     0.7618,   after     0.7501
 Leave Link  502 at Sat Aug 17 18:00:47 2024, MaxMem=   13107200 cpu:       0.1
 (Enter /programs/64bit/g09/g09-gfortran/bin/l801.exe)
 ExpMin= 4.38D-02 ExpMax= 3.05D+03 ExpMxC= 4.57D+02 IAcc=3 IRadAn=         5 AccDes= 0.00D+00
 HarFok:  IExCor=  205 AccDes= 0.00D+00 IRadAn=         5 IDoV=-2
 ScaDFX=  1.000000  1.000000  1.000000  1.000000
 Largest valence mixing into a core orbital is  8.95D-05
 Largest core mixing into a valence orbital is  2.82D-05
 Largest valence mixing into a core orbital is  1.39D-04
 Largest core mixing into a valence orbital is  4.69D-05
 Range of M.O.s used for correlation:     2    19
 NBasis=    19 NAE=     5 NBE=     4 NFC=     1 NFV=     0
 NROrb=     18 NOA=     4 NOB=     3 NVA=    14 NVB=    15
 Leave Link  801 at Sat Aug 17 18:00:47 2024, MaxMem=   13107200 cpu:       0.5
 (Enter /programs/64bit/g09/g09-gfortran/bin/l906.exe)
 Frozen-core derivative calculation, NFC=   1 NFV=   0.
 FulOut=F Deriv=T AODrv=T NAtomX=     4
   MMem=        2232  MDisk=           4 MDiskD=           4
  W3Min=        3610 MinDsk=       54978 NBas6D=          19
 NBas2D=         208    NTT=         190    LW2=     2000000
    MDV=    13095836 MDiskM=        6083 NBas2p=         174
 Fully direct method using O(ONN) memory.
 IMap=   1   2   3   4   5
 JobTyp=2 Pass  1:  I=   2 to   5 NPSUse=  1 ParTrn=F ParDer=F DoDerP=T.
 IMap=   1   2   3   4
 JobTyp=3 Pass  1:  I=   2 to   4 NPSUse=  1 ParTrn=F ParDer=F DoDerP=T.
 Spin components of T(2) and E(2):
     alpha-alpha T2 =       0.3916998546D-02 E2=     -0.9515013533D-02
     alpha-beta  T2 =       0.2419879115D-01 E2=     -0.6433953533D-01
     beta-beta   T2 =       0.1492469628D-02 E2=     -0.3789246280D-02
 The integrals were generated   2 times.
 (S**2,0)=  0.76185D+00           (S**2,1)=  0.75448D+00
 E(PUHF)=      -0.39550544961D+02        E(PMP2)=      -0.39627426602D+02
 ANorm=    0.1014696141D+01
 E2 =    -0.7764379514D-01 EUMP2 =    -0.39625725262531D+02
 Leave Link  906 at Sat Aug 17 18:00:48 2024, MaxMem=   13107200 cpu:       0.4
 (Enter /programs/64bit/g09/g09-gfortran/bin/l1002.exe)
 Minotr:  UHF open shell wavefunction.
          Computing MP2/KS-MP2 derivatives.
          Using Z-Vector for PSCF gradient.
          Skipping F1 and S1 gradient terms here.
          IDoAtm=1111
          Frozen-core window.
          Direct CPHF calculation.
          Differentiating once with respect to electric field.
                with respect to dipole field.
          Differentiating once with respect to nuclear coordinates.
          Using symmetry in CPHF.
          Requested convergence is 1.0D-10 RMS, and 1.0D-09 maximum.
          NewPWx=F KeepS1=T KeepF1=T KeepIn=T MapXYZ=F SortEE=F KeepMc=T.
          MDV=      13107156 using IRadAn=       0.
          Keep R1 and R2 ints in memory in canonical form, NReq=836828.
 Symmetry not used in FoFDir.
 MinBra= 0 MaxBra= 1 Meth= 1.
 IRaf=       0 NMat=   1 IRICut=       1 DoRegI=T DoRafI=F ISym2E= 0 JSym2E=0.
          Solving linear equations separately, MaxMat=       0.
          There are     1 degrees of freedom in the 1st order CPHF.  IDoFFX=0.
 LinEq1:  Iter=  0 NonCon=     1 RMS=3.28D-03 Max=2.63D-02
 AX will form     1 AO Fock derivatives at one time.
 LinEq1:  Iter=  1 NonCon=     1 RMS=5.39D-04 Max=2.76D-03
 LinEq1:  Iter=  2 NonCon=     1 RMS=1.77D-04 Max=7.72D-04
 LinEq1:  Iter=  3 NonCon=     1 RMS=3.74D-05 Max=2.12D-04
 LinEq1:  Iter=  4 NonCon=     1 RMS=3.44D-06 Max=2.51D-05
 LinEq1:  Iter=  5 NonCon=     1 RMS=3.81D-07 Max=2.01D-06
 LinEq1:  Iter=  6 NonCon=     1 RMS=4.79D-08 Max=1.77D-07
 LinEq1:  Iter=  7 NonCon=     1 RMS=5.18D-09 Max=2.63D-08
 LinEq1:  Iter=  8 NonCon=     1 RMS=2.82D-10 Max=1.85D-09
 LinEq1:  Iter=  9 NonCon=     0 RMS=2.48D-11 Max=9.93D-11
 Linear equations converged to 1.000D-10 1.000D-09 after     9 iterations.
 End of Minotr Frequency-dependent properties file   721 does not exist.
 End of Minotr Frequency-dependent properties file   722 does not exist.
 Leave Link 1002 at Sat Aug 17 18:00:48 2024, MaxMem=   13107200 cpu:       0.1
 (Enter /programs/64bit/g09/g09-gfortran/bin/l601.exe)
 Copying SCF densities to generalized density rwf, IOpCl= 1 IROHF=0.

 **********************************************************************

            Population analysis using the SCF density.

 **********************************************************************

 Orbital symmetries:
 Alpha Orbitals:
       Occupied  (A) (A) (B) (A) (B)
       Virtual   (A) (B) (A) (B) (A) (B) (A) (B) (A) (B) (A) (A)
                 (B) (A)
 Beta  Orbitals:
       Occupied  (A) (A) (B) (A)
       Virtual   (B) (A) (B) (A) (B) (B) (A) (A) (B) (A) (B) (A)
                 (A) (B) (A)
 The electronic state is 2-B.
 Alpha  occ. eigenvalues --  -11.24316  -0.95019  -0.57944  -0.57944  -0.38567
 Alpha virt. eigenvalues --    0.09681   0.11930   0.11930   0.13394   0.32515
 Alpha virt. eigenvalues --    0.33905   0.33905   0.85890   0.85890   0.86332
 Alpha virt. eigenvalues --    1.06033   1.26056   1.30054   1.30054
  Beta  occ. eigenvalues --  -11.21825  -0.85231  -0.56266  -0.56266
  Beta virt. eigenvalues --    0.07062   0.10547   0.12110   0.12110   0.22988
  Beta virt. eigenvalues --    0.34682   0.34682   0.35417   0.87688   0.87688
  Beta virt. eigenvalues --    0.98916   1.09606   1.27382   1.30105   1.30105
     Alpha Molecular Orbital Coefficients:
                           1         2         3         4         5
                           O         O         O         O         O
     Eigenvalues --   -11.24316  -0.95019  -0.57944  -0.57944  -0.38567
   1 1   C  1S          0.99585  -0.20506   0.00000  -0.00000   0.00000
   2        2S          0.02532   0.40378   0.00000   0.00000   0.00000
   3        2PX         0.00000   0.00000   0.00000   0.00000   0.59097
   4        2PY         0.00000   0.00000   0.46008   0.00000   0.00000
   5        2PZ        -0.00000  -0.00000   0.00000   0.46008   0.00000
   6        3S         -0.01202   0.43873   0.00000   0.00000   0.00000
   7        3PX         0.00000   0.00000  -0.00000   0.00000   0.49150
   8        3PY         0.00000   0.00000   0.22319   0.00000   0.00000
   9        3PZ         0.00000  -0.00000   0.00000   0.22319   0.00000
  10        4S          0.00084   0.01530   0.00000   0.00000   0.00000
  11        4PX         0.00000   0.00000   0.00000   0.00000   0.09053
  12        4PY         0.00000   0.00000   0.01267   0.00000   0.00000
  13        4PZ        -0.00000  -0.00000   0.00000   0.01267   0.00000
  14 2   H  1S         -0.00040   0.13931   0.00000   0.27717   0.00000
  15        2S          0.00225   0.02137   0.00000   0.18810   0.00000
  16 3   H  1S         -0.00040   0.13931   0.24003  -0.13858   0.00000
  17        2S          0.00225   0.02137   0.16290  -0.09405  -0.00000
  18 4   H  1S         -0.00040   0.13931  -0.24003  -0.13858  -0.00000
  19        2S          0.00225   0.02137  -0.16290  -0.09405   0.00000
                           6         7         8         9        10
                           V         V         V         V         V
     Eigenvalues --     0.09681   0.11930   0.11930   0.13394   0.32515
   1 1   C  1S          0.07296   0.00000   0.00000   0.00000  -0.12810
   2        2S         -0.08569   0.00000  -0.00000   0.00000   0.07477
   3        2PX         0.00000   0.00000   0.00000  -0.18244   0.00000
   4        2PY         0.00000  -0.12045   0.00000  -0.00000   0.00000
   5        2PZ         0.00000   0.00000  -0.12045   0.00000   0.00000
   6        3S         -0.58170   0.00000  -0.00000   0.00000   2.47712
   7        3PX         0.00000   0.00000   0.00000  -0.44730   0.00000
   8        3PY         0.00000  -0.15867   0.00000  -0.00000   0.00000
   9        3PZ         0.00000   0.00000  -0.15867   0.00000   0.00000
  10        4S          1.57569   0.00000   0.00000   0.00000   1.10502
  11        4PX         0.00000  -0.00000   0.00000   1.16498   0.00000
  12        4PY         0.00000   1.23319   0.00000   0.00000   0.00000
  13        4PZ        -0.00000   0.00000   1.23319   0.00000   0.00000
  14 2   H  1S          0.01170   0.00000  -0.02609   0.00000  -0.10658
  15        2S         -0.19698   0.00000  -0.33841   0.00000  -1.50659
  16 3   H  1S          0.01170  -0.02260   0.01305   0.00000  -0.10658
  17        2S         -0.19698  -0.29307   0.16921  -0.00000  -1.50659
  18 4   H  1S          0.01170   0.02260   0.01305  -0.00000  -0.10658
  19        2S         -0.19698   0.29307   0.16921   0.00000  -1.50659
                          11        12        13        14        15
                           V         V         V         V         V
     Eigenvalues --     0.33905   0.33905   0.85890   0.85890   0.86332
   1 1   C  1S          0.00000  -0.00000   0.00000   0.00000   0.00000
   2        2S          0.00000   0.00000   0.00000   0.00000   0.00000
   3        2PX         0.00000   0.00000   0.00000   0.00000  -1.09674
   4        2PY        -0.26301   0.00000  -0.97115   0.00000  -0.00000
   5        2PZ         0.00000  -0.26301   0.00000  -0.97115   0.00000
   6        3S          0.00000   0.00000   0.00000  -0.00000   0.00000
   7        3PX         0.00000   0.00000  -0.00000   0.00000   1.38518
   8        3PY        -1.65779   0.00000   1.79185   0.00000   0.00000
   9        3PZ         0.00000  -1.65779   0.00000   1.79185   0.00000
  10        4S          0.00000   0.00000   0.00000   0.00000   0.00000
  11        4PX         0.00000   0.00000   0.00000   0.00000  -0.52269
  12        4PY        -0.34989   0.00000  -0.50795   0.00000  -0.00000
  13        4PZ         0.00000  -0.34989   0.00000  -0.50795   0.00000
  14 2   H  1S          0.00000   0.10445   0.00000  -0.35596   0.00000
  15        2S          0.00000   2.15991   0.00000  -0.24708   0.00000
  16 3   H  1S          0.09045  -0.05222  -0.30827   0.17798  -0.00000
  17        2S          1.87054  -1.07996  -0.21398   0.12354  -0.00000
  18 4   H  1S         -0.09045  -0.05222   0.30827   0.17798   0.00000
  19        2S         -1.87054  -1.07996   0.21398   0.12354   0.00000
                          16        17        18        19
                           V         V         V         V
     Eigenvalues --     1.06033   1.26056   1.30054   1.30054
   1 1   C  1S         -0.02423   0.06747   0.00000  -0.00000
   2        2S         -1.76081  -1.17279   0.00000   0.00000
   3        2PX         0.00000   0.00000   0.00000   0.00000
   4        2PY         0.00000   0.00000   0.69395   0.00000
   5        2PZ        -0.00000   0.00000   0.00000   0.69395
   6        3S          2.96842   2.43500   0.00000  -0.00000
   7        3PX         0.00000   0.00000  -0.00000   0.00000
   8        3PY         0.00000   0.00000  -0.68440   0.00000
   9        3PZ         0.00000  -0.00000   0.00000  -0.68440
  10        4S         -0.69207   0.63772   0.00000  -0.00000
  11        4PX         0.00000   0.00000   0.00000   0.00000
  12        4PY         0.00000   0.00000  -0.37690   0.00000
  13        4PZ        -0.00000  -0.00000   0.00000  -0.37690
  14 2   H  1S         -0.41263   0.71089   0.00000  -1.11793
  15        2S         -0.15147  -1.32767   0.00000   1.64676
  16 3   H  1S         -0.41263   0.71089  -0.96816   0.55897
  17        2S         -0.15147  -1.32767   1.42614  -0.82338
  18 4   H  1S         -0.41263   0.71089   0.96816   0.55897
  19        2S         -0.15147  -1.32767  -1.42614  -0.82338
     Beta Molecular Orbital Coefficients:
                           1         2         3         4         5
                           O         O         O         O         V
     Eigenvalues --   -11.21825  -0.85231  -0.56266  -0.56266   0.07062
   1 1   C  1S          0.99649  -0.18943   0.00000  -0.00000   0.00000
   2        2S          0.02254   0.37944   0.00000   0.00000   0.00000
   3        2PX         0.00000   0.00000  -0.00000   0.00000   0.22881
   4        2PY         0.00000   0.00000   0.42271   0.00000   0.00000
   5        2PZ        -0.00000   0.00000   0.00000   0.42271   0.00000
   6        3S         -0.01211   0.28635   0.00000   0.00000   0.00000
   7        3PX         0.00000   0.00000  -0.00000   0.00000   0.14021
   8        3PY         0.00000   0.00000   0.18037   0.00000   0.00000
   9        3PZ         0.00000  -0.00000   0.00000   0.18037   0.00000
  10        4S          0.00067  -0.01001   0.00000   0.00000   0.00000
  11        4PX         0.00000   0.00000   0.00000   0.00000   0.83156
  12        4PY         0.00000   0.00000   0.01378   0.00000   0.00000
  13        4PZ        -0.00000  -0.00000   0.00000   0.01378   0.00000
  14 2   H  1S         -0.00003   0.17278   0.00000   0.30283   0.00000
  15        2S          0.00228   0.08950   0.00000   0.23952   0.00000
  16 3   H  1S         -0.00003   0.17278   0.26226  -0.15142   0.00000
  17        2S          0.00228   0.08950   0.20743  -0.11976  -0.00000
  18 4   H  1S         -0.00003   0.17278  -0.26226  -0.15142  -0.00000
  19        2S          0.00228   0.08950  -0.20743  -0.11976   0.00000
                           6         7         8         9        10
                           V         V         V         V         V
     Eigenvalues --     0.10547   0.12110   0.12110   0.22988   0.34682
   1 1   C  1S          0.07340   0.00000   0.00000   0.00000   0.00000
   2        2S         -0.05881   0.00000  -0.00000   0.00000   0.00000
   3        2PX         0.00000   0.00000   0.00000   0.36572   0.00000
   4        2PY         0.00000  -0.11118   0.00000   0.00000  -0.26886
   5        2PZ         0.00000   0.00000  -0.11118   0.00000   0.00000
   6        3S         -0.60415   0.00000  -0.00000   0.00000   0.00000
   7        3PX         0.00000   0.00000   0.00000   0.86262   0.00000
   8        3PY         0.00000  -0.14683   0.00000   0.00000  -1.69275
   9        3PZ         0.00000   0.00000  -0.14683   0.00000   0.00000
  10        4S          1.59658   0.00000   0.00000   0.00000   0.00000
  11        4PX         0.00000  -0.00000   0.00000  -0.86014  -0.00000
  12        4PY         0.00000   1.23987   0.00000  -0.00000  -0.32732
  13        4PZ        -0.00000   0.00000   1.23987   0.00000   0.00000
  14 2   H  1S          0.00580   0.00000  -0.03367   0.00000   0.00000
  15        2S         -0.20942   0.00000  -0.36688   0.00000   0.00000
  16 3   H  1S          0.00580  -0.02916   0.01683   0.00000   0.07563
  17        2S         -0.20942  -0.31773   0.18344  -0.00000   1.86958
  18 4   H  1S          0.00580   0.02916   0.01683  -0.00000  -0.07563
  19        2S         -0.20942   0.31773   0.18344   0.00000  -1.86958
                          11        12        13        14        15
                           V         V         V         V         V
     Eigenvalues --     0.34682   0.35417   0.87688   0.87688   0.98916
   1 1   C  1S          0.00000  -0.14114   0.00000  -0.00000   0.00000
   2        2S         -0.00000   0.10179   0.00000   0.00000   0.00000
   3        2PX         0.00000   0.00000   0.00000   0.00000  -1.18290
   4        2PY         0.00000   0.00000  -0.96070   0.00000  -0.00000
   5        2PZ        -0.26886  -0.00000   0.00000  -0.96070   0.00000
   6        3S         -0.00000   2.52561   0.00000  -0.00000   0.00000
   7        3PX         0.00000   0.00000  -0.00000   0.00000   1.26356
   8        3PY         0.00000   0.00000   1.75399   0.00000   0.00000
   9        3PZ        -1.69275  -0.00000   0.00000   1.75399   0.00000
  10        4S         -0.00000   1.09659   0.00000   0.00000   0.00000
  11        4PX         0.00000   0.00000   0.00000   0.00000  -0.45525
  12        4PY         0.00000   0.00000  -0.51366   0.00000  -0.00000
  13        4PZ        -0.32732  -0.00000   0.00000  -0.51366   0.00000
  14 2   H  1S          0.08734  -0.07852   0.00000  -0.38554   0.00000
  15        2S          2.15880  -1.52078   0.00000  -0.18705   0.00000
  16 3   H  1S         -0.04367  -0.07852  -0.33389   0.19277  -0.00000
  17        2S         -1.07940  -1.52078  -0.16199   0.09353   0.00000
  18 4   H  1S         -0.04367  -0.07852   0.33389   0.19277   0.00000
  19        2S         -1.07940  -1.52078   0.16199   0.09353  -0.00000
                          16        17        18        19
                           V         V         V         V
     Eigenvalues --     1.09606   1.27382   1.30105   1.30105
   1 1   C  1S         -0.03383   0.07292   0.00000  -0.00000
   2        2S         -1.64564  -1.33644   0.00000   0.00000
   3        2PX         0.00000   0.00000   0.00000   0.00000
   4        2PY         0.00000   0.00000   0.73059   0.00000
   5        2PZ        -0.00000   0.00000   0.00000   0.73059
   6        3S          2.77160   2.62684   0.00000  -0.00000
   7        3PX         0.00000   0.00000  -0.00000   0.00000
   8        3PY         0.00000   0.00000  -0.71162   0.00000
   9        3PZ         0.00000  -0.00000   0.00000  -0.71162
  10        4S         -0.71439   0.57247   0.00000  -0.00000
  11        4PX         0.00000   0.00000   0.00000   0.00000
  12        4PY         0.00000   0.00000  -0.36737   0.00000
  13        4PZ        -0.00000  -0.00000   0.00000  -0.36737
  14 2   H  1S         -0.47213   0.66901   0.00000  -1.10263
  15        2S         -0.05397  -1.31421   0.00000   1.64335
  16 3   H  1S         -0.47213   0.66901  -0.95490   0.55131
  17        2S         -0.05397  -1.31421   1.42318  -0.82168
  18 4   H  1S         -0.47213   0.66901   0.95490   0.55131
  19        2S         -0.05397  -1.31421  -1.42318  -0.82168
     Alpha Density Matrix:
                           1         2         3         4         5
   1 1   C  1S          1.03377
   2        2S         -0.05759   0.16368
   3        2PX         0.00000   0.00000   0.34924
   4        2PY         0.00000   0.00000   0.00000   0.21168
   5        2PZ        -0.00000  -0.00000   0.00000   0.00000   0.21168
   6        3S         -0.10193   0.17684   0.00000   0.00000   0.00000
   7        3PX         0.00000   0.00000   0.29046  -0.00000   0.00000
   8        3PY         0.00000   0.00000   0.00000   0.10269   0.00000
   9        3PZ         0.00000  -0.00000   0.00000   0.00000   0.10269
  10        4S         -0.00230   0.00620   0.00000   0.00000   0.00000
  11        4PX         0.00000   0.00000   0.05350   0.00000   0.00000
  12        4PY         0.00000   0.00000   0.00000   0.00583   0.00000
  13        4PZ         0.00000  -0.00000   0.00000   0.00000   0.00583
  14 2   H  1S         -0.02896   0.05624   0.00000   0.00000   0.12752
  15        2S         -0.00214   0.00869   0.00000   0.00000   0.08654
  16 3   H  1S         -0.02896   0.05624   0.00000   0.11044  -0.06376
  17        2S         -0.00214   0.00869  -0.00000   0.07495  -0.04327
  18 4   H  1S         -0.02896   0.05624  -0.00000  -0.11044  -0.06376
  19        2S         -0.00214   0.00869   0.00000  -0.07495  -0.04327
                           6         7         8         9        10
   6        3S          0.19262
   7        3PX         0.00000   0.24157
   8        3PY         0.00000   0.00000   0.04981
   9        3PZ         0.00000   0.00000   0.00000   0.04981
  10        4S          0.00670   0.00000   0.00000   0.00000   0.00023
  11        4PX         0.00000   0.04450   0.00000   0.00000   0.00000
  12        4PY         0.00000   0.00000   0.00283   0.00000   0.00000
  13        4PZ         0.00000   0.00000   0.00000   0.00283   0.00000
  14 2   H  1S          0.06112   0.00000   0.00000   0.06186   0.00213
  15        2S          0.00935   0.00000   0.00000   0.04198   0.00033
  16 3   H  1S          0.06112  -0.00000   0.05357  -0.03093   0.00213
  17        2S          0.00935  -0.00000   0.03636  -0.02099   0.00033
  18 4   H  1S          0.06112   0.00000  -0.05357  -0.03093   0.00213
  19        2S          0.00935   0.00000  -0.03636  -0.02099   0.00033
                          11        12        13        14        15
  11        4PX         0.00820
  12        4PY         0.00000   0.00016
  13        4PZ         0.00000   0.00000   0.00016
  14 2   H  1S          0.00000   0.00000   0.00351   0.09623
  15        2S          0.00000   0.00000   0.00238   0.05511   0.03584
  16 3   H  1S          0.00000   0.00304  -0.00176  -0.01900  -0.02309
  17        2S         -0.00000   0.00206  -0.00119  -0.02309  -0.01723
  18 4   H  1S         -0.00000  -0.00304  -0.00176  -0.01900  -0.02309
  19        2S          0.00000  -0.00206  -0.00119  -0.02309  -0.01723
                          16        17        18        19
  16 3   H  1S          0.09623
  17        2S          0.05511   0.03584
  18 4   H  1S         -0.01900  -0.02309   0.09623
  19        2S         -0.02309  -0.01723   0.05511   0.03584
     Beta Density Matrix:
                           1         2         3         4         5
   1 1   C  1S          1.02887
   2        2S         -0.04941   0.14448
   3        2PX         0.00000   0.00000   0.00000
   4        2PY         0.00000   0.00000  -0.00000   0.17869
   5        2PZ        -0.00000   0.00000   0.00000   0.00000   0.17869
   6        3S         -0.06631   0.10838   0.00000   0.00000   0.00000
   7        3PX         0.00000   0.00000   0.00000  -0.00000   0.00000
   8        3PY         0.00000   0.00000  -0.00000   0.07625   0.00000
   9        3PZ         0.00000  -0.00000   0.00000   0.00000   0.07625
  10        4S          0.00256  -0.00378   0.00000   0.00000   0.00000
  11        4PX         0.00000   0.00000  -0.00000   0.00000   0.00000
  12        4PY         0.00000   0.00000  -0.00000   0.00583   0.00000
  13        4PZ         0.00000  -0.00000   0.00000   0.00000   0.00583
  14 2   H  1S         -0.03276   0.06556   0.00000   0.00000   0.12801
  15        2S         -0.01468   0.03401   0.00000   0.00000   0.10125
  16 3   H  1S         -0.03276   0.06556  -0.00000   0.11086  -0.06401
  17        2S         -0.01468   0.03401  -0.00000   0.08768  -0.05062
  18 4   H  1S         -0.03276   0.06556   0.00000  -0.11086  -0.06401
  19        2S         -0.01468   0.03401   0.00000  -0.08768  -0.05062
                           6         7         8         9        10
   6        3S          0.08214
   7        3PX         0.00000   0.00000
   8        3PY         0.00000  -0.00000   0.03253
   9        3PZ         0.00000   0.00000   0.00000   0.03253
  10        4S         -0.00287   0.00000   0.00000   0.00000   0.00010
  11        4PX         0.00000  -0.00000   0.00000   0.00000   0.00000
  12        4PY         0.00000  -0.00000   0.00249   0.00000   0.00000
  13        4PZ         0.00000   0.00000   0.00000   0.00249   0.00000
  14 2   H  1S          0.04948   0.00000   0.00000   0.05462  -0.00173
  15        2S          0.02560   0.00000   0.00000   0.04320  -0.00089
  16 3   H  1S          0.04948  -0.00000   0.04730  -0.02731  -0.00173
  17        2S          0.02560  -0.00000   0.03741  -0.02160  -0.00089
  18 4   H  1S          0.04948   0.00000  -0.04730  -0.02731  -0.00173
  19        2S          0.02560   0.00000  -0.03741  -0.02160  -0.00089
                          11        12        13        14        15
  11        4PX         0.00000
  12        4PY         0.00000   0.00019
  13        4PZ         0.00000   0.00000   0.00019
  14 2   H  1S          0.00000   0.00000   0.00417   0.12156
  15        2S          0.00000   0.00000   0.00330   0.08800   0.06539
  16 3   H  1S          0.00000   0.00361  -0.00209  -0.01600  -0.02080
  17        2S          0.00000   0.00286  -0.00165  -0.02080  -0.02067
  18 4   H  1S         -0.00000  -0.00361  -0.00209  -0.01600  -0.02080
  19        2S         -0.00000  -0.00286  -0.00165  -0.02080  -0.02067
                          16        17        18        19
  16 3   H  1S          0.12156
  17        2S          0.08800   0.06539
  18 4   H  1S         -0.01600  -0.02080   0.12156
  19        2S         -0.02080  -0.02067   0.08800   0.06539
    Full Mulliken population analysis:
                           1         2         3         4         5
   1 1   C  1S          2.06264
   2        2S         -0.02344   0.30816
   3        2PX         0.00000   0.00000   0.34924
   4        2PY         0.00000   0.00000   0.00000   0.39036
   5        2PZ         0.00000   0.00000   0.00000   0.00000   0.39036
   6        3S         -0.03100   0.23168   0.00000   0.00000   0.00000
   7        3PX         0.00000   0.00000   0.16549   0.00000   0.00000
   8        3PY         0.00000   0.00000   0.00000   0.10195   0.00000
   9        3PZ         0.00000   0.00000   0.00000   0.00000   0.10195
  10        4S          0.00002   0.00097   0.00000   0.00000   0.00000
  11        4PX         0.00000   0.00000   0.00881   0.00000   0.00000
  12        4PY         0.00000   0.00000   0.00000   0.00192   0.00000
  13        4PZ         0.00000   0.00000   0.00000   0.00000   0.00192
  14 2   H  1S         -0.00202   0.03333   0.00000   0.00000   0.09438
  15        2S         -0.00155   0.02033   0.00000   0.00000   0.04991
  16 3   H  1S         -0.00202   0.03333  -0.00000   0.07079   0.02360
  17        2S         -0.00155   0.02033  -0.00000   0.03743   0.01248
  18 4   H  1S         -0.00202   0.03333   0.00000   0.07079   0.02360
  19        2S         -0.00155   0.02033  -0.00000   0.03743   0.01248
                           6         7         8         9        10
   6        3S          0.27477
   7        3PX         0.00000   0.24157
   8        3PY         0.00000   0.00000   0.08235
   9        3PZ         0.00000   0.00000   0.00000   0.08235
  10        4S          0.00278   0.00000   0.00000   0.00000   0.00034
  11        4PX         0.00000   0.02619   0.00000   0.00000   0.00000
  12        4PY         0.00000   0.00000   0.00313   0.00000   0.00000
  13        4PZ         0.00000   0.00000   0.00000   0.00313   0.00000
  14 2   H  1S          0.04170   0.00000   0.00000   0.05999   0.00010
  15        2S          0.02462   0.00000   0.00000   0.04963  -0.00036
  16 3   H  1S          0.04170   0.00000   0.04499   0.01500   0.00010
  17        2S          0.02462   0.00000   0.03722   0.01241  -0.00036
  18 4   H  1S          0.04170  -0.00000   0.04499   0.01500   0.00010
  19        2S          0.02462  -0.00000   0.03722   0.01241  -0.00036
                          11        12        13        14        15
  11        4PX         0.00820
  12        4PY         0.00000   0.00035
  13        4PZ         0.00000   0.00000   0.00035
  14 2   H  1S          0.00000   0.00000   0.00161   0.21779
  15        2S          0.00000   0.00000   0.00247   0.09421   0.10123
  16 3   H  1S         -0.00000   0.00121   0.00040  -0.00041  -0.00544
  17        2S          0.00000   0.00185   0.00062  -0.00544  -0.01358
  18 4   H  1S          0.00000   0.00121   0.00040  -0.00041  -0.00544
  19        2S         -0.00000   0.00185   0.00062  -0.00544  -0.01358
                          16        17        18        19
  16 3   H  1S          0.21779
  17        2S          0.09421   0.10123
  18 4   H  1S         -0.00041  -0.00544   0.21779
  19        2S         -0.00544  -0.01358   0.09421   0.10123
     Gross orbital populations:
                         Total     Alpha     Beta      Spin
   1 1   C  1S          1.99750   0.99877   0.99873   0.00005
   2        2S          0.67837   0.35578   0.32258   0.03320
   3        2PX         0.52355   0.52355   0.00000   0.52355
   4        2PY         0.71066   0.37629   0.33437   0.04192
   5        2PZ         0.71066   0.37629   0.33437   0.04192
   6        3S          0.67719   0.41126   0.26594   0.14532
   7        3PX         0.43326   0.43326   0.00000   0.43326
   8        3PY         0.35185   0.19446   0.15739   0.03707
   9        3PZ         0.35185   0.19446   0.15739   0.03707
  10        4S          0.00333   0.00973  -0.00640   0.01613
  11        4PX         0.04320   0.04320   0.00000   0.04320
  12        4PY         0.01152   0.00544   0.00608  -0.00064
  13        4PZ         0.01152   0.00544   0.00608  -0.00064
  14 2   H  1S          0.52940   0.24408   0.28532  -0.04125
  15        2S          0.30245   0.11328   0.18917  -0.07589
  16 3   H  1S          0.52940   0.24408   0.28532  -0.04125
  17        2S          0.30245   0.11328   0.18917  -0.07589
  18 4   H  1S          0.52940   0.24408   0.28532  -0.04125
  19        2S          0.30245   0.11328   0.18917  -0.07589
          Condensed to atoms (all electrons):
              1          2          3          4
     1  C    5.382016   0.374149   0.374149   0.374149
     2  H    0.374149   0.507431  -0.024867  -0.024867
     3  H    0.374149  -0.024867   0.507431  -0.024867
     4  H    0.374149  -0.024867  -0.024867   0.507431
 Mulliken atomic charges:
              1
     1  C   -0.504462
     2  H    0.168154
     3  H    0.168154
     4  H    0.168154
 Sum of Mulliken atomic charges =   0.00000
 Mulliken charges with hydrogens summed into heavy atoms:
              1
     1  C    0.000000
 Sum of Mulliken charges with hydrogens summed into heavy atoms =   0.00000
          Atomic-Atomic Spin Densities.
              1          2          3          4
     1  C    1.412061  -0.020218  -0.020218  -0.020218
     2  H   -0.020218  -0.098179   0.000631   0.000631
     3  H   -0.020218   0.000631  -0.098179   0.000631
     4  H   -0.020218   0.000631   0.000631  -0.098179
 Mulliken atomic spin densities:
              1
     1  C    1.351406
     2  H   -0.117135
     3  H   -0.117135
     4  H   -0.117135
 Sum of Mulliken atomic spin densities =   1.00000
 Electronic spatial extent (au):  <R**2>=             30.4947
 Charge=              0.0000 electrons
 Dipole moment (field-independent basis, Debye):
    X=             -0.0000    Y=              0.0000    Z=             -0.0000  Tot=              0.0000
 Quadrupole moment (field-independent basis, Debye-Ang):
   XX=             -9.2323   YY=             -7.3320   ZZ=             -7.3320
   XY=             -0.0000   XZ=              0.0000   YZ=             -0.0000
 Traceless Quadrupole moment (field-independent basis, Debye-Ang):
   XX=             -1.2669   YY=              0.6334   ZZ=              0.6334
   XY=             -0.0000   XZ=              0.0000   YZ=             -0.0000
 Octapole moment (field-independent basis, Debye-Ang**2):
  XXX=              0.0000  YYY=             -0.0000  ZZZ=              0.8334  XYY=             -0.0000
  XXY=             -0.0000  XXZ=             -0.0000  XZZ=              0.0000  YZZ=              0.0000
  YYZ=             -0.8334  XYZ=             -0.0000
 Hexadecapole moment (field-independent basis, Debye-Ang**3):
 XXXX=            -11.9418 YYYY=            -15.2501 ZZZZ=            -15.2501 XXXY=             -0.0000
 XXXZ=             -0.0000 YYYX=             -0.0000 YYYZ=              0.0000 ZZZX=             -0.0000
 ZZZY=              0.0000 XXYY=             -4.8639 XXZZ=             -4.8639 YYZZ=             -5.0834
 XXYZ=             -0.0000 YYXZ=              0.0000 ZZXY=             -0.0000
 N-N= 9.579588592757D+00 E-N=-1.632253655419D+02  KE= 5.864487352903D+01
 Symmetry A    KE= 5.469904628966D+01
 Symmetry B    KE= 3.945827239369D+00
 Orbital energies and kinetic energies (alpha):
                                 1                 2
   1         O               -11.243161         16.009171
   2         O                -0.950193          1.334717
   3         O                -0.579436          0.978818
   4         O                -0.579436          0.978818
   5         O                -0.385674          1.095074
   6         V                 0.096815          0.250711
   7         V                 0.119304          0.181370
   8         V                 0.119304          0.181370
   9         V                 0.133936          0.246044
  10         V                 0.325151          0.897902
  11         V                 0.339053          0.711685
  12         V                 0.339053          0.711685
  13         V                 0.858898          1.930658
  14         V                 0.858898          1.930658
  15         V                 0.863320          2.205173
  16         V                 1.060330          1.844500
  17         V                 1.260564          2.734552
  18         V                 1.300544          2.743989
  19         V                 1.300544          2.743989
 Orbital energies and kinetic energies (beta):
                                 1                 2
   1         O               -11.218254         16.036368
   2         O                -0.852310          1.215835
   3         O                -0.562662          0.935968
   4         O                -0.562662          0.935968
   5         V                 0.070621          0.258858
   6         V                 0.105475          0.246007
   7         V                 0.121102          0.180707
   8         V                 0.121102          0.180707
   9         V                 0.229882          0.750883
  10         V                 0.346819          0.721154
  11         V                 0.346819          0.721154
  12         V                 0.354167          0.960595
  13         V                 0.876884          1.929195
  14         V                 0.876884          1.929195
  15         V                 0.989156          2.536550
  16         V                 1.096058          1.791299
  17         V                 1.273817          2.821451
  18         V                 1.301047          2.779495
  19         V                 1.301047          2.779495
 Total kinetic energy from orbitals= 3.952073534934D+01
                          Isotropic Fermi Contact Couplings
        Atom                 a.u.       MegaHertz       Gauss      10(-4) cm-1
     1  C(13)              0.19240     216.29412      77.17912      72.14795
     2  H(1)              -0.02495    -111.50731     -39.78858     -37.19484
     3  H(1)              -0.02495    -111.50731     -39.78858     -37.19484
     4  H(1)              -0.02495    -111.50731     -39.78858     -37.19484
 --------------------------------------------------------
       Center         ----  Spin Dipole Couplings  ----
                      3XX-RR        3YY-RR        3ZZ-RR
 --------------------------------------------------------
     1   Atom        1.003263     -0.501631     -0.501631
     2   Atom       -0.010212     -0.071001      0.081214
     3   Atom       -0.010212      0.043160     -0.032948
     4   Atom       -0.010212      0.043160     -0.032948
 --------------------------------------------------------
                        XY            XZ            YZ
 --------------------------------------------------------
     1   Atom        0.000000      0.000000      0.000000
     2   Atom        0.000000     -0.000000      0.000000
     3   Atom       -0.000000      0.000000     -0.065911
     4   Atom       -0.000000     -0.000000      0.065911
 --------------------------------------------------------


 ---------------------------------------------------------------------------------
              Anisotropic Spin Dipole Couplings in Principal Axis System
 ---------------------------------------------------------------------------------

       Atom             a.u.   MegaHertz   Gauss  10(-4) cm-1        Axes

              Baa    -0.5016   -67.314   -24.019   -22.454  0.0000  0.0000  1.0000
     1 C(13)  Bbb    -0.5016   -67.314   -24.019   -22.454 -0.0000  1.0000 -0.0000
              Bcc     1.0033   134.628    48.039    44.907  1.0000  0.0000 -0.0000
 
              Baa    -0.0710   -37.883   -13.518   -12.636 -0.0000  1.0000 -0.0000
     2 H(1)   Bbb    -0.0102    -5.449    -1.944    -1.818  1.0000  0.0000  0.0000
              Bcc     0.0812    43.332    15.462    14.454  0.0000  0.0000  1.0000
 
              Baa    -0.0710   -37.883   -13.518   -12.636 -0.0000  0.5000  0.8660
     3 H(1)   Bbb    -0.0102    -5.449    -1.944    -1.818  1.0000  0.0000  0.0000
              Bcc     0.0812    43.332    15.462    14.454 -0.0000  0.8660 -0.5000
 
              Baa    -0.0710   -37.883   -13.518   -12.636  0.0000 -0.5000  0.8660
     4 H(1)   Bbb    -0.0102    -5.449    -1.944    -1.818  1.0000  0.0000 -0.0000
              Bcc     0.0812    43.332    15.462    14.454 -0.0000  0.8660  0.5000
 

 ---------------------------------------------------------------------------------

 No NMR shielding tensors so no spin-rotation constants.
 Leave Link  601 at Sat Aug 17 18:00:48 2024, MaxMem=   13107200 cpu:       0.2
 (Enter /programs/64bit/g09/g09-gfortran/bin/l701.exe)
 Compute integral first derivatives.
 ... and contract with generalized density number  2.
 Leave Link  701 at Sat Aug 17 18:00:48 2024, MaxMem=   13107200 cpu:       0.1
 (Enter /programs/64bit/g09/g09-gfortran/bin/l702.exe)
 L702 exits ... SP integral derivatives will be done elsewhere.
 Leave Link  702 at Sat Aug 17 18:00:48 2024, MaxMem=   13107200 cpu:       0.0
 (Enter /programs/64bit/g09/g09-gfortran/bin/l703.exe)
 Compute integral first derivatives, UseDBF=F ICtDFT=           0.
 Integral derivatives from FoFDir, PRISM(SPDF).
 Calling FoFJK, ICntrl=      2127 FMM=F ISym2X=1 I1Cent= 0 IOpClX= 1 NMat=1 NMatS=1 NMatT=0.
 FoFCou: FMM=F IPFlag=           0 FMFlag=      100000 FMFlg1=         800
         NFxFlg=           0 DoJE=F BraDBF=F KetDBF=F FulRan=T
         Omega=  0.000000  0.000000  1.000000  0.000000  0.000000 ICntrl=    2127 IOpCl=  1
         NMat0=    1 NMatS0=    1 NMatT0=    0 NMatD0=    1 NMtDS0=    0 NMtDT0=    0
         I1Cent=           0 NGrid=           0.
 Petite list used in FoFCou.
 Leave Link  703 at Sat Aug 17 18:00:48 2024, MaxMem=   13107200 cpu:       0.1
 (Enter /programs/64bit/g09/g09-gfortran/bin/l716.exe)
 Dipole        =-2.74801978D-17 0.00000000D+00-3.19744231D-13
 ***** Axes restored to original set *****
 -------------------------------------------------------------------
 Center     Atomic                   Forces (Hartrees/Bohr)
 Number     Number              X              Y              Z
 -------------------------------------------------------------------
      1        6           0.000000000    0.000000000   -0.000000000
      2        1          -0.000000000    0.000000000   -0.004236574
      3        1          -0.003668981   -0.000000000    0.002118287
      4        1           0.003668981   -0.000000000    0.002118287
 -------------------------------------------------------------------
 Cartesian Forces:  Max     0.004236574 RMS     0.002118287
 Leave Link  716 at Sat Aug 17 18:00:48 2024, MaxMem=   13107200 cpu:       0.0
 (Enter /programs/64bit/g09/g09-gfortran/bin/l103.exe)

 GradGradGradGradGradGradGradGradGradGradGradGradGradGradGradGradGradGrad
 Berny optimization.
 Internal  Forces:  Max     0.004236574 RMS     0.002773489
 Search for a local minimum.
 Step number   1 out of a maximum of   20
 All quantities printed in internal units (Hartrees-Bohrs-Radians)
 RMS Force = .27735D-02 SwitMx=.10000D-02 MixMth= 1
 Mixed Optimization -- RFO/linear search
 Second derivative matrix not updated -- first step.
 The second derivative matrix:
                          R1        R2        R3        A1        A2
           R1           0.34813
           R2           0.00000   0.34813
           R3           0.00000   0.00000   0.34813
           A1           0.00000   0.00000   0.00000   0.16000
           A2           0.00000   0.00000   0.00000   0.00000   0.16000
           A3           0.00000   0.00000   0.00000   0.00000   0.00000
           D1           0.00000   0.00000   0.00000   0.00000   0.00000
                          A3        D1
           A3           0.16000
           D1           0.00000   0.00235
     Eigenvalues ---    0.00235   0.16000   0.16000   0.34813   0.34813
     Eigenvalues ---    0.348131000.00000
 RFO step:  Lambda=-1.54604084D-04 EMin= 2.34830060D-03
 Linear search not attempted -- first point.
 Iteration  1 RMS(Cart)=  0.00796337 RMS(Int)=  0.00000000
 Iteration  2 RMS(Cart)=  0.00000000 RMS(Int)=  0.00000000
 ClnCor:  largest displacement from symmetrization is 2.44D-11 for atom     1.
 Variable       Old X    -DE/DX   Delta X   Delta X   Delta X     New X
                                 (Linear)    (Quad)   (Total)
    R1        2.05980  -0.00424   0.00000  -0.01216  -0.01216   2.04764
    R2        2.05980  -0.00424   0.00000  -0.01216  -0.01216   2.04764
    R3        2.05980  -0.00424   0.00000  -0.01216  -0.01216   2.04764
    A1        2.09440  -0.00000   0.00000  -0.00000  -0.00000   2.09440
    A2        2.09440  -0.00000   0.00000  -0.00000  -0.00000   2.09440
    A3        2.09440   0.00000   0.00000   0.00000   0.00000   2.09440
    D1        3.14159   0.00000   0.00000   0.00000   0.00000   3.14159
         Item               Value     Threshold  Converged?
 Maximum Force            0.004237     0.000450     NO 
 RMS     Force            0.002773     0.000300     NO 
 Maximum Displacement     0.012164     0.001800     NO 
 RMS     Displacement     0.007963     0.001200     NO 
 Predicted change in Energy=-7.733637D-05
 GradGradGradGradGradGradGradGradGradGradGradGradGradGradGradGradGradGrad

 Leave Link  103 at Sat Aug 17 18:00:49 2024, MaxMem=   13107200 cpu:       0.0
 (Enter /programs/64bit/g09/g09-gfortran/bin/l202.exe)
                          Input orientation:                          
 ---------------------------------------------------------------------
 Center     Atomic      Atomic             Coordinates (Angstroms)
 Number     Number       Type             X           Y           Z
 ---------------------------------------------------------------------
      1          6           0        0.000000   -0.000000   -0.000000
      2          1           0        0.000000    0.000000    1.083563
      3          1           0        0.938393   -0.000000   -0.541781
      4          1           0       -0.938393    0.000000   -0.541781
 ---------------------------------------------------------------------
                    Distance matrix (angstroms):
                    1          2          3          4
     1  C    0.000000
     2  H    1.083563   0.000000
     3  H    1.083563   1.876786   0.000000
     4  H    1.083563   1.876786   1.876786   0.000000
 Stoichiometry    CH3(2)
 Framework group  C2[C2(CH),X(H2)]
 Deg. of freedom     3
 Prev. full point group           C2      NOp   2
 Prev. largest Abelian subgroup   C2      NOp   2
       concise Abelian subgroup   C2      NOp   2
                   Standard orientation:
 ---------------------------------------------------------------------
 Center     Atomic                     Coordinates (Angstroms)
 Number     Number                        X           Y           Z
 ---------------------------------------------------------------------
      1          6                    0.000000    0.000000    0.000000
      2          1                    0.000000    0.000000    1.083563
      3          1                    0.000000    0.938393   -0.541781
      4          1                    0.000000   -0.938393   -0.541781
 ---------------------------------------------------------------------
 Rotational constants (GHZ):    284.7295169    284.7295169    142.3647585
 Leave Link  202 at Sat Aug 17 18:00:49 2024, MaxMem=   13107200 cpu:       0.0
 (Enter /programs/64bit/g09/g09-gfortran/bin/l301.exe)
 Standard basis: 6-31+G (6D, 7F)
 Ernie: Thresh=  0.10000D-02 Tol=  0.10000D-05 Strict=F.
 There are    11 symmetry adapted basis functions of A   symmetry.
 There are     8 symmetry adapted basis functions of B   symmetry.
 Integral buffers will be    131072 words long.
 Raffenetti 2 integral format.
 Two-electron integral symmetry is turned on.
    19 basis functions,    38 primitive gaussians,    19 cartesian basis functions
     5 alpha electrons        4 beta electrons
       nuclear repulsion energy         9.6364973174 Hartrees.
 IExCor=    0 DFT=F Ex=HF Corr=None ExCW=0 ScaHFX=  1.000000
 ScaDFX=  1.000000  1.000000  1.000000  1.000000 ScalE2=  1.000000  1.000000
 IRadAn=      0 IRanWt=     -1 IRanGd=            0 ICorTp=0
 NAtoms=    4 NActive=    4 NUniq=    3 SFac= 1.33D+00 NAtFMM=   80 NAOKFM=F Big=F
 Leave Link  301 at Sat Aug 17 18:00:49 2024, MaxMem=   13107200 cpu:       0.1
 (Enter /programs/64bit/g09/g09-gfortran/bin/l302.exe)
 NPDir=0 NMtPBC=     1 NCelOv=     1 NCel=       1 NClECP=     1 NCelD=      1
         NCelK=      1 NCelE2=     1 NClLst=     1 CellRange=     0.0.
 One-electron integrals computed using PRISM.
 One-electron integral symmetry used in STVInt
 NBasis=    19 RedAO= T  NBF=    11     8
 NBsUse=    19 1.00D-06 NBFU=    11     8
 Leave Link  302 at Sat Aug 17 18:00:49 2024, MaxMem=   13107200 cpu:       0.1
 (Enter /programs/64bit/g09/g09-gfortran/bin/l303.exe)
 DipDrv:  MaxL=1.
 Leave Link  303 at Sat Aug 17 18:00:49 2024, MaxMem=   13107200 cpu:       0.0
 (Enter /programs/64bit/g09/g09-gfortran/bin/l401.exe)
 Initial guess read from the read-write file.
 B after Tr=     0.000000    0.000000    0.000000
         Rot=    1.000000    0.000000    0.000000    0.000000 Ang=   0.00 deg.
 Guess basis will be translated and rotated to current coordinates.
 Initial guess orbital symmetries:
 Alpha Orbitals:
       Occupied  (A) (A) (B) (A) (B)
       Virtual   (A) (B) (A) (B) (A) (B) (A) (B) (A) (B) (A) (A)
                 (B) (A)
 Beta  Orbitals:
       Occupied  (A) (A) (B) (A)
       Virtual   (B) (A) (B) (A) (B) (B) (A) (A) (B) (A) (B) (A)
                 (A) (B) (A)
 The electronic state of the initial guess is 2-B.
 Initial guess <Sx>= 0.0000 <Sy>= 0.0000 <Sz>= 0.5000 <S**2>= 0.7616 S= 0.5058
 Leave Link  401 at Sat Aug 17 18:00:49 2024, MaxMem=   13107200 cpu:       0.1
 (Enter /programs/64bit/g09/g09-gfortran/bin/l502.exe)
 UHF open shell SCF:
 Requested convergence on RMS density matrix=1.00D-08 within 128 cycles.
 Requested convergence on MAX density matrix=1.00D-06.
 Requested convergence on             energy=1.00D-06.
 No special actions if energy rises.
 Using DIIS extrapolation, IDIIS=  1040.
 Integral symmetry usage will be decided dynamically.
 Keep R1 and R2 ints in memory in canonical form, NReq=856098.
 IEnd=       19787 IEndB=       19787 NGot=    13107200 MDV=    13068198
 LenX=    13068198 LenY=    13067316
 Symmetry not used in FoFDir.
 MinBra= 0 MaxBra= 1 Meth= 1.
 IRaf=       0 NMat=   1 IRICut=       1 DoRegI=T DoRafI=F ISym2E= 0 JSym2E=0.

 Cycle   1  Pass 1  IDiag  1:
 E= -39.5484617646186    
 DIIS: error= 8.41D-04 at cycle   1 NSaved=   1.
 NSaved= 1 IEnMin= 1 EnMin= -39.5484617646186     IErMin= 1 ErrMin= 8.41D-04
 ErrMax= 8.41D-04 EMaxC= 1.00D-01 BMatC= 6.83D-05 BMatP= 6.83D-05
 IDIUse=3 WtCom= 9.92D-01 WtEn= 8.41D-03
 Coeff-Com:  0.100D+01
 Coeff-En:   0.100D+01
 Coeff:      0.100D+01
 Gap=     0.484 Goal=   None    Shift=    0.000
 Gap=     0.636 Goal=   None    Shift=    0.000
 RMSDP=2.27D-04 MaxDP=1.42D-03              OVMax= 1.90D-03

 Cycle   2  Pass 1  IDiag  1:
 E= -39.5484836112128     Delta-E=       -0.000021846594 Rises=F Damp=F
 DIIS: error= 3.00D-04 at cycle   2 NSaved=   2.
 NSaved= 2 IEnMin= 2 EnMin= -39.5484836112128     IErMin= 2 ErrMin= 3.00D-04
 ErrMax= 3.00D-04 EMaxC= 1.00D-01 BMatC= 5.34D-06 BMatP= 6.83D-05
 IDIUse=3 WtCom= 9.97D-01 WtEn= 3.00D-03
 Coeff-Com:  0.992D-01 0.901D+00
 Coeff-En:   0.000D+00 0.100D+01
 Coeff:      0.989D-01 0.901D+00
 Gap=     0.482 Goal=   None    Shift=    0.000
 Gap=     0.635 Goal=   None    Shift=    0.000
 RMSDP=5.56D-05 MaxDP=8.31D-04 DE=-2.18D-05 OVMax= 5.42D-04

 Cycle   3  Pass 1  IDiag  1:
 E= -39.5484852260023     Delta-E=       -0.000001614790 Rises=F Damp=F
 DIIS: error= 7.82D-05 at cycle   3 NSaved=   3.
 NSaved= 3 IEnMin= 3 EnMin= -39.5484852260023     IErMin= 3 ErrMin= 7.82D-05
 ErrMax= 7.82D-05 EMaxC= 1.00D-01 BMatC= 3.72D-07 BMatP= 5.34D-06
 IDIUse=1 WtCom= 1.00D+00 WtEn= 0.00D+00
 Coeff-Com: -0.586D-01 0.325D-01 0.103D+01
 Coeff:     -0.586D-01 0.325D-01 0.103D+01
 Gap=     0.482 Goal=   None    Shift=    0.000
 Gap=     0.635 Goal=   None    Shift=    0.000
 RMSDP=1.84D-05 MaxDP=1.81D-04 DE=-1.61D-06 OVMax= 1.78D-04

 Cycle   4  Pass 1  IDiag  1:
 E= -39.5484854122846     Delta-E=       -0.000000186282 Rises=F Damp=F
 DIIS: error= 4.01D-05 at cycle   4 NSaved=   4.
 NSaved= 4 IEnMin= 4 EnMin= -39.5484854122846     IErMin= 4 ErrMin= 4.01D-05
 ErrMax= 4.01D-05 EMaxC= 1.00D-01 BMatC= 4.00D-08 BMatP= 3.72D-07
 IDIUse=1 WtCom= 1.00D+00 WtEn= 0.00D+00
 Coeff-Com:  0.420D-01-0.334D-01-0.857D+00 0.185D+01
 Coeff:      0.420D-01-0.334D-01-0.857D+00 0.185D+01
 Gap=     0.482 Goal=   None    Shift=    0.000
 Gap=     0.635 Goal=   None    Shift=    0.000
 RMSDP=1.31D-05 MaxDP=2.00D-04 DE=-1.86D-07 OVMax= 1.90D-04

 Cycle   5  Pass 1  IDiag  1:
 E= -39.5484854560546     Delta-E=       -0.000000043770 Rises=F Damp=F
 DIIS: error= 6.53D-06 at cycle   5 NSaved=   5.
 NSaved= 5 IEnMin= 5 EnMin= -39.5484854560546     IErMin= 5 ErrMin= 6.53D-06
 ErrMax= 6.53D-06 EMaxC= 1.00D-01 BMatC= 3.87D-09 BMatP= 4.00D-08
 IDIUse=1 WtCom= 1.00D+00 WtEn= 0.00D+00
 Coeff-Com: -0.183D-01 0.155D-01 0.393D+00-0.108D+01 0.169D+01
 Coeff:     -0.183D-01 0.155D-01 0.393D+00-0.108D+01 0.169D+01
 Gap=     0.482 Goal=   None    Shift=    0.000
 Gap=     0.635 Goal=   None    Shift=    0.000
 RMSDP=5.05D-06 MaxDP=4.54D-05 DE=-4.38D-08 OVMax= 4.92D-05

 Cycle   6  Pass 1  IDiag  1:
 E= -39.5484854603372     Delta-E=       -0.000000004283 Rises=F Damp=F
 DIIS: error= 2.48D-06 at cycle   6 NSaved=   6.
 NSaved= 6 IEnMin= 6 EnMin= -39.5484854603372     IErMin= 6 ErrMin= 2.48D-06
 ErrMax= 2.48D-06 EMaxC= 1.00D-01 BMatC= 4.03D-10 BMatP= 3.87D-09
 IDIUse=1 WtCom= 1.00D+00 WtEn= 0.00D+00
 Coeff-Com:  0.681D-02-0.590D-02-0.150D+00 0.468D+00-0.104D+01 0.172D+01
 Coeff:      0.681D-02-0.590D-02-0.150D+00 0.468D+00-0.104D+01 0.172D+01
 Gap=     0.482 Goal=   None    Shift=    0.000
 Gap=     0.635 Goal=   None    Shift=    0.000
 RMSDP=1.63D-06 MaxDP=9.86D-06 DE=-4.28D-09 OVMax= 1.15D-05

 Cycle   7  Pass 1  IDiag  1:
 E= -39.5484854607594     Delta-E=       -0.000000000422 Rises=F Damp=F
 DIIS: error= 7.16D-07 at cycle   7 NSaved=   7.
 NSaved= 7 IEnMin= 7 EnMin= -39.5484854607594     IErMin= 7 ErrMin= 7.16D-07
 ErrMax= 7.16D-07 EMaxC= 1.00D-01 BMatC= 2.59D-11 BMatP= 4.03D-10
 IDIUse=1 WtCom= 1.00D+00 WtEn= 0.00D+00
 Coeff-Com: -0.192D-02 0.145D-02 0.444D-01-0.147D+00 0.392D+00-0.930D+00
 Coeff-Com:  0.164D+01
 Coeff:     -0.192D-02 0.145D-02 0.444D-01-0.147D+00 0.392D+00-0.930D+00
 Coeff:      0.164D+01
 Gap=     0.482 Goal=   None    Shift=    0.000
 Gap=     0.635 Goal=   None    Shift=    0.000
 RMSDP=5.15D-07 MaxDP=3.02D-06 DE=-4.22D-10 OVMax= 3.89D-06

 Cycle   8  Pass 1  IDiag  1:
 E= -39.5484854607865     Delta-E=       -0.000000000027 Rises=F Damp=F
 DIIS: error= 3.61D-08 at cycle   8 NSaved=   8.
 NSaved= 8 IEnMin= 8 EnMin= -39.5484854607865     IErMin= 8 ErrMin= 3.61D-08
 ErrMax= 3.61D-08 EMaxC= 1.00D-01 BMatC= 8.30D-14 BMatP= 2.59D-11
 IDIUse=1 WtCom= 1.00D+00 WtEn= 0.00D+00
 Coeff-Com:  0.645D-03-0.490D-03-0.149D-01 0.494D-01-0.132D+00 0.317D+00
 Coeff-Com: -0.579D+00 0.136D+01
 Coeff:      0.645D-03-0.490D-03-0.149D-01 0.494D-01-0.132D+00 0.317D+00
 Coeff:     -0.579D+00 0.136D+01
 Gap=     0.482 Goal=   None    Shift=    0.000
 Gap=     0.635 Goal=   None    Shift=    0.000
 RMSDP=1.81D-08 MaxDP=8.34D-08 DE=-2.71D-11 OVMax= 1.23D-07

 Cycle   9  Pass 1  IDiag  1:
 E= -39.5484854607866     Delta-E=       -0.000000000000 Rises=F Damp=F
 DIIS: error= 6.19D-09 at cycle   9 NSaved=   9.
 NSaved= 9 IEnMin= 9 EnMin= -39.5484854607866     IErMin= 9 ErrMin= 6.19D-09
 ErrMax= 6.19D-09 EMaxC= 1.00D-01 BMatC= 3.14D-15 BMatP= 8.30D-14
 IDIUse=1 WtCom= 1.00D+00 WtEn= 0.00D+00
 Coeff-Com: -0.155D-03 0.119D-03 0.356D-02-0.118D-01 0.317D-01-0.764D-01
 Coeff-Com:  0.142D+00-0.459D+00 0.137D+01
 Coeff:     -0.155D-03 0.119D-03 0.356D-02-0.118D-01 0.317D-01-0.764D-01
 Coeff:      0.142D+00-0.459D+00 0.137D+01
 Gap=     0.482 Goal=   None    Shift=    0.000
 Gap=     0.635 Goal=   None    Shift=    0.000
 RMSDP=2.74D-09 MaxDP=1.06D-08 DE=-5.68D-14 OVMax= 2.33D-08

 SCF Done:  E(UHF) =  -39.5484854608     A.U. after    9 cycles
             Convg  =    0.2742D-08             -V/T =  2.0000
 <Sx>= 0.0000 <Sy>= 0.0000 <Sz>= 0.5000 <S**2>= 0.7615 S= 0.5057
 <L.S>=  0.00000000000    
 KE= 3.954832346485D+01 PE=-1.109762097708D+02 EE= 2.224290352772D+01
 Annihilation of the first spin contaminant:
 S**2 before annihilation     0.7615,   after     0.7501
 Leave Link  502 at Sat Aug 17 18:00:49 2024, MaxMem=   13107200 cpu:       0.1
 (Enter /programs/64bit/g09/g09-gfortran/bin/l801.exe)
 ExpMin= 4.38D-02 ExpMax= 3.05D+03 ExpMxC= 4.57D+02 IAcc=3 IRadAn=         5 AccDes= 0.00D+00
 HarFok:  IExCor=  205 AccDes= 0.00D+00 IRadAn=         5 IDoV=-2
 ScaDFX=  1.000000  1.000000  1.000000  1.000000
 Largest valence mixing into a core orbital is  8.88D-05
 Largest core mixing into a valence orbital is  2.81D-05
 Largest valence mixing into a core orbital is  1.38D-04
 Largest core mixing into a valence orbital is  4.67D-05
 Range of M.O.s used for correlation:     2    19
 NBasis=    19 NAE=     5 NBE=     4 NFC=     1 NFV=     0
 NROrb=     18 NOA=     4 NOB=     3 NVA=    14 NVB=    15
 Leave Link  801 at Sat Aug 17 18:00:50 2024, MaxMem=   13107200 cpu:       0.4
 (Enter /programs/64bit/g09/g09-gfortran/bin/l906.exe)
 Frozen-core derivative calculation, NFC=   1 NFV=   0.
 FulOut=F Deriv=T AODrv=T NAtomX=     4
   MMem=        2232  MDisk=           4 MDiskD=           4
  W3Min=        3610 MinDsk=       54978 NBas6D=          19
 NBas2D=         208    NTT=         190    LW2=     2000000
    MDV=    13095836 MDiskM=        6083 NBas2p=         174
 Fully direct method using O(ONN) memory.
 IMap=   1   2   3   4   5
 JobTyp=2 Pass  1:  I=   2 to   5 NPSUse=  1 ParTrn=F ParDer=F DoDerP=T.
 IMap=   1   2   3   4
 JobTyp=3 Pass  1:  I=   2 to   4 NPSUse=  1 ParTrn=F ParDer=F DoDerP=T.
 Spin components of T(2) and E(2):
     alpha-alpha T2 =       0.3887814324D-02 E2=     -0.9475317735D-02
     alpha-beta  T2 =       0.2395626655D-01 E2=     -0.6405859412D-01
     beta-beta   T2 =       0.1481103917D-02 E2=     -0.3777711642D-02
 The integrals were generated   2 times.
 (S**2,0)=  0.76148D+00           (S**2,1)=  0.75427D+00
 E(PUHF)=      -0.39550908950D+02        E(PMP2)=      -0.39627462752D+02
 ANorm=    0.1014556644D+01
 E2 =    -0.7731162349D-01 EUMP2 =    -0.39625797084279D+02
 Leave Link  906 at Sat Aug 17 18:00:50 2024, MaxMem=   13107200 cpu:       0.4
 (Enter /programs/64bit/g09/g09-gfortran/bin/l1002.exe)
 Minotr:  UHF open shell wavefunction.
          Computing MP2/KS-MP2 derivatives.
          Using Z-Vector for PSCF gradient.
          Skipping F1 and S1 gradient terms here.
          IDoAtm=1111
          Frozen-core window.
          Direct CPHF calculation.
          Differentiating once with respect to electric field.
                with respect to dipole field.
          Differentiating once with respect to nuclear coordinates.
          Using symmetry in CPHF.
          Requested convergence is 1.0D-10 RMS, and 1.0D-09 maximum.
          NewPWx=F KeepS1=T KeepF1=T KeepIn=T MapXYZ=F SortEE=F KeepMc=T.
          MDV=      13107156 using IRadAn=       0.
          Keep R1 and R2 ints in memory in canonical form, NReq=836828.
 Symmetry not used in FoFDir.
 MinBra= 0 MaxBra= 1 Meth= 1.
 IRaf=       0 NMat=   1 IRICut=       1 DoRegI=T DoRafI=F ISym2E= 0 JSym2E=0.
          Solving linear equations separately, MaxMat=       0.
          There are     1 degrees of freedom in the 1st order CPHF.  IDoFFX=0.
 LinEq1:  Iter=  0 NonCon=     1 RMS=3.25D-03 Max=2.60D-02
 AX will form     1 AO Fock derivatives at one time.
 LinEq1:  Iter=  1 NonCon=     1 RMS=5.22D-04 Max=2.64D-03
 LinEq1:  Iter=  2 NonCon=     1 RMS=1.62D-04 Max=6.95D-04
 LinEq1:  Iter=  3 NonCon=     1 RMS=3.58D-05 Max=1.99D-04
 LinEq1:  Iter=  4 NonCon=     1 RMS=3.40D-06 Max=2.46D-05
 LinEq1:  Iter=  5 NonCon=     1 RMS=3.78D-07 Max=1.90D-06
 LinEq1:  Iter=  6 NonCon=     1 RMS=4.67D-08 Max=1.72D-07
 LinEq1:  Iter=  7 NonCon=     1 RMS=5.07D-09 Max=2.63D-08
 LinEq1:  Iter=  8 NonCon=     1 RMS=2.73D-10 Max=1.79D-09
 LinEq1:  Iter=  9 NonCon=     0 RMS=2.41D-11 Max=9.59D-11
 Linear equations converged to 1.000D-10 1.000D-09 after     9 iterations.
 End of Minotr Frequency-dependent properties file   721 does not exist.
 End of Minotr Frequency-dependent properties file   722 does not exist.
 Leave Link 1002 at Sat Aug 17 18:00:50 2024, MaxMem=   13107200 cpu:       0.1
 (Enter /programs/64bit/g09/g09-gfortran/bin/l701.exe)
 Compute integral first derivatives.
 ... and contract with generalized density number  2.
 Leave Link  701 at Sat Aug 17 18:00:50 2024, MaxMem=   13107200 cpu:       0.1
 (Enter /programs/64bit/g09/g09-gfortran/bin/l702.exe)
 L702 exits ... SP integral derivatives will be done elsewhere.
 Leave Link  702 at Sat Aug 17 18:00:50 2024, MaxMem=   13107200 cpu:       0.0
 (Enter /programs/64bit/g09/g09-gfortran/bin/l703.exe)
 Compute integral first derivatives, UseDBF=F ICtDFT=           0.
 Integral derivatives from FoFDir, PRISM(SPDF).
 Calling FoFJK, ICntrl=      2127 FMM=F ISym2X=1 I1Cent= 0 IOpClX= 1 NMat=1 NMatS=1 NMatT=0.
[...]


 ---------------------------------------------------------------------------------
              Anisotropic Spin Dipole Couplings in Principal Axis System
 ---------------------------------------------------------------------------------

       Atom             a.u.   MegaHertz   Gauss  10(-4) cm-1        Axes

              Baa    -0.5018   -67.338   -24.028   -22.461  0.4579  0.8890 -0.0000
     1 C(13)  Bbb    -0.5018   -67.338   -24.028   -22.461  0.8890 -0.4579  0.0000
              Bcc     1.0036   134.675    48.056    44.923  0.0000  0.0000  1.0000
 
              Baa    -0.0717   -38.259   -13.652   -12.762  1.0000  0.0000  0.0000
     2 H(1)   Bbb    -0.0098    -5.203    -1.856    -1.735  0.0000  0.0000  1.0000
              Bcc     0.0815    43.462    15.508    14.497 -0.0000  1.0000 -0.0000
 
              Baa    -0.0717   -38.259   -13.652   -12.762  0.5000  0.8660  0.0000
     3 H(1)   Bbb    -0.0098    -5.203    -1.856    -1.735  0.0000  0.0000  1.0000
              Bcc     0.0815    43.462    15.508    14.497  0.8660 -0.5000  0.0000
 
              Baa    -0.0717   -38.259   -13.652   -12.762 -0.5000  0.8660  0.0000
     4 H(1)   Bbb    -0.0098    -5.203    -1.856    -1.735  0.0000  0.0000  1.0000
              Bcc     0.0815    43.462    15.508    14.497  0.8660  0.5000 -0.0000
 

 ---------------------------------------------------------------------------------

 No NMR shielding tensors so no spin-rotation constants.
 Leave Link  601 at Sat Aug 17 18:00:58 2024, MaxMem=   13107200 cpu:       0.2
 (Enter /programs/64bit/g09/g09-gfortran/bin/l701.exe)
 Compute integral second derivatives.
 ... and contract with generalized density number  2.
 Leave Link  701 at Sat Aug 17 18:00:59 2024, MaxMem=   13107200 cpu:       0.1
 (Enter /programs/64bit/g09/g09-gfortran/bin/l702.exe)
 L702 exits ... SP integral derivatives will be done elsewhere.
 Leave Link  702 at Sat Aug 17 18:00:59 2024, MaxMem=   13107200 cpu:       0.1
 (Enter /programs/64bit/g09/g09-gfortran/bin/l703.exe)
 Compute integral second derivatives, UseDBF=F ICtDFT=           0.
 Integral derivatives from FoFDir, PRISM(SPDF).
 Calling FoFJK, ICntrl=    100127 FMM=F ISym2X=1 I1Cent= 0 IOpClX= 1 NMat=1 NMatS=1 NMatT=0.
 FoFCou: FMM=F IPFlag=           0 FMFlag=      100000 FMFlg1=         800
         NFxFlg=           0 DoJE=F BraDBF=F KetDBF=F FulRan=T
         Omega=  0.000000  0.000000  1.000000  0.000000  0.000000 ICntrl=  100127 IOpCl=  1
         NMat0=    1 NMatS0=    1 NMatT0=    0 NMatD0=    1 NMtDS0=    0 NMtDT0=    0
         I1Cent=           0 NGrid=           0.
 Petite list used in FoFCou.
 Leave Link  703 at Sat Aug 17 18:01:01 2024, MaxMem=   13107200 cpu:       0.6
 (Enter /programs/64bit/g09/g09-gfortran/bin/l716.exe)
 Dipole        =-3.81639165D-16-9.71445147D-17 1.89568428D-32
 Polarizability= 1.20730784D+01-6.91625437D-15 1.20730784D+01
                 9.62707144D-17-1.50700962D-16 9.84571226D+00
 Full mass-weighted force constant matrix:
 Low frequencies ---  -64.8527  -64.8524  -64.8524   -0.0013   -0.0010   -0.0008
 Low frequencies ---  539.4675 1480.0915 1480.0915
 Diagonal vibrational polarizability:
        0.0763087       0.0763087      11.1799995
 Harmonic frequencies (cm**-1), IR intensities (KM/Mole), Raman scattering
 activities (A**4/AMU), depolarization ratios for plane and unpolarized
 incident light, reduced masses (AMU), force constants (mDyne/A),
 and normal coordinates:
                     1                      2                      3
                    A2"                    E'                     E'
 Frequencies --   539.4675              1480.0915              1480.0915
 Red. masses --     1.2356                 1.1033                 1.1033
 Frc consts  --     0.2119                 1.4240                 1.4240
 IR Inten    --   120.9036                 4.7949                 4.7949
  Atom  AN      X      Y      Z        X      Y      Z        X      Y      Z
     1   6     0.00   0.00   0.14    -0.00   0.09  -0.00    -0.09  -0.00   0.00
     2   1    -0.00  -0.00  -0.57     0.01   0.07   0.00     0.81  -0.00  -0.00
     3   1    -0.00  -0.00  -0.57    -0.38  -0.59   0.00     0.15   0.39  -0.00
     4   1    -0.00   0.00  -0.57     0.38  -0.59   0.00     0.15  -0.38  -0.00
                     4                      5                      6
                    A1'                    E'                     E'
 Frequencies --  3165.8344              3359.0176              3359.0176
 Red. masses --     1.0078                 1.1171                 1.1171
 Frc consts  --     5.9513                 7.4262                 7.4262
 IR Inten    --     0.0000                 7.2977                 7.2977
  Atom  AN      X      Y      Z        X      Y      Z        X      Y      Z
     1   6     0.00   0.00  -0.00     0.10   0.00  -0.00    -0.00   0.10  -0.00
     2   1     0.00   0.58   0.00     0.02  -0.01   0.00    -0.00  -0.81   0.00
     3   1     0.50  -0.29   0.00    -0.60   0.36   0.00     0.37  -0.19   0.00
     4   1    -0.50  -0.29   0.00    -0.61  -0.36   0.00    -0.35  -0.18   0.00

 -------------------
 - Thermochemistry -
 -------------------
 Temperature   298.150 Kelvin.  Pressure   1.00000 Atm.
 Atom     1 has atomic number  6 and mass  12.00000
 Atom     2 has atomic number  1 and mass   1.00783
 Atom     3 has atomic number  1 and mass   1.00783
 Atom     4 has atomic number  1 and mass   1.00783
 Molecular mass:    15.02348 amu.
 Principal axes and moments of inertia in atomic units:
                           1         2         3
     Eigenvalues --     6.33844   6.33844  12.67688
           X           -0.62440   0.78111   0.00000
           Y            0.78111   0.62440   0.00000
           Z            0.00000  -0.00000   1.00000
 This molecule is an oblate symmetric top.
 Rotational symmetry number  6.
 Rotational temperatures (Kelvin)     13.66485    13.66485     6.83242
 Rotational constants (GHZ):         284.72952   284.72952   142.36476
 Zero-point vibrational energy      80051.2 (Joules/Mol)
                                   19.13270 (Kcal/Mol)
 Warning -- explicit consideration of   1 degrees of freedom as
           vibrations may cause significant error
 Vibrational temperatures:    776.17  2129.52  2129.52  4554.92  4832.87
          (Kelvin)           4832.87
 
 Zero-point correction=                           0.030490 (Hartree/Particle)
 Thermal correction to Energy=                    0.033530
 Thermal correction to Enthalpy=                  0.034474
 Thermal correction to Gibbs Free Energy=         0.012393
 Sum of electronic and zero-point Energies=            -39.595307
 Sum of electronic and thermal Energies=               -39.592267
 Sum of electronic and thermal Enthalpies=             -39.591323
 Sum of electronic and thermal Free Energies=          -39.613404
 
                     E (Thermal)             CV                S
                      KCal/Mol        Cal/Mol-Kelvin    Cal/Mol-Kelvin
 Total                   21.040              7.285             46.473
 Electronic               0.000              0.000              1.377
 Translational            0.889              2.981             34.068
 Rotational               0.889              2.981             10.435
 Vibrational             19.263              1.324              0.592
 Vibration     1          0.895              1.163              0.566
                       Q            Log10(Q)             Ln(Q)
 Total Bot       0.199326D-05         -5.700437        -13.125741
 Total V=0       0.210821D+09          8.323915         19.166522
 Vib (Bot)       0.102268D-13        -13.990261        -32.213767
 Vib (Bot)    1  0.293836D+00         -0.531896         -1.224735
 Vib (V=0)       0.108166D+01          0.034090          0.078495
 Vib (V=0)    1  0.107995D+01          0.033403          0.076913
 Electronic      0.200000D+01          0.301030          0.693147
 Translational   0.228882D+07          6.359611         14.643545
 Rotational      0.425779D+02          1.629184          3.751334
 
                                      methyl with imposed symmetry and hf/6-31+G 
 basis function
                                                             IR Spectrum
 
      3      3                                                               1                                                       
      3      1                                                               4                                  5                    
      5      6                                                               8                                  3                    
      9      6                                                               0                                  9                    
 
      X                                                                      X                                  X                    
      X                                                                      X                                  X                    
                                                                                                                X                    
                                                                                                                X                    
                                                                                                                X                    
                                                                                                                X                    
                                                                                                                X                    
                                                                                                                X                    
                                                                                                                X                    
                                                                                                                X                    
                                                                                                                X                    
                                                                                                                X                    
                                                                                                                X                    
                                                                                                                X                    
                                                                                                                X                    
                                                                                                                X                    
                                                                                                                X                    
                                                                                                                X                    
                                                                                                                X                    
                                                                                                                X                    
 
 ***** Axes restored to original set *****
 -------------------------------------------------------------------
 Center     Atomic                   Forces (Hartrees/Bohr)
 Number     Number              X              Y              Z
 -------------------------------------------------------------------
      1        6          -0.000000000    0.000000000    0.000000000
      2        1          -0.000000000    0.000000000    0.000328462
      3        1           0.000284456    0.000000000   -0.000164231
      4        1          -0.000284456   -0.000000000   -0.000164231
 -------------------------------------------------------------------
 Cartesian Forces:  Max     0.000328462 RMS     0.000164231
 Force constants in Cartesian coordinates: 
                1             2             3             4             5 
      1  0.641121D+00
      2  0.000000D+00  0.265974D-01
      3  0.000000D+00  0.000000D+00  0.641121D+00
      4 -0.590348D-01  0.000000D+00  0.000000D+00  0.501771D-01
      5  0.000000D+00 -0.886580D-02  0.000000D+00  0.000000D+00  0.284833D-02
      6  0.000000D+00  0.000000D+00 -0.368379D+00  0.000000D+00  0.000000D+00
      7 -0.291043D+00  0.000000D+00  0.133950D+00  0.442885D-02  0.000000D+00
      8  0.000000D+00 -0.886580D-02  0.000000D+00  0.000000D+00  0.300874D-02
      9  0.133950D+00  0.000000D+00 -0.136371D+00  0.265054D-01  0.000000D+00
     10 -0.291043D+00  0.000000D+00 -0.133950D+00  0.442885D-02  0.000000D+00
     11  0.000000D+00 -0.886580D-02  0.000000D+00  0.000000D+00  0.300874D-02
     12 -0.133950D+00  0.000000D+00 -0.136371D+00 -0.265054D-01  0.000000D+00
                6             7             8             9            10 
      6  0.383878D+00
      7 -0.541165D-02  0.300453D+00
      8  0.000000D+00  0.000000D+00  0.284833D-02
      9 -0.774962D-02 -0.144497D+00  0.000000D+00  0.133602D+00
     10  0.541165D-02 -0.138389D-01  0.000000D+00 -0.159585D-01  0.300453D+00
     11  0.000000D+00  0.000000D+00  0.300874D-02  0.000000D+00  0.000000D+00
     12 -0.774962D-02  0.159585D-01  0.000000D+00  0.105181D-01  0.144497D+00
               11            12 
     11  0.284833D-02
     12  0.000000D+00  0.133602D+00
 Force constants in internal coordinates: 
                1             2             3             4             5 
      1  0.383878D+00
      2 -0.811813D-03  0.383878D+00
      3 -0.811813D-03 -0.811813D-03  0.383878D+00
      4  0.642767D-02  0.642767D-02 -0.128553D-01  0.703520D-01
      5  0.642767D-02 -0.128553D-01  0.642767D-02 -0.351760D-01  0.703520D-01
      6 -0.128553D-01  0.642767D-02  0.642767D-02 -0.351760D-01 -0.351760D-01
      7  0.000000D+00  0.000000D+00  0.000000D+00  0.000000D+00  0.000000D+00
                6             7 
      6  0.703520D-01
      7  0.000000D+00  0.946132D-02
 Leave Link  716 at Sat Aug 17 18:01:02 2024, MaxMem=   13107200 cpu:       0.0
 (Enter /programs/64bit/g09/g09-gfortran/bin/l103.exe)

 GradGradGradGradGradGradGradGradGradGradGradGradGradGradGradGradGradGrad
 Berny optimization.
 Internal  Forces:  Max     0.000328462 RMS     0.000215029
 Search for a local minimum.
 Step number   1 out of a maximum of    2
 All quantities printed in internal units (Hartrees-Bohrs-Radians)
 Second derivative matrix not updated -- analytic derivatives used.
 The second derivative matrix:
                          R1        R2        R3        A1        A2
           R1           0.38388
           R2          -0.00081   0.38388
           R3          -0.00081  -0.00081   0.38388
           A1           0.00643   0.00643  -0.01286   0.07035
           A2           0.00643  -0.01286   0.00643  -0.03518   0.07035
           A3          -0.01286   0.00643   0.00643  -0.03518  -0.03518
           D1          -0.00000  -0.00000   0.00000   0.00000  -0.00000
                          A3        D1
           A3           0.07035
           D1          -0.00000   0.00946
     Eigenvalues ---    0.00946   0.10420   0.10420   0.38225   0.38602
     Eigenvalues ---    0.386021000.00000
 Angle between quadratic step and forces=   0.00 degrees.
 Linear search not attempted -- first point.
 Iteration  1 RMS(Cart)=  0.00056253 RMS(Int)=  0.00000000
 Iteration  2 RMS(Cart)=  0.00000000 RMS(Int)=  0.00000000
 ClnCor:  largest displacement from symmetrization is 1.84D-12 for atom     3.
 Variable       Old X    -DE/DX   Delta X   Delta X   Delta X     New X
                                 (Linear)    (Quad)   (Total)
    R1        2.04764   0.00033   0.00000   0.00086   0.00086   2.04850
    R2        2.04764   0.00033   0.00000   0.00086   0.00086   2.04850
    R3        2.04764   0.00033   0.00000   0.00086   0.00086   2.04850
    A1        2.09440  -0.00000   0.00000  -0.00000   0.00000   2.09440
    A2        2.09440   0.00000   0.00000  -0.00000   0.00000   2.09440
    A3        2.09440  -0.00000   0.00000   0.00000   0.00000   2.09440
    D1        3.14159   0.00000   0.00000   0.00000   0.00000   3.14159
         Item               Value     Threshold  Converged?
 Maximum Force            0.000328     0.000450     YES
 RMS     Force            0.000215     0.000300     YES
 Maximum Displacement     0.000859     0.001800     YES
 RMS     Displacement     0.000563     0.001200     YES
 Predicted change in Energy=-4.233588D-07
 Optimization completed.
    -- Stationary point found.
                           ----------------------------
                           !   Optimized Parameters   !
                           ! (Angstroms and Degrees)  !
 --------------------------                            --------------------------
 ! Name  Definition              Value          Derivative Info.                !
 --------------------------------------------------------------------------------
 ! R1    R(1,2)                  1.0836         -DE/DX =    0.0003              !
 ! R2    R(1,3)                  1.0836         -DE/DX =    0.0003              !
 ! R3    R(1,4)                  1.0836         -DE/DX =    0.0003              !
 ! A1    A(2,1,3)              120.0            -DE/DX =    0.0                 !
 ! A2    A(2,1,4)              120.0            -DE/DX =    0.0                 !
 ! A3    A(3,1,4)              120.0            -DE/DX =    0.0                 !
 ! D1    D(2,1,4,3)            180.0            -DE/DX =    0.0                 !
 --------------------------------------------------------------------------------
 GradGradGradGradGradGradGradGradGradGradGradGradGradGradGradGradGradGrad

 Leave Link  103 at Sat Aug 17 18:01:02 2024, MaxMem=   13107200 cpu:       0.0
 (Enter /programs/64bit/g09/g09-gfortran/bin/l9999.exe)
 1\1\GINC-MOLMOD\Freq\UMP2-FC\6-31+G\C1H3(2)\OSPITE\17-Aug-2024\0\\#P G
 eom=AllCheck Guess=TCheck SCRF=Check GenChk UMP2(FC)/6-31+G Freq\\meth
 yl with imposed symmetry and hf/6-31+G basis function\\0,2\C,0.,0.,0.\
 H,0.,0.,1.0835629609\H,0.9383930508,0.,-0.5417814805\H,-0.9383930508,0
 .,-0.5417814805\\Version=EM64L-G09RevA.02\State=2-A2"\HF=-39.5484855\M
 P2=-39.6257971\PUHF=-39.5477115\PMP2-0=-39.6249682\S2=0.761482\S2-1=0.
 763118\S2A=0.750086\RMSD=3.288e-10\RMSF=1.642e-04\ZeroPoint=0.0304899\
 Thermal=0.0335297\Dipole=0.,0.,0.\DipoleDeriv=0.0232698,0.,0.,0.,-0.54
 72712,0.,0.,0.,0.0232698,0.0562102,0.,0.,0.,0.1824237,0.,0.,0.,-0.0717
 234,-0.03974,0.,0.0553969,0.,0.1824237,0.,0.0553969,0.,0.0242268,-0.03
 974,0.,-0.0553969,0.,0.1824237,0.,-0.0553969,0.,0.0242268\Polar=12.073
 0784,0.,9.8457123,0.,0.,12.0730784\PG=D03H [O(C1),3C2(H1)]\NImag=0\\0.
 64112098,0.,0.02659741,0.,0.,0.64112098,-0.05903479,0.,0.,0.05017709,0
 .,-0.00886580,0.,0.,0.00284833,0.,0.,-0.36837920,0.,0.,0.38387845,-0.2
 9104310,0.,0.13395006,0.00442885,0.,-0.00541165,0.30045311,0.,-0.00886
 580,0.,0.,0.00300874,0.,0.,0.00284833,0.13395006,0.,-0.13637089,0.0265
 0538,0.,-0.00774962,-0.14449692,0.,0.13360243,-0.29104310,0.,-0.133950
 06,0.00442885,0.,0.00541165,-0.01383886,0.,-0.01595851,0.30045311,0.,-
 0.00886580,0.,0.,0.00300874,0.,0.,0.00300874,0.,0.,0.00284833,-0.13395
 006,0.,-0.13637089,-0.02650538,0.,-0.00774962,0.01595851,0.,0.01051808
 ,0.14449692,0.,0.13360243\\0.,0.,0.,0.,0.,-0.00032846,-0.00028446,0.,0
 .00016423,0.00028446,0.,0.00016423\\\@


    WHAT WE HAVE LEARNED
 IS LIKE A HANDFUL OF EARTH;
  WHAT WE HAVE YET TO LEARN
   IS LIKE THE WHOLE WORLD.

         -- AVVAYIAR
 Job cpu time:  0 days  0 hours  0 minutes  6.9 seconds.
 File lengths (MBytes):  RWF=     19 Int=      0 D2E=      0 Chk=      1 Scr=      1
 Normal termination of Gaussian 09 at Sat Aug 17 18:01:02 2024.
