 Entering Gaussian System, Link 0=/programs/64bit/g09/g09-gfortran/bin/g09
 Input=ch3_cc-pVDZ.com
 Output=ch3_cc-pVDZ.log
 Initial command:
 /programs/64bit/g09/g09-gfortran/bin/l1.exe /home/ospite/Desktop/MMfP/Project6/CH3/g09/MP2/Gau-18705.inp -scrdir=/home/ospite/Desktop/MMfP/Project6/CH3/g09/MP2/
 Entering Link 1 = /programs/64bit/g09/g09-gfortran/bin/l1.exe PID=     18706.
  
 Copyright (c) 1988,1990,1992,1993,1995,1998,2003,2009, Gaussian, Inc.
                  All Rights Reserved.
  
 This is part of the Gaussian(R) 09 program.  It is based on
 the Gaussian(R) 03 system (copyright 2003, Gaussian, Inc.),
 the Gaussian(R) 98 system (copyright 1998, Gaussian, Inc.),
 the Gaussian(R) 94 system (copyright 1995, Gaussian, Inc.),
 the Gaussian 92(TM) system (copyright 1992, Gaussian, Inc.),
 the Gaussian 90(TM) system (copyright 1990, Gaussian, Inc.),
 the Gaussian 88(TM) system (copyright 1988, Gaussian, Inc.),
 the Gaussian 86(TM) system (copyright 1986, Carnegie Mellon
 University), and the Gaussian 82(TM) system (copyright 1983,
 Carnegie Mellon University). Gaussian is a federally registered
 trademark of Gaussian, Inc.
  
 This software contains proprietary and confidential information,
 including trade secrets, belonging to Gaussian, Inc.
  
 This software is provided under written license and may be
 used, copied, transmitted, or stored only in accord with that
 written license.
  
 The following legend is applicable only to US Government
 contracts under FAR:
  
                    RESTRICTED RIGHTS LEGEND
  
 Use, reproduction and disclosure by the US Government is
 subject to restrictions as set forth in subparagraphs (a)
 and (c) of the Commercial Computer Software - Restricted
 Rights clause in FAR 52.227-19.
  
 Gaussian, Inc.
 340 Quinnipiac St., Bldg. 40, Wallingford CT 06492
  
  
 ---------------------------------------------------------------
 Warning -- This program may not be used in any manner that
 competes with the business of Gaussian, Inc. or will provide
 assistance to any competitor of Gaussian, Inc.  The licensee
 of this program is prohibited from giving any competitor of
 Gaussian, Inc. access to this program.  By using this program,
 the user acknowledges that Gaussian, Inc. is engaged in the
 business of creating and licensing software in the field of
 computational chemistry and represents and warrants to the
 licensee that it is not a competitor of Gaussian, Inc. and that
 it will not use this program in any manner prohibited above.
 ---------------------------------------------------------------
  

 Cite this work as:
 Gaussian 09, Revision A.02,
 M. J. Frisch, G. W. Trucks, H. B. Schlegel, G. E. Scuseria, 
 M. A. Robb, J. R. Cheeseman, G. Scalmani, V. Barone, B. Mennucci, 
 G. A. Petersson, H. Nakatsuji, M. Caricato, X. Li, H. P. Hratchian, 
 A. F. Izmaylov, J. Bloino, G. Zheng, J. L. Sonnenberg, M. Hada, 
 M. Ehara, K. Toyota, R. Fukuda, J. Hasegawa, M. Ishida, T. Nakajima, 
 Y. Honda, O. Kitao, H. Nakai, T. Vreven, J. A. Montgomery, Jr., 
 J. E. Peralta, F. Ogliaro, M. Bearpark, J. J. Heyd, E. Brothers, 
 K. N. Kudin, V. N. Staroverov, R. Kobayashi, J. Normand, 
 K. Raghavachari, A. Rendell, J. C. Burant, S. S. Iyengar, J. Tomasi, 
 M. Cossi, N. Rega, J. M. Millam, M. Klene, J. E. Knox, J. B. Cross, 
 V. Bakken, C. Adamo, J. Jaramillo, R. Gomperts, R. E. Stratmann, 
 O. Yazyev, A. J. Austin, R. Cammi, C. Pomelli, J. W. Ochterski, 
 R. L. Martin, K. Morokuma, V. G. Zakrzewski, G. A. Voth, 
 P. Salvador, J. J. Dannenberg, S. Dapprich, A. D. Daniels, 
 O. Farkas, J. B. Foresman, J. V. Ortiz, J. Cioslowski, 
 and D. J. Fox, Gaussian, Inc., Wallingford CT, 2009.
 
 ******************************************
 Gaussian 09:  EM64L-G09RevA.02 11-Jun-2009
                18-Aug-2024 
 ******************************************
 %mem=100MB
 -----------------------------------------------------------------
 #p mp2/cc-pVDZ opt freq symmetry=(follow,pg=C3v) pop=full gfinput
 -----------------------------------------------------------------
 1/18=20,19=15,38=1/1,3;
 2/9=110,12=2,17=6,18=5,19=2314885530821997379,40=1/2;
 3/5=16,11=9,16=1,24=10,25=1,30=1,71=1/1,2,3;
 4//1;
 5/5=2,38=5/2;
 8/6=4,10=1/1;
 9/15=2,16=-3/6;
 10/5=1/2;
 6/7=3/1;
 7/12=2/1,2,3,16;
 1/18=20,19=15/3(2);
 2/9=110,15=5,19=2314885530821997379/2;
 99//99;
 2/9=110,15=5,19=2314885530821997379/2;
 3/5=16,11=9,16=1,25=1,30=1,71=1/1,2,3;
 4/5=5,16=3/1;
 5/5=2,38=5/2;
 8/6=4,10=1/1;
 9/15=2,16=-3/6;
 10/5=1/2;
 7/12=2/1,2,3,16;
 1/18=20,19=15/3(-8);
 2/9=110,15=5,19=2314885530821997379/2;
 6/7=3/1;
 99//99;
 Leave Link    1 at Sun Aug 18 00:17:49 2024, MaxMem=   13107200 cpu:       0.1
 (Enter /programs/64bit/g09/g09-gfortran/bin/l101.exe)
 --------------------------------------------------
 methyl with imposed symmetry and cc-pVDZ basis set
 --------------------------------------------------
 Symbolic Z-matrix:
 Charge =  0 Multiplicity = 2
 C1
 H2                   1    d
 H3                   1    d        2    a
 H4                   1    d        2    -a       3    t        0
       Variables:
  d                     1.09                     
  a                   120.                       
  t                     0.                       
 
 NAtoms=      4 NQM=      4 NQMF=      0 NMic=      0 NMicF=      0 NTot=      4.
                    Isotopes and Nuclear Properties:
 (Nuclear quadrupole moments (NQMom) in fm**2, nuclear magnetic moments (NMagM)
  in nuclear magnetons)

  Atom         1           2           3           4
 IAtWgt=          12           1           1           1
 AtmWgt=  12.0000000   1.0078250   1.0078250   1.0078250
 NucSpn=           0           1           1           1
 AtZEff=   0.0000000   0.0000000   0.0000000   0.0000000
 NQMom=    0.0000000   0.0000000   0.0000000   0.0000000
 NMagM=    0.0000000   2.7928460   2.7928460   2.7928460
 Leave Link  101 at Sun Aug 18 00:17:49 2024, MaxMem=   13107200 cpu:       0.1
 (Enter /programs/64bit/g09/g09-gfortran/bin/l103.exe)

 GradGradGradGradGradGradGradGradGradGradGradGradGradGradGradGradGradGrad
 Berny optimization.
 Initialization pass.
                           ----------------------------
                           !    Initial Parameters    !
                           ! (Angstroms and Degrees)  !
 --------------------------                            --------------------------
 ! Name  Definition              Value          Derivative Info.                !
 --------------------------------------------------------------------------------
 ! R1    R(1,2)                  1.09           estimate D2E/DX2                !
 ! R2    R(1,3)                  1.09           estimate D2E/DX2                !
 ! R3    R(1,4)                  1.09           estimate D2E/DX2                !
 ! A1    A(2,1,3)              120.0            estimate D2E/DX2                !
 ! A2    A(2,1,4)              120.0            estimate D2E/DX2                !
 ! A3    A(3,1,4)              120.0            estimate D2E/DX2                !
 ! D1    D(2,1,4,3)            180.0            estimate D2E/DX2                !
 --------------------------------------------------------------------------------
 Trust Radius=3.00D-01 FncErr=1.00D-07 GrdErr=1.00D-07
 Number of steps in this run=  20 maximum allowed number of steps= 100.
 GradGradGradGradGradGradGradGradGradGradGradGradGradGradGradGradGradGrad

 Leave Link  103 at Sun Aug 18 00:17:49 2024, MaxMem=   13107200 cpu:       0.0
 (Enter /programs/64bit/g09/g09-gfortran/bin/l202.exe)
                          Input orientation:                          
 ---------------------------------------------------------------------
 Center     Atomic      Atomic             Coordinates (Angstroms)
 Number     Number       Type             X           Y           Z
 ---------------------------------------------------------------------
      1          6           0        0.000000    0.000000    0.000000
      2          1           0        0.000000    0.000000    1.090000
      3          1           0        0.943968    0.000000   -0.545000
      4          1           0       -0.943968    0.000000   -0.545000
 ---------------------------------------------------------------------
                    Distance matrix (angstroms):
                    1          2          3          4
     1  C    0.000000
     2  H    1.090000   0.000000
     3  H    1.090000   1.887935   0.000000
     4  H    1.090000   1.887935   1.887935   0.000000
 Symm:  InNGrp=C3V  InAxis=0.
 This structure is nearly, but not quite of a higher symmetry.
 Consider Symm=Loose if the higher symmetry is desired.
 Stoichiometry    CH3(2)
 Framework group  C2[C2(CH),X(H2)]
 Deg. of freedom     3
 Full point group                 C2      NOp   2
 Largest Abelian subgroup         C2      NOp   2
 Largest concise Abelian subgroup C2      NOp   2
                         Standard orientation:                         
 ---------------------------------------------------------------------
 Center     Atomic      Atomic             Coordinates (Angstroms)
 Number     Number       Type             X           Y           Z
 ---------------------------------------------------------------------
      1          6           0        0.000000    0.000000    0.000000
      2          1           0        0.000000    0.000000    1.090000
      3          1           0        0.000000    0.943968   -0.545000
      4          1           0       -0.000000   -0.943968   -0.545000
 ---------------------------------------------------------------------
 Rotational constants (GHZ):    281.3764836    281.3764836    140.6882418
 Leave Link  202 at Sun Aug 18 00:17:49 2024, MaxMem=   13107200 cpu:       0.0
 (Enter /programs/64bit/g09/g09-gfortran/bin/l301.exe)
 Standard basis: CC-pVDZ (5D, 7F)
 Ernie: Thresh=  0.10000D-02 Tol=  0.10000D-05 Strict=F.
 Ernie:  2 primitive shells out of 37 were deleted.
 AO basis set in the form of general basis input (Overlap normalization):
      1 0
 S   7 1.00       0.000000000000
      0.6665000000D+04  0.6935163173D-03
      0.1000000000D+04  0.5341502433D-02
      0.2280000000D+03  0.2713667141D-01
      0.6471000000D+02  0.1019923853D+00
      0.2106000000D+02  0.2755086365D+00
      0.7495000000D+01  0.4510864331D+00
      0.2797000000D+01  0.2875657448D+00
 S   7 1.00       0.000000000000
      0.6665000000D+04  0.7733547404D-05
      0.2280000000D+03  0.2780721367D-03
      0.6471000000D+02 -0.2578756542D-02
      0.2106000000D+02 -0.8950876838D-02
      0.7495000000D+01 -0.1060588547D+00
      0.2797000000D+01 -0.1315176856D+00
      0.5215000000D+00  0.1099486598D+01
 S   1 1.00       0.000000000000
      0.1596000000D+00  0.1000000000D+01
 P   3 1.00       0.000000000000
      0.9439000000D+01  0.5697925159D-01
      0.2002000000D+01  0.3132072115D+00
      0.5456000000D+00  0.7603767417D+00
 P   1 1.00       0.000000000000
      0.1517000000D+00  0.1000000000D+01
 D   1 1.00       0.000000000000
      0.5500000000D+00  0.1000000000D+01
 ****
      2 0
 S   3 1.00       0.000000000000
      0.1301000000D+02  0.3349872639D-01
      0.1962000000D+01  0.2348008012D+00
      0.4446000000D+00  0.8136829579D+00
 S   1 1.00       0.000000000000
      0.1220000000D+00  0.1000000000D+01
 P   1 1.00       0.000000000000
      0.7270000000D+00  0.1000000000D+01
 ****
      3 0
 S   3 1.00       0.000000000000
      0.1301000000D+02  0.3349872639D-01
      0.1962000000D+01  0.2348008012D+00
      0.4446000000D+00  0.8136829579D+00
 S   1 1.00       0.000000000000
      0.1220000000D+00  0.1000000000D+01
 P   1 1.00       0.000000000000
      0.7270000000D+00  0.1000000000D+01
 ****
      4 0
 S   3 1.00       0.000000000000
      0.1301000000D+02  0.3349872639D-01
      0.1962000000D+01  0.2348008012D+00
      0.4446000000D+00  0.8136829579D+00
 S   1 1.00       0.000000000000
      0.1220000000D+00  0.1000000000D+01
 P   1 1.00       0.000000000000
      0.7270000000D+00  0.1000000000D+01
 ****

 There are    16 symmetry adapted basis functions of A   symmetry.
 There are    13 symmetry adapted basis functions of B   symmetry.
 Integral buffers will be    131072 words long.
 Raffenetti 2 integral format.
 Two-electron integral symmetry is turned on.
    29 basis functions,    54 primitive gaussians,    30 cartesian basis functions
     5 alpha electrons        4 beta electrons
       nuclear repulsion energy         9.5795885928 Hartrees.
 IExCor=    0 DFT=F Ex=HF Corr=None ExCW=0 ScaHFX=  1.000000
 ScaDFX=  1.000000  1.000000  1.000000  1.000000 ScalE2=  1.000000  1.000000
 IRadAn=      0 IRanWt=     -1 IRanGd=            0 ICorTp=0
 NAtoms=    4 NActive=    4 NUniq=    3 SFac= 1.33D+00 NAtFMM=   80 NAOKFM=F Big=F
 Leave Link  301 at Sun Aug 18 00:17:49 2024, MaxMem=   13107200 cpu:       0.1
 (Enter /programs/64bit/g09/g09-gfortran/bin/l302.exe)
 NPDir=0 NMtPBC=     1 NCelOv=     1 NCel=       1 NClECP=     1 NCelD=      1
         NCelK=      1 NCelE2=     1 NClLst=     1 CellRange=     0.0.
 One-electron integrals computed using PRISM.
 One-electron integral symmetry used in STVInt
 NBasis=    29 RedAO= T  NBF=    16    13
 NBsUse=    29 1.00D-06 NBFU=    16    13
 Leave Link  302 at Sun Aug 18 00:17:49 2024, MaxMem=   13107200 cpu:       0.1
 (Enter /programs/64bit/g09/g09-gfortran/bin/l303.exe)
 DipDrv:  MaxL=1.
 Leave Link  303 at Sun Aug 18 00:17:49 2024, MaxMem=   13107200 cpu:       0.0
 (Enter /programs/64bit/g09/g09-gfortran/bin/l401.exe)
 Harris functional with IExCor=  205 diagonalized for initial guess.
 ExpMin= 1.22D-01 ExpMax= 6.66D+03 ExpMxC= 2.28D+02 IAcc=1 IRadAn=         1 AccDes= 0.00D+00
 HarFok:  IExCor=  205 AccDes= 0.00D+00 IRadAn=         1 IDoV= 1
 ScaDFX=  1.000000  1.000000  1.000000  1.000000
 FoFCou: FMM=F IPFlag=           0 FMFlag=      100000 FMFlg1=           0
         NFxFlg=           0 DoJE=T BraDBF=F KetDBF=T FulRan=T
         Omega=  0.000000  0.000000  1.000000  0.000000  0.000000 ICntrl=     500 IOpCl=  0
         NMat0=    1 NMatS0=    1 NMatT0=    0 NMatD0=    1 NMtDS0=    0 NMtDT0=    0
         I1Cent=           4 NGrid=           0.
 Petite list used in FoFCou.
 Harris En= -39.6255620246913    
 Initial guess orbital symmetries:
 Alpha Orbitals:
       Occupied  (A) (A) (B) (A) (B)
       Virtual   (A) (A) (B) (B) (A) (B) (A) (A) (B) (A) (A) (B)
                 (B) (B) (A) (A) (B) (A) (B) (B) (A) (A) (B) (A)
 Beta  Orbitals:
       Occupied  (A) (A) (B) (A)
       Virtual   (B) (A) (A) (B) (B) (A) (B) (A) (A) (B) (A) (A)
                 (B) (B) (B) (A) (A) (B) (A) (B) (B) (A) (A) (B)
                 (A)
 The electronic state of the initial guess is 2-B.
 Initial guess <Sx>= 0.0000 <Sy>= 0.0000 <Sz>= 0.5000 <S**2>= 0.7500 S= 0.5000
 Leave Link  401 at Sun Aug 18 00:17:49 2024, MaxMem=   13107200 cpu:       0.2
 (Enter /programs/64bit/g09/g09-gfortran/bin/l502.exe)
 UHF open shell SCF:
 Requested convergence on RMS density matrix=1.00D-08 within 128 cycles.
 Requested convergence on MAX density matrix=1.00D-06.
 Requested convergence on             energy=1.00D-06.
 No special actions if energy rises.
 Using DIIS extrapolation, IDIIS=  1040.
 Integral symmetry usage will be decided dynamically.
 Keep R1 and R2 ints in memory in canonical form, NReq=1058013.
 IEnd=       21302 IEndB=       21302 NGot=    13107200 MDV=    12886751
 LenX=    12886751 LenY=    12885410
 Symmetry not used in FoFDir.
 MinBra= 0 MaxBra= 2 Meth= 1.
 IRaf=       0 NMat=   1 IRICut=       1 DoRegI=T DoRafI=F ISym2E= 0 JSym2E=0.

 Cycle   1  Pass 1  IDiag  1:
 E= -39.5026248203644    
 DIIS: error= 4.95D-02 at cycle   1 NSaved=   1.
 NSaved= 1 IEnMin= 1 EnMin= -39.5026248203644     IErMin= 1 ErrMin= 4.95D-02
 ErrMax= 4.95D-02 EMaxC= 1.00D-01 BMatC= 2.35D-01 BMatP= 2.35D-01
 IDIUse=3 WtCom= 5.05D-01 WtEn= 4.95D-01
 Coeff-Com:  0.100D+01
 Coeff-En:   0.100D+01
 Coeff:      0.100D+01
 Gap=     0.514 Goal=   None    Shift=    0.000
 Gap=     0.727 Goal=   None    Shift=    0.000
 GapD=    0.514 DampG=2.000 DampE=0.500 DampFc=1.0000 IDamp=-1.
 RMSDP=8.06D-03 MaxDP=1.16D-01              OVMax= 1.07D-01

 Cycle   2  Pass 1  IDiag  1:
 E= -39.5576100351673     Delta-E=       -0.054985214803 Rises=F Damp=F
 DIIS: error= 1.60D-02 at cycle   2 NSaved=   2.
 NSaved= 2 IEnMin= 2 EnMin= -39.5576100351673     IErMin= 2 ErrMin= 1.60D-02
 ErrMax= 1.60D-02 EMaxC= 1.00D-01 BMatC= 2.21D-02 BMatP= 2.35D-01
 IDIUse=3 WtCom= 8.40D-01 WtEn= 1.60D-01
 Coeff-Com:  0.189D+00 0.811D+00
 Coeff-En:   0.000D+00 0.100D+01
 Coeff:      0.159D+00 0.841D+00
 Gap=     0.575 Goal=   None    Shift=    0.000
 Gap=     0.702 Goal=   None    Shift=    0.000
 RMSDP=2.13D-03 MaxDP=3.73D-02 DE=-5.50D-02 OVMax= 3.08D-02

 Cycle   3  Pass 1  IDiag  1:
 E= -39.5631640003804     Delta-E=       -0.005553965213 Rises=F Damp=F
 DIIS: error= 3.30D-03 at cycle   3 NSaved=   3.
 NSaved= 3 IEnMin= 3 EnMin= -39.5631640003804     IErMin= 3 ErrMin= 3.30D-03
 ErrMax= 3.30D-03 EMaxC= 1.00D-01 BMatC= 6.69D-04 BMatP= 2.21D-02
 IDIUse=3 WtCom= 9.67D-01 WtEn= 3.30D-02
 Coeff-Com: -0.345D-01-0.778D-02 0.104D+01
 Coeff-En:   0.000D+00 0.000D+00 0.100D+01
 Coeff:     -0.334D-01-0.753D-02 0.104D+01
 Gap=     0.572 Goal=   None    Shift=    0.000
 Gap=     0.701 Goal=   None    Shift=    0.000
 RMSDP=4.96D-04 MaxDP=5.71D-03 DE=-5.55D-03 OVMax= 7.82D-03

 Cycle   4  Pass 1  IDiag  1:
 E= -39.5635005525005     Delta-E=       -0.000336552120 Rises=F Damp=F
 DIIS: error= 1.23D-03 at cycle   4 NSaved=   4.
 NSaved= 4 IEnMin= 4 EnMin= -39.5635005525005     IErMin= 4 ErrMin= 1.23D-03
 ErrMax= 1.23D-03 EMaxC= 1.00D-01 BMatC= 1.42D-04 BMatP= 6.69D-04
 IDIUse=3 WtCom= 9.88D-01 WtEn= 1.23D-02
 Coeff-Com:  0.211D-01-0.236D-01-0.877D+00 0.188D+01
 Coeff-En:   0.000D+00 0.000D+00 0.000D+00 0.100D+01
 Coeff:      0.208D-01-0.234D-01-0.866D+00 0.187D+01
 Gap=     0.575 Goal=   None    Shift=    0.000
 Gap=     0.702 Goal=   None    Shift=    0.000
 RMSDP=4.65D-04 MaxDP=5.35D-03 DE=-3.37D-04 OVMax= 6.17D-03

 Cycle   5  Pass 1  IDiag  1:
 E= -39.5636345095226     Delta-E=       -0.000133957022 Rises=F Damp=F
 DIIS: error= 5.13D-04 at cycle   5 NSaved=   5.
 NSaved= 5 IEnMin= 5 EnMin= -39.5636345095226     IErMin= 5 ErrMin= 5.13D-04
 ErrMax= 5.13D-04 EMaxC= 1.00D-01 BMatC= 1.69D-05 BMatP= 1.42D-04
 IDIUse=3 WtCom= 9.95D-01 WtEn= 5.13D-03
 Coeff-Com: -0.111D-01 0.223D-01 0.532D+00-0.148D+01 0.194D+01
 Coeff-En:   0.000D+00 0.000D+00 0.000D+00 0.000D+00 0.100D+01
 Coeff:     -0.110D-01 0.222D-01 0.529D+00-0.147D+01 0.193D+01
 Gap=     0.576 Goal=   None    Shift=    0.000
 Gap=     0.702 Goal=   None    Shift=    0.000
 RMSDP=2.12D-04 MaxDP=1.87D-03 DE=-1.34D-04 OVMax= 2.87D-03

 Cycle   6  Pass 1  IDiag  1:
 E= -39.5636534813569     Delta-E=       -0.000018971834 Rises=F Damp=F
 DIIS: error= 1.11D-04 at cycle   6 NSaved=   6.
 NSaved= 6 IEnMin= 6 EnMin= -39.5636534813569     IErMin= 6 ErrMin= 1.11D-04
 ErrMax= 1.11D-04 EMaxC= 1.00D-01 BMatC= 4.21D-07 BMatP= 1.69D-05
 IDIUse=3 WtCom= 9.99D-01 WtEn= 1.11D-03
 Coeff-Com:  0.476D-02-0.102D-01-0.232D+00 0.674D+00-0.101D+01 0.158D+01
 Coeff-En:   0.000D+00 0.000D+00 0.000D+00 0.000D+00 0.000D+00 0.100D+01
 Coeff:      0.475D-02-0.102D-01-0.232D+00 0.673D+00-0.101D+01 0.158D+01
 Gap=     0.576 Goal=   None    Shift=    0.000
 Gap=     0.702 Goal=   None    Shift=    0.000
 RMSDP=3.47D-05 MaxDP=3.01D-04 DE=-1.90D-05 OVMax= 5.17D-04

 Cycle   7  Pass 1  IDiag  1:
 E= -39.5636539222997     Delta-E=       -0.000000440943 Rises=F Damp=F
 DIIS: error= 1.30D-05 at cycle   7 NSaved=   7.
 NSaved= 7 IEnMin= 7 EnMin= -39.5636539222997     IErMin= 7 ErrMin= 1.30D-05
 ErrMax= 1.30D-05 EMaxC= 1.00D-01 BMatC= 1.04D-08 BMatP= 4.21D-07
 IDIUse=1 WtCom= 1.00D+00 WtEn= 0.00D+00
 Coeff-Com: -0.130D-02 0.269D-02 0.636D-01-0.187D+00 0.291D+00-0.567D+00
 Coeff-Com:  0.140D+01
 Coeff:     -0.130D-02 0.269D-02 0.636D-01-0.187D+00 0.291D+00-0.567D+00
 Coeff:      0.140D+01
 Gap=     0.576 Goal=   None    Shift=    0.000
 Gap=     0.702 Goal=   None    Shift=    0.000
 RMSDP=4.71D-06 MaxDP=6.90D-05 DE=-4.41D-07 OVMax= 5.86D-05

 Cycle   8  Pass 1  IDiag  1:
 E= -39.5636539305304     Delta-E=       -0.000000008231 Rises=F Damp=F
 DIIS: error= 1.78D-06 at cycle   8 NSaved=   8.
 NSaved= 8 IEnMin= 8 EnMin= -39.5636539305304     IErMin= 8 ErrMin= 1.78D-06
 ErrMax= 1.78D-06 EMaxC= 1.00D-01 BMatC= 1.43D-10 BMatP= 1.04D-08
 IDIUse=1 WtCom= 1.00D+00 WtEn= 0.00D+00
 Coeff-Com:  0.101D-03-0.195D-03-0.469D-02 0.140D-01-0.225D-01 0.551D-01
 Coeff-Com: -0.238D+00 0.120D+01
 Coeff:      0.101D-03-0.195D-03-0.469D-02 0.140D-01-0.225D-01 0.551D-01
 Coeff:     -0.238D+00 0.120D+01
 Gap=     0.576 Goal=   None    Shift=    0.000
 Gap=     0.702 Goal=   None    Shift=    0.000
 RMSDP=4.51D-07 MaxDP=9.90D-06 DE=-8.23D-09 OVMax= 8.13D-06

 Cycle   9  Pass 1  IDiag  1:
 E= -39.5636539306216     Delta-E=       -0.000000000091 Rises=F Damp=F
 DIIS: error= 2.80D-07 at cycle   9 NSaved=   9.
 NSaved= 9 IEnMin= 9 EnMin= -39.5636539306216     IErMin= 9 ErrMin= 2.80D-07
 ErrMax= 2.80D-07 EMaxC= 1.00D-01 BMatC= 4.14D-12 BMatP= 1.43D-10
 IDIUse=1 WtCom= 1.00D+00 WtEn= 0.00D+00
 Coeff-Com: -0.879D-05 0.883D-05 0.352D-03-0.109D-02 0.197D-02-0.735D-02
 Coeff-Com:  0.525D-01-0.381D+00 0.133D+01
 Coeff:     -0.879D-05 0.883D-05 0.352D-03-0.109D-02 0.197D-02-0.735D-02
 Coeff:      0.525D-01-0.381D+00 0.133D+01
 Gap=     0.576 Goal=   None    Shift=    0.000
 Gap=     0.702 Goal=   None    Shift=    0.000
 RMSDP=9.14D-08 MaxDP=1.50D-06 DE=-9.12D-11 OVMax= 1.24D-06

 Cycle  10  Pass 1  IDiag  1:
 E= -39.5636539306245     Delta-E=       -0.000000000003 Rises=F Damp=F
 DIIS: error= 5.92D-08 at cycle  10 NSaved=  10.
 NSaved=10 IEnMin=10 EnMin= -39.5636539306245     IErMin=10 ErrMin= 5.92D-08
 ErrMax= 5.92D-08 EMaxC= 1.00D-01 BMatC= 2.24D-13 BMatP= 4.14D-12
 IDIUse=1 WtCom= 1.00D+00 WtEn= 0.00D+00
 Coeff-Com:  0.260D-05-0.113D-05-0.936D-04 0.297D-03-0.579D-03 0.253D-02
 Coeff-Com: -0.200D-01 0.153D+00-0.652D+00 0.152D+01
 Coeff:      0.260D-05-0.113D-05-0.936D-04 0.297D-03-0.579D-03 0.253D-02
 Coeff:     -0.200D-01 0.153D+00-0.652D+00 0.152D+01
 Gap=     0.576 Goal=   None    Shift=    0.000
 Gap=     0.702 Goal=   None    Shift=    0.000
 RMSDP=1.78D-08 MaxDP=3.68D-07 DE=-2.86D-12 OVMax= 3.01D-07

 Cycle  11  Pass 1  IDiag  1:
 E= -39.5636539306247     Delta-E=       -0.000000000000 Rises=F Damp=F
 DIIS: error= 9.84D-09 at cycle  11 NSaved=  11.
 NSaved=11 IEnMin=11 EnMin= -39.5636539306247     IErMin=11 ErrMin= 9.84D-09
 ErrMax= 9.84D-09 EMaxC= 1.00D-01 BMatC= 6.76D-15 BMatP= 2.24D-13
 IDIUse=1 WtCom= 1.00D+00 WtEn= 0.00D+00
 Coeff-Com: -0.683D-07-0.739D-06-0.370D-05 0.660D-05 0.110D-04-0.292D-03
 Coeff-Com:  0.325D-02-0.283D-01 0.140D+00-0.487D+00 0.137D+01
 Coeff:     -0.683D-07-0.739D-06-0.370D-05 0.660D-05 0.110D-04-0.292D-03
 Coeff:      0.325D-02-0.283D-01 0.140D+00-0.487D+00 0.137D+01
 Gap=     0.576 Goal=   None    Shift=    0.000
 Gap=     0.702 Goal=   None    Shift=    0.000
 RMSDP=4.33D-09 MaxDP=5.64D-08 DE=-2.27D-13 OVMax= 4.64D-08

 SCF Done:  E(UHF) =  -39.5636539306     A.U. after   11 cycles
             Convg  =    0.4328D-08             -V/T =  2.0027
 <Sx>= 0.0000 <Sy>= 0.0000 <Sz>= 0.5000 <S**2>= 0.7617 S= 0.5058
 <L.S>=  0.00000000000    
 KE= 3.945766184653D+01 PE=-1.108444333499D+02 EE= 2.224352898002D+01
 Annihilation of the first spin contaminant:
 S**2 before annihilation     0.7617,   after     0.7501
 Leave Link  502 at Sun Aug 18 00:17:49 2024, MaxMem=   13107200 cpu:       0.1
 (Enter /programs/64bit/g09/g09-gfortran/bin/l801.exe)
 ExpMin= 1.22D-01 ExpMax= 6.66D+03 ExpMxC= 2.28D+02 IAcc=1 IRadAn=         1 AccDes= 0.00D+00
 HarFok:  IExCor=  205 AccDes= 0.00D+00 IRadAn=         1 IDoV=-2
 ScaDFX=  1.000000  1.000000  1.000000  1.000000
 Largest valence mixing into a core orbital is  9.01D-05
 Largest core mixing into a valence orbital is  3.05D-05
 Largest valence mixing into a core orbital is  1.39D-04
 Largest core mixing into a valence orbital is  4.91D-05
 Range of M.O.s used for correlation:     2    29
 NBasis=    29 NAE=     5 NBE=     4 NFC=     1 NFV=     0
 NROrb=     28 NOA=     4 NOB=     3 NVA=    24 NVB=    25
 Leave Link  801 at Sun Aug 18 00:17:49 2024, MaxMem=   13107200 cpu:       0.1
 (Enter /programs/64bit/g09/g09-gfortran/bin/l906.exe)
 Frozen-core derivative calculation, NFC=   1 NFV=   0.
 FulOut=F Deriv=T AODrv=T NAtomX=     4
   MMem=        1024  MDisk=           4 MDiskD=           4
  W3Min=        8700 MinDsk=       62315 NBas6D=          30
 NBas2D=         495    NTT=         465    LW2=     2040000
    MDV=    13081567 MDiskM=        5130 NBas2p=         370
 Fully direct method using O(ONN) memory.
 IMap=   1   2   3   4   5
 JobTyp=2 Pass  1:  I=   2 to   5 NPSUse=  1 ParTrn=F ParDer=F DoDerP=T.
 IMap=   1   2   3   4
 JobTyp=3 Pass  1:  I=   2 to   4 NPSUse=  1 ParTrn=F ParDer=F DoDerP=T.
 Spin components of T(2) and E(2):
     alpha-alpha T2 =       0.6449698640D-02 E2=     -0.1818601920D-01
     alpha-beta  T2 =       0.3431081094D-01 E2=     -0.1024593476D+00
     beta-beta   T2 =       0.2216195071D-02 E2=     -0.6340746466D-02
 The integrals were generated   2 times.
 (S**2,0)=  0.76172D+00           (S**2,1)=  0.75335D+00
 E(PUHF)=      -0.39566676616D+02        E(PMP2)=      -0.39692587101D+02
 ANorm=    0.1021262309D+01
 E2 =    -0.1269861133D+00 EUMP2 =    -0.39690640043886D+02
 Leave Link  906 at Sun Aug 18 00:17:50 2024, MaxMem=   13107200 cpu:       0.8
 (Enter /programs/64bit/g09/g09-gfortran/bin/l1002.exe)
 Minotr:  UHF open shell wavefunction.
          Computing MP2/KS-MP2 derivatives.
          Using Z-Vector for PSCF gradient.
          Skipping F1 and S1 gradient terms here.
          IDoAtm=1111
          Frozen-core window.
          Direct CPHF calculation.
          Differentiating once with respect to electric field.
                with respect to dipole field.
          Differentiating once with respect to nuclear coordinates.
          Using symmetry in CPHF.
          Requested convergence is 1.0D-10 RMS, and 1.0D-09 maximum.
          NewPWx=F KeepS1=T KeepF1=T KeepIn=T MapXYZ=F SortEE=F KeepMc=T.
          MDV=      13107156 using IRadAn=       0.
          Keep R1 and R2 ints in memory in canonical form, NReq=1037298.
 Symmetry not used in FoFDir.
 MinBra= 0 MaxBra= 2 Meth= 1.
 IRaf=       0 NMat=   1 IRICut=       1 DoRegI=T DoRafI=F ISym2E= 0 JSym2E=0.
          Solving linear equations separately, MaxMat=       0.
          There are     1 degrees of freedom in the 1st order CPHF.  IDoFFX=0.
 LinEq1:  Iter=  0 NonCon=     1 RMS=1.99D-03 Max=1.18D-02
 AX will form     1 AO Fock derivatives at one time.
 LinEq1:  Iter=  1 NonCon=     1 RMS=5.58D-04 Max=4.38D-03
 LinEq1:  Iter=  2 NonCon=     1 RMS=2.30D-04 Max=1.54D-03
 LinEq1:  Iter=  3 NonCon=     1 RMS=3.57D-05 Max=2.29D-04
 LinEq1:  Iter=  4 NonCon=     1 RMS=4.40D-06 Max=2.77D-05
 LinEq1:  Iter=  5 NonCon=     1 RMS=4.31D-07 Max=2.36D-06
 LinEq1:  Iter=  6 NonCon=     1 RMS=3.36D-08 Max=2.01D-07
 LinEq1:  Iter=  7 NonCon=     1 RMS=3.56D-09 Max=1.92D-08
 LinEq1:  Iter=  8 NonCon=     1 RMS=4.39D-10 Max=2.36D-09
 LinEq1:  Iter=  9 NonCon=     0 RMS=3.96D-11 Max=2.08D-10
 Linear equations converged to 1.000D-10 1.000D-09 after     9 iterations.
 End of Minotr Frequency-dependent properties file   721 does not exist.
 End of Minotr Frequency-dependent properties file   722 does not exist.
 Leave Link 1002 at Sun Aug 18 00:17:50 2024, MaxMem=   13107200 cpu:       0.1
 (Enter /programs/64bit/g09/g09-gfortran/bin/l601.exe)
 Copying SCF densities to generalized density rwf, IOpCl= 1 IROHF=0.

 **********************************************************************

            Population analysis using the SCF density.

 **********************************************************************

 Orbital symmetries:
 Alpha Orbitals:
       Occupied  (A) (A) (A) (B) (B)
       Virtual   (A) (A) (B) (B) (A) (B) (A) (A) (B) (A) (B) (A)
                 (B) (B) (A) (A) (B) (B) (A) (B) (A) (A) (A) (B)
 Beta  Orbitals:
       Occupied  (A) (A) (A) (B)
       Virtual   (B) (A) (A) (B) (B) (A) (A) (B) (A) (B) (A) (B)
                 (A) (B) (B) (A) (A) (B) (B) (A) (B) (A) (A) (A)
                 (B)
 The electronic state is 2-B.
 Alpha  occ. eigenvalues --  -11.24253  -0.94221  -0.57367  -0.57367  -0.38332
 Alpha virt. eigenvalues --    0.19250   0.26715   0.26715   0.61533   0.61533
 Alpha virt. eigenvalues --    0.66841   0.69417   0.89255   0.89255   1.05230
 Alpha virt. eigenvalues --    1.18393   1.18393   1.61760   1.71569   1.71569
 Alpha virt. eigenvalues --    1.75125   1.86336   2.11528   2.11528   2.38025
 Alpha virt. eigenvalues --    2.38025   2.77143   2.84130   2.84130
  Beta  occ. eigenvalues --  -11.21799  -0.84914  -0.55859  -0.55859
  Beta virt. eigenvalues --    0.14309   0.20876   0.27440   0.27440   0.61922
  Beta virt. eigenvalues --    0.61922   0.74419   0.81543   0.90638   0.90638
  Beta virt. eigenvalues --    1.08845   1.24958   1.24958   1.61293   1.72020
  Beta virt. eigenvalues --    1.72020   1.82420   1.87675   2.14714   2.14714
  Beta virt. eigenvalues --    2.38444   2.38444   2.77720   2.85065   2.85065
     Alpha Molecular Orbital Coefficients:
                           1         2         3         4         5
                           O         O         O         O         O
     Eigenvalues --   -11.24253  -0.94221  -0.57367  -0.57367  -0.38332
   1 1   C  1S          0.99704  -0.19651   0.00000   0.00000   0.00000
   2        2S          0.01938   0.39139   0.00000   0.00000   0.00000
   3        3S         -0.00694   0.33813   0.00000   0.00000   0.00000
   4        4PX         0.00000   0.00000   0.00000   0.00000   0.60660
   5        4PY         0.00000   0.00000   0.00000   0.44186   0.00000
   6        4PZ         0.00000   0.00000   0.44186   0.00000   0.00000
   7        5PX         0.00000   0.00000   0.00000  -0.00000   0.51623
   8        5PY         0.00000   0.00000   0.00000   0.20061   0.00000
   9        5PZ        -0.00000   0.00000   0.20061   0.00000   0.00000
  10        6D 0        0.00005  -0.00946   0.02060   0.00000   0.00000
  11        6D+1        0.00000   0.00000   0.00000   0.00000   0.00000
  12        6D-1        0.00000   0.00000   0.00000  -0.02378  -0.00000
  13        6D+2       -0.00008   0.01638   0.01189   0.00000   0.00000
  14        6D-2       -0.00000   0.00000  -0.00000   0.00000   0.00000
  15 2   H  1S         -0.00041   0.18731   0.35792   0.00000   0.00000
  16        2S          0.00133   0.01855   0.12261   0.00000   0.00000
  17        3PX         0.00000   0.00000   0.00000   0.00000   0.01873
  18        3PY         0.00000   0.00000   0.00000   0.01147  -0.00000
  19        3PZ         0.00063  -0.02899  -0.02316   0.00000   0.00000
  20 3   H  1S         -0.00041   0.18731  -0.17896   0.30997  -0.00000
  21        2S          0.00133   0.01855  -0.06131   0.10619  -0.00000
  22        3PX        -0.00000   0.00000  -0.00000   0.00000   0.01873
  23        3PY         0.00054  -0.02511   0.01500  -0.01450   0.00000
  24        3PZ        -0.00031   0.01450   0.00281   0.01500  -0.00000
  25 4   H  1S         -0.00041   0.18731  -0.17896  -0.30997   0.00000
  26        2S          0.00133   0.01855  -0.06131  -0.10619   0.00000
  27        3PX         0.00000  -0.00000   0.00000   0.00000   0.01873
  28        3PY        -0.00054   0.02511  -0.01500  -0.01450   0.00000
  29        3PZ        -0.00031   0.01450   0.00281  -0.01500   0.00000
                           6         7         8         9        10
                           V         V         V         V         V
     Eigenvalues --     0.19250   0.26715   0.26715   0.61533   0.61533
   1 1   C  1S         -0.12493  -0.00000   0.00000   0.00000  -0.00000
   2        2S          0.11681   0.00000   0.00000   0.00000  -0.00000
   3        3S          2.14404   0.00000   0.00000   0.00000   0.00000
   4        4PX         0.00000   0.00000   0.00000   0.00000   0.00000
   5        4PY         0.00000   0.00000  -0.29916  -0.31340   0.00000
   6        4PZ         0.00000  -0.29916   0.00000   0.00000  -0.31340
   7        5PX         0.00000   0.00000   0.00000  -0.00000   0.00000
   8        5PY         0.00000   0.00000  -1.43741   1.45217   0.00000
   9        5PZ         0.00000  -1.43741   0.00000   0.00000   1.45217
  10        6D 0        0.00588  -0.01937   0.00000   0.00000  -0.10900
  11        6D+1        0.00000   0.00000   0.00000   0.00000   0.00000
  12        6D-1        0.00000   0.00000   0.02237   0.12586   0.00000
  13        6D+2       -0.01018  -0.01118   0.00000   0.00000  -0.06293
  14        6D-2        0.00000   0.00000   0.00000   0.00000  -0.00000
  15 2   H  1S         -0.04546   0.02382   0.00000   0.00000  -0.77855
  16        2S         -1.02486   2.16183   0.00000   0.00000  -0.21730
  17        3PX         0.00000   0.00000   0.00000  -0.00000   0.00000
  18        3PY         0.00000   0.00000  -0.00323   0.06953   0.00000
  19        3PZ         0.01740  -0.02784   0.00000   0.00000  -0.00172
  20 3   H  1S         -0.04546  -0.01191   0.02063  -0.67425   0.38928
  21        2S         -1.02486  -1.08092   1.87220  -0.18818   0.10865
  22        3PX         0.00000   0.00000  -0.00000   0.00000  -0.00000
  23        3PY         0.01506   0.01065  -0.02168   0.01610   0.03085
  24        3PZ        -0.00870  -0.00938   0.01065   0.03085   0.05172
  25 4   H  1S         -0.04546  -0.01191  -0.02063   0.67425   0.38928
  26        2S         -1.02486  -1.08092  -1.87220   0.18818   0.10865
  27        3PX        -0.00000  -0.00000  -0.00000   0.00000   0.00000
  28        3PY        -0.01506  -0.01065  -0.02168   0.01610  -0.03085
  29        3PZ        -0.00870  -0.00938  -0.01065  -0.03085   0.05172
                          11        12        13        14        15
                           V         V         V         V         V
     Eigenvalues --     0.66841   0.69417   0.89255   0.89255   1.05230
   1 1   C  1S          0.00000   0.07589  -0.00000   0.00000  -0.01190
   2        2S          0.00000   0.07937  -0.00000   0.00000  -1.82345
   3        3S          0.00000  -0.47963   0.00000   0.00000   4.00310
   4        4PX        -0.99106   0.00000   0.00000   0.00000   0.00000
   5        4PY        -0.00000   0.00000   0.00000  -0.83357   0.00000
   6        4PZ         0.00000  -0.00000  -0.83357   0.00000   0.00000
   7        5PX         1.08785   0.00000   0.00000  -0.00000   0.00000
   8        5PY         0.00000   0.00000   0.00000   1.71559   0.00000
   9        5PZ         0.00000   0.00000   1.71559   0.00000  -0.00000
  10        6D 0        0.00000   0.15032   0.29304   0.00000   0.02327
  11        6D+1       -0.00000   0.00000   0.00000   0.00000   0.00000
  12        6D-1       -0.00000   0.00000   0.00000  -0.33838   0.00000
  13        6D+2        0.00000  -0.26037   0.16919   0.00000  -0.04031
  14        6D-2        0.00000  -0.00000  -0.00000   0.00000   0.00000
  15 2   H  1S          0.00000   0.66159   0.36732   0.00000  -0.07122
  16        2S          0.00000  -0.27795  -1.70600   0.00000  -0.96083
  17        3PX        -0.04880   0.00000   0.00000   0.00000   0.00000
  18        3PY        -0.00000   0.00000   0.00000  -0.06790   0.00000
  19        3PZ         0.00000   0.11116   0.28348   0.00000   0.18373
  20 3   H  1S          0.00000   0.66159  -0.18366   0.31811  -0.07122
  21        2S         -0.00000  -0.27795   0.85300  -1.47744  -0.96083
  22        3PX        -0.04880  -0.00000  -0.00000  -0.00000  -0.00000
  23        3PY         0.00000   0.09626  -0.15215   0.19563   0.15912
  24        3PZ        -0.00000  -0.05558   0.01994  -0.15215  -0.09187
  25 4   H  1S         -0.00000   0.66159  -0.18366  -0.31811  -0.07122
  26        2S          0.00000  -0.27795   0.85300   1.47744  -0.96083
  27        3PX        -0.04880   0.00000   0.00000  -0.00000   0.00000
  28        3PY         0.00000  -0.09626   0.15215   0.19563  -0.15912
  29        3PZ         0.00000  -0.05558   0.01994   0.15215  -0.09187
                          16        17        18        19        20
                           V         V         V         V         V
     Eigenvalues --     1.18393   1.18393   1.61760   1.71569   1.71569
   1 1   C  1S          0.00000  -0.00000   0.00000   0.00000  -0.00000
   2        2S          0.00000  -0.00000   0.00000   0.00000  -0.00000
   3        3S          0.00000   0.00000   0.00000   0.00000   0.00000
   4        4PX        -0.00000   0.00000  -0.00000   0.00000   0.00000
   5        4PY         0.00000   0.00000  -0.00000  -0.01782   0.00000
   6        4PZ         0.00000  -0.00000   0.00000   0.00000  -0.01782
   7        5PX        -0.00000   0.00000  -0.00000   0.00000   0.00000
   8        5PY        -0.00000   0.00000  -0.00000   1.16716   0.00000
   9        5PZ         0.00000   0.00000   0.00000   0.00000   1.16716
  10        6D 0        0.00000   0.00000   0.00000   0.00000   0.44570
  11        6D+1        0.64772   0.00000  -0.00000  -0.00000   0.00000
  12        6D-1        0.00000   0.00000   0.00000  -0.51466   0.00000
  13        6D+2        0.00000  -0.00000   0.00000   0.00000   0.25733
  14        6D-2        0.00000   0.64772   0.00000   0.00000   0.00000
  15 2   H  1S          0.00000  -0.00000   0.00000   0.00000  -0.74761
  16        2S          0.00000  -0.00000   0.00000   0.00000  -0.32178
  17        3PX         0.39674   0.00000   0.00000  -0.00000   0.00000
  18        3PY         0.00000   0.00000   0.59393  -0.56287   0.00000
  19        3PZ         0.00000   0.00000   0.00000   0.00000  -0.27354
  20 3   H  1S         -0.00000  -0.00000   0.00000  -0.64745   0.37381
  21        2S          0.00000   0.00000   0.00000  -0.27867   0.16089
  22        3PX        -0.19837   0.34358   0.00000  -0.00000   0.00000
  23        3PY        -0.00000   0.00000  -0.29697  -0.34587  -0.12529
  24        3PZ         0.00000  -0.00000  -0.51436  -0.12529  -0.49054
  25 4   H  1S          0.00000  -0.00000  -0.00000   0.64745   0.37381
  26        2S         -0.00000   0.00000  -0.00000   0.27867   0.16089
  27        3PX        -0.19837  -0.34358   0.00000  -0.00000  -0.00000
  28        3PY        -0.00000  -0.00000  -0.29697  -0.34587   0.12529
  29        3PZ        -0.00000  -0.00000   0.51436   0.12529  -0.49054
                          21        22        23        24        25
                           V         V         V         V         V
     Eigenvalues --     1.75125   1.86336   2.11528   2.11528   2.38025
   1 1   C  1S         -0.06010   0.00000   0.00000  -0.00000   0.00000
   2        2S         -0.61499   0.00000   0.00000  -0.00000   0.00000
   3        3S          1.48972   0.00000   0.00000   0.00000   0.00000
   4        4PX         0.00000  -0.27808  -0.00000   0.00000  -0.00000
   5        4PY         0.00000  -0.00000   0.00000   0.00000  -0.57897
   6        4PZ        -0.00000   0.00000   0.00000  -0.00000   0.00000
   7        5PX         0.00000  -0.42168  -0.00000   0.00000   0.00000
   8        5PY         0.00000   0.00000   0.00000   0.00000  -0.60471
   9        5PZ        -0.00000   0.00000   0.00000  -0.00000   0.00000
  10        6D 0        0.52106   0.00000   0.00000   0.00000   0.00000
  11        6D+1        0.00000  -0.00000   1.01094   0.00000   0.00000
  12        6D-1        0.00000  -0.00000   0.00000   0.00000  -0.69849
  13        6D+2       -0.90250   0.00000   0.00000  -0.00000   0.00000
  14        6D-2       -0.00000   0.00000   0.00000   1.01094   0.00000
  15 2   H  1S         -0.55181   0.00000   0.00000  -0.00000   0.00000
  16        2S         -0.12873   0.00000   0.00000   0.00000   0.00000
  17        3PX         0.00000   0.66663  -0.90174   0.00000  -0.00000
  18        3PY         0.00000  -0.00000  -0.00000   0.00000   0.84299
  19        3PZ        -0.13924   0.00000   0.00000  -0.00000   0.00000
  20 3   H  1S         -0.55181  -0.00000   0.00000  -0.00000   0.00591
  21        2S         -0.12873  -0.00000  -0.00000  -0.00000   0.55928
  22        3PX         0.00000   0.66663   0.45087  -0.78093   0.00000
  23        3PY        -0.12058  -0.00000  -0.00000   0.00000  -0.21206
  24        3PZ         0.06962   0.00000  -0.00000   0.00000   0.60913
  25 4   H  1S         -0.55181   0.00000  -0.00000  -0.00000  -0.00591
  26        2S         -0.12873   0.00000   0.00000  -0.00000  -0.55928
  27        3PX        -0.00000   0.66663   0.45087   0.78093   0.00000
  28        3PY         0.12058  -0.00000  -0.00000  -0.00000  -0.21206
  29        3PZ         0.06962  -0.00000   0.00000   0.00000  -0.60913
                          26        27        28        29
                           V         V         V         V
     Eigenvalues --     2.38025   2.77143   2.84130   2.84130
   1 1   C  1S          0.00000  -0.05727  -0.00000   0.00000
   2        2S         -0.00000   1.31585   0.00000   0.00000
   3        3S         -0.00000   1.82874   0.00000   0.00000
   4        4PX         0.00000   0.00000   0.00000   0.00000
   5        4PY         0.00000   0.00000   0.00000  -1.33911
   6        4PZ        -0.57897   0.00000  -1.33911   0.00000
   7        5PX         0.00000   0.00000   0.00000   0.00000
   8        5PY         0.00000   0.00000   0.00000  -0.73812
   9        5PZ        -0.60471   0.00000  -0.73812   0.00000
  10        6D 0        0.60491   0.45778  -1.38591   0.00000
  11        6D+1        0.00000   0.00000   0.00000  -0.00000
  12        6D-1        0.00000   0.00000   0.00000   1.60031
  13        6D+2        0.34925  -0.79290  -0.80016   0.00000
  14        6D-2       -0.00000   0.00000   0.00000   0.00000
  15 2   H  1S          0.00682  -0.90841   1.47704   0.00000
  16        2S          0.64580  -0.39638   0.47699   0.00000
  17        3PX         0.00000   0.00000   0.00000   0.00000
  18        3PY         0.00000   0.00000   0.00000  -0.45310
  19        3PZ        -0.56374   0.98671  -1.24830   0.00000
  20 3   H  1S         -0.00341  -0.90841  -0.73852   1.27915
  21        2S         -0.32290  -0.39638  -0.23849   0.41308
  22        3PX         0.00000  -0.00000  -0.00000  -0.00000
  23        3PY         0.60913   0.85452   0.34433  -1.04950
  24        3PZ         0.49131  -0.49336  -0.65190   0.34433
  25 4   H  1S         -0.00341  -0.90841  -0.73852  -1.27915
  26        2S         -0.32290  -0.39638  -0.23849  -0.41308
  27        3PX        -0.00000   0.00000   0.00000  -0.00000
  28        3PY        -0.60913  -0.85452  -0.34433  -1.04950
  29        3PZ         0.49131  -0.49336  -0.65190  -0.34433
     Beta Molecular Orbital Coefficients:
                           1         2         3         4         5
                           O         O         O         O         V
     Eigenvalues --   -11.21799  -0.84914  -0.55859  -0.55859   0.14309
   1 1   C  1S          0.99757  -0.18374   0.00000   0.00000   0.00000
   2        2S          0.01604   0.35724  -0.00000   0.00000   0.00000
   3        3S         -0.00595   0.25538  -0.00000   0.00000   0.00000
   4        4PX         0.00000   0.00000   0.00000  -0.00000   0.36616
   5        4PY         0.00000   0.00000   0.00000   0.40781   0.00000
   6        4PZ         0.00000   0.00000   0.40781   0.00000   0.00000
   7        5PX         0.00000   0.00000   0.00000  -0.00000   0.73709
   8        5PY         0.00000   0.00000   0.00000   0.16268   0.00000
   9        5PZ        -0.00000   0.00000   0.16268   0.00000   0.00000
  10        6D 0        0.00065   0.01242   0.02003   0.00000   0.00000
  11        6D+1        0.00000   0.00000   0.00000   0.00000   0.00000
  12        6D-1        0.00000   0.00000   0.00000  -0.02312  -0.00000
  13        6D+2       -0.00112  -0.02152   0.01156   0.00000   0.00000
  14        6D-2       -0.00000   0.00000  -0.00000   0.00000   0.00000
  15 2   H  1S         -0.00038   0.22063   0.39018   0.00000   0.00000
  16        2S          0.00112   0.04423   0.16051   0.00000   0.00000
  17        3PX         0.00000   0.00000   0.00000  -0.00000   0.01966
  18        3PY         0.00000   0.00000   0.00000   0.01306  -0.00000
  19        3PZ         0.00042  -0.02675  -0.02193   0.00000   0.00000
  20 3   H  1S         -0.00038   0.22063  -0.19509   0.33790  -0.00000
  21        2S          0.00112   0.04423  -0.08025   0.13900  -0.00000
  22        3PX        -0.00000   0.00000   0.00000  -0.00000   0.01966
  23        3PY         0.00036  -0.02317   0.01515  -0.01318   0.00000
  24        3PZ        -0.00021   0.01338   0.00431   0.01515  -0.00000
  25 4   H  1S         -0.00038   0.22063  -0.19509  -0.33790   0.00000
  26        2S          0.00112   0.04423  -0.08025  -0.13900   0.00000
  27        3PX         0.00000  -0.00000  -0.00000  -0.00000   0.01966
  28        3PY        -0.00036   0.02317  -0.01515  -0.01318   0.00000
  29        3PZ        -0.00021   0.01338   0.00431  -0.01515   0.00000
                           6         7         8         9        10
                           V         V         V         V         V
     Eigenvalues --     0.20876   0.27440   0.27440   0.61922   0.61922
   1 1   C  1S         -0.13141  -0.00000   0.00000   0.00000  -0.00000
   2        2S          0.09883   0.00000   0.00000   0.00000  -0.00000
   3        3S          2.21726   0.00000   0.00000   0.00000   0.00000
   4        4PX         0.00000   0.00000   0.00000   0.00000   0.00000
   5        4PY         0.00000   0.00000  -0.29548  -0.28395   0.00000
   6        4PZ         0.00000  -0.29548   0.00000   0.00000  -0.28395
   7        5PX         0.00000   0.00000   0.00000  -0.00000   0.00000
   8        5PY         0.00000   0.00000  -1.46539   1.41600   0.00000
   9        5PZ         0.00000  -1.46539   0.00000   0.00000   1.41600
  10        6D 0        0.02127  -0.02363   0.00000   0.00000  -0.10815
  11        6D+1        0.00000   0.00000   0.00000  -0.00000   0.00000
  12        6D-1        0.00000   0.00000   0.02729   0.12488   0.00000
  13        6D+2       -0.03684  -0.01365   0.00000   0.00000  -0.06244
  14        6D-2        0.00000   0.00000   0.00000   0.00000  -0.00000
  15 2   H  1S         -0.01805   0.00235   0.00000   0.00000  -0.78882
  16        2S         -1.04867   2.18037   0.00000   0.00000  -0.17536
  17        3PX         0.00000   0.00000   0.00000  -0.00000   0.00000
  18        3PY         0.00000   0.00000  -0.00481   0.07469   0.00000
  19        3PZ         0.01870  -0.02749   0.00000   0.00000  -0.00653
  20 3   H  1S         -0.01805  -0.00117   0.00203  -0.68313   0.39441
  21        2S         -1.04867  -1.09018   1.88825  -0.15186   0.08768
  22        3PX         0.00000   0.00000   0.00000   0.00000  -0.00000
  23        3PY         0.01620   0.00982  -0.02182   0.01377   0.03517
  24        3PZ        -0.00935  -0.01048   0.00982   0.03517   0.05438
  25 4   H  1S         -0.01805  -0.00117  -0.00203   0.68313   0.39441
  26        2S         -1.04867  -1.09018  -1.88825   0.15186   0.08768
  27        3PX        -0.00000  -0.00000   0.00000   0.00000   0.00000
  28        3PY        -0.01620  -0.00982  -0.02182   0.01377  -0.03517
  29        3PZ        -0.00935  -0.01048  -0.00982  -0.03517   0.05438
                          11        12        13        14        15
                           V         V         V         V         V
     Eigenvalues --     0.74419   0.81543   0.90638   0.90638   1.08845
   1 1   C  1S          0.09575   0.00000  -0.00000   0.00000  -0.01288
   2        2S          0.01978   0.00000  -0.00000   0.00000  -1.81417
   3        3S         -0.54375   0.00000   0.00000   0.00000   3.99756
   4        4PX         0.00000   1.09379   0.00000  -0.00000   0.00000
   5        4PY         0.00000  -0.00000   0.00000  -0.84782   0.00000
   6        4PZ        -0.00000   0.00000  -0.84782   0.00000   0.00000
   7        5PX         0.00000  -0.95632   0.00000  -0.00000   0.00000
   8        5PY         0.00000   0.00000   0.00000   1.72496   0.00000
   9        5PZ         0.00000   0.00000   1.72496   0.00000  -0.00000
  10        6D 0        0.11688   0.00000   0.28914   0.00000   0.01946
  11        6D+1        0.00000   0.00000   0.00000  -0.00000   0.00000
  12        6D-1        0.00000  -0.00000   0.00000  -0.33387   0.00000
  13        6D+2       -0.20244   0.00000   0.16694   0.00000  -0.03371
  14        6D-2       -0.00000   0.00000  -0.00000   0.00000   0.00000
  15 2   H  1S          0.68194   0.00000   0.33682   0.00000  -0.10034
  16        2S         -0.26188   0.00000  -1.68452   0.00000  -0.94056
  17        3PX         0.00000   0.06792   0.00000  -0.00000   0.00000
  18        3PY         0.00000  -0.00000   0.00000  -0.06766   0.00000
  19        3PZ         0.12339   0.00000   0.29223   0.00000   0.18884
  20 3   H  1S          0.68194   0.00000  -0.16841   0.29170  -0.10034
  21        2S         -0.26188  -0.00000   0.84226  -1.45883  -0.94056
  22        3PX         0.00000   0.06792  -0.00000  -0.00000   0.00000
  23        3PY         0.10686   0.00000  -0.15584   0.20226   0.16354
  24        3PZ        -0.06170  -0.00000   0.02231  -0.15584  -0.09442
  25 4   H  1S          0.68194  -0.00000  -0.16841  -0.29170  -0.10034
  26        2S         -0.26188   0.00000   0.84226   1.45883  -0.94056
  27        3PX        -0.00000   0.06792   0.00000  -0.00000  -0.00000
  28        3PY        -0.10686   0.00000   0.15584   0.20226  -0.16354
  29        3PZ        -0.06170   0.00000   0.02231   0.15584  -0.09442
                          16        17        18        19        20
                           V         V         V         V         V
     Eigenvalues --     1.24958   1.24958   1.61293   1.72020   1.72020
   1 1   C  1S          0.00000  -0.00000   0.00000   0.00000  -0.00000
   2        2S          0.00000   0.00000   0.00000   0.00000  -0.00000
   3        3S          0.00000  -0.00000   0.00000   0.00000   0.00000
   4        4PX        -0.00000   0.00000  -0.00000   0.00000   0.00000
   5        4PY        -0.00000   0.00000  -0.00000  -0.02116   0.00000
   6        4PZ         0.00000  -0.00000   0.00000   0.00000  -0.02116
   7        5PX        -0.00000   0.00000  -0.00000   0.00000   0.00000
   8        5PY         0.00000   0.00000  -0.00000   1.17423   0.00000
   9        5PZ         0.00000   0.00000   0.00000   0.00000   1.17423
  10        6D 0        0.00000  -0.00000   0.00000   0.00000   0.43216
  11        6D+1        0.60360   0.00000   0.00000   0.00000   0.00000
  12        6D-1        0.00000   0.00000   0.00000  -0.49902   0.00000
  13        6D+2        0.00000  -0.00000   0.00000   0.00000   0.24951
  14        6D-2        0.00000   0.60360   0.00000   0.00000   0.00000
  15 2   H  1S          0.00000   0.00000   0.00000   0.00000  -0.73193
  16        2S          0.00000  -0.00000   0.00000   0.00000  -0.33082
  17        3PX         0.43519   0.00000   0.00000  -0.00000   0.00000
  18        3PY        -0.00000   0.00000   0.59393  -0.57376   0.00000
  19        3PZ         0.00000   0.00000   0.00000   0.00000  -0.27616
  20 3   H  1S          0.00000  -0.00000   0.00000  -0.63387   0.36597
  21        2S         -0.00000   0.00000   0.00000  -0.28650   0.16541
  22        3PX        -0.21760   0.37689   0.00000  -0.00000  -0.00000
  23        3PY        -0.00000   0.00000  -0.29697  -0.35056  -0.12886
  24        3PZ        -0.00000  -0.00000  -0.51436  -0.12886  -0.49936
  25 4   H  1S         -0.00000  -0.00000  -0.00000   0.63387   0.36597
  26        2S          0.00000   0.00000  -0.00000   0.28650   0.16541
  27        3PX        -0.21760  -0.37689   0.00000  -0.00000   0.00000
  28        3PY        -0.00000  -0.00000  -0.29697  -0.35056   0.12886
  29        3PZ         0.00000  -0.00000   0.51436   0.12886  -0.49936
                          21        22        23        24        25
                           V         V         V         V         V
     Eigenvalues --     1.82420   1.87675   2.14714   2.14714   2.38444
   1 1   C  1S         -0.04794   0.00000   0.00000   0.00000   0.00000
   2        2S         -0.64338   0.00000   0.00000  -0.00000   0.00000
   3        3S          1.41733   0.00000   0.00000  -0.00000   0.00000
   4        4PX         0.00000  -0.31152  -0.00000   0.00000  -0.00000
   5        4PY         0.00000  -0.00000  -0.00000   0.00000  -0.59067
   6        4PZ        -0.00000   0.00000   0.00000  -0.00000   0.00000
   7        5PX         0.00000  -0.41216  -0.00000   0.00000   0.00000
   8        5PY         0.00000   0.00000  -0.00000   0.00000  -0.59676
   9        5PZ        -0.00000   0.00000   0.00000  -0.00000   0.00000
  10        6D 0        0.52594   0.00000   0.00000   0.00000   0.00000
  11        6D+1        0.00000  -0.00000   1.03789   0.00000  -0.00000
  12        6D-1        0.00000  -0.00000   0.00000   0.00000  -0.69865
  13        6D+2       -0.91095   0.00000   0.00000   0.00000   0.00000
  14        6D-2       -0.00000   0.00000   0.00000   1.03789   0.00000
  15 2   H  1S         -0.51051   0.00000   0.00000   0.00000   0.00000
  16        2S         -0.12802   0.00000   0.00000   0.00000   0.00000
  17        3PX         0.00000   0.66493  -0.88382   0.00000   0.00000
  18        3PY         0.00000  -0.00000   0.00000   0.00000   0.83541
  19        3PZ        -0.13718   0.00000   0.00000  -0.00000   0.00000
  20 3   H  1S         -0.51051  -0.00000   0.00000   0.00000   0.00855
  21        2S         -0.12802  -0.00000   0.00000  -0.00000   0.55625
  22        3PX        -0.00000   0.66493   0.44191  -0.76541  -0.00000
  23        3PY        -0.11880  -0.00000  -0.00000   0.00000  -0.21837
  24        3PZ         0.06859   0.00000   0.00000   0.00000   0.60840
  25 4   H  1S         -0.51051   0.00000  -0.00000   0.00000  -0.00855
  26        2S         -0.12802   0.00000  -0.00000  -0.00000  -0.55625
  27        3PX         0.00000   0.66493   0.44191   0.76541  -0.00000
  28        3PY         0.11880  -0.00000  -0.00000  -0.00000  -0.21837
  29        3PZ         0.06859  -0.00000  -0.00000   0.00000  -0.60840
                          26        27        28        29
                           V         V         V         V
     Eigenvalues --     2.38444   2.77720   2.85065   2.85065
   1 1   C  1S          0.00000  -0.05746  -0.00000   0.00000
   2        2S         -0.00000   1.32852   0.00000   0.00000
   3        3S         -0.00000   1.80645   0.00000   0.00000
   4        4PX         0.00000   0.00000   0.00000   0.00000
   5        4PY         0.00000   0.00000   0.00000  -1.34319
   6        4PZ        -0.59067   0.00000  -1.34319   0.00000
   7        5PX         0.00000   0.00000   0.00000   0.00000
   8        5PY         0.00000   0.00000   0.00000  -0.73613
   9        5PZ        -0.59676   0.00000  -0.73613   0.00000
  10        6D 0        0.60505   0.46159  -1.39096   0.00000
  11        6D+1        0.00000   0.00000   0.00000  -0.00000
  12        6D-1        0.00000   0.00000   0.00000   1.60614
  13        6D+2        0.34933  -0.79950  -0.80307   0.00000
  14        6D-2       -0.00000  -0.00000   0.00000   0.00000
  15 2   H  1S          0.00988  -0.90823   1.47872   0.00000
  16        2S          0.64231  -0.39184   0.47354   0.00000
  17        3PX         0.00000   0.00000   0.00000   0.00000
  18        3PY         0.00000   0.00000   0.00000  -0.45264
  19        3PZ        -0.56963   0.98462  -1.24304   0.00000
  20 3   H  1S         -0.00494  -0.90823  -0.73936   1.28061
  21        2S         -0.32115  -0.39184  -0.23677   0.41010
  22        3PX         0.00000  -0.00000  -0.00000  -0.00000
  23        3PY         0.60840   0.85271   0.34225  -1.04544
  24        3PZ         0.48415  -0.49231  -0.65024   0.34225
  25 4   H  1S         -0.00494  -0.90823  -0.73936  -1.28061
  26        2S         -0.32115  -0.39184  -0.23677  -0.41010
  27        3PX        -0.00000   0.00000   0.00000  -0.00000
  28        3PY        -0.60840  -0.85271  -0.34225  -1.04544
  29        3PZ         0.48415  -0.49231  -0.65024  -0.34225
     Alpha Density Matrix:
                           1         2         3         4         5
   1 1   C  1S          1.03271
   2        2S         -0.05759   0.15356
   3        3S         -0.07336   0.13221   0.11438
   4        4PX         0.00000   0.00000   0.00000   0.36796
   5        4PY         0.00000   0.00000   0.00000   0.00000   0.19524
   6        4PZ        -0.00000   0.00000   0.00000   0.00000   0.00000
   7        5PX         0.00000   0.00000   0.00000   0.31315   0.00000
   8        5PY         0.00000   0.00000   0.00000   0.00000   0.08864
   9        5PZ        -0.00000   0.00000   0.00000   0.00000   0.00000
  10        6D 0        0.00191  -0.00370  -0.00320   0.00000   0.00000
  11        6D+1        0.00000   0.00000   0.00000   0.00000   0.00000
  12        6D-1        0.00000   0.00000   0.00000  -0.00000  -0.01051
  13        6D+2       -0.00330   0.00641   0.00554   0.00000   0.00000
  14        6D-2       -0.00000   0.00000   0.00000   0.00000   0.00000
  15 2   H  1S         -0.03722   0.07330   0.06334   0.00000   0.00000
  16        2S         -0.00232   0.00729   0.00626   0.00000   0.00000
  17        3PX         0.00000   0.00000   0.00000   0.01136   0.00000
  18        3PY         0.00000   0.00000   0.00000  -0.00000   0.00507
  19        3PZ         0.00632  -0.01133  -0.00981   0.00000   0.00000
  20 3   H  1S         -0.03722   0.07330   0.06334  -0.00000   0.13696
  21        2S         -0.00232   0.00729   0.00626  -0.00000   0.04692
  22        3PX        -0.00000   0.00000   0.00000   0.01136   0.00000
  23        3PY         0.00548  -0.00982  -0.00849   0.00000  -0.00641
  24        3PZ        -0.00316   0.00567   0.00490  -0.00000   0.00663
  25 4   H  1S         -0.03722   0.07330   0.06334   0.00000  -0.13696
  26        2S         -0.00232   0.00729   0.00626   0.00000  -0.04692
  27        3PX         0.00000  -0.00000  -0.00000   0.01136   0.00000
  28        3PY        -0.00548   0.00982   0.00849   0.00000  -0.00641
  29        3PZ        -0.00316   0.00567   0.00490   0.00000  -0.00663
                           6         7         8         9        10
   6        4PZ         0.19524
   7        5PX         0.00000   0.26650
   8        5PY         0.00000   0.00000   0.04024
   9        5PZ         0.08864   0.00000   0.00000   0.04024
  10        6D 0        0.00910   0.00000   0.00000   0.00413   0.00051
  11        6D+1        0.00000   0.00000   0.00000   0.00000   0.00000
  12        6D-1        0.00000  -0.00000  -0.00477   0.00000   0.00000
  13        6D+2        0.00525   0.00000   0.00000   0.00239   0.00009
  14        6D-2       -0.00000   0.00000   0.00000  -0.00000  -0.00000
  15 2   H  1S          0.15815   0.00000   0.00000   0.07180   0.00560
  16        2S          0.05418   0.00000   0.00000   0.02460   0.00235
  17        3PX         0.00000   0.00967   0.00000   0.00000   0.00000
  18        3PY         0.00000  -0.00000   0.00230   0.00000   0.00000
  19        3PZ        -0.01024   0.00000   0.00000  -0.00465  -0.00020
  20 3   H  1S         -0.07908  -0.00000   0.06218  -0.03590  -0.00546
  21        2S         -0.02709  -0.00000   0.02130  -0.01230  -0.00144
  22        3PX        -0.00000   0.00967   0.00000  -0.00000  -0.00000
  23        3PY         0.00663   0.00000  -0.00291   0.00301   0.00055
  24        3PZ         0.00124  -0.00000   0.00301   0.00056  -0.00008
  25 4   H  1S         -0.07908   0.00000  -0.06218  -0.03590  -0.00546
  26        2S         -0.02709   0.00000  -0.02130  -0.01230  -0.00144
  27        3PX         0.00000   0.00967   0.00000   0.00000   0.00000
  28        3PY        -0.00663   0.00000  -0.00291  -0.00301  -0.00055
  29        3PZ         0.00124   0.00000  -0.00301   0.00056  -0.00008
                          11        12        13        14        15
  11        6D+1        0.00000
  12        6D-1       -0.00000   0.00057
  13        6D+2        0.00000   0.00000   0.00041
  14        6D-2        0.00000   0.00000   0.00000   0.00000
  15 2   H  1S          0.00000   0.00000   0.00732   0.00000   0.16319
  16        2S          0.00000   0.00000   0.00176   0.00000   0.04736
  17        3PX         0.00000  -0.00000   0.00000   0.00000   0.00000
  18        3PY         0.00000  -0.00027   0.00000   0.00000   0.00000
  19        3PZ         0.00000   0.00000  -0.00075  -0.00000  -0.01372
  20 3   H  1S          0.00000  -0.00737   0.00094   0.00000  -0.02897
  21        2S          0.00000  -0.00253  -0.00043   0.00000  -0.01847
  22        3PX         0.00000  -0.00000   0.00000   0.00000   0.00000
  23        3PY        -0.00000   0.00034  -0.00023  -0.00000   0.00067
  24        3PZ         0.00000  -0.00036   0.00027   0.00000   0.00372
  25 4   H  1S         -0.00000   0.00737   0.00094   0.00000  -0.02897
  26        2S         -0.00000   0.00253  -0.00043   0.00000  -0.01847
  27        3PX         0.00000  -0.00000  -0.00000  -0.00000  -0.00000
  28        3PY        -0.00000   0.00034   0.00023   0.00000  -0.00067
  29        3PZ        -0.00000   0.00036   0.00027   0.00000   0.00372
                          16        17        18        19        20
  16        2S          0.01538
  17        3PX         0.00000   0.00035
  18        3PY         0.00000  -0.00000   0.00013
  19        3PZ        -0.00338   0.00000   0.00000   0.00138
  20 3   H  1S         -0.01847   0.00000   0.00356  -0.00128   0.16319
  21        2S         -0.00717  -0.00000   0.00122   0.00088   0.04736
  22        3PX        -0.00000   0.00035   0.00000  -0.00000   0.00000
  23        3PY         0.00137   0.00000  -0.00017   0.00038  -0.01188
  24        3PZ         0.00061  -0.00000   0.00017  -0.00049   0.00686
  25 4   H  1S         -0.01847  -0.00000  -0.00356  -0.00128  -0.02897
  26        2S         -0.00717   0.00000  -0.00122   0.00088  -0.01847
  27        3PX         0.00000   0.00035   0.00000   0.00000   0.00000
  28        3PY        -0.00137   0.00000  -0.00017  -0.00038   0.00289
  29        3PZ         0.00061   0.00000  -0.00017  -0.00049  -0.00244
                          21        22        23        24        25
  21        2S          0.01538
  22        3PX        -0.00000   0.00035
  23        3PY        -0.00292   0.00000   0.00107
  24        3PZ         0.00169  -0.00000  -0.00054   0.00044
  25 4   H  1S         -0.01847  -0.00000  -0.00289  -0.00244   0.16319
  26        2S         -0.00717   0.00000   0.00016  -0.00150   0.04736
  27        3PX        -0.00000   0.00035   0.00000  -0.00000  -0.00000
  28        3PY        -0.00016   0.00000  -0.00065   0.00010   0.01188
  29        3PZ        -0.00150   0.00000  -0.00010  -0.00001   0.00686
                          26        27        28        29
  26        2S          0.01538
  27        3PX         0.00000   0.00035
  28        3PY         0.00292   0.00000   0.00107
  29        3PZ         0.00169   0.00000   0.00054   0.00044
     Beta Density Matrix:
                           1         2         3         4         5
   1 1   C  1S          1.02891
   2        2S         -0.04964   0.12788
   3        3S         -0.05286   0.09114   0.06525
   4        4PX         0.00000   0.00000   0.00000   0.00000
   5        4PY         0.00000   0.00000   0.00000  -0.00000   0.16631
   6        4PZ         0.00000  -0.00000  -0.00000   0.00000   0.00000
   7        5PX         0.00000   0.00000   0.00000   0.00000  -0.00000
   8        5PY         0.00000   0.00000   0.00000  -0.00000   0.06634
   9        5PZ         0.00000  -0.00000  -0.00000   0.00000   0.00000
  10        6D 0       -0.00164   0.00445   0.00317   0.00000   0.00000
  11        6D+1        0.00000   0.00000   0.00000  -0.00000   0.00000
  12        6D-1        0.00000   0.00000   0.00000   0.00000  -0.00943
  13        6D+2        0.00284  -0.00770  -0.00549   0.00000   0.00000
  14        6D-2       -0.00000  -0.00000   0.00000   0.00000   0.00000
  15 2   H  1S         -0.04091   0.07881   0.05635   0.00000   0.00000
  16        2S         -0.00701   0.01582   0.01129   0.00000   0.00000
  17        3PX         0.00000   0.00000   0.00000   0.00000  -0.00000
  18        3PY         0.00000   0.00000   0.00000  -0.00000   0.00533
  19        3PZ         0.00533  -0.00955  -0.00683   0.00000   0.00000
  20 3   H  1S         -0.04091   0.07881   0.05635  -0.00000   0.13780
  21        2S         -0.00701   0.01582   0.01129  -0.00000   0.05669
  22        3PX        -0.00000   0.00000   0.00000   0.00000  -0.00000
  23        3PY         0.00462  -0.00827  -0.00592   0.00000  -0.00538
  24        3PZ        -0.00267   0.00478   0.00342  -0.00000   0.00618
  25 4   H  1S         -0.04091   0.07881   0.05635   0.00000  -0.13780
  26        2S         -0.00701   0.01582   0.01129   0.00000  -0.05669
  27        3PX         0.00000  -0.00000  -0.00000   0.00000  -0.00000
  28        3PY        -0.00462   0.00827   0.00592   0.00000  -0.00538
  29        3PZ        -0.00267   0.00478   0.00342   0.00000  -0.00618
                           6         7         8         9        10
   6        4PZ         0.16631
   7        5PX         0.00000   0.00000
   8        5PY         0.00000  -0.00000   0.02647
   9        5PZ         0.06634   0.00000   0.00000   0.02647
  10        6D 0        0.00817   0.00000   0.00000   0.00326   0.00056
  11        6D+1        0.00000  -0.00000   0.00000   0.00000   0.00000
  12        6D-1        0.00000   0.00000  -0.00376   0.00000   0.00000
  13        6D+2        0.00472   0.00000   0.00000   0.00188  -0.00004
  14        6D-2       -0.00000   0.00000   0.00000  -0.00000  -0.00000
  15 2   H  1S          0.15912   0.00000   0.00000   0.06347   0.01055
  16        2S          0.06546   0.00000   0.00000   0.02611   0.00376
  17        3PX         0.00000   0.00000  -0.00000   0.00000   0.00000
  18        3PY         0.00000  -0.00000   0.00213   0.00000   0.00000
  19        3PZ        -0.00895   0.00000   0.00000  -0.00357  -0.00077
  20 3   H  1S         -0.07956  -0.00000   0.05497  -0.03174  -0.00117
  21        2S         -0.03273  -0.00000   0.02261  -0.01306  -0.00106
  22        3PX         0.00000   0.00000  -0.00000   0.00000   0.00000
  23        3PY         0.00618   0.00000  -0.00214   0.00247   0.00002
  24        3PZ         0.00176  -0.00000   0.00247   0.00070   0.00025
  25 4   H  1S         -0.07956   0.00000  -0.05497  -0.03174  -0.00117
  26        2S         -0.03273   0.00000  -0.02261  -0.01306  -0.00106
  27        3PX        -0.00000   0.00000  -0.00000  -0.00000  -0.00000
  28        3PY        -0.00618   0.00000  -0.00214  -0.00247  -0.00002
  29        3PZ         0.00176   0.00000  -0.00247   0.00070   0.00025
                          11        12        13        14        15
  11        6D+1        0.00000
  12        6D-1       -0.00000   0.00053
  13        6D+2        0.00000   0.00000   0.00060
  14        6D-2        0.00000   0.00000   0.00000   0.00000
  15 2   H  1S          0.00000   0.00000  -0.00024  -0.00000   0.20092
  16        2S          0.00000   0.00000   0.00090  -0.00000   0.07238
  17        3PX        -0.00000   0.00000   0.00000   0.00000   0.00000
  18        3PY         0.00000  -0.00030   0.00000   0.00000   0.00000
  19        3PZ         0.00000   0.00000   0.00032   0.00000  -0.01446
  20 3   H  1S          0.00000  -0.00781  -0.00700   0.00000  -0.02744
  21        2S          0.00000  -0.00321  -0.00188   0.00000  -0.02155
  22        3PX        -0.00000   0.00000  -0.00000   0.00000   0.00000
  23        3PY        -0.00000   0.00030   0.00067  -0.00000   0.00080
  24        3PZ         0.00000  -0.00035  -0.00024   0.00000   0.00463
  25 4   H  1S         -0.00000   0.00781  -0.00700   0.00000  -0.02744
  26        2S         -0.00000   0.00321  -0.00188   0.00000  -0.02155
  27        3PX        -0.00000   0.00000   0.00000  -0.00000  -0.00000
  28        3PY        -0.00000   0.00030  -0.00067   0.00000  -0.00080
  29        3PZ        -0.00000   0.00035  -0.00024   0.00000   0.00463
                          16        17        18        19        20
  16        2S          0.02772
  17        3PX         0.00000   0.00000
  18        3PY         0.00000  -0.00000   0.00017
  19        3PZ        -0.00470   0.00000   0.00000   0.00120
  20 3   H  1S         -0.02155  -0.00000   0.00441  -0.00162   0.20092
  21        2S         -0.01092  -0.00000   0.00182   0.00058   0.07238
  22        3PX         0.00000   0.00000  -0.00000  -0.00000  -0.00000
  23        3PY         0.00141   0.00000  -0.00017   0.00029  -0.01252
  24        3PZ         0.00128  -0.00000   0.00020  -0.00045   0.00723
  25 4   H  1S         -0.02155   0.00000  -0.00441  -0.00162  -0.02744
  26        2S         -0.01092   0.00000  -0.00182   0.00058  -0.02155
  27        3PX        -0.00000   0.00000  -0.00000   0.00000  -0.00000
  28        3PY        -0.00141   0.00000  -0.00017  -0.00029   0.00361
  29        3PZ         0.00128   0.00000  -0.00020  -0.00045  -0.00301
                          21        22        23        24        25
  21        2S          0.02772
  22        3PX        -0.00000   0.00000
  23        3PY        -0.00407  -0.00000   0.00094
  24        3PZ         0.00235   0.00000  -0.00044   0.00043
  25 4   H  1S         -0.02155   0.00000  -0.00361  -0.00301   0.20092
  26        2S         -0.01092   0.00000  -0.00041  -0.00186   0.07238
  27        3PX        -0.00000  -0.00000   0.00000  -0.00000   0.00000
  28        3PY         0.00041   0.00000  -0.00059   0.00004   0.01252
  29        3PZ        -0.00186   0.00000  -0.00004  -0.00003   0.00723
                          26        27        28        29
  26        2S          0.02772
  27        3PX         0.00000   0.00000
  28        3PY         0.00407  -0.00000   0.00094
  29        3PZ         0.00235  -0.00000   0.00044   0.00043
    Full Mulliken population analysis:
                           1         2         3         4         5
   1 1   C  1S          2.06162
   2        2S         -0.02211   0.28144
   3        3S         -0.02267   0.17877   0.17963
   4        4PX         0.00000   0.00000   0.00000   0.36796
   5        4PY         0.00000   0.00000   0.00000   0.00000   0.36155
   6        4PZ         0.00000   0.00000   0.00000   0.00000   0.00000
   7        5PX         0.00000   0.00000   0.00000   0.16621   0.00000
   8        5PY         0.00000   0.00000   0.00000   0.00000   0.08226
   9        5PZ         0.00000   0.00000   0.00000   0.00000   0.00000
  10        6D 0        0.00000   0.00000   0.00000   0.00000   0.00000
  11        6D+1        0.00000   0.00000   0.00000   0.00000   0.00000
  12        6D-1        0.00000   0.00000   0.00000   0.00000   0.00000
  13        6D+2        0.00000   0.00000   0.00000   0.00000   0.00000
  14        6D-2        0.00000   0.00000   0.00000   0.00000   0.00000
  15 2   H  1S         -0.00410   0.05153   0.05496   0.00000   0.00000
  16        2S         -0.00084   0.01093   0.01291   0.00000   0.00000
  17        3PX         0.00000   0.00000   0.00000   0.00252   0.00000
  18        3PY         0.00000   0.00000   0.00000   0.00000   0.00231
  19        3PZ        -0.00116   0.00843   0.00407   0.00000   0.00000
  20 3   H  1S         -0.00410   0.05153   0.05496  -0.00000   0.09379
  21        2S         -0.00084   0.01093   0.01291   0.00000   0.01877
  22        3PX         0.00000   0.00000   0.00000   0.00252  -0.00000
  23        3PY        -0.00087   0.00632   0.00305  -0.00000   0.00299
  24        3PZ        -0.00029   0.00211   0.00102   0.00000   0.00352
  25 4   H  1S         -0.00410   0.05153   0.05496  -0.00000   0.09379
  26        2S         -0.00084   0.01093   0.01291  -0.00000   0.01877
  27        3PX         0.00000  -0.00000  -0.00000   0.00252  -0.00000
  28        3PY        -0.00087   0.00632   0.00305  -0.00000   0.00299
  29        3PZ        -0.00029   0.00211   0.00102  -0.00000   0.00352
                           6         7         8         9        10
   6        4PZ         0.36155
   7        5PX         0.00000   0.26650
   8        5PY         0.00000   0.00000   0.06671
   9        5PZ         0.08226   0.00000   0.00000   0.06671
  10        6D 0        0.00000   0.00000   0.00000   0.00000   0.00107
  11        6D+1        0.00000   0.00000   0.00000   0.00000   0.00000
  12        6D-1        0.00000   0.00000   0.00000   0.00000   0.00000
  13        6D+2        0.00000   0.00000   0.00000   0.00000   0.00000
  14        6D-2        0.00000   0.00000   0.00000   0.00000   0.00000
  15 2   H  1S          0.12505   0.00000   0.00000   0.07628   0.00653
  16        2S          0.02503   0.00000   0.00000   0.02698   0.00048
  17        3PX         0.00000   0.00282   0.00000   0.00000   0.00000
  18        3PY         0.00000   0.00000   0.00129   0.00000   0.00000
  19        3PZ         0.00791   0.00000   0.00000   0.00016   0.00017
  20 3   H  1S          0.03126   0.00000   0.05721   0.01907   0.00033
  21        2S          0.00626   0.00000   0.02024   0.00675   0.00002
  22        3PX        -0.00000   0.00282   0.00000  -0.00000  -0.00000
  23        3PY         0.00352   0.00000  -0.00030   0.00074  -0.00008
  24        3PZ         0.00019   0.00000   0.00074   0.00027  -0.00005
  25 4   H  1S          0.03126  -0.00000   0.05721   0.01907   0.00033
  26        2S          0.00626  -0.00000   0.02024   0.00675   0.00002
  27        3PX         0.00000   0.00282  -0.00000   0.00000  -0.00000
  28        3PY         0.00352  -0.00000  -0.00030   0.00074  -0.00008
  29        3PZ         0.00019  -0.00000   0.00074   0.00027  -0.00005
                          11        12        13        14        15
  11        6D+1        0.00000
  12        6D-1        0.00000   0.00110
  13        6D+2        0.00000   0.00000   0.00101
  14        6D-2        0.00000   0.00000   0.00000   0.00000
  15 2   H  1S          0.00000   0.00000   0.00000   0.00000   0.36411
  16        2S          0.00000   0.00000   0.00000   0.00000   0.08201
  17        3PX         0.00000   0.00000   0.00000   0.00000   0.00000
  18        3PY         0.00000  -0.00026   0.00000   0.00000   0.00000
  19        3PZ         0.00000   0.00000   0.00000   0.00000   0.00000
  20 3   H  1S          0.00000   0.00461   0.00159   0.00000  -0.00235
  21        2S         -0.00000   0.00034   0.00012   0.00000  -0.00790
  22        3PX        -0.00000  -0.00000   0.00000   0.00000   0.00000
  23        3PY        -0.00000   0.00015  -0.00000  -0.00000  -0.00004
  24        3PZ        -0.00000  -0.00009  -0.00001   0.00000   0.00040
  25 4   H  1S         -0.00000   0.00461   0.00159   0.00000  -0.00235
  26        2S         -0.00000   0.00034   0.00012   0.00000  -0.00790
  27        3PX        -0.00000  -0.00000  -0.00000   0.00000  -0.00000
  28        3PY        -0.00000   0.00015  -0.00000   0.00000  -0.00004
  29        3PZ         0.00000  -0.00009  -0.00001   0.00000   0.00040
                          16        17        18        19        20
  16        2S          0.04310
  17        3PX         0.00000   0.00035
  18        3PY         0.00000   0.00000   0.00030
  19        3PZ         0.00000   0.00000   0.00000   0.00257
  20 3   H  1S         -0.00790   0.00000   0.00022   0.00014   0.36411
  21        2S         -0.00832   0.00000   0.00021  -0.00017   0.08201
  22        3PX         0.00000   0.00000   0.00000  -0.00000   0.00000
  23        3PY        -0.00019   0.00000   0.00000   0.00003   0.00000
  24        3PZ         0.00022   0.00000   0.00001   0.00005   0.00000
  25 4   H  1S         -0.00790  -0.00000   0.00022   0.00014  -0.00235
  26        2S         -0.00832  -0.00000   0.00021  -0.00017  -0.00790
  27        3PX        -0.00000   0.00000   0.00000  -0.00000  -0.00000
  28        3PY        -0.00019  -0.00000   0.00000   0.00003   0.00036
  29        3PZ         0.00022  -0.00000   0.00001   0.00005   0.00000
                          21        22        23        24        25
  21        2S          0.04310
  22        3PX         0.00000   0.00035
  23        3PY         0.00000   0.00000   0.00201
  24        3PZ         0.00000   0.00000   0.00000   0.00087
  25 4   H  1S         -0.00790   0.00000   0.00036   0.00000   0.36411
  26        2S         -0.00832   0.00000   0.00003   0.00000   0.08201
  27        3PX        -0.00000   0.00000   0.00000   0.00000   0.00000
  28        3PY         0.00003   0.00000   0.00010   0.00000   0.00000
  29        3PZ         0.00000   0.00000   0.00000  -0.00000   0.00000
                          26        27        28        29
  26        2S          0.04310
  27        3PX         0.00000   0.00035
  28        3PY         0.00000   0.00000   0.00201
  29        3PZ         0.00000   0.00000   0.00000   0.00087
     Gross orbital populations:
                         Total     Alpha     Beta      Spin
   1 1   C  1S          1.99855   0.99929   0.99926   0.00003
   2        2S          0.65077   0.34606   0.30470   0.04136
   3        3S          0.55154   0.31529   0.23626   0.07903
   4        4PX         0.54173   0.54173   0.00000   0.54173
   5        4PY         0.68425   0.36081   0.32344   0.03737
   6        4PZ         0.68425   0.36081   0.32344   0.03737
   7        5PX         0.44116   0.44116   0.00000   0.44116
   8        5PY         0.30603   0.16879   0.13724   0.03156
   9        5PZ         0.30603   0.16879   0.13724   0.03156
  10        6D 0        0.00869   0.00346   0.00523  -0.00177
  11        6D+1        0.00000   0.00000   0.00000   0.00000
  12        6D-1        0.01084   0.00527   0.00556  -0.00029
  13        6D+2        0.00441  -0.00016   0.00457  -0.00473
  14        6D-2        0.00000   0.00000   0.00000  -0.00000
  15 2   H  1S          0.73656   0.34328   0.39328  -0.05000
  16        2S          0.16823   0.06634   0.10189  -0.03555
  17        3PX         0.00570   0.00570   0.00000   0.00570
  18        3PY         0.00453   0.00218   0.00235  -0.00016
  19        3PZ         0.02223   0.01206   0.01017   0.00189
  20 3   H  1S          0.73656   0.34328   0.39328  -0.05000
  21        2S          0.16823   0.06634   0.10189  -0.03555
  22        3PX         0.00570   0.00570   0.00000   0.00570
  23        3PY         0.01781   0.00959   0.00821   0.00138
  24        3PZ         0.00895   0.00465   0.00430   0.00035
  25 4   H  1S          0.73656   0.34328   0.39328  -0.05000
  26        2S          0.16823   0.06634   0.10189  -0.03555
  27        3PX         0.00570   0.00570   0.00000   0.00570
  28        3PY         0.01781   0.00959   0.00821   0.00138
  29        3PZ         0.00895   0.00465   0.00430   0.00035
          Condensed to atoms (all electrons):
              1          2          3          4
     1  C    4.946278   0.413995   0.413995   0.413995
     2  H    0.413995   0.574450  -0.025600  -0.025600
     3  H    0.413995  -0.025600   0.574450  -0.025600
     4  H    0.413995  -0.025600  -0.025600   0.574450
 Mulliken atomic charges:
              1
     1  C   -0.188263
     2  H    0.062754
     3  H    0.062754
     4  H    0.062754
 Sum of Mulliken atomic charges =  -0.00000
 Mulliken charges with hydrogens summed into heavy atoms:
              1
     1  C   -0.000000
 Sum of Mulliken charges with hydrogens summed into heavy atoms =  -0.00000
          Atomic-Atomic Spin Densities.
              1          2          3          4
     1  C    1.233146   0.000411   0.000411   0.000411
     2  H    0.000411  -0.083850   0.002656   0.002656
     3  H    0.000411   0.002656  -0.083850   0.002656
     4  H    0.000411   0.002656   0.002656  -0.083850
 Mulliken atomic spin densities:
              1
     1  C    1.234380
     2  H   -0.078127
[...]
 --------------------------------------------------------


 ---------------------------------------------------------------------------------
              Anisotropic Spin Dipole Couplings in Principal Axis System
 ---------------------------------------------------------------------------------

       Atom             a.u.   MegaHertz   Gauss  10(-4) cm-1        Axes

              Baa    -0.5308   -71.233   -25.418   -23.761  1.0000 -0.0081 -0.0000
     1 C(13)  Bbb    -0.5308   -71.233   -25.418   -23.761  0.0081  1.0000 -0.0000
              Bcc     1.0617   142.466    50.836    47.522  0.0000  0.0000  1.0000
 
              Baa    -0.0747   -39.880   -14.230   -13.303  1.0000 -0.0000  0.0000
     2 H(1)   Bbb    -0.0011    -0.594    -0.212    -0.198  0.0000  0.0000  1.0000
              Bcc     0.0759    40.474    14.442    13.501 -0.0000  1.0000 -0.0000
 
              Baa    -0.0747   -39.880   -14.230   -13.303  0.5000  0.8660  0.0000
     3 H(1)   Bbb    -0.0011    -0.594    -0.212    -0.198  0.0000  0.0000  1.0000
              Bcc     0.0759    40.474    14.442    13.501  0.8660 -0.5000  0.0000
 
              Baa    -0.0747   -39.880   -14.230   -13.303 -0.5000  0.8660  0.0000
     4 H(1)   Bbb    -0.0011    -0.594    -0.212    -0.198  0.0000  0.0000  1.0000
              Bcc     0.0759    40.474    14.442    13.501  0.8660  0.5000 -0.0000
 

 ---------------------------------------------------------------------------------

 No NMR shielding tensors so no spin-rotation constants.
 Leave Link  601 at Sun Aug 18 00:18:00 2024, MaxMem=   13107200 cpu:       0.2
 (Enter /programs/64bit/g09/g09-gfortran/bin/l701.exe)
 Compute integral second derivatives.
 ... and contract with generalized density number  2.
 Leave Link  701 at Sun Aug 18 00:18:00 2024, MaxMem=   13107200 cpu:       0.2
 (Enter /programs/64bit/g09/g09-gfortran/bin/l702.exe)
 L702 exits ... SP integral derivatives will be done elsewhere.
 Leave Link  702 at Sun Aug 18 00:18:00 2024, MaxMem=   13107200 cpu:       0.0
 (Enter /programs/64bit/g09/g09-gfortran/bin/l703.exe)
 Compute integral second derivatives, UseDBF=F ICtDFT=           0.
 Integral derivatives from FoFDir, PRISM(SPDF).
 Calling FoFJK, ICntrl=    100127 FMM=F ISym2X=1 I1Cent= 0 IOpClX= 1 NMat=1 NMatS=1 NMatT=0.
 FoFCou: FMM=F IPFlag=           0 FMFlag=      100000 FMFlg1=         800
         NFxFlg=           0 DoJE=F BraDBF=F KetDBF=F FulRan=T
         Omega=  0.000000  0.000000  1.000000  0.000000  0.000000 ICntrl=  100127 IOpCl=  1
         NMat0=    1 NMatS0=    1 NMatT0=    0 NMatD0=    1 NMtDS0=    0 NMtDT0=    0
         I1Cent=           0 NGrid=           0.
 Petite list used in FoFCou.
 Leave Link  703 at Sun Aug 18 00:18:01 2024, MaxMem=   13107200 cpu:       0.5
 (Enter /programs/64bit/g09/g09-gfortran/bin/l716.exe)
 Dipole        = 2.92843007D-16 1.01600586D-15 2.74669488D-32
 Polarizability= 1.22626387D+01-9.38944379D-15 1.22626387D+01
                 2.19797885D-17-4.20727753D-17 6.65380738D+00
 Full mass-weighted force constant matrix:
 Low frequencies ---   -0.0011   -0.0011   -0.0005   63.8353   63.8353   63.8365
 Low frequencies ---  388.0981 1428.4646 1428.4646
 Diagonal vibrational polarizability:
        0.0367641       0.0367641      12.7650608
 Harmonic frequencies (cm**-1), IR intensities (KM/Mole), Raman scattering
 activities (A**4/AMU), depolarization ratios for plane and unpolarized
 incident light, reduced masses (AMU), force constants (mDyne/A),
 and normal coordinates:
                     1                      2                      3
                    A2"                    E'                     E'
 Frequencies --   388.0981              1428.4646              1428.4646
 Red. masses --     1.2356                 1.1014                 1.1014
 Frc consts  --     0.1097                 1.3242                 1.3242
 IR Inten    --    71.4452                 2.4429                 2.4429
  Atom  AN      X      Y      Z        X      Y      Z        X      Y      Z
     1   6    -0.00  -0.00   0.14    -0.06   0.07   0.00    -0.07  -0.06   0.00
     2   1     0.00  -0.00  -0.57     0.53   0.06  -0.00     0.61  -0.05  -0.00
     3   1     0.00   0.00  -0.57    -0.20  -0.19  -0.00     0.36   0.67  -0.00
     4   1     0.00   0.00  -0.57     0.38  -0.70  -0.00    -0.14   0.09  -0.00
                     4                      5                      6
                    A1'                    E'                     E'
 Frequencies --  3175.4513              3379.5932              3379.5932
 Red. masses --     1.0078                 1.1190                 1.1190
 Frc consts  --     5.9875                 7.5303                 7.5303
 IR Inten    --     0.0000                 1.9291                 1.9291
  Atom  AN      X      Y      Z        X      Y      Z        X      Y      Z
     1   6     0.00   0.00   0.00     0.08   0.06  -0.00    -0.06   0.08  -0.00
     2   1     0.00   0.58  -0.00     0.01  -0.48   0.00    -0.01  -0.65   0.00
     3   1     0.50  -0.29  -0.00    -0.28   0.17   0.00     0.65  -0.37   0.00
     4   1    -0.50  -0.29  -0.00    -0.70  -0.40   0.00     0.07   0.06   0.00

 -------------------
 - Thermochemistry -
 -------------------
 Temperature   298.150 Kelvin.  Pressure   1.00000 Atm.
 Atom     1 has atomic number  6 and mass  12.00000
 Atom     2 has atomic number  1 and mass   1.00783
 Atom     3 has atomic number  1 and mass   1.00783
 Atom     4 has atomic number  1 and mass   1.00783
 Molecular mass:    15.02348 amu.
 Principal axes and moments of inertia in atomic units:
                           1         2         3
     Eigenvalues --     6.41397   6.41397  12.82795
           X           -0.52928   0.84845   0.00000
           Y            0.84845   0.52928   0.00000
           Z            0.00000  -0.00000   1.00000
 This molecule is an oblate symmetric top.
 Rotational symmetry number  6.
 Rotational temperatures (Kelvin)     13.50393    13.50393     6.75196
 Rotational constants (GHZ):         281.37648   281.37648   140.68824
 Zero-point vibrational energy      78831.9 (Joules/Mol)
                                   18.84128 (Kcal/Mol)
 Warning -- explicit consideration of   1 degrees of freedom as
           vibrations may cause significant error
 Vibrational temperatures:    558.39  2055.24  2055.24  4568.76  4862.47
          (Kelvin)           4862.47
 
 Zero-point correction=                           0.030025 (Hartree/Particle)
 Thermal correction to Energy=                    0.033192
 Thermal correction to Enthalpy=                  0.034137
 Thermal correction to Gibbs Free Energy=         0.011827
 Sum of electronic and zero-point Energies=            -39.660615
 Sum of electronic and thermal Energies=               -39.657448
 Sum of electronic and thermal Enthalpies=             -39.656503
 Sum of electronic and thermal Free Energies=          -39.678813
 
                     E (Thermal)             CV                S
                      KCal/Mol        Cal/Mol-Kelvin    Cal/Mol-Kelvin
 Total                   20.829              7.649             46.955
 Electronic               0.000              0.000              1.377
 Translational            0.889              2.981             34.068
 Rotational               0.889              2.981             10.471
 Vibrational             19.051              1.688              1.039
 Vibration     1          0.756              1.496              1.007
                       Q            Log10(Q)             Ln(Q)
 Total Bot       0.363209D-05         -5.439843        -12.525701
 Total V=0       0.234905D+09          8.370893         19.274693
 Vib (Bot)       0.183069D-13        -13.737384        -31.631497
 Vib (Bot)    1  0.463221D+00         -0.334212         -0.769552
 Vib (V=0)       0.118400D+01          0.073351          0.168897
 Vib (V=0)    1  0.118160D+01          0.072469          0.166866
 Electronic      0.200000D+01          0.301030          0.693147
 Translational   0.228882D+07          6.359611         14.643545
 Rotational      0.433412D+02          1.636901          3.769104
 
                                          methyl with imposed symmetry and cc-pVD
 Z basis set
                                                             IR Spectrum
 
      3      3                                                                 1                                                     
      3      1                                                                 4                                      3              
      8      7                                                                 2                                      8              
      0      5                                                                 8                                      8              
 
      X                                                                        X                                      X              
                                                                                                                      X              
                                                                                                                      X              
                                                                                                                      X              
                                                                                                                      X              
                                                                                                                      X              
                                                                                                                      X              
                                                                                                                      X              
                                                                                                                      X              
                                                                                                                      X              
                                                                                                                      X              
                                                                                                                      X              
                                                                                                                      X              
                                                                                                                      X              
                                                                                                                      X              
                                                                                                                      X              
                                                                                                                      X              
                                                                                                                      X              
                                                                                                                      X              
                                                                                                                      X              
 
 ***** Axes restored to original set *****
 -------------------------------------------------------------------
 Center     Atomic                   Forces (Hartrees/Bohr)
 Number     Number              X              Y              Z
 -------------------------------------------------------------------
      1        6          -0.000000000    0.000000000    0.000000000
      2        1           0.000000000    0.000000000   -0.000320139
      3        1          -0.000277249    0.000000000    0.000160070
      4        1           0.000277249   -0.000000000    0.000160070
 -------------------------------------------------------------------
 Cartesian Forces:  Max     0.000320139 RMS     0.000160070
 Force constants in Cartesian coordinates: 
                1             2             3             4             5 
      1  0.648581D+00
      2  0.000000D+00  0.137655D-01
      3  0.000000D+00  0.000000D+00  0.648581D+00
      4 -0.567951D-01  0.000000D+00  0.000000D+00  0.467763D-01
      5  0.000000D+00 -0.458850D-02  0.000000D+00  0.000000D+00  0.163311D-02
      6  0.000000D+00  0.000000D+00 -0.375592D+00  0.000000D+00  0.000000D+00
      7 -0.295893D+00  0.000000D+00  0.138043D+00  0.500940D-02  0.000000D+00
      8  0.000000D+00 -0.458850D-02  0.000000D+00  0.000000D+00  0.147769D-02
      9  0.138043D+00  0.000000D+00 -0.136494D+00  0.240244D-01  0.000000D+00
     10 -0.295893D+00  0.000000D+00 -0.138043D+00  0.500940D-02  0.000000D+00
     11  0.000000D+00 -0.458850D-02  0.000000D+00  0.000000D+00  0.147769D-02
     12 -0.138043D+00  0.000000D+00 -0.136494D+00 -0.240244D-01  0.000000D+00
                6             7             8             9            10 
      6  0.387449D+00
      7 -0.507918D-02  0.302281D+00
      8  0.000000D+00  0.000000D+00  0.163311D-02
      9 -0.592864D-02 -0.147516D+00  0.000000D+00  0.131945D+00
     10  0.507918D-02 -0.113977D-01  0.000000D+00 -0.145518D-01  0.302281D+00
     11  0.000000D+00  0.000000D+00  0.147769D-02  0.000000D+00  0.000000D+00
     12 -0.592864D-02  0.145518D-01  0.000000D+00  0.104784D-01  0.147516D+00
               11            12 
     11  0.163311D-02
     12  0.000000D+00  0.131945D+00
 Force constants in internal coordinates: 
                1             2             3             4             5 
      1  0.387449D+00
      2 -0.143438D-02  0.387449D+00
      3 -0.143438D-02 -0.143438D-02  0.387449D+00
      4  0.526893D-02  0.526893D-02 -0.105379D-01  0.659341D-01
      5  0.526893D-02 -0.105379D-01  0.526893D-02 -0.329671D-01  0.659341D-01
      6 -0.105379D-01  0.526893D-02  0.526893D-02 -0.329671D-01 -0.329671D-01
      7  0.000000D+00  0.000000D+00  0.000000D+00  0.000000D+00  0.000000D+00
                6             7 
      6  0.659341D-01
      7  0.000000D+00  0.470214D-02
 Leave Link  716 at Sun Aug 18 00:18:01 2024, MaxMem=   13107200 cpu:       0.0
 (Enter /programs/64bit/g09/g09-gfortran/bin/l103.exe)

 GradGradGradGradGradGradGradGradGradGradGradGradGradGradGradGradGradGrad
 Berny optimization.
 Internal  Forces:  Max     0.000320139 RMS     0.000209580
 Search for a local minimum.
 Step number   1 out of a maximum of    2
 All quantities printed in internal units (Hartrees-Bohrs-Radians)
 Second derivative matrix not updated -- analytic derivatives used.
 The second derivative matrix:
                          R1        R2        R3        A1        A2
           R1           0.38745
           R2          -0.00143   0.38745
           R3          -0.00143  -0.00143   0.38745
           A1           0.00527   0.00527  -0.01054   0.06593
           A2           0.00527  -0.01054   0.00527  -0.03297   0.06593
           A3          -0.01054   0.00527   0.00527  -0.03297  -0.03297
           D1          -0.00000  -0.00000   0.00000  -0.00000  -0.00000
                          A3        D1
           A3           0.06593
           D1           0.00000   0.00470
     Eigenvalues ---    0.00470   0.09804   0.09804   0.38458   0.38974
     Eigenvalues ---    0.389741000.00000
 Angle between quadratic step and forces=   0.00 degrees.
 Linear search not attempted -- first point.
 Iteration  1 RMS(Cart)=  0.00054496 RMS(Int)=  0.00000000
 Iteration  2 RMS(Cart)=  0.00000000 RMS(Int)=  0.00000000
 ClnCor:  largest displacement from symmetrization is 1.03D-11 for atom     3.
 Variable       Old X    -DE/DX   Delta X   Delta X   Delta X     New X
                                 (Linear)    (Quad)   (Total)
    R1        2.05980  -0.00032   0.00000  -0.00083  -0.00083   2.05897
    R2        2.05980  -0.00032   0.00000  -0.00083  -0.00083   2.05897
    R3        2.05980  -0.00032   0.00000  -0.00083  -0.00083   2.05897
    A1        2.09440  -0.00000   0.00000  -0.00000   0.00000   2.09440
    A2        2.09440   0.00000   0.00000  -0.00000   0.00000   2.09440
    A3        2.09440   0.00000   0.00000   0.00000   0.00000   2.09440
    D1        3.14159  -0.00000   0.00000  -0.00000   0.00000   3.14159
         Item               Value     Threshold  Converged?
 Maximum Force            0.000320     0.000450     YES
 RMS     Force            0.000210     0.000300     YES
 Maximum Displacement     0.000832     0.001800     YES
 RMS     Displacement     0.000545     0.001200     YES
 Predicted change in Energy=-3.997435D-07
 Optimization completed.
    -- Stationary point found.
                           ----------------------------
                           !   Optimized Parameters   !
                           ! (Angstroms and Degrees)  !
 --------------------------                            --------------------------
 ! Name  Definition              Value          Derivative Info.                !
 --------------------------------------------------------------------------------
 ! R1    R(1,2)                  1.09           -DE/DX =   -0.0003              !
 ! R2    R(1,3)                  1.09           -DE/DX =   -0.0003              !
 ! R3    R(1,4)                  1.09           -DE/DX =   -0.0003              !
 ! A1    A(2,1,3)              120.0            -DE/DX =    0.0                 !
 ! A2    A(2,1,4)              120.0            -DE/DX =    0.0                 !
 ! A3    A(3,1,4)              120.0            -DE/DX =    0.0                 !
 ! D1    D(2,1,4,3)            180.0            -DE/DX =    0.0                 !
 --------------------------------------------------------------------------------
 GradGradGradGradGradGradGradGradGradGradGradGradGradGradGradGradGradGrad

 Leave Link  103 at Sun Aug 18 00:18:01 2024, MaxMem=   13107200 cpu:       0.0
 (Enter /programs/64bit/g09/g09-gfortran/bin/l9999.exe)
 1\1\GINC-MOLMOD\Freq\UMP2-FC\CC-pVDZ\C1H3(2)\OSPITE\18-Aug-2024\0\\#P 
 Geom=AllCheck Guess=TCheck SCRF=Check GenChk UMP2(FC)/CC-pVDZ Freq\\me
 thyl with imposed symmetry and cc-pVDZ basis set\\0,2\C,0.,0.,0.\H,0.,
 0.,1.09\H,0.9439676901,0.,-0.545\H,-0.9439676901,0.,-0.545\\Version=EM
 64L-G09RevA.02\State=2-A2"\HF=-39.5636539\MP2=-39.69064\PUHF=-39.56374
 87\PMP2-0=-39.6907347\S2=0.761717\S2-1=0.761683\S2A=0.750076\RMSD=1.64
 5e-10\RMSF=1.601e-04\ZeroPoint=0.0300255\Thermal=0.0331924\Dipole=0.,0
 .,0.\DipoleDeriv=-0.0020692,0.,0.,0.,-0.420697,0.,0.,0.,-0.0020692,0.0
 394972,0.,0.,0.,0.1402323,0.,0.,0.,-0.0381177,-0.018714,0.,0.0336082,0
 .,0.1402323,0.,0.0336082,0.,0.0200935,-0.018714,0.,-0.0336082,0.,0.140
 2323,0.,-0.0336082,0.,0.0200935\Polar=12.2626387,0.,6.6538074,0.,0.,12
 .2626387\PG=D03H [O(C1),3C2(H1)]\NImag=0\\0.64858100,0.,0.01376549,0.,
 0.,0.64858100,-0.05679513,0.,0.,0.04677633,0.,-0.00458850,0.,0.,0.0016
 3311,0.,0.,-0.37559220,0.,0.,0.38744948,-0.29589293,0.,0.13804318,0.00
 500940,0.,-0.00507918,0.30228119,0.,-0.00458850,0.,0.,0.00147769,0.,0.
 ,0.00163311,0.13804318,0.,-0.13649440,0.02402441,0.,-0.00592864,-0.147
 51580,0.,0.13194462,-0.29589293,0.,-0.13804318,0.00500940,0.,0.0050791
 8,-0.01139765,0.,-0.01455180,0.30228119,0.,-0.00458850,0.,0.,0.0014776
 9,0.,0.,0.00147769,0.,0.,0.00163311,-0.13804318,0.,-0.13649440,-0.0240
 2441,0.,-0.00592864,0.01455180,0.,0.01047842,0.14751580,0.,0.13194462\
 \0.,0.,0.,0.,0.,0.00032014,0.00027725,0.,-0.00016007,-0.00027725,0.,-0
 .00016007\\\@


 YOU CAN LEAD A BOY TO COLLEGE....
 BUT YOU CANNOT MAKE HIM THINK....
           ELBERT HUBBARD
 Job cpu time:  0 days  0 hours  0 minutes  9.3 seconds.
 File lengths (MBytes):  RWF=     21 Int=      0 D2E=      0 Chk=      1 Scr=      1
 Normal termination of Gaussian 09 at Sun Aug 18 00:18:01 2024.
