 Entering Gaussian System, Link 0=/programs/64bit/g09/g09-gfortran/bin/g09
 Input=ch3_++.com
 Output=ch3_++.log
 Initial command:
 /programs/64bit/g09/g09-gfortran/bin/l1.exe /home/ospite/Desktop/MMfP/Project6/CH3/g09/MP2/Gau-8858.inp -scrdir=/home/ospite/Desktop/MMfP/Project6/CH3/g09/MP2/
 Entering Link 1 = /programs/64bit/g09/g09-gfortran/bin/l1.exe PID=      8859.
  
 Copyright (c) 1988,1990,1992,1993,1995,1998,2003,2009, Gaussian, Inc.
                  All Rights Reserved.
  
 This is part of the Gaussian(R) 09 program.  It is based on
 the Gaussian(R) 03 system (copyright 2003, Gaussian, Inc.),
 the Gaussian(R) 98 system (copyright 1998, Gaussian, Inc.),
 the Gaussian(R) 94 system (copyright 1995, Gaussian, Inc.),
 the Gaussian 92(TM) system (copyright 1992, Gaussian, Inc.),
 the Gaussian 90(TM) system (copyright 1990, Gaussian, Inc.),
 the Gaussian 88(TM) system (copyright 1988, Gaussian, Inc.),
 the Gaussian 86(TM) system (copyright 1986, Carnegie Mellon
 University), and the Gaussian 82(TM) system (copyright 1983,
 Carnegie Mellon University). Gaussian is a federally registered
 trademark of Gaussian, Inc.
  
 This software contains proprietary and confidential information,
 including trade secrets, belonging to Gaussian, Inc.
  
 This software is provided under written license and may be
 used, copied, transmitted, or stored only in accord with that
 written license.
  
 The following legend is applicable only to US Government
 contracts under FAR:
  
                    RESTRICTED RIGHTS LEGEND
  
 Use, reproduction and disclosure by the US Government is
 subject to restrictions as set forth in subparagraphs (a)
 and (c) of the Commercial Computer Software - Restricted
 Rights clause in FAR 52.227-19.
  
 Gaussian, Inc.
 340 Quinnipiac St., Bldg. 40, Wallingford CT 06492
  
  
 ---------------------------------------------------------------
 Warning -- This program may not be used in any manner that
 competes with the business of Gaussian, Inc. or will provide
 assistance to any competitor of Gaussian, Inc.  The licensee
 of this program is prohibited from giving any competitor of
 Gaussian, Inc. access to this program.  By using this program,
 the user acknowledges that Gaussian, Inc. is engaged in the
 business of creating and licensing software in the field of
 computational chemistry and represents and warrants to the
 licensee that it is not a competitor of Gaussian, Inc. and that
 it will not use this program in any manner prohibited above.
 ---------------------------------------------------------------
  

 Cite this work as:
 Gaussian 09, Revision A.02,
 M. J. Frisch, G. W. Trucks, H. B. Schlegel, G. E. Scuseria, 
 M. A. Robb, J. R. Cheeseman, G. Scalmani, V. Barone, B. Mennucci, 
 G. A. Petersson, H. Nakatsuji, M. Caricato, X. Li, H. P. Hratchian, 
 A. F. Izmaylov, J. Bloino, G. Zheng, J. L. Sonnenberg, M. Hada, 
 M. Ehara, K. Toyota, R. Fukuda, J. Hasegawa, M. Ishida, T. Nakajima, 
 Y. Honda, O. Kitao, H. Nakai, T. Vreven, J. A. Montgomery, Jr., 
 J. E. Peralta, F. Ogliaro, M. Bearpark, J. J. Heyd, E. Brothers, 
 K. N. Kudin, V. N. Staroverov, R. Kobayashi, J. Normand, 
 K. Raghavachari, A. Rendell, J. C. Burant, S. S. Iyengar, J. Tomasi, 
 M. Cossi, N. Rega, J. M. Millam, M. Klene, J. E. Knox, J. B. Cross, 
 V. Bakken, C. Adamo, J. Jaramillo, R. Gomperts, R. E. Stratmann, 
 O. Yazyev, A. J. Austin, R. Cammi, C. Pomelli, J. W. Ochterski, 
 R. L. Martin, K. Morokuma, V. G. Zakrzewski, G. A. Voth, 
 P. Salvador, J. J. Dannenberg, S. Dapprich, A. D. Daniels, 
 O. Farkas, J. B. Foresman, J. V. Ortiz, J. Cioslowski, 
 and D. J. Fox, Gaussian, Inc., Wallingford CT, 2009.
 
 ******************************************
 Gaussian 09:  EM64L-G09RevA.02 11-Jun-2009
                17-Aug-2024 
 ******************************************
 %mem=100MB
 -----------------------------------------------------------------
 #p mp2/6-31++G opt freq symmetry=(follow,pg=C3v) pop=full gfinput
 -----------------------------------------------------------------
 1/18=20,19=15,38=1/1,3;
 2/9=110,12=2,17=6,18=5,19=2314885530821997379,40=1/2;
 3/5=1,6=6,7=1010,11=9,16=1,24=10,25=1,30=1,71=1/1,2,3;
 4//1;
 5/5=2,38=5/2;
 8/6=4,10=2/1;
 9/15=2,16=-3/6;
 10/5=1/2;
 6/7=3/1;
 7/12=2/1,2,3,16;
 1/18=20,19=15/3(2);
 2/9=110,15=5,19=2314885530821997379/2;
 99//99;
 2/9=110,15=5,19=2314885530821997379/2;
 3/5=1,6=6,7=1010,11=9,16=1,25=1,30=1,71=1/1,2,3;
 4/5=5,16=3/1;
 5/5=2,38=5/2;
 8/6=4,10=2/1;
 9/15=2,16=-3/6;
 10/5=1/2;
 7/12=2/1,2,3,16;
 1/18=20,19=15/3(-8);
 2/9=110,15=5,19=2314885530821997379/2;
 6/7=3/1;
 99//99;
 Leave Link    1 at Sat Aug 17 18:00:02 2024, MaxMem=   13107200 cpu:       0.1
 (Enter /programs/64bit/g09/g09-gfortran/bin/l101.exe)
 ----------------------------------------------------------
 methyl with imposed symmetry and hf/6-31++G basis function
 ----------------------------------------------------------
 Symbolic Z-matrix:
 Charge =  0 Multiplicity = 2
 C1
 H2                   1    d
 H3                   1    d        2    a
 H4                   1    d        2    -a       3    t        0
       Variables:
  d                     1.09                     
  a                   120.                       
  t                     0.                       
 
 NAtoms=      4 NQM=      4 NQMF=      0 NMic=      0 NMicF=      0 NTot=      4.
                    Isotopes and Nuclear Properties:
 (Nuclear quadrupole moments (NQMom) in fm**2, nuclear magnetic moments (NMagM)
  in nuclear magnetons)

  Atom         1           2           3           4
 IAtWgt=          12           1           1           1
 AtmWgt=  12.0000000   1.0078250   1.0078250   1.0078250
 NucSpn=           0           1           1           1
 AtZEff=   0.0000000   0.0000000   0.0000000   0.0000000
 NQMom=    0.0000000   0.0000000   0.0000000   0.0000000
 NMagM=    0.0000000   2.7928460   2.7928460   2.7928460
 Leave Link  101 at Sat Aug 17 18:00:02 2024, MaxMem=   13107200 cpu:       0.1
 (Enter /programs/64bit/g09/g09-gfortran/bin/l103.exe)

 GradGradGradGradGradGradGradGradGradGradGradGradGradGradGradGradGradGrad
 Berny optimization.
 Initialization pass.
                           ----------------------------
                           !    Initial Parameters    !
                           ! (Angstroms and Degrees)  !
 --------------------------                            --------------------------
 ! Name  Definition              Value          Derivative Info.                !
 --------------------------------------------------------------------------------
 ! R1    R(1,2)                  1.09           estimate D2E/DX2                !
 ! R2    R(1,3)                  1.09           estimate D2E/DX2                !
 ! R3    R(1,4)                  1.09           estimate D2E/DX2                !
 ! A1    A(2,1,3)              120.0            estimate D2E/DX2                !
 ! A2    A(2,1,4)              120.0            estimate D2E/DX2                !
 ! A3    A(3,1,4)              120.0            estimate D2E/DX2                !
 ! D1    D(2,1,4,3)            180.0            estimate D2E/DX2                !
 --------------------------------------------------------------------------------
 Trust Radius=3.00D-01 FncErr=1.00D-07 GrdErr=1.00D-07
 Number of steps in this run=  20 maximum allowed number of steps= 100.
 GradGradGradGradGradGradGradGradGradGradGradGradGradGradGradGradGradGrad

 Leave Link  103 at Sat Aug 17 18:00:02 2024, MaxMem=   13107200 cpu:       0.0
 (Enter /programs/64bit/g09/g09-gfortran/bin/l202.exe)
                          Input orientation:                          
 ---------------------------------------------------------------------
 Center     Atomic      Atomic             Coordinates (Angstroms)
 Number     Number       Type             X           Y           Z
 ---------------------------------------------------------------------
      1          6           0        0.000000    0.000000    0.000000
      2          1           0        0.000000    0.000000    1.090000
      3          1           0        0.943968    0.000000   -0.545000
      4          1           0       -0.943968    0.000000   -0.545000
 ---------------------------------------------------------------------
                    Distance matrix (angstroms):
                    1          2          3          4
     1  C    0.000000
     2  H    1.090000   0.000000
     3  H    1.090000   1.887935   0.000000
     4  H    1.090000   1.887935   1.887935   0.000000
 Symm:  InNGrp=C3V  InAxis=0.
 This structure is nearly, but not quite of a higher symmetry.
 Consider Symm=Loose if the higher symmetry is desired.
 Stoichiometry    CH3(2)
 Framework group  C2[C2(CH),X(H2)]
 Deg. of freedom     3
 Full point group                 C2      NOp   2
 Largest Abelian subgroup         C2      NOp   2
 Largest concise Abelian subgroup C2      NOp   2
                         Standard orientation:                         
 ---------------------------------------------------------------------
 Center     Atomic      Atomic             Coordinates (Angstroms)
 Number     Number       Type             X           Y           Z
 ---------------------------------------------------------------------
      1          6           0        0.000000    0.000000    0.000000
      2          1           0        0.000000    0.000000    1.090000
      3          1           0        0.000000    0.943968   -0.545000
      4          1           0       -0.000000   -0.943968   -0.545000
 ---------------------------------------------------------------------
 Rotational constants (GHZ):    281.3764836    281.3764836    140.6882418
 Leave Link  202 at Sat Aug 17 18:00:02 2024, MaxMem=   13107200 cpu:       0.0
 (Enter /programs/64bit/g09/g09-gfortran/bin/l301.exe)
 Standard basis: 6-31++G (6D, 7F)
 Ernie: Thresh=  0.10000D-02 Tol=  0.10000D-05 Strict=F.
 AO basis set in the form of general basis input (Overlap normalization):
      1 0
 S   6 1.00       0.000000000000
      0.3047524880D+04  0.1834737132D-02
      0.4573695180D+03  0.1403732281D-01
      0.1039486850D+03  0.6884262226D-01
      0.2921015530D+02  0.2321844432D+00
      0.9286662960D+01  0.4679413484D+00
      0.3163926960D+01  0.3623119853D+00
 SP   3 1.00       0.000000000000
      0.7868272350D+01 -0.1193324198D+00  0.6899906659D-01
      0.1881288540D+01 -0.1608541517D+00  0.3164239610D+00
      0.5442492580D+00  0.1143456438D+01  0.7443082909D+00
 SP   1 1.00       0.000000000000
      0.1687144782D+00  0.1000000000D+01  0.1000000000D+01
 SP   1 1.00       0.000000000000
      0.4380000000D-01  0.1000000000D+01  0.1000000000D+01
 ****
      2 0
 S   3 1.00       0.000000000000
      0.1873113696D+02  0.3349460434D-01
      0.2825394365D+01  0.2347269535D+00
      0.6401216923D+00  0.8137573261D+00
 S   1 1.00       0.000000000000
      0.1612777588D+00  0.1000000000D+01
 S   1 1.00       0.000000000000
      0.3600000000D-01  0.1000000000D+01
 ****
      3 0
 S   3 1.00       0.000000000000
      0.1873113696D+02  0.3349460434D-01
      0.2825394365D+01  0.2347269535D+00
      0.6401216923D+00  0.8137573261D+00
 S   1 1.00       0.000000000000
      0.1612777588D+00  0.1000000000D+01
 S   1 1.00       0.000000000000
      0.3600000000D-01  0.1000000000D+01
 ****
      4 0
 S   3 1.00       0.000000000000
      0.1873113696D+02  0.3349460434D-01
      0.2825394365D+01  0.2347269535D+00
      0.6401216923D+00  0.8137573261D+00
 S   1 1.00       0.000000000000
      0.1612777588D+00  0.1000000000D+01
 S   1 1.00       0.000000000000
      0.3600000000D-01  0.1000000000D+01
 ****

 There are    13 symmetry adapted basis functions of A   symmetry.
 There are     9 symmetry adapted basis functions of B   symmetry.
 Integral buffers will be    131072 words long.
 Raffenetti 2 integral format.
 Two-electron integral symmetry is turned on.
    22 basis functions,    41 primitive gaussians,    22 cartesian basis functions
     5 alpha electrons        4 beta electrons
       nuclear repulsion energy         9.5795885928 Hartrees.
 IExCor=    0 DFT=F Ex=HF Corr=None ExCW=0 ScaHFX=  1.000000
 ScaDFX=  1.000000  1.000000  1.000000  1.000000 ScalE2=  1.000000  1.000000
 IRadAn=      0 IRanWt=     -1 IRanGd=            0 ICorTp=0
 NAtoms=    4 NActive=    4 NUniq=    3 SFac= 1.33D+00 NAtFMM=   80 NAOKFM=F Big=F
 Leave Link  301 at Sat Aug 17 18:00:02 2024, MaxMem=   13107200 cpu:       0.1
 (Enter /programs/64bit/g09/g09-gfortran/bin/l302.exe)
 NPDir=0 NMtPBC=     1 NCelOv=     1 NCel=       1 NClECP=     1 NCelD=      1
         NCelK=      1 NCelE2=     1 NClLst=     1 CellRange=     0.0.
 One-electron integrals computed using PRISM.
 One-electron integral symmetry used in STVInt
 NBasis=    22 RedAO= T  NBF=    13     9
 NBsUse=    22 1.00D-06 NBFU=    13     9
 Leave Link  302 at Sat Aug 17 18:00:02 2024, MaxMem=   13107200 cpu:       0.1
 (Enter /programs/64bit/g09/g09-gfortran/bin/l303.exe)
 DipDrv:  MaxL=1.
 Leave Link  303 at Sat Aug 17 18:00:02 2024, MaxMem=   13107200 cpu:       0.0
 (Enter /programs/64bit/g09/g09-gfortran/bin/l401.exe)
 Harris functional with IExCor=  205 diagonalized for initial guess.
 ExpMin= 3.60D-02 ExpMax= 3.05D+03 ExpMxC= 4.57D+02 IAcc=3 IRadAn=         0 AccDes= 0.00D+00
 HarFok:  IExCor=  205 AccDes= 0.00D+00 IRadAn=         0 IDoV= 1
 ScaDFX=  1.000000  1.000000  1.000000  1.000000
 FoFCou: FMM=F IPFlag=           0 FMFlag=      100000 FMFlg1=           0
         NFxFlg=           0 DoJE=T BraDBF=F KetDBF=T FulRan=T
         Omega=  0.000000  0.000000  1.000000  0.000000  0.000000 ICntrl=     500 IOpCl=  0
         NMat0=    1 NMatS0=    1 NMatT0=    0 NMatD0=    1 NMtDS0=    0 NMtDT0=    0
         I1Cent=           4 NGrid=           0.
 Petite list used in FoFCou.
 Harris En= -39.6180670193352    
 Initial guess orbital symmetries:
 Alpha Orbitals:
       Occupied  (A) (A) (B) (A) (B)
       Virtual   (A) (B) (A) (B) (B) (A) (A) (A) (B) (A) (B) (A)
                 (B) (A) (B) (A) (A)
 Beta  Orbitals:
       Occupied  (A) (A) (B) (A)
       Virtual   (B) (A) (B) (A) (B) (B) (A) (A) (A) (B) (A) (B)
                 (A) (B) (A) (B) (A) (A)
 The electronic state of the initial guess is 2-B.
 Initial guess <Sx>= 0.0000 <Sy>= 0.0000 <Sz>= 0.5000 <S**2>= 0.7500 S= 0.5000
 Leave Link  401 at Sat Aug 17 18:00:03 2024, MaxMem=   13107200 cpu:       0.3
 (Enter /programs/64bit/g09/g09-gfortran/bin/l502.exe)
 UHF open shell SCF:
 Requested convergence on RMS density matrix=1.00D-08 within 128 cycles.
 Requested convergence on MAX density matrix=1.00D-06.
 Requested convergence on             energy=1.00D-06.
 No special actions if energy rises.
 Using DIIS extrapolation, IDIIS=  1040.
 Integral symmetry usage will be decided dynamically.
 Keep R1 and R2 ints in memory in canonical form, NReq=884223.
 IEnd=       19940 IEndB=       19940 NGot=    13107200 MDV=    13040117
 LenX=    13040117 LenY=    13039192
 Symmetry not used in FoFDir.
 MinBra= 0 MaxBra= 1 Meth= 1.
 IRaf=       0 NMat=   1 IRICut=       1 DoRegI=T DoRafI=F ISym2E= 0 JSym2E=0.

 Cycle   1  Pass 1  IDiag  1:
 E= -39.4892750774027    
 DIIS: error= 4.48D-02 at cycle   1 NSaved=   1.
 NSaved= 1 IEnMin= 1 EnMin= -39.4892750774027     IErMin= 1 ErrMin= 4.48D-02
 ErrMax= 4.48D-02 EMaxC= 1.00D-01 BMatC= 2.20D-01 BMatP= 2.20D-01
 IDIUse=3 WtCom= 5.52D-01 WtEn= 4.48D-01
 Coeff-Com:  0.100D+01
 Coeff-En:   0.100D+01
 Coeff:      0.100D+01
 Gap=     0.386 Goal=   None    Shift=    0.000
 Gap=     0.590 Goal=   None    Shift=    0.000
 GapD=    0.386 DampG=1.000 DampE=0.500 DampFc=0.5000 IDamp=-1.
 Damping current iteration by 5.00D-01
 RMSDP=1.10D-02 MaxDP=1.19D-01              OVMax= 1.08D-01

 Cycle   2  Pass 1  IDiag  1:
 E= -39.5208147614546     Delta-E=       -0.031539684052 Rises=F Damp=T
 DIIS: error= 1.71D-02 at cycle   2 NSaved=   2.
 NSaved= 2 IEnMin= 2 EnMin= -39.5208147614546     IErMin= 2 ErrMin= 1.71D-02
 ErrMax= 1.71D-02 EMaxC= 1.00D-01 BMatC= 3.52D-02 BMatP= 2.20D-01
 IDIUse=3 WtCom= 8.29D-01 WtEn= 1.71D-01
 Coeff-Com: -0.561D+00 0.156D+01
 Coeff-En:   0.000D+00 0.100D+01
 Coeff:     -0.465D+00 0.146D+01
 Gap=     0.420 Goal=   None    Shift=    0.000
 Gap=     0.609 Goal=   None    Shift=    0.000
 RMSDP=4.20D-03 MaxDP=3.30D-02 DE=-3.15D-02 OVMax= 3.39D-02

 Cycle   3  Pass 1  IDiag  1:
 E= -39.5476087048057     Delta-E=       -0.026793943351 Rises=F Damp=F
 DIIS: error= 2.65D-03 at cycle   3 NSaved=   3.
 NSaved= 3 IEnMin= 3 EnMin= -39.5476087048057     IErMin= 3 ErrMin= 2.65D-03
 ErrMax= 2.65D-03 EMaxC= 1.00D-01 BMatC= 5.54D-04 BMatP= 3.52D-02
 IDIUse=3 WtCom= 9.73D-01 WtEn= 2.65D-02
 Coeff-Com:  0.838D-01-0.226D+00 0.114D+01
 Coeff-En:   0.000D+00 0.000D+00 0.100D+01
 Coeff:      0.816D-01-0.220D+00 0.114D+01
 Gap=     0.427 Goal=   None    Shift=    0.000
 Gap=     0.612 Goal=   None    Shift=    0.000
 RMSDP=9.04D-04 MaxDP=7.12D-03 DE=-2.68D-02 OVMax= 7.26D-03

 Cycle   4  Pass 1  IDiag  1:
 E= -39.5479646937878     Delta-E=       -0.000355988982 Rises=F Damp=F
 DIIS: error= 1.62D-03 at cycle   4 NSaved=   4.
 NSaved= 4 IEnMin= 4 EnMin= -39.5479646937878     IErMin= 4 ErrMin= 1.62D-03
 ErrMax= 1.62D-03 EMaxC= 1.00D-01 BMatC= 1.77D-04 BMatP= 5.54D-04
 IDIUse=3 WtCom= 9.84D-01 WtEn= 1.62D-02
 Coeff-Com: -0.914D-01 0.235D+00-0.152D+01 0.238D+01
 Coeff-En:   0.000D+00 0.000D+00 0.000D+00 0.100D+01
 Coeff:     -0.899D-01 0.231D+00-0.150D+01 0.236D+01
 Gap=     0.431 Goal=   None    Shift=    0.000
 Gap=     0.611 Goal=   None    Shift=    0.000
 RMSDP=1.01D-03 MaxDP=6.00D-03 DE=-3.56D-04 OVMax= 8.26D-03

 Cycle   5  Pass 1  IDiag  1:
 E= -39.5481651683958     Delta-E=       -0.000200474608 Rises=F Damp=F
 DIIS: error= 3.57D-04 at cycle   5 NSaved=   5.
 NSaved= 5 IEnMin= 5 EnMin= -39.5481651683958     IErMin= 5 ErrMin= 3.57D-04
 ErrMax= 3.57D-04 EMaxC= 1.00D-01 BMatC= 9.02D-06 BMatP= 1.77D-04
 IDIUse=3 WtCom= 9.96D-01 WtEn= 3.57D-03
 Coeff-Com:  0.441D-01-0.113D+00 0.788D+00-0.143D+01 0.171D+01
 Coeff-En:   0.000D+00 0.000D+00 0.000D+00 0.000D+00 0.100D+01
 Coeff:      0.439D-01-0.112D+00 0.785D+00-0.142D+01 0.171D+01
 Gap=     0.432 Goal=   None    Shift=    0.000
 Gap=     0.611 Goal=   None    Shift=    0.000
 RMSDP=2.44D-04 MaxDP=1.59D-03 DE=-2.00D-04 OVMax= 2.07D-03

 Cycle   6  Pass 1  IDiag  1:
 E= -39.5481752572267     Delta-E=       -0.000010088831 Rises=F Damp=F
 DIIS: error= 5.14D-05 at cycle   6 NSaved=   6.
 NSaved= 6 IEnMin= 6 EnMin= -39.5481752572267     IErMin= 6 ErrMin= 5.14D-05
 ErrMax= 5.14D-05 EMaxC= 1.00D-01 BMatC= 1.59D-07 BMatP= 9.02D-06
 IDIUse=1 WtCom= 1.00D+00 WtEn= 0.00D+00
 Coeff-Com: -0.163D-01 0.416D-01-0.290D+00 0.535D+00-0.726D+00 0.146D+01
 Coeff:     -0.163D-01 0.416D-01-0.290D+00 0.535D+00-0.726D+00 0.146D+01
 Gap=     0.431 Goal=   None    Shift=    0.000
 Gap=     0.611 Goal=   None    Shift=    0.000
 RMSDP=2.31D-05 MaxDP=1.63D-04 DE=-1.01D-05 OVMax= 2.43D-04

 Cycle   7  Pass 1  IDiag  1:
 E= -39.5481754017988     Delta-E=       -0.000000144572 Rises=F Damp=F
 DIIS: error= 1.05D-05 at cycle   7 NSaved=   7.
 NSaved= 7 IEnMin= 7 EnMin= -39.5481754017988     IErMin= 7 ErrMin= 1.05D-05
 ErrMax= 1.05D-05 EMaxC= 1.00D-01 BMatC= 6.12D-09 BMatP= 1.59D-07
 IDIUse=1 WtCom= 1.00D+00 WtEn= 0.00D+00
 Coeff-Com:  0.188D-02-0.462D-02 0.279D-01-0.514D-01 0.751D-01-0.284D+00
 Coeff-Com:  0.124D+01
 Coeff:      0.188D-02-0.462D-02 0.279D-01-0.514D-01 0.751D-01-0.284D+00
 Coeff:      0.124D+01
 Gap=     0.431 Goal=   None    Shift=    0.000
 Gap=     0.611 Goal=   None    Shift=    0.000
 RMSDP=3.83D-06 MaxDP=3.50D-05 DE=-1.45D-07 OVMax= 4.04D-05

 Cycle   8  Pass 1  IDiag  1:
 E= -39.5481754061951     Delta-E=       -0.000000004396 Rises=F Damp=F
 DIIS: error= 3.76D-06 at cycle   8 NSaved=   8.
 NSaved= 8 IEnMin= 8 EnMin= -39.5481754061951     IErMin= 8 ErrMin= 3.76D-06
 ErrMax= 3.76D-06 EMaxC= 1.00D-01 BMatC= 2.38D-10 BMatP= 6.12D-09
 IDIUse=1 WtCom= 1.00D+00 WtEn= 0.00D+00
 Coeff-Com:  0.114D-03-0.346D-03 0.378D-02-0.699D-02 0.821D-02 0.257D-01
 Coeff-Com: -0.383D+00 0.135D+01
 Coeff:      0.114D-03-0.346D-03 0.378D-02-0.699D-02 0.821D-02 0.257D-01
 Coeff:     -0.383D+00 0.135D+01
 Gap=     0.431 Goal=   None    Shift=    0.000
 Gap=     0.611 Goal=   None    Shift=    0.000
 RMSDP=8.60D-07 MaxDP=1.56D-05 DE=-4.40D-09 OVMax= 1.67D-05

 Cycle   9  Pass 1  IDiag  1:
 E= -39.5481754064110     Delta-E=       -0.000000000216 Rises=F Damp=F
 DIIS: error= 8.34D-07 at cycle   9 NSaved=   9.
 NSaved= 9 IEnMin= 9 EnMin= -39.5481754064110     IErMin= 9 ErrMin= 8.34D-07
 ErrMax= 8.34D-07 EMaxC= 1.00D-01 BMatC= 1.38D-11 BMatP= 2.38D-10
 IDIUse=1 WtCom= 1.00D+00 WtEn= 0.00D+00
 Coeff-Com: -0.680D-06 0.381D-04-0.119D-02 0.226D-02-0.247D-02-0.188D-01
 Coeff-Com:  0.243D+00-0.958D+00 0.173D+01
 Coeff:     -0.680D-06 0.381D-04-0.119D-02 0.226D-02-0.247D-02-0.188D-01
 Coeff:      0.243D+00-0.958D+00 0.173D+01
 Gap=     0.431 Goal=   None    Shift=    0.000
 Gap=     0.611 Goal=   None    Shift=    0.000
 RMSDP=2.60D-07 MaxDP=4.01D-06 DE=-2.16D-10 OVMax= 5.04D-06

 Cycle  10  Pass 1  IDiag  1:
 E= -39.5481754064256     Delta-E=       -0.000000000015 Rises=F Damp=F
 DIIS: error= 5.94D-08 at cycle  10 NSaved=  10.
 NSaved=10 IEnMin=10 EnMin= -39.5481754064256     IErMin=10 ErrMin= 5.94D-08
 ErrMax= 5.94D-08 EMaxC= 1.00D-01 BMatC= 1.86D-13 BMatP= 1.38D-11
 IDIUse=1 WtCom= 1.00D+00 WtEn= 0.00D+00
 Coeff-Com: -0.311D-05-0.225D-05 0.271D-03-0.526D-03 0.563D-03 0.529D-02
 Coeff-Com: -0.673D-01 0.269D+00-0.568D+00 0.136D+01
 Coeff:     -0.311D-05-0.225D-05 0.271D-03-0.526D-03 0.563D-03 0.529D-02
 Coeff:     -0.673D-01 0.269D+00-0.568D+00 0.136D+01
 Gap=     0.431 Goal=   None    Shift=    0.000
 Gap=     0.611 Goal=   None    Shift=    0.000
 RMSDP=4.70D-08 MaxDP=3.02D-07 DE=-1.46D-11 OVMax= 4.15D-07

 Cycle  11  Pass 1  IDiag  1:
 E= -39.5481754064258     Delta-E=       -0.000000000000 Rises=F Damp=F
 DIIS: error= 4.25D-09 at cycle  11 NSaved=  11.
 NSaved=11 IEnMin=11 EnMin= -39.5481754064258     IErMin=11 ErrMin= 4.25D-09
 ErrMax= 4.25D-09 EMaxC= 1.00D-01 BMatC= 1.37D-15 BMatP= 1.86D-13
 IDIUse=1 WtCom= 1.00D+00 WtEn= 0.00D+00
 Coeff-Com: -0.101D-06 0.104D-05-0.272D-04 0.521D-04-0.584D-04-0.426D-03
 Coeff-Com:  0.575D-02-0.236D-01 0.559D-01-0.184D+00 0.115D+01
 Coeff:     -0.101D-06 0.104D-05-0.272D-04 0.521D-04-0.584D-04-0.426D-03
 Coeff:      0.575D-02-0.236D-01 0.559D-01-0.184D+00 0.115D+01
 Gap=     0.431 Goal=   None    Shift=    0.000
 Gap=     0.611 Goal=   None    Shift=    0.000
 RMSDP=3.34D-09 MaxDP=2.70D-08 DE=-1.78D-13 OVMax= 1.36D-08

 SCF Done:  E(UHF) =  -39.5481754064     A.U. after   11 cycles
             Convg  =    0.3344D-08             -V/T =  2.0007
 <Sx>= 0.0000 <Sy>= 0.0000 <Sz>= 0.5000 <S**2>= 0.7619 S= 0.5060
 <L.S>=  0.00000000000    
 KE= 3.951988199833D+01 PE=-1.108418465677D+02 EE= 2.219420057021D+01
 Annihilation of the first spin contaminant:
 S**2 before annihilation     0.7619,   after     0.7501
 Leave Link  502 at Sat Aug 17 18:00:03 2024, MaxMem=   13107200 cpu:       0.1
 (Enter /programs/64bit/g09/g09-gfortran/bin/l801.exe)
 ExpMin= 3.60D-02 ExpMax= 3.05D+03 ExpMxC= 4.57D+02 IAcc=3 IRadAn=         5 AccDes= 0.00D+00
 HarFok:  IExCor=  205 AccDes= 0.00D+00 IRadAn=         5 IDoV=-2
 ScaDFX=  1.000000  1.000000  1.000000  1.000000
 Largest valence mixing into a core orbital is  9.04D-05
 Largest core mixing into a valence orbital is  2.83D-05
 Largest valence mixing into a core orbital is  1.39D-04
 Largest core mixing into a valence orbital is  4.71D-05
 Range of M.O.s used for correlation:     2    22
 NBasis=    22 NAE=     5 NBE=     4 NFC=     1 NFV=     0
 NROrb=     21 NOA=     4 NOB=     3 NVA=    17 NVB=    18
 Leave Link  801 at Sat Aug 17 18:00:03 2024, MaxMem=   13107200 cpu:       0.5
 (Enter /programs/64bit/g09/g09-gfortran/bin/l906.exe)
 Frozen-core derivative calculation, NFC=   1 NFV=   0.
 FulOut=F Deriv=T AODrv=T NAtomX=     4
   MMem=        1711  MDisk=           4 MDiskD=           4
  W3Min=        4840 MinDsk=       56655 NBas6D=          22
 NBas2D=         271    NTT=         253    LW2=     2000000
    MDV=    13092627 MDiskM=        5252 NBas2p=         214
 Fully direct method using O(ONN) memory.
 IMap=   1   2   3   4   5
 JobTyp=2 Pass  1:  I=   2 to   5 NPSUse=  1 ParTrn=F ParDer=F DoDerP=T.
 IMap=   1   2   3   4
 JobTyp=3 Pass  1:  I=   2 to   4 NPSUse=  1 ParTrn=F ParDer=F DoDerP=T.
 Spin components of T(2) and E(2):
     alpha-alpha T2 =       0.3911622010D-02 E2=     -0.9522853432D-02
     alpha-beta  T2 =       0.2419832851D-01 E2=     -0.6441936358D-01
     beta-beta   T2 =       0.1488938000D-02 E2=     -0.3791971532D-02
 The integrals were generated   2 times.
 (S**2,0)=  0.76194D+00           (S**2,1)=  0.75451D+00
 E(PUHF)=      -0.39550651841D+02        E(PMP2)=      -0.39627618846D+02
 ANorm=    0.1014691524D+01
 E2 =    -0.7773418854D-01 EUMP2 =    -0.39625909594966D+02
 Leave Link  906 at Sat Aug 17 18:00:04 2024, MaxMem=   13107200 cpu:       0.4
 (Enter /programs/64bit/g09/g09-gfortran/bin/l1002.exe)
 Minotr:  UHF open shell wavefunction.
          Computing MP2/KS-MP2 derivatives.
          Using Z-Vector for PSCF gradient.
          Skipping F1 and S1 gradient terms here.
          IDoAtm=1111
          Frozen-core window.
          Direct CPHF calculation.
          Differentiating once with respect to electric field.
                with respect to dipole field.
          Differentiating once with respect to nuclear coordinates.
          Using symmetry in CPHF.
          Requested convergence is 1.0D-10 RMS, and 1.0D-09 maximum.
          NewPWx=F KeepS1=T KeepF1=T KeepIn=T MapXYZ=F SortEE=F KeepMc=T.
          MDV=      13107156 using IRadAn=       0.
          Keep R1 and R2 ints in memory in canonical form, NReq=864824.
 Symmetry not used in FoFDir.
 MinBra= 0 MaxBra= 1 Meth= 1.
 IRaf=       0 NMat=   1 IRICut=       1 DoRegI=T DoRafI=F ISym2E= 0 JSym2E=0.
          Solving linear equations separately, MaxMat=       0.
          There are     1 degrees of freedom in the 1st order CPHF.  IDoFFX=0.
 LinEq1:  Iter=  0 NonCon=     1 RMS=3.01D-03 Max=2.64D-02
 AX will form     1 AO Fock derivatives at one time.
 LinEq1:  Iter=  1 NonCon=     1 RMS=5.11D-04 Max=2.80D-03
 LinEq1:  Iter=  2 NonCon=     1 RMS=1.67D-04 Max=8.28D-04
 LinEq1:  Iter=  3 NonCon=     1 RMS=3.83D-05 Max=2.17D-04
 LinEq1:  Iter=  4 NonCon=     1 RMS=5.05D-06 Max=3.25D-05
 LinEq1:  Iter=  5 NonCon=     1 RMS=4.42D-07 Max=2.54D-06
 LinEq1:  Iter=  6 NonCon=     1 RMS=5.52D-08 Max=2.56D-07
 LinEq1:  Iter=  7 NonCon=     1 RMS=5.86D-09 Max=2.34D-08
 LinEq1:  Iter=  8 NonCon=     1 RMS=5.31D-10 Max=2.65D-09
 LinEq1:  Iter=  9 NonCon=     0 RMS=3.17D-11 Max=1.27D-10
 Linear equations converged to 1.000D-10 1.000D-09 after     9 iterations.
 End of Minotr Frequency-dependent properties file   721 does not exist.
 End of Minotr Frequency-dependent properties file   722 does not exist.
 Leave Link 1002 at Sat Aug 17 18:00:04 2024, MaxMem=   13107200 cpu:       0.1
 (Enter /programs/64bit/g09/g09-gfortran/bin/l601.exe)
 Copying SCF densities to generalized density rwf, IOpCl= 1 IROHF=0.

 **********************************************************************

            Population analysis using the SCF density.

 **********************************************************************

 Orbital symmetries:
 Alpha Orbitals:
       Occupied  (A) (A) (B) (A) (B)
       Virtual   (A) (B) (A) (B) (A) (B) (A) (A) (B) (A) (B) (B)
                 (A) (A) (A) (B) (A)
 Beta  Orbitals:
       Occupied  (A) (A) (B) (A)
       Virtual   (A) (B) (B) (A) (A) (B) (A) (B) (A) (B) (A) (B)
                 (A) (B) (A) (A) (B) (A)
 The electronic state is 2-B.
 Alpha  occ. eigenvalues --  -11.24326  -0.95011  -0.57935  -0.57935  -0.38560
 Alpha virt. eigenvalues --    0.04583   0.07741   0.07741   0.13391   0.17457
 Alpha virt. eigenvalues --    0.17457   0.21199   0.32653   0.35925   0.35925
 Alpha virt. eigenvalues --    0.86334   0.92798   0.92798   1.20950   1.26253
 Alpha virt. eigenvalues --    1.30153   1.30153
  Beta  occ. eigenvalues --  -11.21836  -0.85233  -0.56261  -0.56261
  Beta virt. eigenvalues --    0.04816   0.07073   0.07823   0.07823   0.17546
  Beta virt. eigenvalues --    0.17546   0.22481   0.22992   0.35635   0.36858
  Beta virt. eigenvalues --    0.36858   0.94493   0.94493   0.98920   1.24146
  Beta virt. eigenvalues --    1.27449   1.30239   1.30239
     Alpha Molecular Orbital Coefficients:
                           1         2         3         4         5
                           O         O         O         O         O
     Eigenvalues --   -11.24326  -0.95011  -0.57935  -0.57935  -0.38560
   1 1   C  1S          0.99590  -0.20512   0.00000  -0.00000   0.00000
   2        2S          0.02590   0.40326   0.00000   0.00000   0.00000
   3        2PX         0.00000   0.00000   0.00000   0.00000   0.59096
   4        2PY         0.00000   0.00000   0.45977   0.00000   0.00000
   5        2PZ        -0.00000  -0.00000   0.00000   0.45977   0.00000
   6        3S         -0.01345   0.44029   0.00000   0.00000   0.00000
   7        3PX         0.00000   0.00000  -0.00000   0.00000   0.49148
   8        3PY         0.00000   0.00000   0.22537   0.00000   0.00000
   9        3PZ         0.00000  -0.00000   0.00000   0.22537   0.00000
  10        4S          0.00923   0.00255   0.00000   0.00000   0.00000
  11        4PX         0.00000   0.00000   0.00000   0.00000   0.09058
  12        4PY         0.00000   0.00000  -0.00078   0.00000   0.00000
  13        4PZ        -0.00000  -0.00000   0.00000  -0.00078   0.00000
  14 2   H  1S         -0.00025   0.13918   0.00000   0.27701   0.00000
  15        2S          0.00183   0.02202   0.00000   0.18756   0.00000
  16        3S         -0.00251   0.00390   0.00000   0.02405   0.00000
  17 3   H  1S         -0.00025   0.13918   0.23990  -0.13851   0.00000
  18        2S          0.00183   0.02202   0.16243  -0.09378  -0.00000
  19        3S         -0.00251   0.00390   0.02082  -0.01202  -0.00000
  20 4   H  1S         -0.00025   0.13918  -0.23990  -0.13851  -0.00000
  21        2S          0.00183   0.02202  -0.16243  -0.09378   0.00000
  22        3S         -0.00251   0.00390  -0.02082  -0.01202   0.00000
                           6         7         8         9        10
                           V         V         V         V         V
     Eigenvalues --     0.04583   0.07741   0.07741   0.13391   0.17457
   1 1   C  1S         -0.03537   0.00000   0.00000   0.00000   0.00000
   2        2S          0.12341   0.00000  -0.00000   0.00000  -0.00000
   3        2PX         0.00000   0.00000   0.00000  -0.18245   0.00000
   4        2PY         0.00000  -0.10392   0.00000  -0.00000   0.00000
   5        2PZ        -0.00000   0.00000  -0.10392   0.00000   0.06454
   6        3S          0.05110   0.00000  -0.00000   0.00000  -0.00000
   7        3PX         0.00000   0.00000   0.00000  -0.44734   0.00000
   8        3PY         0.00000   0.02592   0.00000  -0.00000   0.00000
   9        3PZ         0.00000   0.00000   0.02592   0.00000   0.04817
  10        4S          3.55324   0.00000   0.00000   0.00000   0.00000
  11        4PX         0.00000  -0.00000   0.00000   1.16498   0.00000
  12        4PY         0.00000  -1.65961   0.00000   0.00000   0.00000
  13        4PZ        -0.00000   0.00000  -1.65961   0.00000  -3.72524
  14 2   H  1S          0.00188   0.00000  -0.01645   0.00000   0.03940
  15        2S         -0.06257   0.00000  -0.12499   0.00000   0.59614
  16        3S         -1.50368   0.00000   4.53950   0.00000   5.07882
  17 3   H  1S          0.00188  -0.01424   0.00822  -0.00000  -0.01970
  18        2S         -0.06257  -0.10824   0.06249  -0.00000  -0.29807
  19        3S         -1.50368   3.93132  -2.26975  -0.00000  -2.53941
  20 4   H  1S          0.00188   0.01424   0.00822   0.00000  -0.01970
  21        2S         -0.06257   0.10824   0.06249   0.00000  -0.29807
  22        3S         -1.50368  -3.93132  -2.26975   0.00000  -2.53941
                          11        12        13        14        15
                           V         V         V         V         V
     Eigenvalues --     0.17457   0.21199   0.32653   0.35925   0.35925
   1 1   C  1S          0.00000   0.08397  -0.12164   0.00000   0.00000
   2        2S          0.00000  -0.06701   0.05994   0.00000   0.00000
   3        2PX        -0.00000   0.00000   0.00000  -0.00000   0.00000
   4        2PY         0.06454   0.00000   0.00000   0.31572   0.00000
   5        2PZ         0.00000  -0.00000   0.00000   0.00000   0.31572
   6        3S          0.00000  -0.95403   2.41763   0.00000  -0.00000
   7        3PX         0.00000   0.00000   0.00000  -0.00000   0.00000
   8        3PY         0.04817   0.00000   0.00000   1.68946   0.00000
   9        3PZ         0.00000   0.00000   0.00000   0.00000   1.68946
  10        4S          0.00000   7.96348   1.97866   0.00000  -0.00000
  11        4PX         0.00000   0.00000   0.00000   0.00000   0.00000
  12        4PY        -3.72524   0.00000   0.00000  -0.91995   0.00000
  13        4PZ         0.00000   0.00000  -0.00000   0.00000  -0.91995
  14 2   H  1S          0.00000   0.00608  -0.10950   0.00000  -0.08950
  15        2S          0.00000  -0.36010  -1.55190   0.00000  -2.10736
  16        3S          0.00000  -2.22456  -0.25728   0.00000   2.13591
  17 3   H  1S          0.03412   0.00608  -0.10950  -0.07751   0.04475
  18        2S          0.51628  -0.36010  -1.55190  -1.82502   1.05368
  19        3S          4.39839  -2.22456  -0.25728   1.84975  -1.06796
  20 4   H  1S         -0.03412   0.00608  -0.10950   0.07751   0.04475
  21        2S         -0.51628  -0.36010  -1.55190   1.82502   1.05368
  22        3S         -4.39839  -2.22456  -0.25728  -1.84975  -1.06796
                          16        17        18        19        20
                           V         V         V         V         V
     Eigenvalues --     0.86334   0.92798   0.92798   1.20950   1.26253
   1 1   C  1S          0.00000   0.00000   0.00000   0.03184   0.07462
   2        2S          0.00000   0.00000   0.00000   2.06756  -0.84026
   3        2PX        -1.09674   0.00000   0.00000   0.00000   0.00000
   4        2PY        -0.00000  -0.96996   0.00000   0.00000   0.00000
   5        2PZ         0.00000   0.00000  -0.96996   0.00000  -0.00000
   6        3S          0.00000   0.00000  -0.00000  -3.76194   1.82426
   7        3PX         1.38517  -0.00000   0.00000   0.00000   0.00000
   8        3PY         0.00000   2.10624   0.00000   0.00000   0.00000
   9        3PZ         0.00000   0.00000   2.10624  -0.00000   0.00000
  10        4S          0.00000   0.00000   0.00000   4.20521   1.53063
  11        4PX        -0.52268   0.00000   0.00000   0.00000   0.00000
  12        4PY        -0.00000  -1.80339   0.00000   0.00000   0.00000
  13        4PZ         0.00000   0.00000  -1.80339   0.00000  -0.00000
  14 2   H  1S          0.00000   0.00000  -0.39668   0.32459   0.77579
  15        2S          0.00000   0.00000  -0.39596   0.16197  -1.32940
  16        3S          0.00000   0.00000   2.24545  -1.08372  -0.23591
  17 3   H  1S         -0.00000  -0.34354   0.19834   0.32459   0.77579
  18        2S         -0.00000  -0.34292   0.19798   0.16197  -1.32940
  19        3S         -0.00000   1.94462  -1.12273  -1.08372  -0.23591
  20 4   H  1S          0.00000   0.34354   0.19834   0.32459   0.77579
  21        2S          0.00000   0.34292   0.19798   0.16197  -1.32940
  22        3S          0.00000  -1.94462  -1.12273  -1.08372  -0.23591
                          21        22
                           V         V
     Eigenvalues --     1.30153   1.30153
   1 1   C  1S          0.00000   0.00000
   2        2S          0.00000  -0.00000
   3        2PX         0.00000   0.00000
   4        2PY         0.71482   0.00000
   5        2PZ         0.00000   0.71482
   6        3S          0.00000   0.00000
   7        3PX        -0.00000   0.00000
   8        3PY        -0.75086   0.00000
   9        3PZ         0.00000  -0.75086
  10        4S          0.00000   0.00000
  11        4PX         0.00000   0.00000
  12        4PY        -0.23612   0.00000
  13        4PZ         0.00000  -0.23612
  14 2   H  1S          0.00000  -1.10889
  15        2S          0.00000   1.66704
  16        3S          0.00000  -0.22817
  17 3   H  1S         -0.96032   0.55444
  18        2S          1.44370  -0.83352
  19        3S         -0.19760   0.11408
  20 4   H  1S          0.96032   0.55444
  21        2S         -1.44370  -0.83352
  22        3S          0.19760   0.11408
     Beta Molecular Orbital Coefficients:
                           1         2         3         4         5
                           O         O         O         O         V
     Eigenvalues --   -11.21836  -0.85233  -0.56261  -0.56261   0.04816
   1 1   C  1S          0.99653  -0.18975   0.00000  -0.00000  -0.03425
   2        2S          0.02306   0.37646   0.00000   0.00000   0.11662
   3        2PX         0.00000   0.00000  -0.00000   0.00000   0.00000
   4        2PY         0.00000   0.00000   0.42250   0.00000   0.00000
   5        2PZ        -0.00000   0.00000   0.00000   0.42250  -0.00000
   6        3S         -0.01339   0.29512   0.00000   0.00000   0.01471
   7        3PX         0.00000   0.00000  -0.00000   0.00000   0.00000
   8        3PY         0.00000   0.00000   0.18179   0.00000   0.00000
   9        3PZ         0.00000  -0.00000   0.00000   0.18179   0.00000
  10        4S          0.00816  -0.08565   0.00000   0.00000   3.70702
  11        4PX         0.00000   0.00000   0.00000   0.00000   0.00000
  12        4PY         0.00000   0.00000   0.00455   0.00000   0.00000
  13        4PZ        -0.00000  -0.00000   0.00000   0.00455  -0.00000
  14 2   H  1S          0.00010   0.17207   0.00000   0.30272   0.00946
  15        2S          0.00190   0.09346   0.00000   0.23919  -0.05107
  16        3S         -0.00224   0.02322   0.00000   0.01669  -1.55076
  17 3   H  1S          0.00010   0.17207   0.26216  -0.15136   0.00946
  18        2S          0.00190   0.09346   0.20714  -0.11959  -0.05107
  19        3S         -0.00224   0.02322   0.01445  -0.00834  -1.55076
  20 4   H  1S          0.00010   0.17207  -0.26216  -0.15136   0.00946
  21        2S          0.00190   0.09346  -0.20714  -0.11959  -0.05107
  22        3S         -0.00224   0.02322  -0.01445  -0.00834  -1.55076
                           6         7         8         9        10
                           V         V         V         V         V
     Eigenvalues --     0.07073   0.07823   0.07823   0.17546   0.17546
   1 1   C  1S          0.00000   0.00000   0.00000   0.00000   0.00000
   2        2S          0.00000   0.00000  -0.00000   0.00000   0.00000
   3        2PX         0.22863   0.00000   0.00000   0.00000  -0.00000
   4        2PY         0.00000  -0.10045   0.00000   0.00000   0.05351
   5        2PZ         0.00000   0.00000  -0.10045   0.05351   0.00000
   6        3S          0.00000   0.00000  -0.00000  -0.00000   0.00000
   7        3PX         0.13959   0.00000   0.00000   0.00000  -0.00000
   8        3PY        -0.00000   0.03366   0.00000   0.00000   0.03880
   9        3PZ         0.00000   0.00000   0.03366   0.03880   0.00000
  10        4S          0.00000   0.00000  -0.00000   0.00000   0.00000
  11        4PX         0.83213   0.00000   0.00000   0.00000   0.00000
  12        4PY         0.00000  -1.68963   0.00000   0.00000  -3.71007
  13        4PZ         0.00000   0.00000  -1.68963  -3.71007   0.00000
  14 2   H  1S          0.00000   0.00000  -0.02276   0.04178   0.00000
  15        2S          0.00000   0.00000  -0.13942   0.61412   0.00000
  16        3S          0.00000   0.00000   4.58809   5.03376   0.00000
  17 3   H  1S          0.00000  -0.01971   0.01138  -0.02089   0.03618
  18        2S          0.00000  -0.12074   0.06971  -0.30706   0.53184
  19        3S         -0.00000   3.97340  -2.29405  -2.51688   4.35937
  20 4   H  1S         -0.00000   0.01971   0.01138  -0.02089  -0.03618
  21        2S         -0.00000   0.12074   0.06971  -0.30706  -0.53184
  22        3S          0.00000  -3.97340  -2.29405  -2.51688  -4.35937
                          11        12        13        14        15
                           V         V         V         V         V
     Eigenvalues --     0.22481   0.22992   0.35635   0.36858   0.36858
   1 1   C  1S          0.08665   0.00000  -0.13363   0.00000   0.00000
   2        2S         -0.03302   0.00000   0.08745   0.00000   0.00000
   3        2PX         0.00000   0.36590   0.00000  -0.00000   0.00000
   4        2PY         0.00000   0.00000   0.00000   0.32000   0.00000
   5        2PZ        -0.00000   0.00000   0.00000   0.00000   0.32000
   6        3S         -1.04619   0.00000   2.44963   0.00000  -0.00000
   7        3PX         0.00000   0.86267   0.00000  -0.00000   0.00000
   8        3PY         0.00000   0.00000   0.00000   1.72739   0.00000
   9        3PZ         0.00000   0.00000   0.00000   0.00000   1.72739
  10        4S          7.91873   0.00000   2.12918   0.00000  -0.00000
  11        4PX         0.00000  -0.85959   0.00000   0.00000   0.00000
  12        4PY         0.00000  -0.00000   0.00000  -0.96376   0.00000
  13        4PZ         0.00000   0.00000  -0.00000   0.00000  -0.96376
  14 2   H  1S          0.00415   0.00000  -0.08240   0.00000  -0.07107
  15        2S         -0.33771   0.00000  -1.57270   0.00000  -2.10786
  16        3S         -2.20101   0.00000  -0.30396   0.00000   2.17495
  17 3   H  1S          0.00415   0.00000  -0.08240  -0.06155   0.03554
  18        2S         -0.33771   0.00000  -1.57270  -1.82546   1.05393
  19        3S         -2.20101   0.00000  -0.30396   1.88356  -1.08748
  20 4   H  1S          0.00415  -0.00000  -0.08240   0.06155   0.03554
  21        2S         -0.33771  -0.00000  -1.57270   1.82546   1.05393
  22        3S         -2.20101  -0.00000  -0.30396  -1.88356  -1.08748
                          16        17        18        19        20
                           V         V         V         V         V
     Eigenvalues --     0.94493   0.94493   0.98920   1.24146   1.27449
   1 1   C  1S          0.00000  -0.00000   0.00000   0.06017   0.06582
   2        2S          0.00000   0.00000   0.00000   1.61969  -1.54255
   3        2PX        -0.00000   0.00000  -1.18288   0.00000   0.00000
   4        2PY        -0.95552   0.00000   0.00000   0.00000   0.00000
   5        2PZ         0.00000  -0.95552   0.00000   0.00000   0.00000
   6        3S          0.00000  -0.00000   0.00000  -2.87352   2.99868
   7        3PX         0.00000   0.00000   1.26360   0.00000   0.00000
   8        3PY         2.06469   0.00000  -0.00000   0.00000   0.00000
   9        3PZ         0.00000   2.06469   0.00000  -0.00000  -0.00000
  10        4S          0.00000   0.00000   0.00000   4.35822  -0.03186
  11        4PX        -0.00000   0.00000  -0.45524   0.00000   0.00000
  12        4PY        -1.78812   0.00000   0.00000   0.00000   0.00000
  13        4PZ         0.00000  -1.78812   0.00000   0.00000  -0.00000
  14 2   H  1S          0.00000  -0.42926   0.00000   0.58113   0.60365
  15        2S          0.00000  -0.33015   0.00000  -0.30631  -1.28195
  16        3S          0.00000   2.20584   0.00000  -1.06777   0.15383
  17 3   H  1S         -0.37175   0.21463   0.00000   0.58113   0.60365
  18        2S         -0.28592   0.16508   0.00000  -0.30631  -1.28195
  19        3S          1.91032  -1.10292  -0.00000  -1.06777   0.15383
  20 4   H  1S          0.37175   0.21463  -0.00000   0.58113   0.60365
  21        2S          0.28592   0.16508  -0.00000  -0.30631  -1.28195
  22        3S         -1.91032  -1.10292   0.00000  -1.06777   0.15383
                          21        22
                           V         V
     Eigenvalues --     1.30239   1.30239
   1 1   C  1S          0.00000  -0.00000
   2        2S          0.00000   0.00000
   3        2PX         0.00000   0.00000
   4        2PY         0.75561   0.00000
   5        2PZ         0.00000   0.75561
   6        3S          0.00000  -0.00000
   7        3PX        -0.00000   0.00000
   8        3PY        -0.79098   0.00000
   9        3PZ         0.00000  -0.79098
  10        4S          0.00000  -0.00000
  11        4PX         0.00000   0.00000
  12        4PY        -0.20068   0.00000
  13        4PZ         0.00000  -0.20068
  14 2   H  1S          0.00000  -1.09102
  15        2S          0.00000   1.66645
  16        3S          0.00000  -0.26923
  17 3   H  1S         -0.94485   0.54551
  18        2S          1.44319  -0.83323
  19        3S         -0.23316   0.13462
  20 4   H  1S          0.94485   0.54551
  21        2S         -1.44319  -0.83323
  22        3S          0.23316   0.13462
     Alpha Density Matrix:
                           1         2         3         4         5
   1 1   C  1S          1.03388
   2        2S         -0.05693   0.16329
   3        2PX         0.00000   0.00000   0.34923
   4        2PY         0.00000   0.00000   0.00000   0.21139
   5        2PZ        -0.00000  -0.00000   0.00000   0.00000   0.21139
   6        3S         -0.10370   0.17720   0.00000   0.00000   0.00000
   7        3PX         0.00000   0.00000   0.29045  -0.00000   0.00000
   8        3PY         0.00000   0.00000   0.00000   0.10362   0.00000
   9        3PZ         0.00000  -0.00000   0.00000   0.00000   0.10362
  10        4S          0.00867   0.00127   0.00000   0.00000   0.00000
  11        4PX         0.00000   0.00000   0.05353   0.00000   0.00000
  12        4PY         0.00000   0.00000   0.00000  -0.00036   0.00000
  13        4PZ        -0.00000  -0.00000   0.00000   0.00000  -0.00036
  14 2   H  1S         -0.02880   0.05612   0.00000   0.00000   0.12736
  15        2S         -0.00270   0.00893   0.00000   0.00000   0.08623
  16        3S         -0.00330   0.00151   0.00000   0.00000   0.01106
  17 3   H  1S         -0.02880   0.05612   0.00000   0.11030  -0.06368
  18        2S         -0.00270   0.00893  -0.00000   0.07468  -0.04312
  19        3S         -0.00330   0.00151  -0.00000   0.00957  -0.00553
  20 4   H  1S         -0.02880   0.05612  -0.00000  -0.11030  -0.06368
  21        2S         -0.00270   0.00893   0.00000  -0.07468  -0.04312
  22        3S         -0.00330   0.00151   0.00000  -0.00957  -0.00553
                           6         7         8         9        10
   6        3S          0.19404
   7        3PX         0.00000   0.24155
   8        3PY         0.00000   0.00000   0.05079
   9        3PZ         0.00000   0.00000   0.00000   0.05079
  10        4S          0.00100   0.00000   0.00000   0.00000   0.00009
  11        4PX         0.00000   0.04452   0.00000   0.00000   0.00000
  12        4PY         0.00000   0.00000  -0.00018   0.00000   0.00000
  13        4PZ        -0.00000   0.00000   0.00000  -0.00018  -0.00000
  14 2   H  1S          0.06128   0.00000   0.00000   0.06243   0.00035
  15        2S          0.00967   0.00000   0.00000   0.04227   0.00007
  16        3S          0.00175   0.00000   0.00000   0.00542  -0.00001
  17 3   H  1S          0.06128  -0.00000   0.05407  -0.03121   0.00035
  18        2S          0.00967  -0.00000   0.03661  -0.02114   0.00007
  19        3S          0.00175  -0.00000   0.00469  -0.00271  -0.00001
  20 4   H  1S          0.06128   0.00000  -0.05407  -0.03121   0.00035
  21        2S          0.00967   0.00000  -0.03661  -0.02114   0.00007
  22        3S          0.00175   0.00000  -0.00469  -0.00271  -0.00001
                          11        12        13        14        15
  11        4PX         0.00820
  12        4PY         0.00000   0.00000
  13        4PZ         0.00000   0.00000   0.00000
  14 2   H  1S          0.00000   0.00000  -0.00022   0.09611
  15        2S          0.00000   0.00000  -0.00015   0.05502   0.03567
  16        3S          0.00000   0.00000  -0.00002   0.00720   0.00459
  17 3   H  1S          0.00000  -0.00019   0.00011  -0.01900  -0.02291
  18        2S         -0.00000  -0.00013   0.00007  -0.02291  -0.01710
  19        3S         -0.00000  -0.00002   0.00001  -0.00279  -0.00217
  20 4   H  1S         -0.00000   0.00019   0.00011  -0.01900  -0.02291
  21        2S          0.00000   0.00013   0.00007  -0.02291  -0.01710
  22        3S          0.00000   0.00002   0.00001  -0.00279  -0.00217
                          16        17        18        19        20
  16        3S          0.00060
  17 3   H  1S         -0.00279   0.09611
  18        2S         -0.00217   0.05502   0.03567
  19        3S         -0.00027   0.00720   0.00459   0.00060
  20 4   H  1S         -0.00279  -0.01900  -0.02291  -0.00279   0.09611
  21        2S         -0.00217  -0.02291  -0.01710  -0.00217   0.05502
  22        3S         -0.00027  -0.00279  -0.00217  -0.00027   0.00720
                          21        22
  21        2S          0.03567
  22        3S          0.00459   0.00060
     Beta Density Matrix:
                           1         2         3         4         5
   1 1   C  1S          1.02907
   2        2S         -0.04845   0.14225
   3        2PX         0.00000   0.00000   0.00000
   4        2PY         0.00000   0.00000  -0.00000   0.17851
   5        2PZ        -0.00000   0.00000   0.00000   0.00000   0.17851
   6        3S         -0.06934   0.11079   0.00000   0.00000   0.00000
   7        3PX         0.00000   0.00000   0.00000  -0.00000   0.00000
   8        3PY         0.00000   0.00000  -0.00000   0.07681   0.00000
   9        3PZ         0.00000  -0.00000   0.00000   0.00000   0.07681
  10        4S          0.02438  -0.03206   0.00000   0.00000   0.00000
  11        4PX         0.00000   0.00000  -0.00000   0.00000   0.00000
  12        4PY         0.00000   0.00000  -0.00000   0.00192   0.00000
  13        4PZ         0.00000  -0.00000   0.00000   0.00000   0.00192
  14 2   H  1S         -0.03255   0.06478   0.00000   0.00000   0.12790
  15        2S         -0.01584   0.03523   0.00000   0.00000   0.10106
  16        3S         -0.00664   0.00869   0.00000   0.00000   0.00705
  17 3   H  1S         -0.03255   0.06478  -0.00000   0.11076  -0.06395
  18        2S         -0.01584   0.03523  -0.00000   0.08752  -0.05053
  19        3S         -0.00664   0.00869  -0.00000   0.00611  -0.00352
  20 4   H  1S         -0.03255   0.06478   0.00000  -0.11076  -0.06395
  21        2S         -0.01584   0.03523   0.00000  -0.08752  -0.05053
  22        3S         -0.00664   0.00869   0.00000  -0.00611  -0.00352
                           6         7         8         9        10
   6        3S          0.08728
   7        3PX         0.00000   0.00000
   8        3PY         0.00000  -0.00000   0.03305
   9        3PZ         0.00000   0.00000   0.00000   0.03305
  10        4S         -0.02539   0.00000   0.00000   0.00000   0.00740
  11        4PX         0.00000  -0.00000   0.00000   0.00000   0.00000
  12        4PY         0.00000  -0.00000   0.00083   0.00000   0.00000
  13        4PZ        -0.00000   0.00000   0.00000   0.00083   0.00000
  14 2   H  1S          0.05078   0.00000   0.00000   0.05503  -0.01474
  15        2S          0.02756   0.00000   0.00000   0.04348  -0.00799
  16        3S          0.00688   0.00000   0.00000   0.00303  -0.00201
  17 3   H  1S          0.05078  -0.00000   0.04766  -0.02752  -0.01474
  18        2S          0.02756  -0.00000   0.03766  -0.02174  -0.00799
  19        3S          0.00688  -0.00000   0.00263  -0.00152  -0.00201
  20 4   H  1S          0.05078   0.00000  -0.04766  -0.02752  -0.01474
  21        2S          0.02756   0.00000  -0.03766  -0.02174  -0.00799
  22        3S          0.00688   0.00000  -0.00263  -0.00152  -0.00201
                          11        12        13        14        15
  11        4PX         0.00000
  12        4PY         0.00000   0.00002
  13        4PZ         0.00000   0.00000   0.00002
  14 2   H  1S          0.00000   0.00000   0.00138   0.12125
  15        2S          0.00000   0.00000   0.00109   0.08849   0.06595
  16        3S          0.00000   0.00000   0.00008   0.00905   0.00616
  17 3   H  1S          0.00000   0.00119  -0.00069  -0.01621  -0.02012
  18        2S          0.00000   0.00094  -0.00054  -0.02012  -0.01987
  19        3S          0.00000   0.00007  -0.00004   0.00147   0.00017
  20 4   H  1S         -0.00000  -0.00119  -0.00069  -0.01621  -0.02012
  21        2S         -0.00000  -0.00094  -0.00054  -0.02012  -0.01987
  22        3S         -0.00000  -0.00007  -0.00004   0.00147   0.00017
                          16        17        18        19        20
  16        3S          0.00082
  17 3   H  1S          0.00147   0.12125
  18        2S          0.00017   0.08849   0.06595
  19        3S          0.00040   0.00905   0.00616   0.00082
  20 4   H  1S          0.00147  -0.01621  -0.02012   0.00147   0.12125
  21        2S          0.00017  -0.02012  -0.01987   0.00017   0.08849
  22        3S          0.00040   0.00147   0.00017   0.00040   0.00905
                          21        22
  21        2S          0.06595
  22        3S          0.00616   0.00082
    Full Mulliken population analysis:
                           1         2         3         4         5
   1 1   C  1S          2.06295
   2        2S         -0.02308   0.30554
   3        2PX         0.00000   0.00000   0.34923
   4        2PY         0.00000   0.00000   0.00000   0.38990
   5        2PZ         0.00000   0.00000   0.00000   0.00000   0.38990
   6        3S         -0.03189   0.23393   0.00000   0.00000   0.00000
   7        3PX         0.00000   0.00000   0.16548   0.00000   0.00000
   8        3PY         0.00000   0.00000   0.00000   0.10280   0.00000
   9        3PZ         0.00000   0.00000   0.00000   0.00000   0.10280
  10        4S          0.00231  -0.01238   0.00000   0.00000   0.00000
  11        4PX         0.00000   0.00000   0.00881   0.00000   0.00000
  12        4PY         0.00000   0.00000   0.00000   0.00026   0.00000
  13        4PZ         0.00000   0.00000   0.00000   0.00000   0.00026
  14 2   H  1S         -0.00201   0.03309   0.00000   0.00000   0.09428
  15        2S         -0.00171   0.02102   0.00000   0.00000   0.04977
  16        3S         -0.00052   0.00313   0.00000   0.00000   0.00081
  17 3   H  1S         -0.00201   0.03309  -0.00000   0.07071   0.02357
  18        2S         -0.00171   0.02102   0.00000   0.03733   0.01244
  19        3S         -0.00052   0.00313   0.00000   0.00061   0.00020
  20 4   H  1S         -0.00201   0.03309   0.00000   0.07071   0.02357
  21        2S         -0.00171   0.02102  -0.00000   0.03733   0.01244
  22        3S         -0.00052   0.00313  -0.00000   0.00061   0.00020
                           6         7         8         9        10
   6        3S          0.28132
   7        3PX         0.00000   0.24155
   8        3PY         0.00000   0.00000   0.08384
   9        3PZ         0.00000   0.00000   0.00000   0.08384
  10        4S         -0.01775   0.00000   0.00000   0.00000   0.00749
  11        4PX         0.00000   0.02621   0.00000   0.00000   0.00000
  12        4PY         0.00000   0.00000   0.00038   0.00000   0.00000
  13        4PZ         0.00000   0.00000   0.00000   0.00038   0.00000
  14 2   H  1S          0.04225   0.00000   0.00000   0.06049  -0.00372
  15        2S          0.02623   0.00000   0.00000   0.04996  -0.00508
  16        3S          0.00506   0.00000   0.00000   0.00147  -0.00184
  17 3   H  1S          0.04225   0.00000   0.04537   0.01512  -0.00372
  18        2S          0.02623   0.00000   0.03747   0.01249  -0.00508
  19        3S          0.00506   0.00000   0.00111   0.00037  -0.00184
  20 4   H  1S          0.04225  -0.00000   0.04537   0.01512  -0.00372
  21        2S          0.02623  -0.00000   0.03747   0.01249  -0.00508
  22        3S          0.00506  -0.00000   0.00111   0.00037  -0.00184
                          11        12        13        14        15
  11        4PX         0.00820
  12        4PY         0.00000   0.00002
  13        4PZ         0.00000   0.00000   0.00002
  14 2   H  1S          0.00000   0.00000   0.00024   0.21736
  15        2S          0.00000   0.00000   0.00041   0.09447   0.10161
  16        3S          0.00000   0.00000   0.00002   0.00439   0.00730
  17 3   H  1S         -0.00000   0.00018   0.00006  -0.00041  -0.00533
  18        2S          0.00000   0.00031   0.00010  -0.00533  -0.01325
  19        3S          0.00000   0.00002   0.00001  -0.00023  -0.00094
  20 4   H  1S          0.00000   0.00018   0.00006  -0.00041  -0.00533
  21        2S         -0.00000   0.00031   0.00010  -0.00533  -0.01325
  22        3S         -0.00000   0.00002   0.00001  -0.00023  -0.00094
                          16        17        18        19        20
  16        3S          0.00142
  17 3   H  1S         -0.00023   0.21736
  18        2S         -0.00094   0.09447   0.10161
  19        3S          0.00011   0.00439   0.00730   0.00142
  20 4   H  1S         -0.00023  -0.00041  -0.00533  -0.00023   0.21736
  21        2S         -0.00094  -0.00533  -0.01325  -0.00094   0.09447
  22        3S          0.00011  -0.00023  -0.00094   0.00011   0.00439
                          21        22
  21        2S          0.10161
  22        3S          0.00730   0.00142
     Gross orbital populations:
                         Total     Alpha     Beta      Spin
   1 1   C  1S          1.99759   0.99882   0.99877   0.00005
   2        2S          0.67574   0.35548   0.32026   0.03522
   3        2PX         0.52353   0.52353   0.00000   0.52353
   4        2PY         0.71026   0.37605   0.33420   0.04185
   5        2PZ         0.71026   0.37605   0.33420   0.04185
   6        3S          0.68622   0.41243   0.27379   0.13864
   7        3PX         0.43324   0.43324   0.00000   0.43324
   8        3PY         0.35492   0.19631   0.15861   0.03771
   9        3PZ         0.35492   0.19631   0.15861   0.03771
  10        4S         -0.05226   0.00231  -0.05457   0.05688
  11        4PX         0.04323   0.04323   0.00000   0.04323
  12        4PY         0.00167  -0.00033   0.00201  -0.00234
  13        4PZ         0.00167  -0.00033   0.00201  -0.00234
  14 2   H  1S          0.52890   0.24394   0.28496  -0.04102
  15        2S          0.30496   0.11338   0.19158  -0.07820
  16        3S          0.01914   0.00498   0.01416  -0.00919
  17 3   H  1S          0.52890   0.24394   0.28496  -0.04102
  18        2S          0.30496   0.11338   0.19158  -0.07820
  19        3S          0.01914   0.00498   0.01416  -0.00919
  20 4   H  1S          0.52890   0.24394   0.28496  -0.04102
  21        2S          0.30496   0.11338   0.19158  -0.07820
  22        3S          0.01914   0.00498   0.01416  -0.00919
          Condensed to atoms (all electrons):
              1          2          3          4
     1  C    5.320860   0.373378   0.373378   0.373378
     2  H    0.373378   0.532716  -0.026546  -0.026546
     3  H    0.373378  -0.026546   0.532716  -0.026546
     4  H    0.373378  -0.026546  -0.026546   0.532716
 Mulliken atomic charges:
              1
     1  C   -0.440995
     2  H    0.146998
     3  H    0.146998
     4  H    0.146998
 Sum of Mulliken atomic charges =  -0.00000
 Mulliken charges with hydrogens summed into heavy atoms:
              1
     1  C   -0.000000
 Sum of Mulliken charges with hydrogens summed into heavy atoms =  -0.00000
          Atomic-Atomic Spin Densities.
              1          2          3          4
     1  C    1.438274  -0.017685  -0.017685  -0.017685
     2  H   -0.017685  -0.102831  -0.003945  -0.003945
     3  H   -0.017685  -0.003945  -0.102831  -0.003945
     4  H   -0.017685  -0.003945  -0.003945  -0.102831
 Mulliken atomic spin densities:
              1
     1  C    1.385219
     2  H   -0.128406
     3  H   -0.128406
     4  H   -0.128406
 Sum of Mulliken atomic spin densities =   1.00000
 Electronic spatial extent (au):  <R**2>=             30.4979
 Charge=             -0.0000 electrons
 Dipole moment (field-independent basis, Debye):
    X=             -0.0000    Y=              0.0000    Z=             -0.0000  Tot=              0.0000
 Quadrupole moment (field-independent basis, Debye-Ang):
   XX=             -9.2236   YY=             -7.3385   ZZ=             -7.3385
   XY=             -0.0000   XZ=              0.0000   YZ=             -0.0000
 Traceless Quadrupole moment (field-independent basis, Debye-Ang):
   XX=             -1.2568   YY=              0.6284   ZZ=              0.6284
   XY=             -0.0000   XZ=              0.0000   YZ=             -0.0000
 Octapole moment (field-independent basis, Debye-Ang**2):
  XXX=              0.0000  YYY=             -0.0000  ZZZ=              0.8141  XYY=             -0.0000
  XXY=              0.0000  XXZ=             -0.0000  XZZ=              0.0000  YZZ=              0.0000
  YYZ=             -0.8141  XYZ=             -0.0000
 Hexadecapole moment (field-independent basis, Debye-Ang**3):
 XXXX=            -11.9273 YYYY=            -15.3608 ZZZZ=            -15.3608 XXXY=              0.0000
 XXXZ=             -0.0000 YYYX=              0.0000 YYYZ=              0.0000 ZZZX=             -0.0000
 ZZZY=              0.0000 XXYY=             -4.8740 XXZZ=             -4.8740 YYZZ=             -5.1203
 XXYZ=             -0.0000 YYXZ=              0.0000 ZZXY=              0.0000
 N-N= 9.579588592757D+00 E-N=-1.632249390156D+02  KE= 5.864371647443D+01
 Symmetry A    KE= 5.469840687128D+01
 Symmetry B    KE= 3.945309603146D+00
 Orbital energies and kinetic energies (alpha):
                                 1                 2
   1         O               -11.243257         16.008939
   2         O                -0.950111          1.334787
   3         O                -0.579352          0.978639
   4         O                -0.579352          0.978639
   5         O                -0.385596          1.095043
   6         V                 0.045827          0.102346
   7         V                 0.077415          0.108483
   8         V                 0.077415          0.108483
   9         V                 0.133913          0.246064
  10         V                 0.174575          0.219294
  11         V                 0.174575          0.219294
  12         V                 0.211991          0.396418
  13         V                 0.326535          0.864865
  14         V                 0.359250          0.781097
  15         V                 0.359250          0.781097
  16         V                 0.863338          2.205184
  17         V                 0.927981          1.962979
  18         V                 0.927981          1.962979
  19         V                 1.209504          2.056617
  20         V                 1.262532          2.661882
  21         V                 1.301531          2.762596
  22         V                 1.301531          2.762596
 Orbital energies and kinetic energies (beta):
                                 1                 2
   1         O               -11.218357         16.036163
   2         O                -0.852329          1.216044
   3         O                -0.562605          0.935814
   4         O                -0.562605          0.935814
   5         V                 0.048160          0.099503
   6         V                 0.070735          0.258502
   7         V                 0.078233          0.108998
   8         V                 0.078233          0.108998
   9         V                 0.175455          0.217220
  10         V                 0.175455          0.217220
  11         V                 0.224809          0.396165
  12         V                 0.229919          0.751340
  13         V                 0.356354          0.916240
  14         V                 0.368582          0.793073
  15         V                 0.368582          0.793073
  16         V                 0.944931          1.955167
  17         V                 0.944931          1.955167
  18         V                 0.989200          2.536450
  19         V                 1.241456          1.924017
  20         V                 1.274487          2.837723
  21         V                 1.302389          2.802817
  22         V                 1.302389          2.802817
 Total kinetic energy from orbitals= 3.951988199833D+01
                          Isotropic Fermi Contact Couplings
        Atom                 a.u.       MegaHertz       Gauss      10(-4) cm-1
     1  C(13)              0.19008     213.69087      76.25021      71.27960
     2  H(1)              -0.02484    -111.02680     -39.61712     -37.03455
     3  H(1)              -0.02484    -111.02680     -39.61712     -37.03455
     4  H(1)              -0.02484    -111.02680     -39.61712     -37.03455
 --------------------------------------------------------
       Center         ----  Spin Dipole Couplings  ----
                      3XX-RR        3YY-RR        3ZZ-RR
 --------------------------------------------------------
     1   Atom        1.003136     -0.501568     -0.501568
     2   Atom       -0.010180     -0.071051      0.081231
     3   Atom       -0.010180      0.043161     -0.032981
     4   Atom       -0.010180      0.043161     -0.032981
 --------------------------------------------------------
                        XY            XZ            YZ
 --------------------------------------------------------
     1   Atom        0.000000      0.000000     -0.000000
     2   Atom        0.000000      0.000000     -0.000000
     3   Atom        0.000000      0.000000     -0.065940
     4   Atom        0.000000     -0.000000      0.065940
 --------------------------------------------------------


 ---------------------------------------------------------------------------------
              Anisotropic Spin Dipole Couplings in Principal Axis System
 ---------------------------------------------------------------------------------

       Atom             a.u.   MegaHertz   Gauss  10(-4) cm-1        Axes

              Baa    -0.5016   -67.306   -24.016   -22.451  0.0000  0.0000  1.0000
     1 C(13)  Bbb    -0.5016   -67.306   -24.016   -22.451 -0.0000  1.0000 -0.0000
              Bcc     1.0031   134.611    48.033    44.901  1.0000  0.0000  0.0000
 
              Baa    -0.0711   -37.910   -13.527   -12.645 -0.0000  1.0000 -0.0000
     2 H(1)   Bbb    -0.0102    -5.432    -1.938    -1.812  1.0000  0.0000  0.0000
              Bcc     0.0812    43.341    15.465    14.457  0.0000  0.0000  1.0000
 
              Baa    -0.0711   -37.910   -13.527   -12.645 -0.0000  0.5000  0.8660
     3 H(1)   Bbb    -0.0102    -5.432    -1.938    -1.812  1.0000  0.0000  0.0000
              Bcc     0.0812    43.341    15.465    14.457  0.0000  0.8660 -0.5000
 
              Baa    -0.0711   -37.910   -13.527   -12.645  0.0000 -0.5000  0.8660
     4 H(1)   Bbb    -0.0102    -5.432    -1.938    -1.812  1.0000  0.0000 -0.0000
              Bcc     0.0812    43.341    15.465    14.457 -0.0000  0.8660  0.5000
 

 ---------------------------------------------------------------------------------

 No NMR shielding tensors so no spin-rotation constants.
 Leave Link  601 at Sat Aug 17 18:00:04 2024, MaxMem=   13107200 cpu:       0.2
 (Enter /programs/64bit/g09/g09-gfortran/bin/l701.exe)
 Compute integral first derivatives.
 ... and contract with generalized density number  2.
 Leave Link  701 at Sat Aug 17 18:00:04 2024, MaxMem=   13107200 cpu:       0.1
 (Enter /programs/64bit/g09/g09-gfortran/bin/l702.exe)
 L702 exits ... SP integral derivatives will be done elsewhere.
 Leave Link  702 at Sat Aug 17 18:00:04 2024, MaxMem=   13107200 cpu:       0.0
 (Enter /programs/64bit/g09/g09-gfortran/bin/l703.exe)
 Compute integral first derivatives, UseDBF=F ICtDFT=           0.
 Integral derivatives from FoFDir, PRISM(SPDF).
 Calling FoFJK, ICntrl=      2127 FMM=F ISym2X=1 I1Cent= 0 IOpClX= 1 NMat=1 NMatS=1 NMatT=0.
 FoFCou: FMM=F IPFlag=           0 FMFlag=      100000 FMFlg1=         800
         NFxFlg=           0 DoJE=F BraDBF=F KetDBF=F FulRan=T
         Omega=  0.000000  0.000000  1.000000  0.000000  0.000000 ICntrl=    2127 IOpCl=  1
         NMat0=    1 NMatS0=    1 NMatT0=    0 NMatD0=    1 NMtDS0=    0 NMtDT0=    0
         I1Cent=           0 NGrid=           0.
 Petite list used in FoFCou.
 Leave Link  703 at Sat Aug 17 18:00:05 2024, MaxMem=   13107200 cpu:       0.1
 (Enter /programs/64bit/g09/g09-gfortran/bin/l716.exe)
 Dipole        =-2.73157738D-17 0.00000000D+00-2.98427949D-13
 ***** Axes restored to original set *****
 -------------------------------------------------------------------
 Center     Atomic                   Forces (Hartrees/Bohr)
 Number     Number              X              Y              Z
 -------------------------------------------------------------------
      1        6           0.000000000    0.000000000   -0.000000000
      2        1           0.000000000    0.000000000   -0.004281764
      3        1          -0.003708117   -0.000000000    0.002140882
      4        1           0.003708117    0.000000000    0.002140882
 -------------------------------------------------------------------
 Cartesian Forces:  Max     0.004281764 RMS     0.002140882
 Leave Link  716 at Sat Aug 17 18:00:05 2024, MaxMem=   13107200 cpu:       0.0
 (Enter /programs/64bit/g09/g09-gfortran/bin/l103.exe)

 GradGradGradGradGradGradGradGradGradGradGradGradGradGradGradGradGradGrad
 Berny optimization.
 Internal  Forces:  Max     0.004281764 RMS     0.002803073
 Search for a local minimum.
 Step number   1 out of a maximum of   20
 All quantities printed in internal units (Hartrees-Bohrs-Radians)
 RMS Force = .28031D-02 SwitMx=.10000D-02 MixMth= 1
 Mixed Optimization -- RFO/linear search
 Second derivative matrix not updated -- first step.
 The second derivative matrix:
                          R1        R2        R3        A1        A2
           R1           0.34813
           R2           0.00000   0.34813
           R3           0.00000   0.00000   0.34813
           A1           0.00000   0.00000   0.00000   0.16000
           A2           0.00000   0.00000   0.00000   0.00000   0.16000
           A3           0.00000   0.00000   0.00000   0.00000   0.00000
           D1           0.00000   0.00000   0.00000   0.00000   0.00000
                          A3        D1
           A3           0.16000
           D1           0.00000   0.00235
     Eigenvalues ---    0.00235   0.16000   0.16000   0.34813   0.34813
     Eigenvalues ---    0.348131000.00000
 RFO step:  Lambda=-1.57918408D-04 EMin= 2.34830060D-03
 Linear search not attempted -- first point.
 Iteration  1 RMS(Cart)=  0.00804823 RMS(Int)=  0.00000000
 Iteration  2 RMS(Cart)=  0.00000000 RMS(Int)=  0.00000000
 ClnCor:  largest displacement from symmetrization is 2.35D-11 for atom     1.
 Variable       Old X    -DE/DX   Delta X   Delta X   Delta X     New X
                                 (Linear)    (Quad)   (Total)
    R1        2.05980  -0.00428   0.00000  -0.01229  -0.01229   2.04751
    R2        2.05980  -0.00428   0.00000  -0.01229  -0.01229   2.04751
    R3        2.05980  -0.00428   0.00000  -0.01229  -0.01229   2.04751
    A1        2.09440   0.00000   0.00000   0.00000   0.00000   2.09440
    A2        2.09440   0.00000   0.00000   0.00000   0.00000   2.09440
    A3        2.09440  -0.00000   0.00000  -0.00000  -0.00000   2.09440
    D1        3.14159   0.00000   0.00000   0.00000   0.00000   3.14159
         Item               Value     Threshold  Converged?
 Maximum Force            0.004282     0.000450     NO 
 RMS     Force            0.002803     0.000300     NO 
 Maximum Displacement     0.012294     0.001800     NO 
 RMS     Displacement     0.008048     0.001200     NO 
 Predicted change in Energy=-7.899502D-05
 GradGradGradGradGradGradGradGradGradGradGradGradGradGradGradGradGradGrad

 Leave Link  103 at Sat Aug 17 18:00:05 2024, MaxMem=   13107200 cpu:       0.0
 (Enter /programs/64bit/g09/g09-gfortran/bin/l202.exe)
                          Input orientation:                          
 ---------------------------------------------------------------------
 Center     Atomic      Atomic             Coordinates (Angstroms)
 Number     Number       Type             X           Y           Z
 ---------------------------------------------------------------------
      1          6           0        0.000000   -0.000000    0.000000
      2          1           0        0.000000    0.000000    1.083494
      3          1           0        0.938334   -0.000000   -0.541747
      4          1           0       -0.938334    0.000000   -0.541747
 ---------------------------------------------------------------------
                    Distance matrix (angstroms):
                    1          2          3          4
     1  C    0.000000
     2  H    1.083494   0.000000
     3  H    1.083494   1.876667   0.000000
     4  H    1.083494   1.876667   1.876667   0.000000
 Stoichiometry    CH3(2)
 Framework group  C2[C2(CH),X(H2)]
 Deg. of freedom     3
 Prev. full point group           C2      NOp   2
 Prev. largest Abelian subgroup   C2      NOp   2
       concise Abelian subgroup   C2      NOp   2
                   Standard orientation:
 ---------------------------------------------------------------------
 Center     Atomic                     Coordinates (Angstroms)
 Number     Number                        X           Y           Z
 ---------------------------------------------------------------------
      1          6                    0.000000    0.000000    0.000000
      2          1                    0.000000    0.000000    1.083494
      3          1                    0.000000    0.938334   -0.541747
      4          1                    0.000000   -0.938334   -0.541747
 ---------------------------------------------------------------------
 Rotational constants (GHZ):    284.7655727    284.7655727    142.3827864
 Leave Link  202 at Sat Aug 17 18:00:05 2024, MaxMem=   13107200 cpu:       0.0
 (Enter /programs/64bit/g09/g09-gfortran/bin/l301.exe)
 Standard basis: 6-31++G (6D, 7F)
 Ernie: Thresh=  0.10000D-02 Tol=  0.10000D-05 Strict=F.
 There are    13 symmetry adapted basis functions of A   symmetry.
 There are     9 symmetry adapted basis functions of B   symmetry.
 Integral buffers will be    131072 words long.
 Raffenetti 2 integral format.
 Two-electron integral symmetry is turned on.
    22 basis functions,    41 primitive gaussians,    22 cartesian basis functions
     5 alpha electrons        4 beta electrons
       nuclear repulsion energy         9.6371074411 Hartrees.
 IExCor=    0 DFT=F Ex=HF Corr=None ExCW=0 ScaHFX=  1.000000
 ScaDFX=  1.000000  1.000000  1.000000  1.000000 ScalE2=  1.000000  1.000000
 IRadAn=      0 IRanWt=     -1 IRanGd=            0 ICorTp=0
 NAtoms=    4 NActive=    4 NUniq=    3 SFac= 1.33D+00 NAtFMM=   80 NAOKFM=F Big=F
 Leave Link  301 at Sat Aug 17 18:00:05 2024, MaxMem=   13107200 cpu:       0.1
 (Enter /programs/64bit/g09/g09-gfortran/bin/l302.exe)
 NPDir=0 NMtPBC=     1 NCelOv=     1 NCel=       1 NClECP=     1 NCelD=      1
         NCelK=      1 NCelE2=     1 NClLst=     1 CellRange=     0.0.
 One-electron integrals computed using PRISM.
 One-electron integral symmetry used in STVInt
 NBasis=    22 RedAO= T  NBF=    13     9
 NBsUse=    22 1.00D-06 NBFU=    13     9
 Leave Link  302 at Sat Aug 17 18:00:05 2024, MaxMem=   13107200 cpu:       0.1
 (Enter /programs/64bit/g09/g09-gfortran/bin/l303.exe)
 DipDrv:  MaxL=1.
 Leave Link  303 at Sat Aug 17 18:00:05 2024, MaxMem=   13107200 cpu:       0.0
 (Enter /programs/64bit/g09/g09-gfortran/bin/l401.exe)
 Initial guess read from the read-write file.
 B after Tr=     0.000000    0.000000    0.000000
         Rot=    1.000000    0.000000    0.000000    0.000000 Ang=   0.00 deg.
 Guess basis will be translated and rotated to current coordinates.
 Initial guess orbital symmetries:
 Alpha Orbitals:
       Occupied  (A) (A) (B) (A) (B)
       Virtual   (A) (B) (A) (B) (A) (B) (A) (A) (B) (A) (B) (B)
                 (A) (A) (A) (B) (A)
 Beta  Orbitals:
       Occupied  (A) (A) (B) (A)
       Virtual   (A) (B) (B) (A) (A) (B) (A) (B) (A) (B) (A) (B)
                 (A) (B) (A) (A) (B) (A)
 The electronic state of the initial guess is 2-B.
 Initial guess <Sx>= 0.0000 <Sy>= 0.0000 <Sz>= 0.5000 <S**2>= 0.7617 S= 0.5058
 Leave Link  401 at Sat Aug 17 18:00:05 2024, MaxMem=   13107200 cpu:       0.1
 (Enter /programs/64bit/g09/g09-gfortran/bin/l502.exe)
 UHF open shell SCF:
 Requested convergence on RMS density matrix=1.00D-08 within 128 cycles.
 Requested convergence on MAX density matrix=1.00D-06.
 Requested convergence on             energy=1.00D-06.
 No special actions if energy rises.
 Using DIIS extrapolation, IDIIS=  1040.
 Integral symmetry usage will be decided dynamically.
 Keep R1 and R2 ints in memory in canonical form, NReq=884223.
 IEnd=       19940 IEndB=       19940 NGot=    13107200 MDV=    13040117
 LenX=    13040117 LenY=    13039192
 Symmetry not used in FoFDir.
 MinBra= 0 MaxBra= 1 Meth= 1.
 IRaf=       0 NMat=   1 IRICut=       1 DoRegI=T DoRafI=F ISym2E= 0 JSym2E=0.

 Cycle   1  Pass 1  IDiag  1:
 E= -39.5485552077873    
 DIIS: error= 9.06D-04 at cycle   1 NSaved=   1.
 NSaved= 1 IEnMin= 1 EnMin= -39.5485552077873     IErMin= 1 ErrMin= 9.06D-04
 ErrMax= 9.06D-04 EMaxC= 1.00D-01 BMatC= 7.14D-05 BMatP= 7.14D-05
 IDIUse=3 WtCom= 9.91D-01 WtEn= 9.06D-03
 Coeff-Com:  0.100D+01
 Coeff-En:   0.100D+01
 Coeff:      0.100D+01
 Gap=     0.433 Goal=   None    Shift=    0.000
 Gap=     0.614 Goal=   None    Shift=    0.000
 RMSDP=2.17D-04 MaxDP=1.44D-03              OVMax= 1.90D-03

 Cycle   2  Pass 1  IDiag  1:
 E= -39.5485774858042     Delta-E=       -0.000022278017 Rises=F Damp=F
 DIIS: error= 3.02D-04 at cycle   2 NSaved=   2.
 NSaved= 2 IEnMin= 2 EnMin= -39.5485774858042     IErMin= 2 ErrMin= 3.02D-04
 ErrMax= 3.02D-04 EMaxC= 1.00D-01 BMatC= 5.40D-06 BMatP= 7.14D-05
 IDIUse=3 WtCom= 9.97D-01 WtEn= 3.02D-03
 Coeff-Com:  0.966D-01 0.903D+00
 Coeff-En:   0.000D+00 0.100D+01
 Coeff:      0.963D-01 0.904D+00
 Gap=     0.431 Goal=   None    Shift=    0.000
 Gap=     0.613 Goal=   None    Shift=    0.000
 RMSDP=4.89D-05 MaxDP=8.39D-04 DE=-2.23D-05 OVMax= 7.79D-04

 Cycle   3  Pass 1  IDiag  1:
 E= -39.5485791196426     Delta-E=       -0.000001633838 Rises=F Damp=F
 DIIS: error= 7.56D-05 at cycle   3 NSaved=   3.
 NSaved= 3 IEnMin= 3 EnMin= -39.5485791196426     IErMin= 3 ErrMin= 7.56D-05
 ErrMax= 7.56D-05 EMaxC= 1.00D-01 BMatC= 3.84D-07 BMatP= 5.40D-06
 IDIUse=1 WtCom= 1.00D+00 WtEn= 0.00D+00
 Coeff-Com: -0.582D-01 0.355D-01 0.102D+01
 Coeff:     -0.582D-01 0.355D-01 0.102D+01
 Gap=     0.431 Goal=   None    Shift=    0.000
 Gap=     0.613 Goal=   None    Shift=    0.000
 RMSDP=1.63D-05 MaxDP=1.80D-04 DE=-1.63D-06 OVMax= 1.92D-04

 Cycle   4  Pass 1  IDiag  1:
 E= -39.5485793085156     Delta-E=       -0.000000188873 Rises=F Damp=F
 DIIS: error= 4.05D-05 at cycle   4 NSaved=   4.
 NSaved= 4 IEnMin= 4 EnMin= -39.5485793085156     IErMin= 4 ErrMin= 4.05D-05
 ErrMax= 4.05D-05 EMaxC= 1.00D-01 BMatC= 4.09D-08 BMatP= 3.84D-07
 IDIUse=1 WtCom= 1.00D+00 WtEn= 0.00D+00
 Coeff-Com:  0.424D-01-0.369D-01-0.867D+00 0.186D+01
 Coeff:      0.424D-01-0.369D-01-0.867D+00 0.186D+01
 Gap=     0.431 Goal=   None    Shift=    0.000
 Gap=     0.613 Goal=   None    Shift=    0.000
 RMSDP=1.20D-05 MaxDP=2.04D-04 DE=-1.89D-07 OVMax= 2.30D-04

 Cycle   5  Pass 1  IDiag  1:
 E= -39.5485793534403     Delta-E=       -0.000000044925 Rises=F Damp=F
 DIIS: error= 6.43D-06 at cycle   5 NSaved=   5.
 NSaved= 5 IEnMin= 5 EnMin= -39.5485793534403     IErMin= 5 ErrMin= 6.43D-06
 ErrMax= 6.43D-06 EMaxC= 1.00D-01 BMatC= 3.88D-09 BMatP= 4.09D-08
 IDIUse=1 WtCom= 1.00D+00 WtEn= 0.00D+00
[...]


 ---------------------------------------------------------------------------------
              Anisotropic Spin Dipole Couplings in Principal Axis System
 ---------------------------------------------------------------------------------

       Atom             a.u.   MegaHertz   Gauss  10(-4) cm-1        Axes

              Baa    -0.5017   -67.329   -24.025   -22.459  0.3777  0.9259 -0.0000
     1 C(13)  Bbb    -0.5017   -67.329   -24.025   -22.459  0.9259 -0.3777 -0.0000
              Bcc     1.0035   134.658    48.049    44.917  0.0000  0.0000  1.0000
 
              Baa    -0.0718   -38.291   -13.663   -12.772  1.0000 -0.0000 -0.0000
     2 H(1)   Bbb    -0.0097    -5.183    -1.849    -1.729  0.0000  0.0000  1.0000
              Bcc     0.0815    43.474    15.512    14.501  0.0000  1.0000 -0.0000
 
              Baa    -0.0718   -38.291   -13.663   -12.772  0.5000  0.8660 -0.0000
     3 H(1)   Bbb    -0.0097    -5.183    -1.849    -1.729  0.0000  0.0000  1.0000
              Bcc     0.0815    43.474    15.512    14.501  0.8660 -0.5000  0.0000
 
              Baa    -0.0718   -38.291   -13.663   -12.772 -0.5000  0.8660 -0.0000
     4 H(1)   Bbb    -0.0097    -5.183    -1.849    -1.729  0.0000  0.0000  1.0000
              Bcc     0.0815    43.474    15.512    14.501  0.8660  0.5000 -0.0000
 

 ---------------------------------------------------------------------------------

 No NMR shielding tensors so no spin-rotation constants.
 Leave Link  601 at Sat Aug 17 18:00:14 2024, MaxMem=   13107200 cpu:       0.2
 (Enter /programs/64bit/g09/g09-gfortran/bin/l701.exe)
 Compute integral second derivatives.
 ... and contract with generalized density number  2.
 Leave Link  701 at Sat Aug 17 18:00:14 2024, MaxMem=   13107200 cpu:       0.1
 (Enter /programs/64bit/g09/g09-gfortran/bin/l702.exe)
 L702 exits ... SP integral derivatives will be done elsewhere.
 Leave Link  702 at Sat Aug 17 18:00:14 2024, MaxMem=   13107200 cpu:       0.0
 (Enter /programs/64bit/g09/g09-gfortran/bin/l703.exe)
 Compute integral second derivatives, UseDBF=F ICtDFT=           0.
 Integral derivatives from FoFDir, PRISM(SPDF).
 Calling FoFJK, ICntrl=    100127 FMM=F ISym2X=1 I1Cent= 0 IOpClX= 1 NMat=1 NMatS=1 NMatT=0.
 FoFCou: FMM=F IPFlag=           0 FMFlag=      100000 FMFlg1=         800
         NFxFlg=           0 DoJE=F BraDBF=F KetDBF=F FulRan=T
         Omega=  0.000000  0.000000  1.000000  0.000000  0.000000 ICntrl=  100127 IOpCl=  1
         NMat0=    1 NMatS0=    1 NMatT0=    0 NMatD0=    1 NMtDS0=    0 NMtDT0=    0
         I1Cent=           0 NGrid=           0.
 Petite list used in FoFCou.
 Leave Link  703 at Sat Aug 17 18:00:15 2024, MaxMem=   13107200 cpu:       0.4
 (Enter /programs/64bit/g09/g09-gfortran/bin/l716.exe)
 Dipole        =-1.23924308D-16-8.90255751D-14-4.01415744D-31
 Polarizability= 1.24733131D+01-7.10579296D-15 1.24733131D+01
                 1.55916735D-16-2.40794927D-16 1.02693852D+01
 Full mass-weighted force constant matrix:
 Low frequencies ---  -64.6187  -64.6184  -64.6184   -0.0006   -0.0005    0.0006
 Low frequencies ---  537.3451 1479.8211 1479.8211
 Diagonal vibrational polarizability:
        0.0818003       0.0818003      11.4007833
 Harmonic frequencies (cm**-1), IR intensities (KM/Mole), Raman scattering
 activities (A**4/AMU), depolarization ratios for plane and unpolarized
 incident light, reduced masses (AMU), force constants (mDyne/A),
 and normal coordinates:
                     1                      2                      3
                    A2"                    E'                     E'
 Frequencies --   537.3451              1479.8211              1479.8211
 Red. masses --     1.2356                 1.1033                 1.1033
 Frc consts  --     0.2102                 1.4235                 1.4235
 IR Inten    --   122.3230                 4.9602                 4.9602
  Atom  AN      X      Y      Z        X      Y      Z        X      Y      Z
     1   6    -0.00   0.00   0.14     0.05   0.08   0.00    -0.08   0.05  -0.00
     2   1     0.00  -0.00  -0.57    -0.43   0.06  -0.00     0.69   0.04   0.00
     3   1     0.00  -0.00  -0.57    -0.40  -0.70  -0.00    -0.08   0.01   0.00
     4   1     0.00  -0.00  -0.57     0.24  -0.30  -0.00     0.33  -0.64   0.00
                     4                      5                      6
                    A1'                    E'                     E'
 Frequencies --  3164.1360              3357.0527              3357.0527
 Red. masses --     1.0078                 1.1171                 1.1171
 Frc consts  --     5.9449                 7.4174                 7.4174
 IR Inten    --     0.0000                 8.7295                 8.7295
  Atom  AN      X      Y      Z        X      Y      Z        X      Y      Z
     1   6     0.00   0.00  -0.00     0.10   0.01   0.00    -0.01   0.10  -0.00
     2   1    -0.00   0.58   0.00     0.02  -0.05  -0.00    -0.00  -0.81   0.00
     3   1     0.50  -0.29   0.00    -0.58   0.35  -0.00     0.39  -0.21   0.00
     4   1    -0.50  -0.29   0.00    -0.62  -0.37  -0.00    -0.33  -0.17   0.00

 -------------------
 - Thermochemistry -
 -------------------
 Temperature   298.150 Kelvin.  Pressure   1.00000 Atm.
 Atom     1 has atomic number  6 and mass  12.00000
 Atom     2 has atomic number  1 and mass   1.00783
 Atom     3 has atomic number  1 and mass   1.00783
 Atom     4 has atomic number  1 and mass   1.00783
 Molecular mass:    15.02348 amu.
 Principal axes and moments of inertia in atomic units:
                           1         2         3
     Eigenvalues --     6.33764   6.33764  12.67528
           X           -0.25652   0.96654   0.00000
           Y            0.96654   0.25652   0.00000
           Z           -0.00000  -0.00000   1.00000
 This molecule is an oblate symmetric top.
 Rotational symmetry number  6.
 Rotational temperatures (Kelvin)     13.66658    13.66658     6.83329
 Rotational constants (GHZ):         284.76557   284.76557   142.38279
 Zero-point vibrational energy      80001.6 (Joules/Mol)
                                   19.12085 (Kcal/Mol)
 Warning -- explicit consideration of   1 degrees of freedom as
           vibrations may cause significant error
 Vibrational temperatures:    773.12  2129.13  2129.13  4552.48  4830.04
          (Kelvin)           4830.04
 
 Zero-point correction=                           0.030471 (Hartree/Particle)
 Thermal correction to Energy=                    0.033512
 Thermal correction to Enthalpy=                  0.034456
 Thermal correction to Gibbs Free Energy=         0.012374
 Sum of electronic and zero-point Energies=            -39.595512
 Sum of electronic and thermal Energies=               -39.592471
 Sum of electronic and thermal Enthalpies=             -39.591527
 Sum of electronic and thermal Free Energies=          -39.613609
 
                     E (Thermal)             CV                S
                      KCal/Mol        Cal/Mol-Kelvin    Cal/Mol-Kelvin
 Total                   21.029              7.290             46.477
 Electronic               0.000              0.000              1.377
 Translational            0.889              2.981             34.068
 Rotational               0.889              2.981             10.435
 Vibrational             19.252              1.328              0.597
 Vibration     1          0.892              1.167              0.571
                       Q            Log10(Q)             Ln(Q)
 Total Bot       0.203483D-05         -5.691472        -13.105099
 Total V=0       0.210955D+09          8.324191         19.167157
 Vib (Bot)       0.104420D-13        -13.981214        -32.192936
 Vib (Bot)    1  0.295587D+00         -0.529314         -1.218790
 Vib (V=0)       0.108255D+01          0.034449          0.079321
 Vib (V=0)    1  0.108084D+01          0.033760          0.077736
 Electronic      0.200000D+01          0.301030          0.693147
 Translational   0.228882D+07          6.359611         14.643545
 Rotational      0.425698D+02          1.629101          3.751144
 
                                      methyl with imposed symmetry and hf/6-31++G
  basis function
                                                             IR Spectrum
 
      3      3                                                               1                                                       
      3      1                                                               4                                  5                    
      5      6                                                               8                                  3                    
      7      4                                                               0                                  7                    
 
      X                                                                      X                                  X                    
      X                                                                      X                                  X                    
      X                                                                                                         X                    
                                                                                                                X                    
                                                                                                                X                    
                                                                                                                X                    
                                                                                                                X                    
                                                                                                                X                    
                                                                                                                X                    
                                                                                                                X                    
                                                                                                                X                    
                                                                                                                X                    
                                                                                                                X                    
                                                                                                                X                    
                                                                                                                X                    
                                                                                                                X                    
                                                                                                                X                    
                                                                                                                X                    
                                                                                                                X                    
                                                                                                                X                    
 
 ***** Axes restored to original set *****
 -------------------------------------------------------------------
 Center     Atomic                   Forces (Hartrees/Bohr)
 Number     Number              X              Y              Z
 -------------------------------------------------------------------
      1        6           0.000000000   -0.000000000   -0.000000000
      2        1          -0.000000000    0.000000000    0.000326075
      3        1           0.000282390    0.000000000   -0.000163038
      4        1          -0.000282390   -0.000000000   -0.000163038
 -------------------------------------------------------------------
 Cartesian Forces:  Max     0.000326075 RMS     0.000163038
 Force constants in Cartesian coordinates: 
                1             2             3             4             5 
      1  0.640414D+00
      2  0.000000D+00  0.263885D-01
      3  0.000000D+00  0.000000D+00  0.640414D+00
      4 -0.590092D-01  0.000000D+00  0.000000D+00  0.501594D-01
      5  0.000000D+00 -0.879618D-02  0.000000D+00  0.000000D+00  0.282589D-02
      6  0.000000D+00  0.000000D+00 -0.367933D+00  0.000000D+00  0.000000D+00
      7 -0.290702D+00  0.000000D+00  0.133768D+00  0.442488D-02  0.000000D+00
      8  0.000000D+00 -0.879618D-02  0.000000D+00  0.000000D+00  0.298514D-02
      9  0.133768D+00  0.000000D+00 -0.136240D+00  0.264968D-01  0.000000D+00
     10 -0.290702D+00  0.000000D+00 -0.133768D+00  0.442488D-02  0.000000D+00
     11  0.000000D+00 -0.879618D-02  0.000000D+00  0.000000D+00  0.298514D-02
     12 -0.133768D+00  0.000000D+00 -0.136240D+00 -0.264968D-01  0.000000D+00
                6             7             8             9            10 
      6  0.383444D+00
      7 -0.540045D-02  0.300123D+00
      8  0.000000D+00  0.000000D+00  0.282589D-02
      9 -0.775509D-02 -0.144316D+00  0.000000D+00  0.133480D+00
     10  0.540045D-02 -0.138451D-01  0.000000D+00 -0.159486D-01  0.300123D+00
     11  0.000000D+00  0.000000D+00  0.298514D-02  0.000000D+00  0.000000D+00
     12 -0.775509D-02  0.159486D-01  0.000000D+00  0.105149D-01  0.144316D+00
               11            12 
     11  0.282589D-02
     12  0.000000D+00  0.133480D+00
 Force constants in internal coordinates: 
                1             2             3             4             5 
      1  0.383444D+00
      2 -0.799378D-03  0.383444D+00
      3 -0.799378D-03 -0.799379D-03  0.383444D+00
      4  0.642667D-02  0.642667D-02 -0.128533D-01  0.703168D-01
      5  0.642667D-02 -0.128533D-01  0.642667D-02 -0.351584D-01  0.703168D-01
      6 -0.128533D-01  0.642667D-02  0.642667D-02 -0.351584D-01 -0.351584D-01
      7  0.000000D+00  0.000000D+00  0.000000D+00  0.000000D+00  0.000000D+00
                6             7 
      6  0.703168D-01
      7  0.000000D+00  0.938594D-02
 Leave Link  716 at Sat Aug 17 18:00:15 2024, MaxMem=   13107200 cpu:       0.0
 (Enter /programs/64bit/g09/g09-gfortran/bin/l103.exe)

 GradGradGradGradGradGradGradGradGradGradGradGradGradGradGradGradGradGrad
 Berny optimization.
 Internal  Forces:  Max     0.000326075 RMS     0.000213466
 Search for a local minimum.
 Step number   1 out of a maximum of    2
 All quantities printed in internal units (Hartrees-Bohrs-Radians)
 Second derivative matrix not updated -- analytic derivatives used.
 The second derivative matrix:
                          R1        R2        R3        A1        A2
           R1           0.38344
           R2          -0.00080   0.38344
           R3          -0.00080  -0.00080   0.38344
           A1           0.00643   0.00643  -0.01285   0.07032
           A2           0.00643  -0.01285   0.00643  -0.03516   0.07032
           A3          -0.01285   0.00643   0.00643  -0.03516  -0.03516
           D1          -0.00000   0.00000  -0.00000   0.00000  -0.00000
                          A3        D1
           A3           0.07032
           D1           0.00000   0.00939
     Eigenvalues ---    0.00939   0.10415   0.10415   0.38184   0.38557
     Eigenvalues ---    0.385571000.00000
 Angle between quadratic step and forces=   0.00 degrees.
 Linear search not attempted -- first point.
 Iteration  1 RMS(Cart)=  0.00055904 RMS(Int)=  0.00000000
 Iteration  2 RMS(Cart)=  0.00000000 RMS(Int)=  0.00000000
 ClnCor:  largest displacement from symmetrization is 1.57D-11 for atom     4.
 Variable       Old X    -DE/DX   Delta X   Delta X   Delta X     New X
                                 (Linear)    (Quad)   (Total)
    R1        2.04751   0.00033   0.00000   0.00085   0.00085   2.04836
    R2        2.04751   0.00033   0.00000   0.00085   0.00085   2.04836
    R3        2.04751   0.00033   0.00000   0.00085   0.00085   2.04836
    A1        2.09440  -0.00000   0.00000  -0.00000   0.00000   2.09440
    A2        2.09440  -0.00000   0.00000  -0.00000   0.00000   2.09440
    A3        2.09440   0.00000   0.00000   0.00000   0.00000   2.09440
    D1        3.14159  -0.00000   0.00000  -0.00000   0.00000   3.14159
         Item               Value     Threshold  Converged?
 Maximum Force            0.000326     0.000450     YES
 RMS     Force            0.000213     0.000300     YES
 Maximum Displacement     0.000854     0.001800     YES
 RMS     Displacement     0.000559     0.001200     YES
 Predicted change in Energy=-4.176769D-07
 Optimization completed.
    -- Stationary point found.
                           ----------------------------
                           !   Optimized Parameters   !
                           ! (Angstroms and Degrees)  !
 --------------------------                            --------------------------
 ! Name  Definition              Value          Derivative Info.                !
 --------------------------------------------------------------------------------
 ! R1    R(1,2)                  1.0835         -DE/DX =    0.0003              !
 ! R2    R(1,3)                  1.0835         -DE/DX =    0.0003              !
 ! R3    R(1,4)                  1.0835         -DE/DX =    0.0003              !
 ! A1    A(2,1,3)              120.0            -DE/DX =    0.0                 !
 ! A2    A(2,1,4)              120.0            -DE/DX =    0.0                 !
 ! A3    A(3,1,4)              120.0            -DE/DX =    0.0                 !
 ! D1    D(2,1,4,3)            180.0            -DE/DX =    0.0                 !
 --------------------------------------------------------------------------------
 GradGradGradGradGradGradGradGradGradGradGradGradGradGradGradGradGradGrad

 Leave Link  103 at Sat Aug 17 18:00:15 2024, MaxMem=   13107200 cpu:       0.0
 (Enter /programs/64bit/g09/g09-gfortran/bin/l9999.exe)
 1\1\GINC-MOLMOD\Freq\UMP2-FC\6-31++G\C1H3(2)\OSPITE\17-Aug-2024\0\\#P 
 Geom=AllCheck Guess=TCheck SCRF=Check GenChk UMP2(FC)/6-31++G Freq\\me
 thyl with imposed symmetry and hf/6-31++G basis function\\0,2\C,0.,0.,
 0.\H,0.,0.,1.0834943607\H,0.9383336412,0.,-0.5417471804\H,-0.938333641
 2,0.,-0.5417471804\\Version=EM64L-G09RevA.02\State=2-A2"\HF=-39.548579
 4\MP2=-39.6259831\PUHF=-39.5489348\PMP2-0=-39.6263239\S2=0.761573\S2-1
 =0.760619\S2A=0.750087\RMSD=4.254e-10\RMSF=1.630e-04\ZeroPoint=0.03047
 1\Thermal=0.0335122\Dipole=0.,0.,0.\DipoleDeriv=0.0311647,0.,0.,0.,-0.
 5504743,0.,0.,0.,0.0311647,0.0573045,0.,0.,0.,0.1834914,0.,0.,0.,-0.07
 8081,-0.0442346,0.,0.0586236,0.,0.1834914,0.,0.0586236,0.,0.0234582,-0
 .0442346,0.,-0.0586236,0.,0.1834914,0.,-0.0586236,0.,0.0234582\Polar=1
 2.4733131,0.,10.2693852,0.,0.,12.4733131\PG=D03H [O(C1),3C2(H1)]\NImag
 =0\\0.64041380,0.,0.02638853,0.,0.,0.64041380,-0.05900918,0.,0.,0.0501
 5941,0.,-0.00879618,0.,0.,0.00282589,0.,0.,-0.36793336,0.,0.,0.3834435
 5,-0.29070231,0.,0.13376810,0.00442488,0.,-0.00540045,0.30012251,0.,-0
 .00879618,0.,0.,0.00298514,0.,0.,0.00282589,0.13376810,0.,-0.13624022,
 0.02649679,0.,-0.00775509,-0.14431626,0.,0.13348044,-0.29070231,0.,-0.
 13376810,0.00442488,0.,0.00540045,-0.01384508,0.,-0.01594862,0.3001225
 1,0.,-0.00879618,0.,0.,0.00298514,0.,0.,0.00298514,0.,0.,0.00282589,-0
 .13376810,0.,-0.13624022,-0.02649679,0.,-0.00775509,0.01594862,0.,0.01
 051487,0.14431626,0.,0.13348044\\0.,0.,0.,0.,0.,-0.00032608,-0.0002823
 9,0.,0.00016304,0.00028239,0.,0.00016304\\\@


 WHEN ALL ELSE FAILS, LOOK AT THE SCHRODINGER EQUATION.
     -- RUSSELL T. PACK, APRIL 1978
 Job cpu time:  0 days  0 hours  0 minutes  7.0 seconds.
 File lengths (MBytes):  RWF=     20 Int=      0 D2E=      0 Chk=      1 Scr=      1
 Normal termination of Gaussian 09 at Sat Aug 17 18:00:15 2024.
