 Entering Gaussian System, Link 0=/programs/64bit/g09/g09-gfortran/bin/g09
 Input=ch3_aug-cc-pVDZ.com
 Output=ch3_aug-cc-pVDZ.log
 Initial command:
 /programs/64bit/g09/g09-gfortran/bin/l1.exe /home/ospite/Desktop/MMfP/Project6/CH3/g09/MP2/Gau-8926.inp -scrdir=/home/ospite/Desktop/MMfP/Project6/CH3/g09/MP2/
 Entering Link 1 = /programs/64bit/g09/g09-gfortran/bin/l1.exe PID=      8928.
  
 Copyright (c) 1988,1990,1992,1993,1995,1998,2003,2009, Gaussian, Inc.
                  All Rights Reserved.
  
 This is part of the Gaussian(R) 09 program.  It is based on
 the Gaussian(R) 03 system (copyright 2003, Gaussian, Inc.),
 the Gaussian(R) 98 system (copyright 1998, Gaussian, Inc.),
 the Gaussian(R) 94 system (copyright 1995, Gaussian, Inc.),
 the Gaussian 92(TM) system (copyright 1992, Gaussian, Inc.),
 the Gaussian 90(TM) system (copyright 1990, Gaussian, Inc.),
 the Gaussian 88(TM) system (copyright 1988, Gaussian, Inc.),
 the Gaussian 86(TM) system (copyright 1986, Carnegie Mellon
 University), and the Gaussian 82(TM) system (copyright 1983,
 Carnegie Mellon University). Gaussian is a federally registered
 trademark of Gaussian, Inc.
  
 This software contains proprietary and confidential information,
 including trade secrets, belonging to Gaussian, Inc.
  
 This software is provided under written license and may be
 used, copied, transmitted, or stored only in accord with that
 written license.
  
 The following legend is applicable only to US Government
 contracts under FAR:
  
                    RESTRICTED RIGHTS LEGEND
  
 Use, reproduction and disclosure by the US Government is
 subject to restrictions as set forth in subparagraphs (a)
 and (c) of the Commercial Computer Software - Restricted
 Rights clause in FAR 52.227-19.
  
 Gaussian, Inc.
 340 Quinnipiac St., Bldg. 40, Wallingford CT 06492
  
  
 ---------------------------------------------------------------
 Warning -- This program may not be used in any manner that
 competes with the business of Gaussian, Inc. or will provide
 assistance to any competitor of Gaussian, Inc.  The licensee
 of this program is prohibited from giving any competitor of
 Gaussian, Inc. access to this program.  By using this program,
 the user acknowledges that Gaussian, Inc. is engaged in the
 business of creating and licensing software in the field of
 computational chemistry and represents and warrants to the
 licensee that it is not a competitor of Gaussian, Inc. and that
 it will not use this program in any manner prohibited above.
 ---------------------------------------------------------------
  

 Cite this work as:
 Gaussian 09, Revision A.02,
 M. J. Frisch, G. W. Trucks, H. B. Schlegel, G. E. Scuseria, 
 M. A. Robb, J. R. Cheeseman, G. Scalmani, V. Barone, B. Mennucci, 
 G. A. Petersson, H. Nakatsuji, M. Caricato, X. Li, H. P. Hratchian, 
 A. F. Izmaylov, J. Bloino, G. Zheng, J. L. Sonnenberg, M. Hada, 
 M. Ehara, K. Toyota, R. Fukuda, J. Hasegawa, M. Ishida, T. Nakajima, 
 Y. Honda, O. Kitao, H. Nakai, T. Vreven, J. A. Montgomery, Jr., 
 J. E. Peralta, F. Ogliaro, M. Bearpark, J. J. Heyd, E. Brothers, 
 K. N. Kudin, V. N. Staroverov, R. Kobayashi, J. Normand, 
 K. Raghavachari, A. Rendell, J. C. Burant, S. S. Iyengar, J. Tomasi, 
 M. Cossi, N. Rega, J. M. Millam, M. Klene, J. E. Knox, J. B. Cross, 
 V. Bakken, C. Adamo, J. Jaramillo, R. Gomperts, R. E. Stratmann, 
 O. Yazyev, A. J. Austin, R. Cammi, C. Pomelli, J. W. Ochterski, 
 R. L. Martin, K. Morokuma, V. G. Zakrzewski, G. A. Voth, 
 P. Salvador, J. J. Dannenberg, S. Dapprich, A. D. Daniels, 
 O. Farkas, J. B. Foresman, J. V. Ortiz, J. Cioslowski, 
 and D. J. Fox, Gaussian, Inc., Wallingford CT, 2009.
 
 ******************************************
 Gaussian 09:  EM64L-G09RevA.02 11-Jun-2009
                17-Aug-2024 
 ******************************************
 %mem=100MB
 ---------------------------------------------------------------------
 #p mp2/aug-cc-pVDZ opt freq symmetry=(follow,pg=C3v) pop=full gfinput
 ---------------------------------------------------------------------
 1/18=20,19=15,38=1/1,3;
 2/9=110,12=2,17=6,18=5,19=2314885530821997379,40=1/2;
 3/5=16,7=10,11=9,16=1,24=10,25=1,30=1,71=1/1,2,3;
 4//1;
 5/5=2,38=5/2;
 8/6=4,10=1/1;
 9/15=2,16=-3/6;
 10/5=1/2;
 6/7=3/1;
 7/12=2/1,2,3,16;
 1/18=20,19=15/3(2);
 2/9=110,15=5,19=2314885530821997379/2;
 99//99;
 2/9=110,15=5,19=2314885530821997379/2;
 3/5=16,7=10,11=9,16=1,25=1,30=1,71=1/1,2,3;
 4/5=5,16=3/1;
 5/5=2,38=5/2;
 8/6=4,10=1/1;
 9/15=2,16=-3/6;
 10/5=1/2;
 7/12=2/1,2,3,16;
 1/18=20,19=15/3(-8);
 2/9=110,15=5,19=2314885530821997379/2;
 6/7=3/1;
 99//99;
 Leave Link    1 at Sat Aug 17 18:01:19 2024, MaxMem=   13107200 cpu:       0.1
 (Enter /programs/64bit/g09/g09-gfortran/bin/l101.exe)
 --------------------------------------------------------------
 methyl with imposed symmetry and hf/aug-cc-pVDZ basis function
 --------------------------------------------------------------
 Symbolic Z-matrix:
 Charge =  0 Multiplicity = 2
 C1
 H2                   1    d
 H3                   1    d        2    a
 H4                   1    d        2    -a       3    t        0
       Variables:
  d                     1.09                     
  a                   120.                       
  t                     0.                       
 
 NAtoms=      4 NQM=      4 NQMF=      0 NMic=      0 NMicF=      0 NTot=      4.
                    Isotopes and Nuclear Properties:
 (Nuclear quadrupole moments (NQMom) in fm**2, nuclear magnetic moments (NMagM)
  in nuclear magnetons)

  Atom         1           2           3           4
 IAtWgt=          12           1           1           1
 AtmWgt=  12.0000000   1.0078250   1.0078250   1.0078250
 NucSpn=           0           1           1           1
 AtZEff=   0.0000000   0.0000000   0.0000000   0.0000000
 NQMom=    0.0000000   0.0000000   0.0000000   0.0000000
 NMagM=    0.0000000   2.7928460   2.7928460   2.7928460
 Leave Link  101 at Sat Aug 17 18:01:19 2024, MaxMem=   13107200 cpu:       0.1
 (Enter /programs/64bit/g09/g09-gfortran/bin/l103.exe)

 GradGradGradGradGradGradGradGradGradGradGradGradGradGradGradGradGradGrad
 Berny optimization.
 Initialization pass.
                           ----------------------------
                           !    Initial Parameters    !
                           ! (Angstroms and Degrees)  !
 --------------------------                            --------------------------
 ! Name  Definition              Value          Derivative Info.                !
 --------------------------------------------------------------------------------
 ! R1    R(1,2)                  1.09           estimate D2E/DX2                !
 ! R2    R(1,3)                  1.09           estimate D2E/DX2                !
 ! R3    R(1,4)                  1.09           estimate D2E/DX2                !
 ! A1    A(2,1,3)              120.0            estimate D2E/DX2                !
 ! A2    A(2,1,4)              120.0            estimate D2E/DX2                !
 ! A3    A(3,1,4)              120.0            estimate D2E/DX2                !
 ! D1    D(2,1,4,3)            180.0            estimate D2E/DX2                !
 --------------------------------------------------------------------------------
 Trust Radius=3.00D-01 FncErr=1.00D-07 GrdErr=1.00D-07
 Number of steps in this run=  20 maximum allowed number of steps= 100.
 GradGradGradGradGradGradGradGradGradGradGradGradGradGradGradGradGradGrad

 Leave Link  103 at Sat Aug 17 18:01:19 2024, MaxMem=   13107200 cpu:       0.0
 (Enter /programs/64bit/g09/g09-gfortran/bin/l202.exe)
                          Input orientation:                          
 ---------------------------------------------------------------------
 Center     Atomic      Atomic             Coordinates (Angstroms)
 Number     Number       Type             X           Y           Z
 ---------------------------------------------------------------------
      1          6           0        0.000000    0.000000    0.000000
      2          1           0        0.000000    0.000000    1.090000
      3          1           0        0.943968    0.000000   -0.545000
      4          1           0       -0.943968    0.000000   -0.545000
 ---------------------------------------------------------------------
                    Distance matrix (angstroms):
                    1          2          3          4
     1  C    0.000000
     2  H    1.090000   0.000000
     3  H    1.090000   1.887935   0.000000
     4  H    1.090000   1.887935   1.887935   0.000000
 Symm:  InNGrp=C3V  InAxis=0.
 This structure is nearly, but not quite of a higher symmetry.
 Consider Symm=Loose if the higher symmetry is desired.
 Stoichiometry    CH3(2)
 Framework group  C2[C2(CH),X(H2)]
 Deg. of freedom     3
 Full point group                 C2      NOp   2
 Largest Abelian subgroup         C2      NOp   2
 Largest concise Abelian subgroup C2      NOp   2
                         Standard orientation:                         
 ---------------------------------------------------------------------
 Center     Atomic      Atomic             Coordinates (Angstroms)
 Number     Number       Type             X           Y           Z
 ---------------------------------------------------------------------
      1          6           0        0.000000    0.000000    0.000000
      2          1           0        0.000000    0.000000    1.090000
      3          1           0        0.000000    0.943968   -0.545000
      4          1           0       -0.000000   -0.943968   -0.545000
 ---------------------------------------------------------------------
 Rotational constants (GHZ):    281.3764836    281.3764836    140.6882418
 Leave Link  202 at Sat Aug 17 18:01:19 2024, MaxMem=   13107200 cpu:       0.0
 (Enter /programs/64bit/g09/g09-gfortran/bin/l301.exe)
 Standard basis: Aug-CC-pVDZ (5D, 7F)
 Ernie: Thresh=  0.10000D-02 Tol=  0.10000D-05 Strict=F.
 Ernie:  2 primitive shells out of 46 were deleted.
 AO basis set in the form of general basis input (Overlap normalization):
      1 0
 S   7 1.00       0.000000000000
      0.6665000000D+04  0.6935163173D-03
      0.1000000000D+04  0.5341502433D-02
      0.2280000000D+03  0.2713667141D-01
      0.6471000000D+02  0.1019923853D+00
      0.2106000000D+02  0.2755086365D+00
      0.7495000000D+01  0.4510864331D+00
      0.2797000000D+01  0.2875657448D+00
 S   7 1.00       0.000000000000
      0.6665000000D+04  0.7733547404D-05
      0.2280000000D+03  0.2780721367D-03
      0.6471000000D+02 -0.2578756542D-02
      0.2106000000D+02 -0.8950876838D-02
      0.7495000000D+01 -0.1060588547D+00
      0.2797000000D+01 -0.1315176856D+00
      0.5215000000D+00  0.1099486598D+01
 S   1 1.00       0.000000000000
      0.1596000000D+00  0.1000000000D+01
 S   1 1.00       0.000000000000
      0.4690000000D-01  0.1000000000D+01
 P   3 1.00       0.000000000000
      0.9439000000D+01  0.5697925159D-01
      0.2002000000D+01  0.3132072115D+00
      0.5456000000D+00  0.7603767417D+00
 P   1 1.00       0.000000000000
      0.1517000000D+00  0.1000000000D+01
 P   1 1.00       0.000000000000
      0.4041000000D-01  0.1000000000D+01
 D   1 1.00       0.000000000000
      0.5500000000D+00  0.1000000000D+01
 D   1 1.00       0.000000000000
      0.1510000000D+00  0.1000000000D+01
 ****
      2 0
 S   3 1.00       0.000000000000
      0.1301000000D+02  0.3349872639D-01
      0.1962000000D+01  0.2348008012D+00
      0.4446000000D+00  0.8136829579D+00
 S   1 1.00       0.000000000000
      0.1220000000D+00  0.1000000000D+01
 S   1 1.00       0.000000000000
      0.2974000000D-01  0.1000000000D+01
 P   1 1.00       0.000000000000
      0.7270000000D+00  0.1000000000D+01
 P   1 1.00       0.000000000000
      0.1410000000D+00  0.1000000000D+01
 ****
      3 0
 S   3 1.00       0.000000000000
      0.1301000000D+02  0.3349872639D-01
      0.1962000000D+01  0.2348008012D+00
      0.4446000000D+00  0.8136829579D+00
 S   1 1.00       0.000000000000
      0.1220000000D+00  0.1000000000D+01
 S   1 1.00       0.000000000000
      0.2974000000D-01  0.1000000000D+01
 P   1 1.00       0.000000000000
      0.7270000000D+00  0.1000000000D+01
 P   1 1.00       0.000000000000
      0.1410000000D+00  0.1000000000D+01
 ****
      4 0
 S   3 1.00       0.000000000000
      0.1301000000D+02  0.3349872639D-01
      0.1962000000D+01  0.2348008012D+00
      0.4446000000D+00  0.8136829579D+00
 S   1 1.00       0.000000000000
      0.1220000000D+00  0.1000000000D+01
 S   1 1.00       0.000000000000
      0.2974000000D-01  0.1000000000D+01
 P   1 1.00       0.000000000000
      0.7270000000D+00  0.1000000000D+01
 P   1 1.00       0.000000000000
      0.1410000000D+00  0.1000000000D+01
 ****

 There are    27 symmetry adapted basis functions of A   symmetry.
 There are    23 symmetry adapted basis functions of B   symmetry.
 Integral buffers will be    131072 words long.
 Raffenetti 2 integral format.
 Two-electron integral symmetry is turned on.
    50 basis functions,    76 primitive gaussians,    52 cartesian basis functions
     5 alpha electrons        4 beta electrons
       nuclear repulsion energy         9.5795885928 Hartrees.
 IExCor=    0 DFT=F Ex=HF Corr=None ExCW=0 ScaHFX=  1.000000
 ScaDFX=  1.000000  1.000000  1.000000  1.000000 ScalE2=  1.000000  1.000000
 IRadAn=      0 IRanWt=     -1 IRanGd=            0 ICorTp=0
 NAtoms=    4 NActive=    4 NUniq=    3 SFac= 1.33D+00 NAtFMM=   80 NAOKFM=F Big=F
 Leave Link  301 at Sat Aug 17 18:01:19 2024, MaxMem=   13107200 cpu:       0.1
 (Enter /programs/64bit/g09/g09-gfortran/bin/l302.exe)
 NPDir=0 NMtPBC=     1 NCelOv=     1 NCel=       1 NClECP=     1 NCelD=      1
         NCelK=      1 NCelE2=     1 NClLst=     1 CellRange=     0.0.
 One-electron integrals computed using PRISM.
 One-electron integral symmetry used in STVInt
 NBasis=    50 RedAO= T  NBF=    27    23
 NBsUse=    50 1.00D-06 NBFU=    27    23
 Leave Link  302 at Sat Aug 17 18:01:19 2024, MaxMem=   13107200 cpu:       0.1
 (Enter /programs/64bit/g09/g09-gfortran/bin/l303.exe)
 DipDrv:  MaxL=1.
 Leave Link  303 at Sat Aug 17 18:01:19 2024, MaxMem=   13107200 cpu:       0.0
 (Enter /programs/64bit/g09/g09-gfortran/bin/l401.exe)
 Harris functional with IExCor=  205 diagonalized for initial guess.
 ExpMin= 2.97D-02 ExpMax= 6.66D+03 ExpMxC= 2.28D+02 IAcc=3 IRadAn=         0 AccDes= 0.00D+00
 HarFok:  IExCor=  205 AccDes= 0.00D+00 IRadAn=         0 IDoV= 1
 ScaDFX=  1.000000  1.000000  1.000000  1.000000
 FoFCou: FMM=F IPFlag=           0 FMFlag=      100000 FMFlg1=           0
         NFxFlg=           0 DoJE=T BraDBF=F KetDBF=T FulRan=T
         Omega=  0.000000  0.000000  1.000000  0.000000  0.000000 ICntrl=     500 IOpCl=  0
         NMat0=    1 NMatS0=    1 NMatT0=    0 NMatD0=    1 NMtDS0=    0 NMtDT0=    0
         I1Cent=           4 NGrid=           0.
 Petite list used in FoFCou.
 Harris En= -39.6296316684376    
 Initial guess orbital symmetries:
 Alpha Orbitals:
       Occupied  (A) (A) (B) (A) (B)
       Virtual   (A) (B) (A) (B) (B) (A) (A) (B) (A) (A) (A) (B)
                 (B) (A) (B) (B) (A) (A) (A) (B) (A) (B) (B) (A)
                 (A) (B) (B) (A) (A) (B) (A) (B) (A) (B) (B) (A)
                 (B) (A) (A) (B) (B) (A) (A) (B) (A)
 Beta  Orbitals:
       Occupied  (A) (A) (B) (A)
       Virtual   (B) (A) (B) (A) (B) (B) (A) (A) (B) (A) (A) (A)
                 (B) (B) (A) (B) (B) (A) (A) (A) (B) (A) (B) (B)
                 (A) (A) (B) (B) (A) (A) (B) (A) (B) (A) (B) (B)
                 (A) (B) (A) (A) (B) (B) (A) (A) (B) (A)
 The electronic state of the initial guess is 2-B.
 Initial guess <Sx>= 0.0000 <Sy>= 0.0000 <Sz>= 0.5000 <S**2>= 0.7500 S= 0.5000
 Leave Link  401 at Sat Aug 17 18:01:20 2024, MaxMem=   13107200 cpu:       0.5
 (Enter /programs/64bit/g09/g09-gfortran/bin/l502.exe)
 UHF open shell SCF:
 Requested convergence on RMS density matrix=1.00D-08 within 128 cycles.
 Requested convergence on MAX density matrix=1.00D-06.
 Requested convergence on             energy=1.00D-06.
 No special actions if energy rises.
 Using DIIS extrapolation, IDIIS=  1040.
 Integral symmetry usage will be decided dynamically.
 Keep R1 and R2 ints in memory in canonical form, NReq=2747321.
 IEnd=       27038 IEndB=       27038 NGot=    13107200 MDV=    11199269
 LenX=    11199269 LenY=    11196124
 Symmetry not used in FoFDir.
 MinBra= 0 MaxBra= 2 Meth= 1.
 IRaf=       0 NMat=   1 IRICut=       1 DoRegI=T DoRafI=F ISym2E= 0 JSym2E=0.

 Cycle   1  Pass 1  IDiag  1:
 E= -39.5039623270263    
 DIIS: error= 3.36D-02 at cycle   1 NSaved=   1.
 NSaved= 1 IEnMin= 1 EnMin= -39.5039623270263     IErMin= 1 ErrMin= 3.36D-02
 ErrMax= 3.36D-02 EMaxC= 1.00D-01 BMatC= 2.46D-01 BMatP= 2.46D-01
 IDIUse=3 WtCom= 6.64D-01 WtEn= 3.36D-01
 Coeff-Com:  0.100D+01
 Coeff-En:   0.100D+01
 Coeff:      0.100D+01
 Gap=     0.383 Goal=   None    Shift=    0.000
 Gap=     0.587 Goal=   None    Shift=    0.000
 GapD=    0.383 DampG=1.000 DampE=0.500 DampFc=0.5000 IDamp=-1.
 Damping current iteration by 5.00D-01
 RMSDP=9.75D-03 MaxDP=1.20D-01              OVMax= 1.08D-01

 Cycle   2  Pass 1  IDiag  1:
 E= -39.5364790067531     Delta-E=       -0.032516679727 Rises=F Damp=T
 DIIS: error= 1.41D-02 at cycle   2 NSaved=   2.
 NSaved= 2 IEnMin= 2 EnMin= -39.5364790067531     IErMin= 2 ErrMin= 1.41D-02
 ErrMax= 1.41D-02 EMaxC= 1.00D-01 BMatC= 4.41D-02 BMatP= 2.46D-01
 IDIUse=3 WtCom= 8.59D-01 WtEn= 1.41D-01
 Coeff-Com: -0.602D+00 0.160D+01
 Coeff-En:   0.000D+00 0.100D+01
 Coeff:     -0.517D+00 0.152D+01
 Gap=     0.411 Goal=   None    Shift=    0.000
 Gap=     0.601 Goal=   None    Shift=    0.000
 RMSDP=4.43D-03 MaxDP=4.92D-02 DE=-3.25D-02 OVMax= 3.47D-02

 Cycle   3  Pass 1  IDiag  1:
 E= -39.5650581274185     Delta-E=       -0.028579120665 Rises=F Damp=F
 DIIS: error= 2.43D-03 at cycle   3 NSaved=   3.
 NSaved= 3 IEnMin= 3 EnMin= -39.5650581274185     IErMin= 3 ErrMin= 2.43D-03
 ErrMax= 2.43D-03 EMaxC= 1.00D-01 BMatC= 6.19D-04 BMatP= 4.41D-02
 IDIUse=3 WtCom= 9.76D-01 WtEn= 2.43D-02
 Coeff-Com:  0.633D-01-0.200D+00 0.114D+01
 Coeff-En:   0.000D+00 0.000D+00 0.100D+01
 Coeff:      0.618D-01-0.195D+00 0.113D+01
 Gap=     0.417 Goal=   None    Shift=    0.000
 Gap=     0.603 Goal=   None    Shift=    0.000
 RMSDP=3.62D-04 MaxDP=6.32D-03 DE=-2.86D-02 OVMax= 6.96D-03

 Cycle   4  Pass 1  IDiag  1:
 E= -39.5654142414377     Delta-E=       -0.000356114019 Rises=F Damp=F
 DIIS: error= 9.76D-04 at cycle   4 NSaved=   4.
 NSaved= 4 IEnMin= 4 EnMin= -39.5654142414377     IErMin= 4 ErrMin= 9.76D-04
 ErrMax= 9.76D-04 EMaxC= 1.00D-01 BMatC= 1.41D-04 BMatP= 6.19D-04
 IDIUse=3 WtCom= 9.90D-01 WtEn= 9.76D-03
 Coeff-Com: -0.392D-01 0.121D+00-0.924D+00 0.184D+01
 Coeff-En:   0.000D+00 0.000D+00 0.000D+00 0.100D+01
 Coeff:     -0.388D-01 0.119D+00-0.915D+00 0.183D+01
 Gap=     0.420 Goal=   None    Shift=    0.000
 Gap=     0.602 Goal=   None    Shift=    0.000
 RMSDP=2.84D-04 MaxDP=4.96D-03 DE=-3.56D-04 OVMax= 6.44D-03

 Cycle   5  Pass 1  IDiag  1:
 E= -39.5655515105297     Delta-E=       -0.000137269092 Rises=F Damp=F
 DIIS: error= 3.71D-04 at cycle   5 NSaved=   5.
 NSaved= 5 IEnMin= 5 EnMin= -39.5655515105297     IErMin= 5 ErrMin= 3.71D-04
 ErrMax= 3.71D-04 EMaxC= 1.00D-01 BMatC= 1.87D-05 BMatP= 1.41D-04
 IDIUse=3 WtCom= 9.96D-01 WtEn= 3.71D-03
 Coeff-Com:  0.235D-01-0.730D-01 0.647D+00-0.164D+01 0.204D+01
 Coeff-En:   0.000D+00 0.000D+00 0.000D+00 0.000D+00 0.100D+01
 Coeff:      0.235D-01-0.728D-01 0.645D+00-0.163D+01 0.204D+01
 Gap=     0.421 Goal=   None    Shift=    0.000
 Gap=     0.602 Goal=   None    Shift=    0.000
 RMSDP=1.39D-04 MaxDP=2.56D-03 DE=-1.37D-04 OVMax= 3.16D-03

 Cycle   6  Pass 1  IDiag  1:
 E= -39.5655735157131     Delta-E=       -0.000022005183 Rises=F Damp=F
 DIIS: error= 7.48D-05 at cycle   6 NSaved=   6.
 NSaved= 6 IEnMin= 6 EnMin= -39.5655735157131     IErMin= 6 ErrMin= 7.48D-05
 ErrMax= 7.48D-05 EMaxC= 1.00D-01 BMatC= 4.30D-07 BMatP= 1.87D-05
 IDIUse=1 WtCom= 1.00D+00 WtEn= 0.00D+00
 Coeff-Com: -0.755D-02 0.229D-01-0.199D+00 0.535D+00-0.799D+00 0.145D+01
 Coeff:     -0.755D-02 0.229D-01-0.199D+00 0.535D+00-0.799D+00 0.145D+01
 Gap=     0.421 Goal=   None    Shift=    0.000
 Gap=     0.602 Goal=   None    Shift=    0.000
 RMSDP=2.02D-05 MaxDP=2.67D-04 DE=-2.20D-05 OVMax= 4.80D-04

 Cycle   7  Pass 1  IDiag  1:
 E= -39.5655739605913     Delta-E=       -0.000000444878 Rises=F Damp=F
 DIIS: error= 2.18D-05 at cycle   7 NSaved=   7.
 NSaved= 7 IEnMin= 7 EnMin= -39.5655739605913     IErMin= 7 ErrMin= 2.18D-05
 ErrMax= 2.18D-05 EMaxC= 1.00D-01 BMatC= 2.26D-08 BMatP= 4.30D-07
 IDIUse=1 WtCom= 1.00D+00 WtEn= 0.00D+00
 Coeff-Com:  0.362D-02-0.105D-01 0.834D-01-0.226D+00 0.350D+00-0.776D+00
 Coeff-Com:  0.158D+01
 Coeff:      0.362D-02-0.105D-01 0.834D-01-0.226D+00 0.350D+00-0.776D+00
 Coeff:      0.158D+01
 Gap=     0.421 Goal=   None    Shift=    0.000
 Gap=     0.602 Goal=   None    Shift=    0.000
 RMSDP=3.93D-06 MaxDP=9.39D-05 DE=-4.45D-07 OVMax= 1.10D-04

 Cycle   8  Pass 1  IDiag  1:
 E= -39.5655739813614     Delta-E=       -0.000000020770 Rises=F Damp=F
 DIIS: error= 5.58D-06 at cycle   8 NSaved=   8.
 NSaved= 8 IEnMin= 8 EnMin= -39.5655739813614     IErMin= 8 ErrMin= 5.58D-06
 ErrMax= 5.58D-06 EMaxC= 1.00D-01 BMatC= 5.74D-10 BMatP= 2.26D-08
 IDIUse=1 WtCom= 1.00D+00 WtEn= 0.00D+00
 Coeff-Com: -0.484D-03 0.134D-02-0.915D-02 0.259D-01-0.423D-01 0.115D+00
 Coeff-Com: -0.379D+00 0.129D+01
 Coeff:     -0.484D-03 0.134D-02-0.915D-02 0.259D-01-0.423D-01 0.115D+00
 Coeff:     -0.379D+00 0.129D+01
 Gap=     0.421 Goal=   None    Shift=    0.000
 Gap=     0.602 Goal=   None    Shift=    0.000
 RMSDP=8.97D-07 MaxDP=2.63D-05 DE=-2.08D-08 OVMax= 3.07D-05

 Cycle   9  Pass 1  IDiag  1:
 E= -39.5655739819126     Delta-E=       -0.000000000551 Rises=F Damp=F
 DIIS: error= 7.97D-07 at cycle   9 NSaved=   9.
 NSaved= 9 IEnMin= 9 EnMin= -39.5655739819126     IErMin= 9 ErrMin= 7.97D-07
 ErrMax= 7.97D-07 EMaxC= 1.00D-01 BMatC= 2.97D-11 BMatP= 5.74D-10
 IDIUse=1 WtCom= 1.00D+00 WtEn= 0.00D+00
 Coeff-Com:  0.797D-04-0.193D-03 0.746D-03-0.236D-02 0.447D-02-0.160D-01
 Coeff-Com:  0.882D-01-0.472D+00 0.140D+01
 Coeff:      0.797D-04-0.193D-03 0.746D-03-0.236D-02 0.447D-02-0.160D-01
 Coeff:      0.882D-01-0.472D+00 0.140D+01
 Gap=     0.421 Goal=   None    Shift=    0.000
 Gap=     0.602 Goal=   None    Shift=    0.000
 RMSDP=2.37D-07 MaxDP=4.34D-06 DE=-5.51D-10 OVMax= 4.65D-06

 Cycle  10  Pass 1  IDiag  1:
 E= -39.5655739819372     Delta-E=       -0.000000000025 Rises=F Damp=F
 DIIS: error= 1.99D-07 at cycle  10 NSaved=  10.
 NSaved=10 IEnMin=10 EnMin= -39.5655739819372     IErMin=10 ErrMin= 1.99D-07
 ErrMax= 1.99D-07 EMaxC= 1.00D-01 BMatC= 1.83D-12 BMatP= 2.97D-11
 IDIUse=1 WtCom= 1.00D+00 WtEn= 0.00D+00
 Coeff-Com: -0.698D-05 0.451D-05 0.299D-03-0.677D-03 0.701D-03 0.651D-03
 Coeff-Com: -0.225D-01 0.164D+00-0.715D+00 0.157D+01
 Coeff:     -0.698D-05 0.451D-05 0.299D-03-0.677D-03 0.701D-03 0.651D-03
 Coeff:     -0.225D-01 0.164D+00-0.715D+00 0.157D+01
 Gap=     0.421 Goal=   None    Shift=    0.000
 Gap=     0.602 Goal=   None    Shift=    0.000
 RMSDP=4.32D-08 MaxDP=1.10D-06 DE=-2.46D-11 OVMax= 1.40D-06

 Cycle  11  Pass 1  IDiag  1:
 E= -39.5655739819389     Delta-E=       -0.000000000002 Rises=F Damp=F
 DIIS: error= 2.38D-08 at cycle  11 NSaved=  11.
 NSaved=11 IEnMin=11 EnMin= -39.5655739819389     IErMin=11 ErrMin= 2.38D-08
 ErrMax= 2.38D-08 EMaxC= 1.00D-01 BMatC= 2.55D-14 BMatP= 1.83D-12
 IDIUse=1 WtCom= 1.00D+00 WtEn= 0.00D+00
 Coeff-Com:  0.752D-06 0.638D-06-0.661D-04 0.155D-03-0.182D-03 0.199D-04
 Coeff-Com:  0.376D-02-0.289D-01 0.144D+00-0.407D+00 0.129D+01
 Coeff:      0.752D-06 0.638D-06-0.661D-04 0.155D-03-0.182D-03 0.199D-04
 Coeff:      0.376D-02-0.289D-01 0.144D+00-0.407D+00 0.129D+01
 Gap=     0.421 Goal=   None    Shift=    0.000
 Gap=     0.602 Goal=   None    Shift=    0.000
 RMSDP=4.39D-09 MaxDP=6.09D-08 DE=-1.69D-12 OVMax= 1.04D-07

 SCF Done:  E(UHF) =  -39.5655739819     A.U. after   11 cycles
             Convg  =    0.4389D-08             -V/T =  2.0027
 <Sx>= 0.0000 <Sy>= 0.0000 <Sz>= 0.5000 <S**2>= 0.7617 S= 0.5058
 <L.S>=  0.00000000000    
 KE= 3.945958641915D+01 PE=-1.108201349296D+02 EE= 2.221538593571D+01
 Annihilation of the first spin contaminant:
 S**2 before annihilation     0.7617,   after     0.7501
 Leave Link  502 at Sat Aug 17 18:01:20 2024, MaxMem=   13107200 cpu:       0.4
 (Enter /programs/64bit/g09/g09-gfortran/bin/l801.exe)
 ExpMin= 2.97D-02 ExpMax= 6.66D+03 ExpMxC= 2.28D+02 IAcc=3 IRadAn=         5 AccDes= 0.00D+00
 HarFok:  IExCor=  205 AccDes= 0.00D+00 IRadAn=         5 IDoV=-2
 ScaDFX=  1.000000  1.000000  1.000000  1.000000
 Largest valence mixing into a core orbital is  9.35D-05
 Largest core mixing into a valence orbital is  2.99D-05
 Largest valence mixing into a core orbital is  1.42D-04
 Largest core mixing into a valence orbital is  4.85D-05
 Range of M.O.s used for correlation:     2    50
 NBasis=    50 NAE=     5 NBE=     4 NFC=     1 NFV=     0
 NROrb=     49 NOA=     4 NOB=     3 NVA=    45 NVB=    46

 **** Warning!!: The largest alpha MO coefficient is  0.14433454D+02


 **** Warning!!: The largest beta MO coefficient is  0.13553497D+02

 Leave Link  801 at Sat Aug 17 18:01:21 2024, MaxMem=   13107200 cpu:       0.6
 (Enter /programs/64bit/g09/g09-gfortran/bin/l906.exe)
 Frozen-core derivative calculation, NFC=   1 NFV=   0.
 FulOut=F Deriv=T AODrv=T NAtomX=     4
   MMem=         238  MDisk=           4 MDiskD=           4
  W3Min=       26000 MinDsk=       86790 NBas6D=          52
 NBas2D=        1435    NTT=        1378    LW2=     2040000
    MDV=    13052107 MDiskM=        2951 NBas2p=        1048
 Fully direct method using O(ONN) memory.
 IMap=   1   2   3   4   5
 JobTyp=2 Pass  1:  I=   2 to   5 NPSUse=  1 ParTrn=F ParDer=F DoDerP=T.
 IMap=   1   2   3   4
 JobTyp=3 Pass  1:  I=   2 to   4 NPSUse=  1 ParTrn=F ParDer=F DoDerP=T.
 Spin components of T(2) and E(2):
     alpha-alpha T2 =       0.7310116626D-02 E2=     -0.1931072217D-01
     alpha-beta  T2 =       0.3622663130D-01 E2=     -0.1067341126D+00
     beta-beta   T2 =       0.2383460483D-02 E2=     -0.6636908224D-02
 The integrals were generated   2 times.
 (S**2,0)=  0.76171D+00           (S**2,1)=  0.75324D+00
 E(PUHF)=      -0.39568561630D+02        E(PMP2)=      -0.39700167597D+02
 ANorm=    0.1022702405D+01
 E2 =    -0.1326817430D+00 EUMP2 =    -0.39698255724959D+02
 Leave Link  906 at Sat Aug 17 18:01:23 2024, MaxMem=   13107200 cpu:       1.9
 (Enter /programs/64bit/g09/g09-gfortran/bin/l1002.exe)
 Minotr:  UHF open shell wavefunction.
          Computing MP2/KS-MP2 derivatives.
          Using Z-Vector for PSCF gradient.
          Skipping F1 and S1 gradient terms here.
          IDoAtm=1111
          Frozen-core window.
          Direct CPHF calculation.
          Differentiating once with respect to electric field.
                with respect to dipole field.
          Differentiating once with respect to nuclear coordinates.
          Using symmetry in CPHF.
          Requested convergence is 1.0D-10 RMS, and 1.0D-09 maximum.
          NewPWx=F KeepS1=T KeepF1=T KeepIn=T MapXYZ=F SortEE=F KeepMc=T.
          MDV=      13107156 using IRadAn=       0.
          Keep R1 and R2 ints in memory in canonical form, NReq=2721014.
 Symmetry not used in FoFDir.
 MinBra= 0 MaxBra= 2 Meth= 1.
 IRaf=       0 NMat=   1 IRICut=       1 DoRegI=T DoRafI=F ISym2E= 0 JSym2E=0.
          Solving linear equations separately, MaxMat=       0.
          There are     1 degrees of freedom in the 1st order CPHF.  IDoFFX=0.
 LinEq1:  Iter=  0 NonCon=     1 RMS=1.98D-03 Max=1.89D-02
 AX will form     1 AO Fock derivatives at one time.
 LinEq1:  Iter=  1 NonCon=     1 RMS=3.99D-04 Max=3.00D-03
 LinEq1:  Iter=  2 NonCon=     1 RMS=1.45D-04 Max=9.73D-04
 LinEq1:  Iter=  3 NonCon=     1 RMS=3.66D-05 Max=3.34D-04
 LinEq1:  Iter=  4 NonCon=     1 RMS=5.40D-06 Max=3.78D-05
 LinEq1:  Iter=  5 NonCon=     1 RMS=5.59D-07 Max=3.03D-06
 LinEq1:  Iter=  6 NonCon=     1 RMS=6.57D-08 Max=3.10D-07
 LinEq1:  Iter=  7 NonCon=     1 RMS=9.27D-09 Max=4.79D-08
 LinEq1:  Iter=  8 NonCon=     1 RMS=8.07D-10 Max=5.65D-09
 LinEq1:  Iter=  9 NonCon=     0 RMS=6.87D-11 Max=4.34D-10
 Linear equations converged to 1.000D-10 1.000D-09 after     9 iterations.
 End of Minotr Frequency-dependent properties file   721 does not exist.
 End of Minotr Frequency-dependent properties file   722 does not exist.
 Leave Link 1002 at Sat Aug 17 18:01:23 2024, MaxMem=   13107200 cpu:       0.3
 (Enter /programs/64bit/g09/g09-gfortran/bin/l601.exe)
 Copying SCF densities to generalized density rwf, IOpCl= 1 IROHF=0.

 **********************************************************************

            Population analysis using the SCF density.

 **********************************************************************

 Orbital symmetries:
 Alpha Orbitals:
       Occupied  (A) (A) (B) (A) (B)
       Virtual   (A) (A) (B) (B) (B) (A) (A) (A) (B) (A) (B) (A)
                 (B) (A) (B) (B) (A) (A) (A) (B) (A) (B) (A) (B)
                 (B) (A) (B) (A) (A) (B) (B) (A) (A) (B) (B) (B)
                 (A) (A) (B) (A) (B) (A) (A) (A) (B)
 Beta  Orbitals:
       Occupied  (A) (A) (A) (B)
       Virtual   (A) (A) (B) (B) (B) (A) (A) (B) (A) (B) (A) (B)
                 (A) (B) (A) (B) (B) (A) (A) (B) (A) (A) (B) (A)
                 (B) (A) (B) (A) (B) (A) (B) (B) (A) (A) (B) (B)
                 (A) (B) (A) (B) (A) (A) (B) (A) (A) (B)
 The electronic state is 2-B.
 Alpha  occ. eigenvalues --  -11.24619  -0.94508  -0.57719  -0.57719  -0.38344
 Alpha virt. eigenvalues --    0.03739   0.06002   0.06002   0.11633   0.15092
 Alpha virt. eigenvalues --    0.15092   0.17369   0.28412   0.28412   0.28574
 Alpha virt. eigenvalues --    0.36151   0.36151   0.44563   0.44563   0.48418
 Alpha virt. eigenvalues --    0.50867   0.53825   0.56494   0.56837   0.56837
 Alpha virt. eigenvalues --    0.62274   0.62274   0.66044   0.66044   0.90604
 Alpha virt. eigenvalues --    0.92769   1.11773   1.11773   1.45591   1.45591
 Alpha virt. eigenvalues --    1.51729   1.51729   1.74627   1.83206   1.96445
 Alpha virt. eigenvalues --    1.97429   1.97429   2.09826   2.26655   2.26655
 Alpha virt. eigenvalues --    2.46715   2.46715   2.80489   2.99055   2.99055
  Beta  occ. eigenvalues --  -11.22216  -0.85375  -0.56239  -0.56239
  Beta virt. eigenvalues --    0.03922   0.06045   0.06045   0.06777   0.15157
  Beta virt. eigenvalues --    0.15157   0.18115   0.19918   0.28833   0.28833
  Beta virt. eigenvalues --    0.31107   0.37834   0.37834   0.44788   0.44788
  Beta virt. eigenvalues --    0.50778   0.52705   0.56758   0.57114   0.57114
  Beta virt. eigenvalues --    0.58075   0.64193   0.64193   0.66808   0.66808
  Beta virt. eigenvalues --    0.94839   1.00841   1.12987   1.12987   1.46044
  Beta virt. eigenvalues --    1.46044   1.56293   1.56293   1.79291   1.82807
  Beta virt. eigenvalues --    1.97739   1.97739   1.97840   2.14162   2.29693
  Beta virt. eigenvalues --    2.29693   2.47189   2.47189   2.81005   2.99940
  Beta virt. eigenvalues --    2.99940
     Alpha Molecular Orbital Coefficients:
                           1         2         3         4         5
                           O         O         O         O         O
     Eigenvalues --   -11.24619  -0.94508  -0.57719  -0.57719  -0.38344
   1 1   C  1S          0.99738  -0.19515   0.00000   0.00000   0.00000
   2        2S          0.02214   0.40158   0.00000  -0.00000   0.00000
   3        3S         -0.03051   0.26890   0.00000  -0.00000   0.00000
   4        4S         -0.00825  -0.00623   0.00000  -0.00000   0.00000
   5        5PX         0.00000   0.00000   0.00000   0.00000   0.60305
   6        5PY         0.00000   0.00000   0.44554   0.00000  -0.00000
   7        5PZ         0.00000  -0.00000   0.00000   0.44554   0.00000
   8        6PX         0.00000   0.00000  -0.00000   0.00000   0.48693
   9        6PY         0.00000   0.00000   0.13749   0.00000   0.00000
  10        6PZ        -0.00000   0.00000   0.00000   0.13749   0.00000
  11        7PX         0.00000   0.00000  -0.00000   0.00000   0.06089
  12        7PY         0.00000   0.00000   0.00474   0.00000   0.00000
  13        7PZ        -0.00000  -0.00000   0.00000   0.00474   0.00000
  14        8D 0        0.00002  -0.00784   0.00000   0.02354   0.00000
  15        8D+1        0.00000   0.00000   0.00000   0.00000  -0.00000
  16        8D-1        0.00000   0.00000  -0.02718   0.00000  -0.00000
  17        8D+2       -0.00004   0.01358   0.00000   0.01359   0.00000
  18        8D-2       -0.00000   0.00000   0.00000  -0.00000   0.00000
  19        9D 0       -0.00080  -0.00805   0.00000  -0.04587   0.00000
  20        9D+1        0.00000   0.00000  -0.00000   0.00000  -0.00000
  21        9D-1        0.00000   0.00000   0.05296   0.00000  -0.00000
  22        9D+2        0.00138   0.01394   0.00000  -0.02648   0.00000
  23        9D-2        0.00000   0.00000   0.00000   0.00000   0.00000
  24 2   H  1S          0.00034   0.19174   0.00000   0.36591   0.00000
  25        2S          0.01003   0.03669   0.00000   0.26234   0.00000
  26        3S          0.00101   0.00317   0.00000   0.00233   0.00000
  27        4PX         0.00000   0.00000  -0.00000   0.00000   0.01960
  28        4PY         0.00000   0.00000   0.01139   0.00000  -0.00000
  29        4PZ         0.00052  -0.02826   0.00000  -0.02080   0.00000
  30        5PX         0.00000   0.00000   0.00000   0.00000   0.00074
  31        5PY         0.00000   0.00000  -0.03636   0.00000  -0.00000
  32        5PZ        -0.00315  -0.00874   0.00000  -0.04689   0.00000
  33 3   H  1S          0.00034   0.19174   0.31689  -0.18295  -0.00000
  34        2S          0.01003   0.03669   0.22719  -0.13117  -0.00000
  35        3S          0.00101   0.00317   0.00202  -0.00117  -0.00000
  36        4PX        -0.00000  -0.00000   0.00000   0.00000   0.01960
  37        4PY         0.00045  -0.02448  -0.01275   0.01394   0.00000
  38        4PZ        -0.00026   0.01413   0.01394   0.00334  -0.00000
  39        5PX        -0.00000   0.00000   0.00000  -0.00000   0.00074
  40        5PY        -0.00272  -0.00757  -0.04426   0.00456   0.00000
  41        5PZ         0.00157   0.00437   0.00456  -0.03899  -0.00000
  42 4   H  1S          0.00034   0.19174  -0.31689  -0.18295   0.00000
  43        2S          0.01003   0.03669  -0.22719  -0.13117   0.00000
  44        3S          0.00101   0.00317  -0.00202  -0.00117   0.00000
  45        4PX         0.00000   0.00000   0.00000  -0.00000   0.01960
  46        4PY        -0.00045   0.02448  -0.01275  -0.01394   0.00000
  47        4PZ        -0.00026   0.01413  -0.01394   0.00334   0.00000
  48        5PX         0.00000  -0.00000   0.00000   0.00000   0.00074
  49        5PY         0.00272   0.00757  -0.04426  -0.00456   0.00000
  50        5PZ         0.00157   0.00437  -0.00456  -0.03899   0.00000
                           6         7         8         9        10
                           V         V         V         V         V
     Eigenvalues --     0.03739   0.06002   0.06002   0.11633   0.15092
   1 1   C  1S         -0.03844  -0.00000   0.00000   0.00000   0.00000
   2        2S          0.03825  -0.00000   0.00000   0.00000   0.00000
   3        3S          0.97509   0.00000   0.00000   0.00000   0.00000
   4        4S          3.13359   0.00000   0.00000   0.00000   0.00000
   5        5PX         0.00000   0.00000   0.00000  -0.17554  -0.00000
   6        5PY         0.00000   0.00000  -0.06792  -0.00000   0.09705
   7        5PZ         0.00000  -0.06792   0.00000   0.00000   0.00000
   8        6PX         0.00000   0.00000   0.00000  -0.17817   0.00000
   9        6PY         0.00000   0.00000  -0.33700   0.00000  -1.63643
  10        6PZ         0.00000  -0.33700   0.00000   0.00000   0.00000
  11        7PX         0.00000   0.00000  -0.00000   1.25765   0.00000
  12        7PY         0.00000   0.00000  -1.71072   0.00000  -4.25121
  13        7PZ         0.00000  -1.71072   0.00000   0.00000   0.00000
  14        8D 0       -0.00259  -0.00676   0.00000   0.00000   0.00000
  15        8D+1        0.00000   0.00000  -0.00000   0.00000   0.00000
  16        8D-1        0.00000   0.00000   0.00781   0.00000  -0.00855
  17        8D+2        0.00448  -0.00390   0.00000   0.00000   0.00000
  18        8D-2        0.00000   0.00000   0.00000   0.00000   0.00000
  19        9D 0        0.04587   0.08064   0.00000   0.00000   0.00000
  20        9D+1        0.00000   0.00000   0.00000   0.00000   0.00000
  21        9D-1        0.00000   0.00000  -0.09312  -0.00000   0.34302
  22        9D+2       -0.07945   0.04656   0.00000   0.00000   0.00000
  23        9D-2       -0.00000  -0.00000   0.00000   0.00000   0.00000
  24 2   H  1S         -0.00163  -0.02756   0.00000   0.00000   0.00000
  25        2S         -0.60414   0.36013   0.00000   0.00000   0.00000
  26        3S         -1.11160   4.77953   0.00000   0.00000   0.00000
  27        4PX         0.00000   0.00000   0.00000   0.00887   0.00000
  28        4PY         0.00000   0.00000  -0.00428   0.00000  -0.01111
  29        4PZ        -0.00410   0.00443   0.00000   0.00000   0.00000
  30        5PX         0.00000   0.00000   0.00000  -0.15134   0.00000
  31        5PY         0.00000   0.00000   0.18039  -0.00000   0.09128
  32        5PZ         0.14678  -0.16182   0.00000   0.00000   0.00000
  33 3   H  1S         -0.00163   0.01378  -0.02387  -0.00000   0.09219
  34        2S         -0.60414  -0.18007   0.31188  -0.00000   3.04242
  35        3S         -1.11160  -2.38976   4.13919  -0.00000   4.84351
  36        4PX        -0.00000  -0.00000   0.00000   0.00887   0.00000
  37        4PY        -0.00355  -0.00377   0.00225   0.00000  -0.01886
  38        4PZ         0.00205  -0.00210  -0.00377  -0.00000   0.00447
  39        5PX         0.00000   0.00000   0.00000  -0.15134   0.00000
  40        5PY         0.12712   0.14818  -0.07627   0.00000  -0.57564
  41        5PZ        -0.07339   0.09484   0.14818  -0.00000   0.38505
  42 4   H  1S         -0.00163   0.01378   0.02387   0.00000  -0.09219
  43        2S         -0.60414  -0.18007  -0.31188   0.00000  -3.04242
  44        3S         -1.11160  -2.38976  -4.13919   0.00000  -4.84351
  45        4PX         0.00000   0.00000   0.00000   0.00887   0.00000
  46        4PY         0.00355   0.00377   0.00225   0.00000  -0.01886
  47        4PZ         0.00205  -0.00210   0.00377   0.00000  -0.00447
  48        5PX        -0.00000  -0.00000   0.00000  -0.15134   0.00000
  49        5PY        -0.12712  -0.14818  -0.07627   0.00000  -0.57564
  50        5PZ        -0.07339   0.09484  -0.14818   0.00000  -0.38505
                          11        12        13        14        15
                           V         V         V         V         V
     Eigenvalues --     0.15092   0.17369   0.28412   0.28412   0.28574
   1 1   C  1S         -0.00000   0.04034  -0.00000   0.00000  -0.07655
   2        2S          0.00000  -0.28961   0.00000   0.00000   0.12704
   3        3S         -0.00000   2.47480   0.00000   0.00000   0.55911
   4        4S         -0.00000   7.81009   0.00000   0.00000   2.62338
   5        5PX         0.00000   0.00000   0.00000  -0.00000   0.00000
   6        5PY         0.00000   0.00000   0.00000   0.24905   0.00000
   7        5PZ         0.09705  -0.00000   0.24905   0.00000  -0.00000
   8        6PX         0.00000   0.00000   0.00000  -0.00000   0.00000
   9        6PY         0.00000   0.00000   0.00000   0.23222   0.00000
  10        6PZ        -1.63643  -0.00000   0.23222   0.00000  -0.00000
  11        7PX         0.00000   0.00000   0.00000  -0.00000   0.00000
  12        7PY         0.00000   0.00000   0.00000  -1.14563   0.00000
  13        7PZ        -4.25121  -0.00000  -1.14563   0.00000   0.00000
  14        8D 0        0.00741  -0.00212  -0.05395   0.00000  -0.01392
  15        8D+1        0.00000   0.00000   0.00000   0.00000   0.00000
  16        8D-1        0.00000   0.00000   0.00000   0.06230   0.00000
  17        8D+2        0.00428   0.00368  -0.03115   0.00000   0.02411
  18        8D-2        0.00000   0.00000   0.00000   0.00000  -0.00000
  19        9D 0       -0.29706   0.14514   0.65495   0.00000  -0.05783
  20        9D+1        0.00000   0.00000   0.00000  -0.00000   0.00000
  21        9D-1        0.00000   0.00000   0.00000  -0.75627   0.00000
  22        9D+2       -0.17151  -0.25139   0.37813   0.00000   0.10016
  23        9D-2       -0.00000  -0.00000  -0.00000   0.00000   0.00000
  24 2   H  1S          0.10645  -0.01114  -0.10748   0.00000  -0.12036
  25        2S          3.51309  -2.07479  -1.35489   0.00000  -1.16162
  26        3S          5.59281  -1.52547   2.41903   0.00000  -0.24427
  27        4PX         0.00000   0.00000   0.00000   0.00000   0.00000
  28        4PY         0.00000   0.00000   0.00000   0.00981   0.00000
  29        4PZ        -0.02144   0.02258  -0.01277   0.00000   0.01687
  30        5PX         0.00000   0.00000   0.00000   0.00000   0.00000
  31        5PY         0.00000   0.00000   0.00000   0.99356   0.00000
  32        5PZ        -0.79795   0.53353  -0.42579   0.00000  -0.29727
  33 3   H  1S         -0.05322  -0.01114   0.05374  -0.09308  -0.12036
  34        2S         -1.75654  -2.07479   0.67744  -1.17337  -1.16162
  35        3S         -2.79640  -1.52547  -1.20951   2.09494  -0.24427
  36        4PX        -0.00000  -0.00000  -0.00000  -0.00000  -0.00000
  37        4PY         0.00447   0.01955   0.00978  -0.00713   0.01461
  38        4PZ        -0.01369  -0.01129   0.00416   0.00978  -0.00844
  39        5PX         0.00000   0.00000  -0.00000   0.00000   0.00000
  40        5PY         0.38505   0.46205   0.61460  -0.07095  -0.25744
  41        5PZ        -0.13102  -0.26676   0.63872   0.61460   0.14863
  42 4   H  1S         -0.05322  -0.01114   0.05374   0.09308  -0.12036
  43        2S         -1.75654  -2.07479   0.67744   1.17337  -1.16162
  44        3S         -2.79640  -1.52547  -1.20951  -2.09494  -0.24427
  45        4PX         0.00000   0.00000   0.00000  -0.00000   0.00000
  46        4PY        -0.00447  -0.01955  -0.00978  -0.00713  -0.01461
  47        4PZ        -0.01369  -0.01129   0.00416  -0.00978  -0.00844
  48        5PX        -0.00000  -0.00000   0.00000   0.00000  -0.00000
  49        5PY        -0.38505  -0.46205  -0.61460  -0.07095   0.25744
  50        5PZ        -0.13102  -0.26676   0.63872  -0.61460   0.14863
                          16        17        18        19        20
                           V         V         V         V         V
     Eigenvalues --     0.36151   0.36151   0.44563   0.44563   0.48418
   1 1   C  1S          0.00000  -0.00000   0.00000   0.00000   0.00000
   2        2S          0.00000  -0.00000   0.00000   0.00000   0.00000
   3        3S          0.00000   0.00000   0.00000  -0.00000   0.00000
   4        4S          0.00000   0.00000   0.00000  -0.00000   0.00000
   5        5PX        -0.00000   0.00000  -0.00000   0.00000   0.30150
   6        5PY         0.00000   0.00000  -0.15288   0.00000  -0.00000
   7        5PZ         0.00000   0.00000   0.00000  -0.15288   0.00000
   8        6PX        -0.00000   0.00000  -0.00000   0.00000   1.92625
   9        6PY        -0.00000   0.00000  -4.66996   0.00000  -0.00000
  10        6PZ         0.00000  -0.00000   0.00000  -4.66996   0.00000
  11        7PX        -0.00000   0.00000  -0.00000   0.00000   0.81583
  12        7PY        -0.00000   0.00000  -3.33541   0.00000  -0.00000
  13        7PZ         0.00000  -0.00000   0.00000  -3.33541   0.00000
  14        8D 0        0.00000   0.00000   0.00000  -0.07203   0.00000
  15        8D+1        0.04510   0.00000  -0.00000   0.00000   0.00000
  16        8D-1        0.00000   0.00000   0.08317   0.00000   0.00000
  17        8D+2        0.00000  -0.00000   0.00000  -0.04158   0.00000
  18        8D-2        0.00000   0.04510   0.00000  -0.00000   0.00000
  19        9D 0        0.00000  -0.00000   0.00000  -0.55246   0.00000
  20        9D+1       -0.14544   0.00000   0.00000   0.00000  -0.00000
  21        9D-1        0.00000   0.00000   0.63792   0.00000   0.00000
  22        9D+2        0.00000  -0.00000   0.00000  -0.31896   0.00000
  23        9D-2        0.00000  -0.14544   0.00000   0.00000   0.00000
  24 2   H  1S          0.00000   0.00000   0.00000  -0.06104   0.00000
  25        2S          0.00000   0.00000   0.00000   7.48864   0.00000
  26        3S          0.00000   0.00000   0.00000   3.25299   0.00000
  27        4PX        -0.02205   0.00000  -0.00000   0.00000   0.03143
  28        4PY        -0.00000   0.00000  -0.00467   0.00000  -0.00000
  29        4PZ         0.00000   0.00000   0.00000  -0.04039   0.00000
  30        5PX         1.19451   0.00000   0.00000   0.00000  -1.31108
  31        5PY        -0.00000   0.00000   1.07264   0.00000   0.00000
  32        5PZ         0.00000  -0.00000   0.00000  -1.68873   0.00000
  33 3   H  1S          0.00000  -0.00000  -0.05286   0.03052  -0.00000
  34        2S          0.00000  -0.00000   6.48535  -3.74432   0.00000
  35        3S          0.00000  -0.00000   2.81718  -1.62650   0.00000
  36        4PX         0.01102  -0.01909  -0.00000   0.00000   0.03143
  37        4PY         0.00000   0.00000  -0.03146   0.01547  -0.00000
  38        4PZ         0.00000  -0.00000   0.01547  -0.01360   0.00000
  39        5PX        -0.59725   1.03447   0.00000  -0.00000  -1.31108
  40        5PY        -0.00000   0.00000  -0.99839   1.19571   0.00000
  41        5PZ         0.00000  -0.00000   1.19571   0.38229  -0.00000
  42 4   H  1S         -0.00000  -0.00000   0.05286   0.03052   0.00000
  43        2S         -0.00000  -0.00000  -6.48535  -3.74432  -0.00000
  44        3S         -0.00000  -0.00000  -2.81718  -1.62650  -0.00000
  45        4PX         0.01102   0.01909  -0.00000  -0.00000   0.03143
  46        4PY         0.00000  -0.00000  -0.03146  -0.01547  -0.00000
  47        4PZ        -0.00000  -0.00000  -0.01547  -0.01360  -0.00000
  48        5PX        -0.59725  -1.03447   0.00000   0.00000  -1.31108
  49        5PY        -0.00000  -0.00000  -0.99839  -1.19571   0.00000
  50        5PZ        -0.00000  -0.00000  -1.19571   0.38229   0.00000
                          21        22        23        24        25
                           V         V         V         V         V
     Eigenvalues --     0.50867   0.53825   0.56494   0.56837   0.56837
   1 1   C  1S          0.00000  -0.11300  -0.12222  -0.00000   0.00000
   2        2S          0.00000  -0.05050  -0.10058  -0.00000   0.00000
   3        3S          0.00000   6.09612   9.84703   0.00000   0.00000
   4        4S          0.00000   7.49339   3.07058   0.00000   0.00000
   5        5PX        -0.00000   0.00000   0.00000   0.00000   0.00000
   6        5PY        -0.00000   0.00000   0.00000   0.00000   0.12487
   7        5PZ         0.00000   0.00000  -0.00000   0.12487   0.00000
   8        6PX        -0.00000   0.00000   0.00000   0.00000   0.00000
   9        6PY         0.00000   0.00000   0.00000   0.00000  -5.29130
  10        6PZ         0.00000   0.00000   0.00000  -5.29130   0.00000
  11        7PX        -0.00000   0.00000   0.00000   0.00000   0.00000
  12        7PY         0.00000   0.00000   0.00000   0.00000  -0.05101
  13        7PZ         0.00000   0.00000   0.00000  -0.05101   0.00000
  14        8D 0        0.00000   0.00106   0.01949   0.01748   0.00000
  15        8D+1       -0.00000   0.00000   0.00000   0.00000  -0.00000
  16        8D-1       -0.00000   0.00000   0.00000   0.00000  -0.02018
  17        8D+2        0.00000  -0.00184  -0.03376   0.01009   0.00000
  18        8D-2        0.00000   0.00000   0.00000  -0.00000   0.00000
  19        9D 0        0.00000   0.69872  -0.24212  -2.00833   0.00000
  20        9D+1        0.00000   0.00000   0.00000   0.00000   0.00000
  21        9D-1       -0.00000   0.00000   0.00000   0.00000   2.31902
  22        9D+2        0.00000  -1.21021   0.41937  -1.15951   0.00000
  23        9D-2        0.00000  -0.00000  -0.00000   0.00000   0.00000
  24 2   H  1S          0.00000   0.05326  -0.05176  -0.05042   0.00000
  25        2S          0.00000  -4.11661  -3.46973  12.15433   0.00000
  26        3S          0.00000  -1.02229  -0.50178  -0.18575   0.00000
  27        4PX        -0.00000   0.00000   0.00000   0.00000   0.00000
  28        4PY        -0.03110   0.00000   0.00000   0.00000   0.03465
  29        4PZ         0.00000   0.00599   0.00841   0.01981   0.00000
  30        5PX         0.00000   0.00000   0.00000   0.00000  -0.00000
  31        5PY         1.24010   0.00000   0.00000   0.00000  -2.02201
  32        5PZ         0.00000   0.68704   2.02648  -4.89888   0.00000
  33 3   H  1S          0.00000   0.05326  -0.05176   0.02521  -0.04366
  34        2S         -0.00000  -4.11661  -3.46973  -6.07716  10.52595
  35        3S         -0.00000  -1.02229  -0.50178   0.09288  -0.16087
  36        4PX        -0.00000  -0.00000  -0.00000   0.00000   0.00000
  37        4PY         0.01555   0.00519   0.00728   0.00642   0.02352
  38        4PZ         0.02693  -0.00299  -0.00421   0.03094   0.00642
  39        5PX         0.00000   0.00000   0.00000  -0.00000  -0.00000
  40        5PY        -0.62005   0.59499   1.75498   1.24572  -4.17966
  41        5PZ        -1.07396  -0.34352  -1.01324  -2.74123   1.24572
  42 4   H  1S         -0.00000   0.05326  -0.05176   0.02521   0.04366
  43        2S          0.00000  -4.11661  -3.46973  -6.07716 -10.52595
  44        3S          0.00000  -1.02229  -0.50178   0.09288   0.16087
  45        4PX        -0.00000   0.00000   0.00000  -0.00000   0.00000
  46        4PY         0.01555  -0.00519  -0.00728  -0.00642   0.02352
  47        4PZ        -0.02693  -0.00299  -0.00421   0.03094  -0.00642
  48        5PX         0.00000  -0.00000  -0.00000   0.00000  -0.00000
  49        5PY        -0.62005  -0.59499  -1.75498  -1.24572  -4.17966
  50        5PZ         1.07396  -0.34352  -1.01324  -2.74123  -1.24572
                          26        27        28        29        30
                           V         V         V         V         V
     Eigenvalues --     0.62274   0.62274   0.66044   0.66044   0.90604
   1 1   C  1S         -0.00000   0.00000  -0.00000   0.00000   0.00000
   2        2S          0.00000   0.00000   0.00000   0.00000   0.00000
   3        3S          0.00000   0.00000   0.00000   0.00000   0.00000
   4        4S          0.00000   0.00000   0.00000   0.00000   0.00000
   5        5PX         0.00000  -0.00000   0.00000   0.00000  -1.01804
   6        5PY         0.00000  -0.00000   0.00000  -0.35658  -0.00000
   7        5PZ        -0.00000   0.00000  -0.35658   0.00000   0.00000
   8        6PX         0.00000   0.00000   0.00000   0.00000   2.88317
   9        6PY         0.00000   0.00000   0.00000  -4.92898   0.00000
  10        6PZ         0.00000   0.00000  -4.92898   0.00000   0.00000
  11        7PX         0.00000   0.00000   0.00000   0.00000  -0.08398
  12        7PY         0.00000  -0.00000   0.00000  -1.61123  -0.00000
  13        7PZ        -0.00000   0.00000  -1.61123   0.00000   0.00000
  14        8D 0       -0.00000   0.00000  -0.00161   0.00000   0.00000
  15        8D+1        0.00000  -0.05236   0.00000   0.00000   0.00000
  16        8D-1        0.00000   0.00000   0.00000   0.00186  -0.00000
  17        8D+2       -0.00000   0.00000  -0.00093   0.00000   0.00000
  18        8D-2       -0.05236   0.00000   0.00000   0.00000   0.00000
  19        9D 0        0.00000   0.00000   1.84929   0.00000   0.00000
  20        9D+1        0.00000   2.35079   0.00000  -0.00000  -0.00000
  21        9D-1        0.00000  -0.00000   0.00000  -2.13538  -0.00000
  22        9D+2        0.00000   0.00000   1.06769   0.00000   0.00000
  23        9D-2        2.35079   0.00000  -0.00000   0.00000   0.00000
  24 2   H  1S          0.00000   0.00000   0.19717   0.00000   0.00000
  25        2S         -0.00000   0.00000   5.78189   0.00000   0.00000
  26        3S          0.00000   0.00000   2.23255   0.00000   0.00000
  27        4PX         0.00000   0.01714   0.00000   0.00000  -0.06666
  28        4PY         0.00000  -0.00000   0.00000  -0.01537  -0.00000
  29        4PZ        -0.00000   0.00000   0.02860   0.00000   0.00000
  30        5PX         0.00000  -2.18735   0.00000   0.00000  -0.83834
  31        5PY         0.00000   0.00000   0.00000   2.04397  -0.00000
  32        5PZ         0.00000   0.00000  -3.33929   0.00000   0.00000
  33 3   H  1S         -0.00000   0.00000  -0.09859   0.17075  -0.00000
  34        2S          0.00000  -0.00000  -2.89094   5.00726  -0.00000
  35        3S         -0.00000   0.00000  -1.11627   1.93344   0.00000
  36        4PX         0.01485  -0.00857  -0.00000   0.00000  -0.06666
  37        4PY        -0.00000  -0.00000  -0.01904   0.01761   0.00000
  38        4PZ        -0.00000  -0.00000  -0.00438  -0.01904  -0.00000
  39        5PX        -1.89430   1.09367   0.00000  -0.00000  -0.83834
  40        5PY         0.00000   0.00000   2.33102  -1.99348   0.00000
  41        5PZ         0.00000   0.00000   0.69816   2.33102  -0.00000
  42 4   H  1S         -0.00000  -0.00000  -0.09859  -0.17075   0.00000
  43        2S          0.00000   0.00000  -2.89094  -5.00726   0.00000
  44        3S         -0.00000  -0.00000  -1.11627  -1.93344  -0.00000
  45        4PX        -0.01485  -0.00857   0.00000   0.00000  -0.06666
  46        4PY         0.00000  -0.00000   0.01904   0.01761   0.00000
  47        4PZ        -0.00000   0.00000  -0.00438   0.01904   0.00000
  48        5PX         1.89430   1.09367  -0.00000  -0.00000  -0.83834
  49        5PY        -0.00000   0.00000  -2.33102  -1.99348   0.00000
  50        5PZ         0.00000  -0.00000   0.69816  -2.33102   0.00000
                          31        32        33        34        35
                           V         V         V         V         V
     Eigenvalues --     0.92769   1.11773   1.11773   1.45591   1.45591
   1 1   C  1S          0.06370   0.00000   0.00000   0.00000   0.00000
   2        2S         -0.52302   0.00000   0.00000   0.00000   0.00000
   3        3S          1.67357   0.00000  -0.00000  -0.00000   0.00000
   4        4S          1.27856   0.00000  -0.00000  -0.00000   0.00000
   5        5PX         0.00000   0.00000   0.00000   0.00000  -0.00000
   6        5PY         0.00000  -0.93364   0.00000   0.00000   0.22604
   7        5PZ        -0.00000   0.00000   0.93364   0.22604   0.00000
   8        6PX         0.00000  -0.00000   0.00000   0.00000   0.00000
   9        6PY         0.00000   7.89816   0.00000   0.00000  -5.13229
  10        6PZ         0.00000   0.00000  -7.89816  -5.13229   0.00000
  11        7PX         0.00000  -0.00000   0.00000   0.00000   0.00000
  12        7PY         0.00000   1.83962   0.00000   0.00000  -0.57748
  13        7PZ         0.00000   0.00000  -1.83962  -0.57748   0.00000
  14        8D 0        0.17270   0.00000  -0.22502   0.55980   0.00000
  15        8D+1        0.00000   0.00000   0.00000   0.00000  -0.00000
  16        8D-1        0.00000  -0.25983   0.00000   0.00000  -0.64640
  17        8D+2       -0.29913   0.00000  -0.12992   0.32320   0.00000
  18        8D-2       -0.00000   0.00000   0.00000  -0.00000   0.00000
  19        9D 0       -0.22704   0.00000   1.11581  -3.28091   0.00000
  20        9D+1        0.00000   0.00000   0.00000   0.00000   0.00000
  21        9D-1        0.00000   1.28842   0.00000   0.00000   3.78847
  22        9D+2        0.39324   0.00000   0.64421  -1.89423   0.00000
  23        9D-2        0.00000   0.00000  -0.00000   0.00000   0.00000
  24 2   H  1S          0.68585   0.00000  -0.11587   1.21252   0.00000
  25        2S         -1.25781   0.00000   8.61203   8.38126   0.00000
  26        3S         -0.08399   0.00000   1.63497   0.17702   0.00000
  27        4PX         0.00000   0.00000   0.00000   0.00000  -0.00000
  28        4PY         0.00000  -0.00681   0.00000   0.00000  -0.14381
  29        4PZ         0.18681   0.00000  -0.33249   0.06544   0.00000
  30        5PX         0.00000   0.00000   0.00000   0.00000  -0.00000
  31        5PY         0.00000  -2.08083   0.00000   0.00000  -1.53161
  32        5PZ         0.11843   0.00000  -2.76509  -1.92916   0.00000
  33 3   H  1S          0.68585   0.10034   0.05793  -0.60626   1.05007
  34        2S         -1.25781  -7.45824  -4.30602  -4.19063   7.25838
  35        3S         -0.08399  -1.41593  -0.81749  -0.08851   0.15330
  36        4PX        -0.00000  -0.00000   0.00000  -0.00000   0.00000
  37        4PY         0.16178   0.24766   0.14692  -0.09061   0.01313
  38        4PZ        -0.09340  -0.14692  -0.07801  -0.09150  -0.09061
  39        5PX        -0.00000   0.00000   0.00000   0.00000  -0.00000
  40        5PY         0.10256   1.55361   2.09834   0.17215  -1.82977
  41        5PZ        -0.05921  -2.09834   0.86935  -1.63100   0.17215
  42 4   H  1S          0.68585  -0.10034   0.05793  -0.60626  -1.05007
  43        2S         -1.25781   7.45824  -4.30602  -4.19063  -7.25838
  44        3S         -0.08399   1.41593  -0.81749  -0.08851  -0.15330
  45        4PX         0.00000  -0.00000  -0.00000   0.00000   0.00000
  46        4PY        -0.16178   0.24766  -0.14692   0.09061   0.01313
  47        4PZ        -0.09340   0.14692  -0.07801  -0.09150   0.09061
  48        5PX         0.00000   0.00000  -0.00000  -0.00000  -0.00000
  49        5PY        -0.10256   1.55361  -2.09834  -0.17215  -1.82977
  50        5PZ        -0.05921   2.09834   0.86935  -1.63100  -0.17215
                          36        37        38        39        40
                           V         V         V         V         V
     Eigenvalues --     1.51729   1.51729   1.74627   1.83206   1.96445
   1 1   C  1S          0.00000   0.00000  -0.13785   0.00000   0.00000
   2        2S          0.00000   0.00000  -1.88917   0.00000   0.00000
   3        3S          0.00000  -0.00000  11.42443   0.00000   0.00000
   4        4S          0.00000  -0.00000   5.08881   0.00000   0.00000
   5        5PX         0.00000   0.00000   0.00000  -0.00000  -0.37663
   6        5PY        -0.00000   0.00000   0.00000   0.00000  -0.00000
   7        5PZ         0.00000   0.00000   0.00000   0.00000   0.00000
   8        6PX        -0.00000   0.00000   0.00000   0.00000   0.38304
   9        6PY         0.00000   0.00000   0.00000  -0.00000   0.00000
  10        6PZ         0.00000   0.00000  -0.00000   0.00000   0.00000
  11        7PX        -0.00000   0.00000   0.00000   0.00000   0.29158
  12        7PY         0.00000   0.00000   0.00000  -0.00000   0.00000
  13        7PZ         0.00000   0.00000  -0.00000   0.00000   0.00000
  14        8D 0        0.00000  -0.00000  -0.36739   0.00000   0.00000
  15        8D+1       -0.77712   0.00000   0.00000  -0.00000  -0.00000
  16        8D-1        0.00000   0.00000   0.00000   0.00000  -0.00000
  17        8D+2        0.00000  -0.00000   0.63633   0.00000   0.00000
  18        8D-2        0.00000  -0.77712  -0.00000   0.00000   0.00000
  19        9D 0        0.00000   0.00000   0.58877   0.00000   0.00000
  20        9D+1        0.83861   0.00000   0.00000   0.00000   0.00000
  21        9D-1       -0.00000   0.00000   0.00000   0.00000  -0.00000
  22        9D+2        0.00000   0.00000  -1.01978   0.00000   0.00000
  23        9D-2        0.00000   0.83861   0.00000   0.00000   0.00000
  24 2   H  1S          0.00000  -0.00000  -0.12366   0.00000   0.00000
  25        2S          0.00000  -0.00000  -4.64925   0.00000   0.00000
  26        3S          0.00000   0.00000  -0.62968   0.00000   0.00000
  27        4PX        -0.48562   0.00000   0.00000   0.00000   0.69135
  28        4PY         0.00000   0.00000   0.00000   0.66352  -0.00000
  29        4PZ         0.00000  -0.00000   0.20737   0.00000   0.00000
  30        5PX        -0.19376   0.00000   0.00000  -0.00000  -0.42747
  31        5PY         0.00000   0.00000   0.00000  -0.55002  -0.00000
  32        5PZ         0.00000  -0.00000   1.15077   0.00000   0.00000
  33 3   H  1S         -0.00000   0.00000  -0.12366   0.00000  -0.00000
  34        2S         -0.00000   0.00000  -4.64925   0.00000  -0.00000
  35        3S         -0.00000   0.00000  -0.62968   0.00000  -0.00000
  36        4PX         0.24281  -0.42056  -0.00000   0.00000   0.69135
  37        4PY         0.00000  -0.00000   0.17959  -0.33176  -0.00000
  38        4PZ         0.00000   0.00000  -0.10369  -0.57463  -0.00000
  39        5PX         0.09688  -0.16780  -0.00000  -0.00000  -0.42747
  40        5PY         0.00000  -0.00000   0.99660   0.27501   0.00000
  41        5PZ        -0.00000   0.00000  -0.57539   0.47633  -0.00000
  42 4   H  1S          0.00000   0.00000  -0.12366  -0.00000   0.00000
  43        2S          0.00000   0.00000  -4.64925  -0.00000   0.00000
  44        3S          0.00000   0.00000  -0.62968  -0.00000   0.00000
  45        4PX         0.24281   0.42056   0.00000   0.00000   0.69135
  46        4PY         0.00000   0.00000  -0.17959  -0.33176  -0.00000
  47        4PZ        -0.00000   0.00000  -0.10369   0.57463   0.00000
  48        5PX         0.09688   0.16780   0.00000  -0.00000  -0.42747
  49        5PY         0.00000   0.00000  -0.99660   0.27501   0.00000
  50        5PZ         0.00000   0.00000  -0.57539  -0.47633   0.00000
                          41        42        43        44        45
                           V         V         V         V         V
     Eigenvalues --     1.97429   1.97429   2.09826   2.26655   2.26655
   1 1   C  1S          0.00000   0.00000  -0.21671   0.00000   0.00000
   2        2S          0.00000   0.00000  -2.43385   0.00000   0.00000
   3        3S          0.00000  -0.00000  14.43345   0.00000  -0.00000
   4        4S          0.00000  -0.00000   3.32724   0.00000  -0.00000
   5        5PX        -0.00000   0.00000   0.00000  -0.00000   0.00000
   6        5PY         0.27531   0.00000   0.00000   0.00000   0.00000
   7        5PZ         0.00000   0.27531   0.00000   0.00000  -0.00000
   8        6PX         0.00000   0.00000   0.00000   0.00000   0.00000
   9        6PY        -7.11493   0.00000   0.00000  -0.00000   0.00000
  10        6PZ         0.00000  -7.11493  -0.00000   0.00000  -0.00000
  11        7PX         0.00000   0.00000   0.00000   0.00000   0.00000
  12        7PY        -0.39818   0.00000   0.00000  -0.00000   0.00000
  13        7PZ         0.00000  -0.39818  -0.00000   0.00000  -0.00000
  14        8D 0        0.00000  -0.33615   0.44019   0.00000  -0.00000
  15        8D+1       -0.00000   0.00000   0.00000   1.10201   0.00000
  16        8D-1        0.38816   0.00000   0.00000  -0.00000   0.00000
  17        8D+2        0.00000  -0.19408  -0.76244   0.00000   0.00000
  18        8D-2        0.00000   0.00000   0.00000   0.00000   1.10201
  19        9D 0        0.00000  -0.56757   0.19627   0.00000  -0.00000
  20        9D+1        0.00000   0.00000   0.00000  -0.69610   0.00000
  21        9D-1        0.65537   0.00000   0.00000   0.00000   0.00000
  22        9D+2        0.00000  -0.32769  -0.33995   0.00000   0.00000
  23        9D-2        0.00000  -0.00000  -0.00000   0.00000  -0.69610
  24 2   H  1S          0.00000   1.09199  -0.82232   0.00000   0.00000
  25        2S          0.00000   9.04612  -4.50187   0.00000   0.00000
  26        3S          0.00000   0.22236  -0.42639   0.00000   0.00000
  27        4PX         0.00000   0.00000   0.00000  -0.94138   0.00000
  28        4PY         0.69810   0.00000   0.00000   0.00000   0.00000
  29        4PZ         0.00000   0.24647  -0.04260   0.00000  -0.00000
  30        5PX        -0.00000   0.00000   0.00000   0.79207   0.00000
  31        5PY         0.03171   0.00000   0.00000  -0.00000   0.00000
  32        5PZ         0.00000  -3.35911   1.75664   0.00000  -0.00000
  33 3   H  1S          0.94569  -0.54599  -0.82232   0.00000   0.00000
  34        2S          7.83417  -4.52306  -4.50187   0.00000   0.00000
  35        3S          0.19257  -0.11118  -0.42639  -0.00000   0.00000
  36        4PX         0.00000   0.00000  -0.00000   0.47069  -0.81526
  37        4PY         0.35937   0.19556  -0.03689   0.00000   0.00000
  38        4PZ         0.19556   0.58519   0.02130   0.00000  -0.00000
  39        5PX        -0.00000   0.00000   0.00000  -0.39604   0.68596
  40        5PY        -2.51141   1.46827   1.52129  -0.00000  -0.00000
  41        5PZ         1.46827  -0.81599  -0.87832   0.00000   0.00000
  42 4   H  1S         -0.94569  -0.54599  -0.82232  -0.00000   0.00000
  43        2S         -7.83417  -4.52306  -4.50187  -0.00000   0.00000
  44        3S         -0.19257  -0.11118  -0.42639   0.00000   0.00000
  45        4PX         0.00000  -0.00000   0.00000   0.47069   0.81526
  46        4PY         0.35937  -0.19556   0.03689   0.00000  -0.00000
  47        4PZ        -0.19556   0.58519   0.02130  -0.00000  -0.00000
  48        5PX        -0.00000  -0.00000  -0.00000  -0.39604  -0.68596
  49        5PY        -2.51141  -1.46827  -1.52129  -0.00000   0.00000
  50        5PZ        -1.46827  -0.81599  -0.87832  -0.00000   0.00000
                          46        47        48        49        50
                           V         V         V         V         V
     Eigenvalues --     2.46715   2.46715   2.80489   2.99055   2.99055
   1 1   C  1S          0.00000  -0.00000  -0.07431   0.00000   0.00000
   2        2S          0.00000  -0.00000   1.14771  -0.00000   0.00000
   3        3S          0.00000   0.00000   3.30751  -0.00000   0.00000
   4        4S          0.00000   0.00000   0.63406  -0.00000   0.00000
   5        5PX         0.00000   0.00000   0.00000   0.00000   0.00000
   6        5PY         0.86529   0.00000   0.00000   0.00000   1.12715
   7        5PZ         0.00000   0.86529   0.00000   1.12715   0.00000
   8        6PX         0.00000   0.00000   0.00000   0.00000  -0.00000
   9        6PY        -1.76863   0.00000   0.00000   0.00000   3.35070
  10        6PZ         0.00000  -1.76863   0.00000   3.35070   0.00000
  11        7PX         0.00000   0.00000   0.00000   0.00000  -0.00000
  12        7PY        -0.40265   0.00000   0.00000   0.00000   0.65746
  13        7PZ         0.00000  -0.40265   0.00000   0.65746   0.00000
  14        8D 0        0.00000  -0.40770   0.48895   1.56137   0.00000
  15        8D+1        0.00000   0.00000   0.00000   0.00000  -0.00000
  16        8D-1        0.47077   0.00000   0.00000   0.00000  -1.80291
  17        8D+2        0.00000  -0.23538  -0.84689   0.90146   0.00000
  18        8D-2        0.00000   0.00000  -0.00000   0.00000   0.00000
  19        9D 0        0.00000  -0.76947   0.00260  -0.25208   0.00000
  20        9D+1       -0.00000   0.00000   0.00000   0.00000   0.00000
  21        9D-1        0.88851   0.00000   0.00000   0.00000   0.29108
  22        9D+2        0.00000  -0.44426  -0.00450  -0.14554   0.00000
  23        9D-2        0.00000  -0.00000   0.00000   0.00000   0.00000
  24 2   H  1S          0.00000   0.26549  -0.91428  -1.71643   0.00000
  25        2S          0.00000   2.64748  -1.04313  -3.02002   0.00000
  26        3S          0.00000   0.50135  -0.03304  -0.56664   0.00000
  27        4PX        -0.00000   0.00000   0.00000   0.00000   0.00000
  28        4PY        -0.76308   0.00000   0.00000   0.00000   0.54445
  29        4PZ         0.00000   0.75556   1.01204   1.23593   0.00000
  30        5PX        -0.00000   0.00000   0.00000   0.00000   0.00000
  31        5PY        -0.16037   0.00000   0.00000   0.00000  -0.80925
  32        5PZ         0.00000  -0.95226   0.17705   0.80557   0.00000
  33 3   H  1S          0.22992  -0.13274  -0.91428   0.85822  -1.48647
  34        2S          2.29279  -1.32374  -1.04313   1.51001  -2.61541
  35        3S          0.43418  -0.25067  -0.03304   0.28332  -0.49073
  36        4PX         0.00000  -0.00000   0.00000  -0.00000  -0.00000
  37        4PY         0.37590  -0.65759   0.87645  -0.29942   1.06306
  38        4PZ        -0.65759  -0.38342  -0.50602   0.71732  -0.29942
  39        5PX        -0.00000   0.00000  -0.00000  -0.00000   0.00000
  40        5PY        -0.75429   0.34290   0.15333  -0.69924   0.40186
  41        5PZ         0.34290  -0.35834  -0.08852  -0.40555  -0.69924
  42 4   H  1S         -0.22992  -0.13274  -0.91428   0.85822   1.48647
  43        2S         -2.29279  -1.32374  -1.04313   1.51001   2.61541
  44        3S         -0.43418  -0.25067  -0.03304   0.28332   0.49073
  45        4PX         0.00000   0.00000  -0.00000   0.00000  -0.00000
  46        4PY         0.37590   0.65759  -0.87645   0.29942   1.06306
  47        4PZ         0.65759  -0.38342  -0.50602   0.71732   0.29942
  48        5PX        -0.00000  -0.00000   0.00000   0.00000   0.00000
  49        5PY        -0.75429  -0.34290  -0.15333   0.69924   0.40186
  50        5PZ        -0.34290  -0.35834  -0.08852  -0.40555   0.69924
     Beta Molecular Orbital Coefficients:
                           1         2         3         4         5
                           O         O         O         O         V
     Eigenvalues --   -11.22216  -0.85375  -0.56239  -0.56239   0.03922
   1 1   C  1S          0.99784  -0.18328   0.00000   0.00000  -0.03742
   2        2S          0.01845   0.36360  -0.00000   0.00000   0.02731
   3        3S         -0.02551   0.18692   0.00000   0.00000   0.97349
   4        4S         -0.00764  -0.02107  -0.00000   0.00000   3.26167
   5        5PX         0.00000   0.00000   0.00000  -0.00000   0.00000
   6        5PY         0.00000   0.00000   0.00000   0.41363   0.00000
   7        5PZ         0.00000   0.00000   0.41363   0.00000   0.00000
   8        6PX         0.00000   0.00000   0.00000  -0.00000   0.00000
   9        6PY         0.00000   0.00000   0.00000   0.07931   0.00000
  10        6PZ        -0.00000   0.00000   0.07931   0.00000   0.00000
  11        7PX         0.00000   0.00000   0.00000  -0.00000   0.00000
  12        7PY         0.00000   0.00000   0.00000  -0.01100   0.00000
  13        7PZ        -0.00000   0.00000  -0.01100   0.00000   0.00000
  14        8D 0        0.00066   0.01165   0.02254   0.00000   0.00004
  15        8D+1        0.00000   0.00000   0.00000   0.00000   0.00000
  16        8D-1        0.00000   0.00000   0.00000  -0.02603   0.00000
  17        8D+2       -0.00115  -0.02018   0.01301   0.00000  -0.00006
  18        8D-2       -0.00000  -0.00000  -0.00000   0.00000  -0.00000
  19        9D 0       -0.00081   0.00111  -0.05056   0.00000   0.04633
  20        9D+1        0.00000   0.00000   0.00000  -0.00000   0.00000
  21        9D-1        0.00000   0.00000   0.00000   0.05838   0.00000
  22        9D+2        0.00141  -0.00192  -0.02919   0.00000  -0.08024
  23        9D-2        0.00000  -0.00000   0.00000   0.00000  -0.00000
  24 2   H  1S          0.00025   0.22139   0.40067   0.00000   0.00424
  25        2S          0.00861   0.06538   0.31761   0.00000  -0.61608
  26        3S          0.00094   0.00487   0.01611   0.00000  -1.14052
  27        4PX         0.00000   0.00000   0.00000   0.00000   0.00000
  28        4PY         0.00000   0.00000   0.00000   0.01206   0.00000
  29        4PZ         0.00033  -0.02708  -0.02030   0.00000  -0.00390
  30        5PX         0.00000   0.00000   0.00000   0.00000   0.00000
  31        5PY         0.00000   0.00000   0.00000  -0.02766   0.00000
  32        5PZ        -0.00250  -0.01313  -0.04431   0.00000   0.15006
  33 3   H  1S          0.00025   0.22139  -0.20033   0.34699   0.00424
  34        2S          0.00861   0.06538  -0.15881   0.27506  -0.61608
  35        3S          0.00094   0.00487  -0.00805   0.01395  -1.14052
  36        4PX        -0.00000  -0.00000   0.00000   0.00000   0.00000
  37        4PY         0.00028  -0.02345   0.01401  -0.01221  -0.00338
  38        4PZ        -0.00016   0.01354   0.00397   0.01401   0.00195
  39        5PX        -0.00000   0.00000  -0.00000   0.00000   0.00000
  40        5PY        -0.00216  -0.01137   0.00721  -0.04015   0.12996
  41        5PZ         0.00125   0.00656  -0.03182   0.00721  -0.07503
  42 4   H  1S          0.00025   0.22139  -0.20033  -0.34699   0.00424
  43        2S          0.00861   0.06538  -0.15881  -0.27506  -0.61608
  44        3S          0.00094   0.00487  -0.00805  -0.01395  -1.14052
  45        4PX         0.00000   0.00000  -0.00000   0.00000  -0.00000
  46        4PY        -0.00028   0.02345  -0.01401  -0.01221   0.00338
  47        4PZ        -0.00016   0.01354   0.00397  -0.01401   0.00195
  48        5PX         0.00000  -0.00000   0.00000   0.00000  -0.00000
  49        5PY         0.00216   0.01137  -0.00721  -0.04015  -0.12996
  50        5PZ         0.00125   0.00656  -0.03182  -0.00721  -0.07503
                           6         7         8         9        10
                           V         V         V         V         V
     Eigenvalues --     0.06045   0.06045   0.06777   0.15157   0.15157
   1 1   C  1S         -0.00000   0.00000   0.00000   0.00000  -0.00000
   2        2S         -0.00000   0.00000   0.00000   0.00000   0.00000
   3        3S          0.00000   0.00000   0.00000   0.00000  -0.00000
   4        4S          0.00000   0.00000   0.00000   0.00000  -0.00000
   5        5PX         0.00000  -0.00000   0.21112  -0.00000   0.00000
   6        5PY         0.00000  -0.06493  -0.00000   0.08933   0.00000
   7        5PZ        -0.06493   0.00000   0.00000   0.00000   0.08933
   8        6PX         0.00000  -0.00000   0.15139  -0.00000   0.00000
   9        6PY         0.00000  -0.32614   0.00000  -1.65406   0.00000
  10        6PZ        -0.32614   0.00000   0.00000   0.00000  -1.65406
  11        7PX         0.00000  -0.00000   0.87375   0.00000   0.00000
  12        7PY         0.00000  -1.72607  -0.00000  -4.24301   0.00000
  13        7PZ        -1.72607   0.00000   0.00000   0.00000  -4.24301
  14        8D 0       -0.00704   0.00000   0.00000   0.00000   0.00734
  15        8D+1        0.00000   0.00000   0.00000  -0.00000   0.00000
  16        8D-1        0.00000   0.00812  -0.00000  -0.00848   0.00000
  17        8D+2       -0.00406   0.00000   0.00000   0.00000   0.00424
  18        8D-2        0.00000   0.00000   0.00000   0.00000   0.00000
  19        9D 0        0.08216   0.00000   0.00000   0.00000  -0.30695
  20        9D+1        0.00000  -0.00000   0.00000  -0.00000   0.00000
  21        9D-1        0.00000  -0.09487  -0.00000   0.35444   0.00000
  22        9D+2        0.04743   0.00000   0.00000   0.00000  -0.17722
  23        9D-2       -0.00000   0.00000   0.00000   0.00000  -0.00000
  24 2   H  1S         -0.03340   0.00000   0.00000   0.00000   0.11006
  25        2S          0.34008   0.00000   0.00000   0.00000   3.56090
  26        3S          4.80692   0.00000   0.00000   0.00000   5.56160
  27        4PX         0.00000  -0.00000   0.02038   0.00000   0.00000
  28        4PY         0.00000  -0.00447  -0.00000  -0.01176   0.00000
  29        4PZ         0.00459   0.00000   0.00000   0.00000  -0.02092
  30        5PX         0.00000   0.00000  -0.02677  -0.00000   0.00000
  31        5PY         0.00000   0.18187   0.00000   0.08118   0.00000
  32        5PZ        -0.15773   0.00000   0.00000   0.00000  -0.80853
  33 3   H  1S          0.01670  -0.02892  -0.00000   0.09532  -0.05503
  34        2S         -0.17004   0.29452  -0.00000   3.08383  -1.78045
  35        3S         -2.40346   4.16291   0.00000   4.81649  -2.78080
  36        4PX        -0.00000  -0.00000   0.02038   0.00000  -0.00000
  37        4PY        -0.00392   0.00233   0.00000  -0.01863   0.00397
  38        4PZ        -0.00220  -0.00392  -0.00000   0.00397  -0.01405
  39        5PX         0.00000   0.00000  -0.02677  -0.00000   0.00000
  40        5PY         0.14705  -0.07283   0.00000  -0.58611   0.38526
  41        5PZ         0.09697   0.14705  -0.00000   0.38526  -0.14125
  42 4   H  1S          0.01670   0.02892   0.00000  -0.09532  -0.05503
  43        2S         -0.17004  -0.29452   0.00000  -3.08383  -1.78045
  44        3S         -2.40346  -4.16291  -0.00000  -4.81649  -2.78080
  45        4PX         0.00000  -0.00000   0.02038   0.00000   0.00000
  46        4PY         0.00392   0.00233   0.00000  -0.01863  -0.00397
  47        4PZ        -0.00220   0.00392   0.00000  -0.00397  -0.01405
  48        5PX        -0.00000   0.00000  -0.02677  -0.00000  -0.00000
  49        5PY        -0.14705  -0.07283   0.00000  -0.58611  -0.38526
  50        5PZ         0.09697  -0.14705   0.00000  -0.38526  -0.14125
                          11        12        13        14        15
                           V         V         V         V         V
     Eigenvalues --     0.18115   0.19918   0.28833   0.28833   0.31107
   1 1   C  1S          0.03865   0.00000  -0.00000   0.00000  -0.08763
   2        2S         -0.27861   0.00000   0.00000   0.00000   0.14187
   3        3S          2.65212   0.00000   0.00000   0.00000   0.46360
   4        4S          7.94384   0.00000   0.00000   0.00000   2.94496
   5        5PX         0.00000  -0.36506   0.00000  -0.00000   0.00000
   6        5PY         0.00000  -0.00000   0.00000   0.24630   0.00000
   7        5PZ         0.00000   0.00000   0.24630   0.00000  -0.00000
   8        6PX         0.00000  -0.31979   0.00000  -0.00000   0.00000
   9        6PY         0.00000  -0.00000   0.00000   0.09424   0.00000
  10        6PZ        -0.00000   0.00000   0.09424   0.00000   0.00000
  11        7PX         0.00000   1.00204   0.00000  -0.00000   0.00000
  12        7PY         0.00000   0.00000   0.00000  -1.25968   0.00000
  13        7PZ        -0.00000   0.00000  -1.25968   0.00000   0.00000
  14        8D 0       -0.00644   0.00000  -0.05310   0.00000   0.00295
  15        8D+1        0.00000  -0.00000   0.00000   0.00000   0.00000
  16        8D-1        0.00000   0.00000   0.00000   0.06132   0.00000
  17        8D+2        0.01115   0.00000  -0.03066   0.00000  -0.00512
  18        8D-2        0.00000   0.00000   0.00000   0.00000   0.00000
  19        9D 0        0.15894   0.00000   0.66681   0.00000  -0.00333
  20        9D+1        0.00000  -0.00000   0.00000  -0.00000   0.00000
  21        9D-1        0.00000   0.00000   0.00000  -0.76997   0.00000
  22        9D+2       -0.27530   0.00000   0.38499   0.00000   0.00577
  23        9D-2       -0.00000   0.00000  -0.00000   0.00000  -0.00000
  24 2   H  1S         -0.02011   0.00000  -0.08854   0.00000  -0.08901
  25        2S         -2.18320   0.00000  -1.14493   0.00000  -1.25933
  26        3S         -1.52717   0.00000   2.53362   0.00000  -0.28287
  27        4PX         0.00000  -0.00439   0.00000   0.00000   0.00000
  28        4PY         0.00000   0.00000   0.00000   0.01168   0.00000
  29        4PZ         0.02298   0.00000  -0.01572   0.00000   0.01611
  30        5PX         0.00000  -0.30376   0.00000   0.00000   0.00000
  31        5PY         0.00000   0.00000   0.00000   1.04318   0.00000
  32        5PZ         0.56187   0.00000  -0.49064   0.00000  -0.36488
  33 3   H  1S         -0.02011   0.00000   0.04427  -0.07668  -0.08901
  34        2S         -2.18320   0.00000   0.57246  -0.99153  -1.25933
  35        3S         -1.52717  -0.00000  -1.26681   2.19418  -0.28287
  36        4PX        -0.00000  -0.00439  -0.00000   0.00000  -0.00000
  37        4PY         0.01990   0.00000   0.01186  -0.00887   0.01395
  38        4PZ        -0.01149   0.00000   0.00483   0.01186  -0.00806
  39        5PX         0.00000  -0.30376   0.00000   0.00000   0.00000
  40        5PY         0.48659  -0.00000   0.66417  -0.10718  -0.31600
[...]


 ---------------------------------------------------------------------------------
              Anisotropic Spin Dipole Couplings in Principal Axis System
 ---------------------------------------------------------------------------------

       Atom             a.u.   MegaHertz   Gauss  10(-4) cm-1        Axes

              Baa    -0.5172   -69.402   -24.764   -23.150 -0.2839  0.9589 -0.0000
     1 C(13)  Bbb    -0.5172   -69.402   -24.764   -23.150  0.9589  0.2839  0.0000
              Bcc     1.0344   138.803    49.529    46.300  0.0000  0.0000  1.0000
 
              Baa    -0.0733   -39.107   -13.954   -13.045  1.0000  0.0000  0.0000
     2 H(1)   Bbb     0.0011     0.561     0.200     0.187  0.0000  0.0000  1.0000
              Bcc     0.0722    38.546    13.754    12.857  0.0000  1.0000 -0.0000
 
              Baa    -0.0733   -39.107   -13.954   -13.045  0.5000  0.8660  0.0000
     3 H(1)   Bbb     0.0011     0.561     0.200     0.187  0.0000  0.0000  1.0000
              Bcc     0.0722    38.546    13.754    12.857  0.8660 -0.5000 -0.0000
 
              Baa    -0.0733   -39.107   -13.954   -13.045 -0.5000  0.8660  0.0000
     4 H(1)   Bbb     0.0011     0.561     0.200     0.187  0.0000  0.0000  1.0000
              Bcc     0.0722    38.546    13.754    12.857  0.8660  0.5000 -0.0000
 

 ---------------------------------------------------------------------------------

 No NMR shielding tensors so no spin-rotation constants.
 Leave Link  601 at Sat Aug 17 18:02:01 2024, MaxMem=   13107200 cpu:       0.3
 (Enter /programs/64bit/g09/g09-gfortran/bin/l701.exe)
 Compute integral second derivatives.
 ... and contract with generalized density number  2.
 Leave Link  701 at Sat Aug 17 18:02:01 2024, MaxMem=   13107200 cpu:       0.2
 (Enter /programs/64bit/g09/g09-gfortran/bin/l702.exe)
 L702 exits ... SP integral derivatives will be done elsewhere.
 Leave Link  702 at Sat Aug 17 18:02:01 2024, MaxMem=   13107200 cpu:       0.0
 (Enter /programs/64bit/g09/g09-gfortran/bin/l703.exe)
 Compute integral second derivatives, UseDBF=F ICtDFT=           0.
 Integral derivatives from FoFDir, PRISM(SPDF).
 Calling FoFJK, ICntrl=    100127 FMM=F ISym2X=1 I1Cent= 0 IOpClX= 1 NMat=1 NMatS=1 NMatT=0.
 FoFCou: FMM=F IPFlag=           0 FMFlag=      100000 FMFlg1=         800
         NFxFlg=           0 DoJE=F BraDBF=F KetDBF=F FulRan=T
         Omega=  0.000000  0.000000  1.000000  0.000000  0.000000 ICntrl=  100127 IOpCl=  1
         NMat0=    1 NMatS0=    1 NMatT0=    0 NMatD0=    1 NMtDS0=    0 NMtDT0=    0
         I1Cent=           0 NGrid=           0.
 Petite list used in FoFCou.
 Leave Link  703 at Sat Aug 17 18:02:02 2024, MaxMem=   13107200 cpu:       1.0
 (Enter /programs/64bit/g09/g09-gfortran/bin/l716.exe)
 Dipole        = 1.23858690D-15-3.41947133D-14-6.18161409D-30
 Polarizability= 1.56077265D+01 3.24424130D-16 1.56077265D+01
                -8.22511393D-16 1.05619964D-15 1.55721013D+01
 Full mass-weighted force constant matrix:
 Low frequencies ---  -42.9345  -42.9345  -42.9345   -0.0007   -0.0007   -0.0005
 Low frequencies ---  492.9438 1424.1711 1424.1711
 Diagonal vibrational polarizability:
        0.0305946       0.0305946       8.5240201
 Harmonic frequencies (cm**-1), IR intensities (KM/Mole), Raman scattering
 activities (A**4/AMU), depolarization ratios for plane and unpolarized
 incident light, reduced masses (AMU), force constants (mDyne/A),
 and normal coordinates:
                     1                      2                      3
                    A2"                    E'                     E'
 Frequencies --   492.9438              1424.1711              1424.1711
 Red. masses --     1.2356                 1.1018                 1.1018
 Frc consts  --     0.1769                 1.3166                 1.3166
 IR Inten    --    76.9673                 1.7680                 1.7680
  Atom  AN      X      Y      Z        X      Y      Z        X      Y      Z
     1   6     0.00   0.00   0.14    -0.09   0.00  -0.00     0.00   0.09  -0.00
     2   1     0.00   0.00  -0.57     0.81   0.00   0.00    -0.01   0.08   0.00
     3   1    -0.00  -0.00  -0.57     0.14   0.38   0.00    -0.39  -0.59   0.00
     4   1     0.00  -0.00  -0.57     0.15  -0.39   0.00     0.38  -0.58   0.00
                     4                      5                      6
                    A1'                    E'                     E'
 Frequencies --  3166.8740              3366.3790              3366.3790
 Red. masses --     1.0078                 1.1187                 1.1187
 Frc consts  --     5.9552                 7.4694                 7.4694
 IR Inten    --     0.0000                 3.0054                 3.0054
  Atom  AN      X      Y      Z        X      Y      Z        X      Y      Z
     1   6     0.00   0.00  -0.00     0.10   0.01  -0.00    -0.01   0.10   0.00
     2   1     0.00   0.58   0.00     0.01  -0.08   0.00    -0.00  -0.81  -0.00
     3   1     0.50  -0.29   0.00    -0.57   0.34   0.00     0.41  -0.23  -0.00
     4   1    -0.50  -0.29   0.00    -0.64  -0.37   0.00    -0.30  -0.16  -0.00

 -------------------
 - Thermochemistry -
 -------------------
 Temperature   298.150 Kelvin.  Pressure   1.00000 Atm.
 Atom     1 has atomic number  6 and mass  12.00000
 Atom     2 has atomic number  1 and mass   1.00783
 Atom     3 has atomic number  1 and mass   1.00783
 Atom     4 has atomic number  1 and mass   1.00783
 Molecular mass:    15.02348 amu.
 Principal axes and moments of inertia in atomic units:
                           1         2         3
     Eigenvalues --     6.38567   6.38567  12.77135
           X            0.82460  -0.56571   0.00000
           Y            0.56571   0.82460   0.00000
           Z            0.00000  -0.00000   1.00000
 This molecule is an oblate symmetric top.
 Rotational symmetry number  6.
 Rotational temperatures (Kelvin)     13.56377    13.56377     6.78189
 Rotational constants (GHZ):         282.62349   282.62349   141.31174
 Zero-point vibrational energy      79198.3 (Joules/Mol)
                                   18.92884 (Kcal/Mol)
 Warning -- explicit consideration of   1 degrees of freedom as
           vibrations may cause significant error
 Vibrational temperatures:    709.24  2049.06  2049.06  4556.42  4843.46
          (Kelvin)           4843.46
 
 Zero-point correction=                           0.030165 (Hartree/Particle)
 Thermal correction to Energy=                    0.033240
 Thermal correction to Enthalpy=                  0.034185
 Thermal correction to Gibbs Free Energy=         0.012038
 Sum of electronic and zero-point Energies=            -39.668101
 Sum of electronic and thermal Energies=               -39.665025
 Sum of electronic and thermal Enthalpies=             -39.664081
 Sum of electronic and thermal Free Energies=          -39.686227
 
                     E (Thermal)             CV                S
                      KCal/Mol        Cal/Mol-Kelvin    Cal/Mol-Kelvin
 Total                   20.859              7.422             46.611
 Electronic               0.000              0.000              1.377
 Translational            0.889              2.981             34.068
 Rotational               0.889              2.981             10.458
 Vibrational             19.081              1.461              0.708
 Vibration     1          0.849              1.266              0.676
                       Q            Log10(Q)             Ln(Q)
 Total Bot       0.290316D-05         -5.537129        -12.749710
 Total V=0       0.217667D+09          8.337793         19.198477
 Vib (Bot)       0.147303D-13        -13.831790        -31.848873
 Vib (Bot)    1  0.335494D+00         -0.474316         -1.092152
 Vib (V=0)       0.110441D+01          0.043132          0.099314
 Vib (V=0)    1  0.110213D+01          0.042231          0.097241
 Electronic      0.200000D+01          0.301030          0.693147
 Translational   0.228882D+07          6.359611         14.643545
 Rotational      0.430547D+02          1.634020          3.762471
 
                                    methyl with imposed symmetry and hf/aug-cc-pV
 DZ basis function
                                                             IR Spectrum
 
      3      3                                                                 1                                                     
      3      1                                                                 4                                  4                  
      6      6                                                                 2                                  9                  
      6      7                                                                 4                                  3                  
 
      X                                                                        X                                  X                  
      X                                                                                                           X                  
                                                                                                                  X                  
                                                                                                                  X                  
                                                                                                                  X                  
                                                                                                                  X                  
                                                                                                                  X                  
                                                                                                                  X                  
                                                                                                                  X                  
                                                                                                                  X                  
                                                                                                                  X                  
                                                                                                                  X                  
                                                                                                                  X                  
                                                                                                                  X                  
                                                                                                                  X                  
                                                                                                                  X                  
                                                                                                                  X                  
                                                                                                                  X                  
                                                                                                                  X                  
                                                                                                                  X                  
 
 ***** Axes restored to original set *****
 -------------------------------------------------------------------
 Center     Atomic                   Forces (Hartrees/Bohr)
 Number     Number              X              Y              Z
 -------------------------------------------------------------------
      1        6          -0.000000000    0.000000000   -0.000000000
      2        1          -0.000000000    0.000000000    0.000144493
      3        1           0.000125134    0.000000000   -0.000072246
      4        1          -0.000125134   -0.000000000   -0.000072246
 -------------------------------------------------------------------
 Cartesian Forces:  Max     0.000144493 RMS     0.000072246
 Force constants in Cartesian coordinates: 
                1             2             3             4             5 
      1  0.642467D+00
      2  0.000000D+00  0.222077D-01
      3  0.000000D+00  0.000000D+00  0.642467D+00
      4 -0.560293D-01  0.000000D+00  0.000000D+00  0.464313D-01
      5  0.000000D+00 -0.740257D-02  0.000000D+00  0.000000D+00  0.242065D-02
      6  0.000000D+00  0.000000D+00 -0.372282D+00  0.000000D+00  0.000000D+00
      7 -0.293219D+00  0.000000D+00  0.136942D+00  0.479901D-02  0.000000D+00
      8  0.000000D+00 -0.740257D-02  0.000000D+00  0.000000D+00  0.249096D-02
      9  0.136942D+00  0.000000D+00 -0.135093D+00  0.240770D-01  0.000000D+00
     10 -0.293219D+00  0.000000D+00 -0.136942D+00  0.479901D-02  0.000000D+00
     11  0.000000D+00 -0.740257D-02  0.000000D+00  0.000000D+00  0.249096D-02
     12 -0.136942D+00  0.000000D+00 -0.135093D+00 -0.240770D-01  0.000000D+00
                6             7             8             9            10 
      6  0.384792D+00
      7 -0.493112D-02  0.300202D+00
      8  0.000000D+00  0.000000D+00  0.242065D-02
      9 -0.625486D-02 -0.146515D+00  0.000000D+00  0.131021D+00
     10  0.493112D-02 -0.117818D-01  0.000000D+00 -0.145041D-01  0.300202D+00
     11  0.000000D+00  0.000000D+00  0.249096D-02  0.000000D+00  0.000000D+00
     12 -0.625486D-02  0.145041D-01  0.000000D+00  0.103259D-01  0.146515D+00
               11            12 
     11  0.242065D-02
     12  0.000000D+00  0.131021D+00
 Force constants in internal coordinates: 
                1             2             3             4             5 
      1  0.384792D+00
      2 -0.114305D-02  0.384792D+00
      3 -0.114305D-02 -0.114305D-02  0.384792D+00
      4  0.540012D-02  0.540012D-02 -0.108002D-01  0.654751D-01
      5  0.540012D-02 -0.108002D-01  0.540012D-02 -0.327376D-01  0.654751D-01
      6 -0.108002D-01  0.540012D-02  0.540012D-02 -0.327376D-01 -0.327376D-01
      7  0.000000D+00  0.000000D+00  0.000000D+00  0.000000D+00  0.000000D+00
                6             7 
      6  0.654751D-01
      7  0.000000D+00  0.789147D-02
 Leave Link  716 at Sat Aug 17 18:02:02 2024, MaxMem=   13107200 cpu:       0.0
 (Enter /programs/64bit/g09/g09-gfortran/bin/l103.exe)

 GradGradGradGradGradGradGradGradGradGradGradGradGradGradGradGradGradGrad
 Berny optimization.
 Internal  Forces:  Max     0.000144493 RMS     0.000094593
 Search for a local minimum.
 Step number   1 out of a maximum of    2
 All quantities printed in internal units (Hartrees-Bohrs-Radians)
 Second derivative matrix not updated -- analytic derivatives used.
 The second derivative matrix:
                          R1        R2        R3        A1        A2
           R1           0.38479
           R2          -0.00114   0.38479
           R3          -0.00114  -0.00114   0.38479
           A1           0.00540   0.00540  -0.01080   0.06548
           A2           0.00540  -0.01080   0.00540  -0.03274   0.06548
           A3          -0.01080   0.00540   0.00540  -0.03274  -0.03274
           D1           0.00000  -0.00000   0.00000  -0.00000   0.00000
                          A3        D1
           A3           0.06548
           D1          -0.00000   0.00789
     Eigenvalues ---    0.00789   0.09730   0.09730   0.38251   0.38684
     Eigenvalues ---    0.386841000.00000
 Angle between quadratic step and forces=   0.00 degrees.
 Linear search not attempted -- first point.
 Iteration  1 RMS(Cart)=  0.00024730 RMS(Int)=  0.00000000
 Iteration  2 RMS(Cart)=  0.00000000 RMS(Int)=  0.00000000
 ClnCor:  largest displacement from symmetrization is 2.44D-12 for atom     3.
 Variable       Old X    -DE/DX   Delta X   Delta X   Delta X     New X
                                 (Linear)    (Quad)   (Total)
    R1        2.05525   0.00014   0.00000   0.00038   0.00038   2.05563
    R2        2.05525   0.00014   0.00000   0.00038   0.00038   2.05563
    R3        2.05525   0.00014   0.00000   0.00038   0.00038   2.05563
    A1        2.09440  -0.00000   0.00000  -0.00000   0.00000   2.09440
    A2        2.09440  -0.00000   0.00000  -0.00000   0.00000   2.09440
    A3        2.09440   0.00000   0.00000   0.00000   0.00000   2.09440
    D1        3.14159  -0.00000   0.00000  -0.00000   0.00000   3.14159
         Item               Value     Threshold  Converged?
 Maximum Force            0.000144     0.000450     YES
 RMS     Force            0.000095     0.000300     YES
 Maximum Displacement     0.000378     0.001800     YES
 RMS     Displacement     0.000247     0.001200     YES
 Predicted change in Energy=-8.187382D-08
 Optimization completed.
    -- Stationary point found.
                           ----------------------------
                           !   Optimized Parameters   !
                           ! (Angstroms and Degrees)  !
 --------------------------                            --------------------------
 ! Name  Definition              Value          Derivative Info.                !
 --------------------------------------------------------------------------------
 ! R1    R(1,2)                  1.0876         -DE/DX =    0.0001              !
 ! R2    R(1,3)                  1.0876         -DE/DX =    0.0001              !
 ! R3    R(1,4)                  1.0876         -DE/DX =    0.0001              !
 ! A1    A(2,1,3)              120.0            -DE/DX =    0.0                 !
 ! A2    A(2,1,4)              120.0            -DE/DX =    0.0                 !
 ! A3    A(3,1,4)              120.0            -DE/DX =    0.0                 !
 ! D1    D(2,1,4,3)            180.0            -DE/DX =    0.0                 !
 --------------------------------------------------------------------------------
 GradGradGradGradGradGradGradGradGradGradGradGradGradGradGradGradGradGrad

 Leave Link  103 at Sat Aug 17 18:02:02 2024, MaxMem=   13107200 cpu:       0.0
 (Enter /programs/64bit/g09/g09-gfortran/bin/l9999.exe)
 1\1\GINC-MOLMOD\Freq\UMP2-FC\Aug-CC-pVDZ\C1H3(2)\OSPITE\17-Aug-2024\0\
 \#P Geom=AllCheck Guess=TCheck SCRF=Check GenChk UMP2(FC)/Aug-CC-pVDZ 
 Freq\\methyl with imposed symmetry and hf/aug-cc-pVDZ basis function\\
 0,2\C,0.,0.,0.\H,0.,0.,1.0875926716\H,0.9418828826,0.,-0.5437963358\H,
 -0.9418828826,0.,-0.5437963358\\Version=EM64L-G09RevA.02\State=2-A2"\H
 F=-39.5656689\MP2=-39.6982656\PUHF=-39.5653111\PMP2-0=-39.6978907\S2=0
 .761597\S2-1=0.762709\S2A=0.750071\RMSD=7.893e-10\RMSF=7.225e-05\ZeroP
 oint=0.030165\Thermal=0.0332404\Dipole=0.,0.,0.\DipoleDeriv=0.0182577,
 0.,0.,0.,-0.4366527,0.,0.,0.,0.0182577,0.0338955,0.,0.,0.,0.1455509,0.
 ,0.,0.,-0.0460673,-0.0260766,0.,0.0346249,0.,0.1455509,0.,0.0346249,0.
 ,0.0139048,-0.0260766,0.,-0.0346249,0.,0.1455509,0.,-0.0346249,0.,0.01
 39048\Polar=15.6077265,0.,15.5721013,0.,0.,15.6077265\PG=D03H [O(C1),3
 C2(H1)]\NImag=0\\0.64246737,0.,0.02220770,0.,0.,0.64246737,-0.05602926
 ,0.,0.,0.04643125,0.,-0.00740257,0.,0.,0.00242065,0.,0.,-0.37228231,0.
 ,0.,0.38479203,-0.29321905,0.,0.13694159,0.00479901,0.,-0.00493112,0.3
 0020183,0.,-0.00740257,0.,0.,0.00249096,0.,0.,0.00242065,0.13694159,0.
 ,-0.13509253,0.02407698,0.,-0.00625486,-0.14651451,0.,0.13102144,-0.29
 321905,0.,-0.13694159,0.00479901,0.,0.00493112,-0.01178179,0.,-0.01450
 405,0.30020183,0.,-0.00740257,0.,0.,0.00249096,0.,0.,0.00249096,0.,0.,
 0.00242065,-0.13694159,0.,-0.13509253,-0.02407698,0.,-0.00625486,0.014
 50405,0.,0.01032594,0.14651451,0.,0.13102144\\0.,0.,0.,0.,0.,-0.000144
 49,-0.00012513,0.,0.00007225,0.00012513,0.,0.00007225\\\@


 "MATHEMATICS IS THE ART OF GIVING THE SAME NAME
 TO DIFFERENT THINGS."
                    - H. POINCARE
 Job cpu time:  0 days  0 hours  0 minutes 32.0 seconds.
 File lengths (MBytes):  RWF=     79 Int=      0 D2E=      0 Chk=      1 Scr=      1
 Normal termination of Gaussian 09 at Sat Aug 17 18:02:02 2024.
