 Entering Gaussian System, Link 0=/programs/64bit/g09/g09-gfortran/bin/g09
 Input=ch3_sto-3g.com
 Output=ch3_sto-3g.log
 Initial command:
 /programs/64bit/g09/g09-gfortran/bin/l1.exe /home/ospite/Desktop/MMfP/Project6/CH3/g09/MP2/Gau-8947.inp -scrdir=/home/ospite/Desktop/MMfP/Project6/CH3/g09/MP2/
 Entering Link 1 = /programs/64bit/g09/g09-gfortran/bin/l1.exe PID=      8949.
  
 Copyright (c) 1988,1990,1992,1993,1995,1998,2003,2009, Gaussian, Inc.
                  All Rights Reserved.
  
 This is part of the Gaussian(R) 09 program.  It is based on
 the Gaussian(R) 03 system (copyright 2003, Gaussian, Inc.),
 the Gaussian(R) 98 system (copyright 1998, Gaussian, Inc.),
 the Gaussian(R) 94 system (copyright 1995, Gaussian, Inc.),
 the Gaussian 92(TM) system (copyright 1992, Gaussian, Inc.),
 the Gaussian 90(TM) system (copyright 1990, Gaussian, Inc.),
 the Gaussian 88(TM) system (copyright 1988, Gaussian, Inc.),
 the Gaussian 86(TM) system (copyright 1986, Carnegie Mellon
 University), and the Gaussian 82(TM) system (copyright 1983,
 Carnegie Mellon University). Gaussian is a federally registered
 trademark of Gaussian, Inc.
  
 This software contains proprietary and confidential information,
 including trade secrets, belonging to Gaussian, Inc.
  
 This software is provided under written license and may be
 used, copied, transmitted, or stored only in accord with that
 written license.
  
 The following legend is applicable only to US Government
 contracts under FAR:
  
                    RESTRICTED RIGHTS LEGEND
  
 Use, reproduction and disclosure by the US Government is
 subject to restrictions as set forth in subparagraphs (a)
 and (c) of the Commercial Computer Software - Restricted
 Rights clause in FAR 52.227-19.
  
 Gaussian, Inc.
 340 Quinnipiac St., Bldg. 40, Wallingford CT 06492
  
  
 ---------------------------------------------------------------
 Warning -- This program may not be used in any manner that
 competes with the business of Gaussian, Inc. or will provide
 assistance to any competitor of Gaussian, Inc.  The licensee
 of this program is prohibited from giving any competitor of
 Gaussian, Inc. access to this program.  By using this program,
 the user acknowledges that Gaussian, Inc. is engaged in the
 business of creating and licensing software in the field of
 computational chemistry and represents and warrants to the
 licensee that it is not a competitor of Gaussian, Inc. and that
 it will not use this program in any manner prohibited above.
 ---------------------------------------------------------------
  

 Cite this work as:
 Gaussian 09, Revision A.02,
 M. J. Frisch, G. W. Trucks, H. B. Schlegel, G. E. Scuseria, 
 M. A. Robb, J. R. Cheeseman, G. Scalmani, V. Barone, B. Mennucci, 
 G. A. Petersson, H. Nakatsuji, M. Caricato, X. Li, H. P. Hratchian, 
 A. F. Izmaylov, J. Bloino, G. Zheng, J. L. Sonnenberg, M. Hada, 
 M. Ehara, K. Toyota, R. Fukuda, J. Hasegawa, M. Ishida, T. Nakajima, 
 Y. Honda, O. Kitao, H. Nakai, T. Vreven, J. A. Montgomery, Jr., 
 J. E. Peralta, F. Ogliaro, M. Bearpark, J. J. Heyd, E. Brothers, 
 K. N. Kudin, V. N. Staroverov, R. Kobayashi, J. Normand, 
 K. Raghavachari, A. Rendell, J. C. Burant, S. S. Iyengar, J. Tomasi, 
 M. Cossi, N. Rega, J. M. Millam, M. Klene, J. E. Knox, J. B. Cross, 
 V. Bakken, C. Adamo, J. Jaramillo, R. Gomperts, R. E. Stratmann, 
 O. Yazyev, A. J. Austin, R. Cammi, C. Pomelli, J. W. Ochterski, 
 R. L. Martin, K. Morokuma, V. G. Zakrzewski, G. A. Voth, 
 P. Salvador, J. J. Dannenberg, S. Dapprich, A. D. Daniels, 
 O. Farkas, J. B. Foresman, J. V. Ortiz, J. Cioslowski, 
 and D. J. Fox, Gaussian, Inc., Wallingford CT, 2009.
 
 ******************************************
 Gaussian 09:  EM64L-G09RevA.02 11-Jun-2009
                17-Aug-2024 
 ******************************************
 %mem=100MB
 ----------------------------------------------------------------
 #p mp2/STO-3G opt freq symmetry=(follow,pg=C3v) pop=full gfinput
 ----------------------------------------------------------------
 1/18=20,19=15,38=1/1,3;
 2/9=110,12=2,17=6,18=5,19=2314885530821997379,40=1/2;
 3/6=3,11=9,16=1,24=10,25=1,30=1,71=1/1,2,3;
 4//1;
 5/5=2,38=5/2;
 8/6=4,10=1/1;
 9/15=2,16=-3/6;
 10/5=1/2;
 6/7=3/1;
 7/12=2/1,2,3,16;
 1/18=20,19=15/3(2);
 2/9=110,15=5,19=2314885530821997379/2;
 99//99;
 2/9=110,15=5,19=2314885530821997379/2;
 3/6=3,11=9,16=1,25=1,30=1,71=1/1,2,3;
 4/5=5,16=3/1;
 5/5=2,38=5/2;
 8/6=4,10=1/1;
 9/15=2,16=-3/6;
 10/5=1/2;
 7/12=2/1,2,3,16;
 1/18=20,19=15/3(-8);
 2/9=110,15=5,19=2314885530821997379/2;
 6/7=3/1;
 99//99;
 Leave Link    1 at Sat Aug 17 18:02:07 2024, MaxMem=   13107200 cpu:       0.1
 (Enter /programs/64bit/g09/g09-gfortran/bin/l101.exe)
 ---------------------------------------------------------
 methyl with imposed symmetry and hf/STO-3G basis function
 ---------------------------------------------------------
 Symbolic Z-matrix:
 Charge =  0 Multiplicity = 2
 C1
 H2                   1    d
 H3                   1    d        2    a
 H4                   1    d        2    -a       3    t        0
       Variables:
  d                     1.09                     
  a                   120.                       
  t                     0.                       
 
 NAtoms=      4 NQM=      4 NQMF=      0 NMic=      0 NMicF=      0 NTot=      4.
                    Isotopes and Nuclear Properties:
 (Nuclear quadrupole moments (NQMom) in fm**2, nuclear magnetic moments (NMagM)
  in nuclear magnetons)

  Atom         1           2           3           4
 IAtWgt=          12           1           1           1
 AtmWgt=  12.0000000   1.0078250   1.0078250   1.0078250
 NucSpn=           0           1           1           1
 AtZEff=   0.0000000   0.0000000   0.0000000   0.0000000
 NQMom=    0.0000000   0.0000000   0.0000000   0.0000000
 NMagM=    0.0000000   2.7928460   2.7928460   2.7928460
 Leave Link  101 at Sat Aug 17 18:02:08 2024, MaxMem=   13107200 cpu:       0.1
 (Enter /programs/64bit/g09/g09-gfortran/bin/l103.exe)

 GradGradGradGradGradGradGradGradGradGradGradGradGradGradGradGradGradGrad
 Berny optimization.
 Initialization pass.
                           ----------------------------
                           !    Initial Parameters    !
                           ! (Angstroms and Degrees)  !
 --------------------------                            --------------------------
 ! Name  Definition              Value          Derivative Info.                !
 --------------------------------------------------------------------------------
 ! R1    R(1,2)                  1.09           estimate D2E/DX2                !
 ! R2    R(1,3)                  1.09           estimate D2E/DX2                !
 ! R3    R(1,4)                  1.09           estimate D2E/DX2                !
 ! A1    A(2,1,3)              120.0            estimate D2E/DX2                !
 ! A2    A(2,1,4)              120.0            estimate D2E/DX2                !
 ! A3    A(3,1,4)              120.0            estimate D2E/DX2                !
 ! D1    D(2,1,4,3)            180.0            estimate D2E/DX2                !
 --------------------------------------------------------------------------------
 Trust Radius=3.00D-01 FncErr=1.00D-07 GrdErr=1.00D-07
 Number of steps in this run=  20 maximum allowed number of steps= 100.
 GradGradGradGradGradGradGradGradGradGradGradGradGradGradGradGradGradGrad

 Leave Link  103 at Sat Aug 17 18:02:08 2024, MaxMem=   13107200 cpu:       0.0
 (Enter /programs/64bit/g09/g09-gfortran/bin/l202.exe)
                          Input orientation:                          
 ---------------------------------------------------------------------
 Center     Atomic      Atomic             Coordinates (Angstroms)
 Number     Number       Type             X           Y           Z
 ---------------------------------------------------------------------
      1          6           0        0.000000    0.000000    0.000000
      2          1           0        0.000000    0.000000    1.090000
      3          1           0        0.943968    0.000000   -0.545000
      4          1           0       -0.943968    0.000000   -0.545000
 ---------------------------------------------------------------------
                    Distance matrix (angstroms):
                    1          2          3          4
     1  C    0.000000
     2  H    1.090000   0.000000
     3  H    1.090000   1.887935   0.000000
     4  H    1.090000   1.887935   1.887935   0.000000
 Symm:  InNGrp=C3V  InAxis=0.
 This structure is nearly, but not quite of a higher symmetry.
 Consider Symm=Loose if the higher symmetry is desired.
 Stoichiometry    CH3(2)
 Framework group  C2[C2(CH),X(H2)]
 Deg. of freedom     3
 Full point group                 C2      NOp   2
 Largest Abelian subgroup         C2      NOp   2
 Largest concise Abelian subgroup C2      NOp   2
                         Standard orientation:                         
 ---------------------------------------------------------------------
 Center     Atomic      Atomic             Coordinates (Angstroms)
 Number     Number       Type             X           Y           Z
 ---------------------------------------------------------------------
      1          6           0        0.000000    0.000000    0.000000
      2          1           0        0.000000    0.000000    1.090000
      3          1           0        0.000000    0.943968   -0.545000
      4          1           0       -0.000000   -0.943968   -0.545000
 ---------------------------------------------------------------------
 Rotational constants (GHZ):    281.3764836    281.3764836    140.6882418
 Leave Link  202 at Sat Aug 17 18:02:08 2024, MaxMem=   13107200 cpu:       0.0
 (Enter /programs/64bit/g09/g09-gfortran/bin/l301.exe)
 Standard basis: STO-3G (5D, 7F)
 Ernie: Thresh=  0.10000D-02 Tol=  0.10000D-05 Strict=F.
 AO basis set in the form of general basis input (Overlap normalization):
      1 0
 S   3 1.00       0.000000000000
      0.7161683735D+02  0.1543289673D+00
      0.1304509632D+02  0.5353281423D+00
      0.3530512160D+01  0.4446345422D+00
 SP   3 1.00       0.000000000000
      0.2941249355D+01 -0.9996722919D-01  0.1559162750D+00
      0.6834830964D+00  0.3995128261D+00  0.6076837186D+00
      0.2222899159D+00  0.7001154689D+00  0.3919573931D+00
 ****
      2 0
 S   3 1.00       0.000000000000
      0.3425250914D+01  0.1543289673D+00
      0.6239137298D+00  0.5353281423D+00
      0.1688554040D+00  0.4446345422D+00
 ****
      3 0
 S   3 1.00       0.000000000000
      0.3425250914D+01  0.1543289673D+00
      0.6239137298D+00  0.5353281423D+00
      0.1688554040D+00  0.4446345422D+00
 ****
      4 0
 S   3 1.00       0.000000000000
      0.3425250914D+01  0.1543289673D+00
      0.6239137298D+00  0.5353281423D+00
      0.1688554040D+00  0.4446345422D+00
 ****

 There are     5 symmetry adapted basis functions of A   symmetry.
 There are     3 symmetry adapted basis functions of B   symmetry.
 Integral buffers will be    131072 words long.
 Raffenetti 2 integral format.
 Two-electron integral symmetry is turned on.
     8 basis functions,    24 primitive gaussians,     8 cartesian basis functions
     5 alpha electrons        4 beta electrons
       nuclear repulsion energy         9.5795885928 Hartrees.
 IExCor=    0 DFT=F Ex=HF Corr=None ExCW=0 ScaHFX=  1.000000
 ScaDFX=  1.000000  1.000000  1.000000  1.000000 ScalE2=  1.000000  1.000000
 IRadAn=      0 IRanWt=     -1 IRanGd=            0 ICorTp=0
 NAtoms=    4 NActive=    4 NUniq=    3 SFac= 1.33D+00 NAtFMM=   80 NAOKFM=F Big=F
 Leave Link  301 at Sat Aug 17 18:02:08 2024, MaxMem=   13107200 cpu:       0.1
 (Enter /programs/64bit/g09/g09-gfortran/bin/l302.exe)
 NPDir=0 NMtPBC=     1 NCelOv=     1 NCel=       1 NClECP=     1 NCelD=      1
         NCelK=      1 NCelE2=     1 NClLst=     1 CellRange=     0.0.
 One-electron integrals computed using PRISM.
 One-electron integral symmetry used in STVInt
 NBasis=     8 RedAO= T  NBF=     5     3
 NBsUse=     8 1.00D-06 NBFU=     5     3
 Leave Link  302 at Sat Aug 17 18:02:08 2024, MaxMem=   13107200 cpu:       0.1
 (Enter /programs/64bit/g09/g09-gfortran/bin/l303.exe)
 DipDrv:  MaxL=1.
 Leave Link  303 at Sat Aug 17 18:02:08 2024, MaxMem=   13107200 cpu:       0.0
 (Enter /programs/64bit/g09/g09-gfortran/bin/l401.exe)
 Harris functional with IExCor=  205 diagonalized for initial guess.
 ExpMin= 1.69D-01 ExpMax= 7.16D+01 ExpMxC= 7.16D+01 IAcc=1 IRadAn=         1 AccDes= 0.00D+00
 HarFok:  IExCor=  205 AccDes= 0.00D+00 IRadAn=         1 IDoV= 1
 ScaDFX=  1.000000  1.000000  1.000000  1.000000
 FoFCou: FMM=F IPFlag=           0 FMFlag=      100000 FMFlg1=           0
         NFxFlg=           0 DoJE=T BraDBF=F KetDBF=T FulRan=T
         Omega=  0.000000  0.000000  1.000000  0.000000  0.000000 ICntrl=     500 IOpCl=  0
         NMat0=    1 NMatS0=    1 NMatT0=    0 NMatD0=    1 NMtDS0=    0 NMtDT0=    0
         I1Cent=           4 NGrid=           0.
 Petite list used in FoFCou.
 Harris En= -39.1293621178375    
 Initial guess orbital symmetries:
 Alpha Orbitals:
       Occupied  (A) (A) (B) (A) (B)
       Virtual   (A) (B) (A)
 Beta  Orbitals:
       Occupied  (A) (A) (B) (A)
       Virtual   (B) (A) (B) (A)
 The electronic state of the initial guess is 2-B.
 Initial guess <Sx>= 0.0000 <Sy>= 0.0000 <Sz>= 0.5000 <S**2>= 0.7500 S= 0.5000
 Leave Link  401 at Sat Aug 17 18:02:08 2024, MaxMem=   13107200 cpu:       0.2
 (Enter /programs/64bit/g09/g09-gfortran/bin/l502.exe)
 UHF open shell SCF:
 Requested convergence on RMS density matrix=1.00D-08 within 128 cycles.
 Requested convergence on MAX density matrix=1.00D-06.
 Requested convergence on             energy=1.00D-06.
 No special actions if energy rises.
 Using DIIS extrapolation, IDIIS=  1040.
 Integral symmetry usage will be decided dynamically.
 Keep R1 and R2 ints in memory in canonical form, NReq=821108.
 IEnd=       19755 IEndB=       19755 NGot=    13107200 MDV=    13103188
 LenX=    13103188 LenY=    13102306
 Symmetry not used in FoFDir.
 MinBra= 0 MaxBra= 1 Meth= 1.
 IRaf=       0 NMat=   1 IRICut=       1 DoRegI=T DoRafI=F ISym2E= 0 JSym2E=0.

 Cycle   1  Pass 1  IDiag  1:
 E= -39.0376460372220    
 DIIS: error= 5.11D-02 at cycle   1 NSaved=   1.
 NSaved= 1 IEnMin= 1 EnMin= -39.0376460372220     IErMin= 1 ErrMin= 5.11D-02
 ErrMax= 5.11D-02 EMaxC= 1.00D-01 BMatC= 1.22D-01 BMatP= 1.22D-01
 IDIUse=3 WtCom= 4.89D-01 WtEn= 5.11D-01
 Coeff-Com:  0.100D+01
 Coeff-En:   0.100D+01
 Coeff:      0.100D+01
 Gap=     0.914 Goal=   None    Shift=    0.000
 Gap=     0.873 Goal=   None    Shift=    0.000
 GapD=    0.873 DampG=2.000 DampE=0.500 DampFc=1.0000 IDamp=-1.
 RMSDP=2.95D-02 MaxDP=1.44D-01              OVMax= 1.11D-16

 Cycle   2  Pass 1  IDiag  1:
 E= -39.0746746297829     Delta-E=       -0.037028592561 Rises=F Damp=F
 DIIS: error= 9.57D-03 at cycle   2 NSaved=   2.
 NSaved= 2 IEnMin= 2 EnMin= -39.0746746297829     IErMin= 2 ErrMin= 9.57D-03
 ErrMax= 9.57D-03 EMaxC= 1.00D-01 BMatC= 2.50D-03 BMatP= 1.22D-01
 IDIUse=3 WtCom= 9.04D-01 WtEn= 9.57D-02
 Coeff-Com:  0.141D-01 0.986D+00
 Coeff-En:   0.000D+00 0.100D+01
 Coeff:      0.128D-01 0.987D+00
 Gap=     0.966 Goal=   None    Shift=    0.000
 Gap=     0.845 Goal=   None    Shift=    0.000
 RMSDP=4.31D-03 MaxDP=3.08D-02 DE=-3.70D-02 OVMax= 0.00D+00

 Cycle   3  Pass 1  IDiag  1:
 E= -39.0757498406182     Delta-E=       -0.001075210835 Rises=F Damp=F
 DIIS: error= 3.63D-03 at cycle   3 NSaved=   3.
 NSaved= 3 IEnMin= 3 EnMin= -39.0757498406182     IErMin= 3 ErrMin= 3.63D-03
 ErrMax= 3.63D-03 EMaxC= 1.00D-01 BMatC= 6.07D-04 BMatP= 2.50D-03
 IDIUse=3 WtCom= 9.64D-01 WtEn= 3.63D-02
 Coeff-Com: -0.172D-01-0.360D+00 0.138D+01
 Coeff-En:   0.000D+00 0.000D+00 0.100D+01
 Coeff:     -0.166D-01-0.347D+00 0.136D+01
 Gap=     0.968 Goal=   None    Shift=    0.000
 Gap=     0.851 Goal=   None    Shift=    0.000
 RMSDP=3.23D-03 MaxDP=1.55D-02 DE=-1.08D-03 OVMax= 1.11D-16

 Cycle   4  Pass 1  IDiag  1:
 E= -39.0762031686155     Delta-E=       -0.000453327997 Rises=F Damp=F
 DIIS: error= 1.88D-03 at cycle   4 NSaved=   4.
 NSaved= 4 IEnMin= 4 EnMin= -39.0762031686155     IErMin= 4 ErrMin= 1.88D-03
 ErrMax= 1.88D-03 EMaxC= 1.00D-01 BMatC= 1.46D-04 BMatP= 6.07D-04
 IDIUse=3 WtCom= 9.81D-01 WtEn= 1.88D-02
 Coeff-Com:  0.716D-02 0.551D-01-0.103D+01 0.197D+01
 Coeff-En:   0.000D+00 0.000D+00 0.000D+00 0.100D+01
 Coeff:      0.703D-02 0.541D-01-0.102D+01 0.195D+01
 Gap=     0.972 Goal=   None    Shift=    0.000
 Gap=     0.853 Goal=   None    Shift=    0.000
 RMSDP=2.91D-03 MaxDP=1.12D-02 DE=-4.53D-04 OVMax= 3.33D-16

 Cycle   5  Pass 1  IDiag  1:
 E= -39.0763524887823     Delta-E=       -0.000149320167 Rises=F Damp=F
 DIIS: error= 2.74D-04 at cycle   5 NSaved=   5.
 NSaved= 5 IEnMin= 5 EnMin= -39.0763524887823     IErMin= 5 ErrMin= 2.74D-04
 ErrMax= 2.74D-04 EMaxC= 1.00D-01 BMatC= 1.99D-06 BMatP= 1.46D-04
 IDIUse=3 WtCom= 9.97D-01 WtEn= 2.74D-03
 Coeff-Com: -0.210D-02-0.653D-02 0.341D+00-0.775D+00 0.144D+01
 Coeff-En:   0.000D+00 0.000D+00 0.000D+00 0.000D+00 0.100D+01
 Coeff:     -0.209D-02-0.651D-02 0.340D+00-0.773D+00 0.144D+01
 Gap=     0.973 Goal=   None    Shift=    0.000
 Gap=     0.853 Goal=   None    Shift=    0.000
 RMSDP=3.00D-04 MaxDP=1.23D-03 DE=-1.49D-04 OVMax= 2.22D-16

 Cycle   6  Pass 1  IDiag  1:
 E= -39.0763541272718     Delta-E=       -0.000001638489 Rises=F Damp=F
 DIIS: error= 2.38D-06 at cycle   6 NSaved=   6.
 NSaved= 6 IEnMin= 6 EnMin= -39.0763541272718     IErMin= 6 ErrMin= 2.38D-06
 ErrMax= 2.38D-06 EMaxC= 1.00D-01 BMatC= 1.51D-10 BMatP= 1.99D-06
 IDIUse=1 WtCom= 1.00D+00 WtEn= 0.00D+00
 Coeff-Com:  0.268D-03 0.778D-03-0.447D-01 0.101D+00-0.188D+00 0.113D+01
 Coeff:      0.268D-03 0.778D-03-0.447D-01 0.101D+00-0.188D+00 0.113D+01
 Gap=     0.973 Goal=   None    Shift=    0.000
 Gap=     0.853 Goal=   None    Shift=    0.000
 RMSDP=2.46D-06 MaxDP=1.17D-05 DE=-1.64D-06 OVMax= 1.11D-16

 Cycle   7  Pass 1  IDiag  1:
 E= -39.0763541273736     Delta-E=       -0.000000000102 Rises=F Damp=F
 DIIS: error= 4.76D-07 at cycle   7 NSaved=   7.
 NSaved= 7 IEnMin= 7 EnMin= -39.0763541273736     IErMin= 7 ErrMin= 4.76D-07
 ErrMax= 4.76D-07 EMaxC= 1.00D-01 BMatC= 3.12D-12 BMatP= 1.51D-10
 IDIUse=1 WtCom= 1.00D+00 WtEn= 0.00D+00
 Coeff-Com: -0.241D-04-0.643D-04 0.432D-02-0.960D-02 0.177D-01-0.236D+00
 Coeff-Com:  0.122D+01
 Coeff:     -0.241D-04-0.643D-04 0.432D-02-0.960D-02 0.177D-01-0.236D+00
 Coeff:      0.122D+01
 Gap=     0.973 Goal=   None    Shift=    0.000
 Gap=     0.853 Goal=   None    Shift=    0.000
 RMSDP=2.78D-07 MaxDP=2.15D-06 DE=-1.02D-10 OVMax= 1.11D-16

 Cycle   8  Pass 1  IDiag  1:
 E= -39.0763541273753     Delta-E=       -0.000000000002 Rises=F Damp=F
 DIIS: error= 2.07D-08 at cycle   8 NSaved=   8.
 NSaved= 8 IEnMin= 8 EnMin= -39.0763541273753     IErMin= 8 ErrMin= 2.07D-08
 ErrMax= 2.07D-08 EMaxC= 1.00D-01 BMatC= 1.23D-14 BMatP= 3.12D-12
 IDIUse=1 WtCom= 1.00D+00 WtEn= 0.00D+00
 Coeff-Com:  0.445D-07-0.683D-06-0.321D-04 0.606D-04-0.950D-04 0.411D-02
 Coeff-Com: -0.636D-01 0.106D+01
 Coeff:      0.445D-07-0.683D-06-0.321D-04 0.606D-04-0.950D-04 0.411D-02
 Coeff:     -0.636D-01 0.106D+01
 Gap=     0.973 Goal=   None    Shift=    0.000
 Gap=     0.853 Goal=   None    Shift=    0.000
 RMSDP=2.41D-08 MaxDP=1.21D-07 DE=-1.66D-12 OVMax= 1.11D-16

 Cycle   9  Pass 1  IDiag  1:
 E= -39.0763541273753     Delta-E=        0.000000000000 Rises=F Damp=F
 DIIS: error= 1.83D-10 at cycle   9 NSaved=   9.
 NSaved= 9 IEnMin= 8 EnMin= -39.0763541273753     IErMin= 9 ErrMin= 1.83D-10
 ErrMax= 1.83D-10 EMaxC= 1.00D-01 BMatC= 1.18D-18 BMatP= 1.23D-14
 IDIUse=1 WtCom= 1.00D+00 WtEn= 0.00D+00
 Coeff-Com:  0.899D-11 0.336D-08-0.130D-06 0.218D-06-0.289D-06 0.375D-04
 Coeff-Com: -0.439D-03 0.117D-01 0.989D+00
 Coeff:      0.899D-11 0.336D-08-0.130D-06 0.218D-06-0.289D-06 0.375D-04
 Coeff:     -0.439D-03 0.117D-01 0.989D+00
 Gap=     0.973 Goal=   None    Shift=    0.000
 Gap=     0.853 Goal=   None    Shift=    0.000
 RMSDP=2.42D-10 MaxDP=1.27D-09 DE= 0.00D+00 OVMax= 2.22D-16

 SCF Done:  E(UHF) =  -39.0763541274     A.U. after    9 cycles
             Convg  =    0.2422D-09             -V/T =  2.0023
 <Sx>= 0.0000 <Sy>= 0.0000 <Sz>= 0.5000 <S**2>= 0.7660 S= 0.5080
 <L.S>=  0.00000000000    
 KE= 3.898722027521D+01 PE=-1.101696734522D+02 EE= 2.252651045687D+01
 Annihilation of the first spin contaminant:
 S**2 before annihilation     0.7660,   after     0.7502
 Leave Link  502 at Sat Aug 17 18:02:08 2024, MaxMem=   13107200 cpu:       0.1
 (Enter /programs/64bit/g09/g09-gfortran/bin/l801.exe)
 ExpMin= 1.69D-01 ExpMax= 7.16D+01 ExpMxC= 7.16D+01 IAcc=1 IRadAn=         1 AccDes= 0.00D+00
 HarFok:  IExCor=  205 AccDes= 0.00D+00 IRadAn=         1 IDoV=-2
 ScaDFX=  1.000000  1.000000  1.000000  1.000000
 Largest valence mixing into a core orbital is  1.36D-04
 Largest core mixing into a valence orbital is  8.24D-05
 Largest valence mixing into a core orbital is  1.67D-04
 Largest core mixing into a valence orbital is  1.50D-04
 Range of M.O.s used for correlation:     2     8
 NBasis=     8 NAE=     5 NBE=     4 NFC=     1 NFV=     0
 NROrb=      7 NOA=     4 NOB=     3 NVA=     3 NVB=     4
 Leave Link  801 at Sat Aug 17 18:02:08 2024, MaxMem=   13107200 cpu:       0.1
 (Enter /programs/64bit/g09/g09-gfortran/bin/l906.exe)
 Frozen-core derivative calculation, NFC=   1 NFV=   0.
 FulOut=F Deriv=T AODrv=T NAtomX=     4
   MMem=        9306  MDisk=           4 MDiskD=           4
  W3Min=         640 MinDsk=       50908 NBas6D=           8
 NBas2D=          42    NTT=          36    LW2=     2000000
    MDV=    13103486 MDiskM=       14457 NBas2p=          35
 Fully direct method using O(ONN) memory.
 IMap=   1   2   3   4   5
 JobTyp=2 Pass  1:  I=   2 to   5 NPSUse=  1 ParTrn=F ParDer=F DoDerP=T.
 IMap=   1   2   3   4
 JobTyp=3 Pass  1:  I=   2 to   4 NPSUse=  1 ParTrn=F ParDer=F DoDerP=T.
 Spin components of T(2) and E(2):
     alpha-alpha T2 =       0.2966931087D-03 E2=     -0.8260134916D-03
     alpha-beta  T2 =       0.1417322844D-01 E2=     -0.3706854185D-01
     beta-beta   T2 =       0.2813289444D-03 E2=     -0.7747969642D-03
 The integrals were generated   2 times.
 (S**2,0)=  0.76602D+00           (S**2,1)=  0.75595D+00
 E(PUHF)=      -0.39080067052D+02        E(PMP2)=      -0.39117576654D+02
 ANorm=    0.1007348624D+01
 E2 =    -0.3866935231D-01 EUMP2 =    -0.39115023479682D+02
 Leave Link  906 at Sat Aug 17 18:02:09 2024, MaxMem=   13107200 cpu:       0.2
 (Enter /programs/64bit/g09/g09-gfortran/bin/l1002.exe)
 Minotr:  UHF open shell wavefunction.
          Computing MP2/KS-MP2 derivatives.
          Using Z-Vector for PSCF gradient.
          Skipping F1 and S1 gradient terms here.
          IDoAtm=1111
          Frozen-core window.
          Direct CPHF calculation.
          Differentiating once with respect to electric field.
                with respect to dipole field.
          Differentiating once with respect to nuclear coordinates.
          Using symmetry in CPHF.
          Requested convergence is 1.0D-10 RMS, and 1.0D-09 maximum.
          NewPWx=F KeepS1=T KeepF1=T KeepIn=T MapXYZ=F SortEE=F KeepMc=T.
          MDV=      13107156 using IRadAn=       0.
          Keep R1 and R2 ints in memory in canonical form, NReq=801801.
 Symmetry not used in FoFDir.
 MinBra= 0 MaxBra= 1 Meth= 1.
 IRaf=       0 NMat=   1 IRICut=       1 DoRegI=T DoRafI=F ISym2E= 0 JSym2E=0.
          Solving linear equations separately, MaxMat=       0.
          There are     1 degrees of freedom in the 1st order CPHF.  IDoFFX=0.
 LinEq1:  Iter=  0 NonCon=     1 RMS=1.89D-03 Max=6.80D-03
 AX will form     1 AO Fock derivatives at one time.
 LinEq1:  Iter=  1 NonCon=     1 RMS=3.13D-04 Max=1.08D-03
 LinEq1:  Iter=  2 NonCon=     1 RMS=5.11D-05 Max=1.58D-04
 LinEq1:  Iter=  3 NonCon=     1 RMS=5.66D-07 Max=1.70D-06
 LinEq1:  Iter=  4 NonCon=     1 RMS=5.80D-08 Max=2.04D-07
 LinEq1:  Iter=  5 NonCon=     0 RMS=1.67D-11 Max=7.55D-11
 Linear equations converged to 1.000D-10 1.000D-09 after     5 iterations.
 End of Minotr Frequency-dependent properties file   721 does not exist.
 End of Minotr Frequency-dependent properties file   722 does not exist.
 Leave Link 1002 at Sat Aug 17 18:02:09 2024, MaxMem=   13107200 cpu:       0.1
 (Enter /programs/64bit/g09/g09-gfortran/bin/l601.exe)
 Copying SCF densities to generalized density rwf, IOpCl= 1 IROHF=0.

 **********************************************************************

            Population analysis using the SCF density.

 **********************************************************************

 Orbital symmetries:
 Alpha Orbitals:
       Occupied  (A) (A) (A) (B) (B)
       Virtual   (A) (A) (B)
 Beta  Orbitals:
       Occupied  (A) (A) (A) (B)
       Virtual   (B) (A) (B) (A)
 The electronic state is 2-B.
 Alpha  occ. eigenvalues --  -11.00532  -0.90127  -0.53386  -0.53386  -0.35538
 Alpha virt. eigenvalues --    0.61714   0.75851   0.75851
  Beta  occ. eigenvalues --  -10.97381  -0.79119  -0.51737  -0.51737
  Beta virt. eigenvalues --    0.33610   0.67951   0.78563   0.78563
     Alpha Molecular Orbital Coefficients:
                           1         2         3         4         5
                           O         O         O         O         O
     Eigenvalues --   -11.00532  -0.90127  -0.53386  -0.53386  -0.35538
   1 1   C  1S          0.99192  -0.23471   0.00000   0.00000   0.00000
   2        2S          0.03657   0.71604  -0.00000   0.00000   0.00000
   3        2PX         0.00000   0.00000   0.00000   0.00000   1.00000
   4        2PY         0.00000   0.00000   0.00000   0.58078  -0.00000
   5        2PZ         0.00000  -0.00000   0.58078   0.00000   0.00000
   6 2   H  1S         -0.00724   0.18784   0.46804   0.00000   0.00000
   7 3   H  1S         -0.00724   0.18784  -0.23402   0.40533  -0.00000
   8 4   H  1S         -0.00724   0.18784  -0.23402  -0.40533   0.00000
                           6         7         8
                           V         V         V
     Eigenvalues --     0.61714   0.75851   0.75851
   1 1   C  1S         -0.22064   0.00000   0.00000
   2        2S          1.39512  -0.00000   0.00000
   3        2PX         0.00000   0.00000  -0.00000
   4        2PY         0.00000   0.00000   1.13187
   5        2PZ         0.00000   1.13187   0.00000
   6 2   H  1S         -0.75408  -1.01969   0.00000
   7 3   H  1S         -0.75408   0.50985  -0.88308
   8 4   H  1S         -0.75408   0.50985   0.88308
     Beta Molecular Orbital Coefficients:
                           1         2         3         4         5
                           O         O         O         O         V
     Eigenvalues --   -10.97381  -0.79119  -0.51737  -0.51737   0.33610
   1 1   C  1S          0.99299  -0.20979  -0.00000   0.00000   0.00000
   2        2S          0.03183   0.57780   0.00000   0.00000   0.00000
   3        2PX         0.00000   0.00000   0.00000  -0.00000   1.00000
   4        2PY         0.00000   0.00000   0.00000   0.51453   0.00000
   5        2PZ         0.00000  -0.00000   0.51453   0.00000   0.00000
   6 2   H  1S         -0.00623   0.25990   0.52607   0.00000   0.00000
   7 3   H  1S         -0.00623   0.25990  -0.26304   0.45559   0.00000
   8 4   H  1S         -0.00623   0.25990  -0.26304  -0.45559  -0.00000
                           6         7         8
                           V         V         V
     Eigenvalues --     0.67951   0.78563   0.78563
   1 1   C  1S         -0.24006   0.00000  -0.00000
   2        2S          1.45792   0.00000   0.00000
   3        2PX         0.00000  -0.00000   0.00000
   4        2PY         0.00000   1.16349   0.00000
   5        2PZ        -0.00000   0.00000   1.16349
   6 2   H  1S         -0.73238   0.00000  -0.99100
   7 3   H  1S         -0.73238  -0.85823   0.49550
   8 4   H  1S         -0.73238   0.85823   0.49550
     Alpha Density Matrix:
                           1         2         3         4         5
   1 1   C  1S          1.03900
   2        2S         -0.13179   0.51405
   3        2PX         0.00000   0.00000   1.00000
   4        2PY         0.00000   0.00000   0.00000   0.33731
   5        2PZ         0.00000  -0.00000   0.00000   0.00000   0.33731
   6 2   H  1S         -0.05127   0.13424   0.00000   0.00000   0.27183
   7 3   H  1S         -0.05127   0.13424  -0.00000   0.23541  -0.13591
   8 4   H  1S         -0.05127   0.13424   0.00000  -0.23541  -0.13591
                           6         7         8
   6 2   H  1S          0.25440
   7 3   H  1S         -0.07419   0.25440
   8 4   H  1S         -0.07419  -0.07419   0.25440
     Beta Density Matrix:
                           1         2         3         4         5
   1 1   C  1S          1.03005
   2        2S         -0.08961   0.33487
   3        2PX         0.00000   0.00000   0.00000
   4        2PY         0.00000   0.00000  -0.00000   0.26474
   5        2PZ        -0.00000   0.00000   0.00000   0.00000   0.26474
   6 2   H  1S         -0.06071   0.14997   0.00000   0.00000   0.27068
   7 3   H  1S         -0.06071   0.14997  -0.00000   0.23442  -0.13534
   8 4   H  1S         -0.06071   0.14997   0.00000  -0.23442  -0.13534
                           6         7         8
   6 2   H  1S          0.34434
   7 3   H  1S         -0.07079   0.34434
   8 4   H  1S         -0.07079  -0.07079   0.34434
    Full Mulliken population analysis:
                           1         2         3         4         5
   1 1   C  1S          2.06904
   2        2S         -0.05499   0.84891
   3        2PX         0.00000   0.00000   1.00000
   4        2PY         0.00000   0.00000   0.00000   0.60205
   5        2PZ         0.00000   0.00000   0.00000   0.00000   0.60205
   6 2   H  1S         -0.00697   0.13948   0.00000   0.00000   0.25350
   7 3   H  1S         -0.00697   0.13948   0.00000   0.19013   0.06338
   8 4   H  1S         -0.00697   0.13948  -0.00000   0.19013   0.06338
                           6         7         8
   6 2   H  1S          0.59874
   7 3   H  1S         -0.02072   0.59874
   8 4   H  1S         -0.02072  -0.02072   0.59874
     Gross orbital populations:
                         Total     Alpha     Beta      Spin
   1 1   C  1S          1.99313   0.99669   0.99645   0.00024
   2        2S          1.21235   0.67895   0.53340   0.14555
   3        2PX         1.00000   1.00000   0.00000   1.00000
   4        2PY         0.98230   0.52784   0.45446   0.07337
   5        2PZ         0.98230   0.52784   0.45446   0.07337
   6 2   H  1S          0.94330   0.42290   0.52041  -0.09751
   7 3   H  1S          0.94330   0.42290   0.52041  -0.09751
   8 4   H  1S          0.94330   0.42290   0.52041  -0.09751
          Condensed to atoms (all electrons):
              1          2          3          4
     1  C    5.012077   0.386003   0.386003   0.386003
     2  H    0.386003   0.598736  -0.020717  -0.020717
     3  H    0.386003  -0.020717   0.598736  -0.020717
     4  H    0.386003  -0.020717  -0.020717   0.598736
 Mulliken atomic charges:
              1
     1  C   -0.170086
     2  H    0.056695
     3  H    0.056695
     4  H    0.056695
 Sum of Mulliken atomic charges =  -0.00000
 Mulliken charges with hydrogens summed into heavy atoms:
              1
     1  C   -0.000000
 Sum of Mulliken charges with hydrogens summed into heavy atoms =  -0.00000
          Atomic-Atomic Spin Densities.
              1          2          3          4
     1  C    1.312316  -0.006596  -0.006596  -0.006596
     2  H   -0.006596  -0.089942  -0.000486  -0.000486
     3  H   -0.006596  -0.000486  -0.089942  -0.000486
     4  H   -0.006596  -0.000486  -0.000486  -0.089942
 Mulliken atomic spin densities:
              1
     1  C    1.292528
     2  H   -0.097509
     3  H   -0.097509
     4  H   -0.097509
 Sum of Mulliken atomic spin densities =   1.00000
 Electronic spatial extent (au):  <R**2>=             28.4239
 Charge=             -0.0000 electrons
 Dipole moment (field-independent basis, Debye):
    X=             -0.0000    Y=              0.0000    Z=             -0.0000  Tot=              0.0000
 Quadrupole moment (field-independent basis, Debye-Ang):
   XX=             -7.5451   YY=             -6.7830   ZZ=             -6.7830
   XY=              0.0000   XZ=              0.0000   YZ=             -0.0000
 Traceless Quadrupole moment (field-independent basis, Debye-Ang):
   XX=             -0.5081   YY=              0.2541   ZZ=              0.2541
   XY=              0.0000   XZ=              0.0000   YZ=             -0.0000
 Octapole moment (field-independent basis, Debye-Ang**2):
  XXX=              0.0000  YYY=              0.0000  ZZZ=              0.6378  XYY=              0.0000
  XXY=             -0.0000  XXZ=             -0.0000  XZZ=              0.0000  YZZ=              0.0000
  YYZ=             -0.6378  XYZ=             -0.0000
 Hexadecapole moment (field-independent basis, Debye-Ang**3):
 XXXX=             -5.9735 YYYY=            -13.0031 ZZZZ=            -13.0031 XXXY=              0.0000
 XXXZ=             -0.0000 YYYX=              0.0000 YYYZ=              0.0000 ZZZX=             -0.0000
 ZZZY=             -0.0000 XXYY=             -3.4385 XXZZ=             -3.4385 YYZZ=             -4.3344
 XXYZ=              0.0000 YYXZ=              0.0000 ZZXY=              0.0000
 N-N= 9.579588592757D+00 E-N=-1.617205437243D+02  KE= 5.762458592600D+01
 Symmetry A    KE= 5.333841458298D+01
 Symmetry B    KE= 4.286171343022D+00
 Orbital energies and kinetic energies (alpha):
                                 1                 2
   1         O               -11.005322         15.630168
   2         O                -0.901273          1.314144
   3         O                -0.533864          0.963907
   4         O                -0.533864          0.963907
   5         O                -0.355377          1.477728
   6         V                 0.617140          2.328744
   7         V                 0.758507          2.187233
   8         V                 0.758507          2.187233
 Orbital energies and kinetic energies (beta):
                                 1                 2
   1         O               -10.973806         15.664569
   2         O                -0.791193          1.128261
   3         O                -0.517367          0.922268
   4         O                -0.517367          0.922268
   5         V                 0.336097          1.477728
   6         V                 0.679507          2.480227
   7         V                 0.785627          2.228872
   8         V                 0.785627          2.228872
 Total kinetic energy from orbitals= 3.898722027521D+01
                          Isotropic Fermi Contact Couplings
        Atom                 a.u.       MegaHertz       Gauss      10(-4) cm-1
     1  C(13)              0.21699     243.93701      87.04279      81.36863
     2  H(1)              -0.02868    -128.17785     -45.73704     -42.75553
     3  H(1)              -0.02868    -128.17785     -45.73704     -42.75553
     4  H(1)              -0.02868    -128.17785     -45.73704     -42.75553
 --------------------------------------------------------
       Center         ----  Spin Dipole Couplings  ----
                      3XX-RR        3YY-RR        3ZZ-RR
 --------------------------------------------------------
     1   Atom        1.207850     -0.603925     -0.603925
     2   Atom       -0.033896     -0.092988      0.126884
     3   Atom       -0.033896      0.071916     -0.038020
     4   Atom       -0.033896      0.071916     -0.038020
 --------------------------------------------------------
                        XY            XZ            YZ
 --------------------------------------------------------
     1   Atom        0.000000     -0.000000      0.000000
     2   Atom        0.000000     -0.000000      0.000000
     3   Atom       -0.000000      0.000000     -0.095207
     4   Atom       -0.000000     -0.000000      0.095207
 --------------------------------------------------------


 ---------------------------------------------------------------------------------
              Anisotropic Spin Dipole Couplings in Principal Axis System
 ---------------------------------------------------------------------------------

       Atom             a.u.   MegaHertz   Gauss  10(-4) cm-1        Axes

              Baa    -0.6039   -81.041   -28.917   -27.032  0.0000  0.0000  1.0000
     1 C(13)  Bbb    -0.6039   -81.041   -28.917   -27.032 -0.0000  1.0000 -0.0000
              Bcc     1.2078   162.082    57.835    54.065  1.0000  0.0000  0.0000
 
              Baa    -0.0930   -49.614   -17.703   -16.549 -0.0000  1.0000 -0.0000
     2 H(1)   Bbb    -0.0339   -18.085    -6.453    -6.033  1.0000  0.0000  0.0000
              Bcc     0.1269    67.699    24.157    22.582  0.0000  0.0000  1.0000
 
              Baa    -0.0930   -49.614   -17.703   -16.549 -0.0000  0.5000  0.8660
     3 H(1)   Bbb    -0.0339   -18.085    -6.453    -6.033  1.0000  0.0000  0.0000
              Bcc     0.1269    67.699    24.157    22.582 -0.0000  0.8660 -0.5000
 
              Baa    -0.0930   -49.614   -17.703   -16.549  0.0000 -0.5000  0.8660
     4 H(1)   Bbb    -0.0339   -18.085    -6.453    -6.033  1.0000  0.0000  0.0000
              Bcc     0.1269    67.699    24.157    22.582 -0.0000  0.8660  0.5000
 

 ---------------------------------------------------------------------------------

 No NMR shielding tensors so no spin-rotation constants.
 Leave Link  601 at Sat Aug 17 18:02:09 2024, MaxMem=   13107200 cpu:       0.1
 (Enter /programs/64bit/g09/g09-gfortran/bin/l701.exe)
 Compute integral first derivatives.
 ... and contract with generalized density number  2.
 Leave Link  701 at Sat Aug 17 18:02:09 2024, MaxMem=   13107200 cpu:       0.1
 (Enter /programs/64bit/g09/g09-gfortran/bin/l702.exe)
 L702 exits ... SP integral derivatives will be done elsewhere.
 Leave Link  702 at Sat Aug 17 18:02:09 2024, MaxMem=   13107200 cpu:       0.0
 (Enter /programs/64bit/g09/g09-gfortran/bin/l703.exe)
 Compute integral first derivatives, UseDBF=F ICtDFT=           0.
 Integral derivatives from FoFDir, PRISM(SPDF).
 Calling FoFJK, ICntrl=      2127 FMM=F ISym2X=1 I1Cent= 0 IOpClX= 1 NMat=1 NMatS=1 NMatT=0.
 FoFCou: FMM=F IPFlag=           0 FMFlag=      100000 FMFlg1=         800
         NFxFlg=           0 DoJE=F BraDBF=F KetDBF=F FulRan=T
         Omega=  0.000000  0.000000  1.000000  0.000000  0.000000 ICntrl=    2127 IOpCl=  1
         NMat0=    1 NMatS0=    1 NMatT0=    0 NMatD0=    1 NMtDS0=    0 NMtDT0=    0
         I1Cent=           0 NGrid=           0.
 Petite list used in FoFCou.
 Leave Link  703 at Sat Aug 17 18:02:09 2024, MaxMem=   13107200 cpu:       0.1
 (Enter /programs/64bit/g09/g09-gfortran/bin/l716.exe)
 Dipole        =-8.58285740D-18 0.00000000D+00 1.19904087D-14
 ***** Axes restored to original set *****
 -------------------------------------------------------------------
 Center     Atomic                   Forces (Hartrees/Bohr)
 Number     Number              X              Y              Z
 -------------------------------------------------------------------
      1        6          -0.000000000    0.000000000    0.000000000
      2        1           0.000000000   -0.000000000    0.000803520
      3        1           0.000695868    0.000000000   -0.000401760
      4        1          -0.000695868   -0.000000000   -0.000401760
 -------------------------------------------------------------------
 Cartesian Forces:  Max     0.000803520 RMS     0.000401760
 Leave Link  716 at Sat Aug 17 18:02:09 2024, MaxMem=   13107200 cpu:       0.0
 (Enter /programs/64bit/g09/g09-gfortran/bin/l103.exe)

 GradGradGradGradGradGradGradGradGradGradGradGradGradGradGradGradGradGrad
 Berny optimization.
 Internal  Forces:  Max     0.000803520 RMS     0.000526027
 Search for a local minimum.
 Step number   1 out of a maximum of   20
 All quantities printed in internal units (Hartrees-Bohrs-Radians)
 RMS Force = .52603D-03 SwitMx=.10000D-02 MixMth= 2
 Mixed Optimization -- En-DIIS/RFO-DIIS
 Second derivative matrix not updated -- first step.
 The second derivative matrix:
                          R1        R2        R3        A1        A2
           R1           0.34813
           R2           0.00000   0.34813
           R3           0.00000   0.00000   0.34813
           A1           0.00000   0.00000   0.00000   0.16000
           A2           0.00000   0.00000   0.00000   0.00000   0.16000
           A3           0.00000   0.00000   0.00000   0.00000   0.00000
           D1           0.00000   0.00000   0.00000   0.00000   0.00000
                          A3        D1
           A3           0.16000
           D1           0.00000   0.00235
     Eigenvalues ---    0.00235   0.16000   0.16000   0.34813   0.34813
     Eigenvalues ---    0.348131000.00000
 RFO step:  Lambda=-5.56387438D-06 EMin= 2.34830060D-03
 Linear search not attempted -- first point.
 Iteration  1 RMS(Cart)=  0.00151100 RMS(Int)=  0.00000000
 Iteration  2 RMS(Cart)=  0.00000000 RMS(Int)=  0.00000000
 ClnCor:  largest displacement from symmetrization is 7.83D-12 for atom     1.
 Variable       Old X    -DE/DX   Delta X   Delta X   Delta X     New X
                                 (Linear)    (Quad)   (Total)
    R1        2.05980   0.00080   0.00000   0.00231   0.00231   2.06211
    R2        2.05980   0.00080   0.00000   0.00231   0.00231   2.06211
    R3        2.05980   0.00080   0.00000   0.00231   0.00231   2.06211
    A1        2.09440   0.00000   0.00000   0.00000   0.00000   2.09440
    A2        2.09440   0.00000   0.00000   0.00000   0.00000   2.09440
    A3        2.09440  -0.00000   0.00000  -0.00000  -0.00000   2.09440
    D1        3.14159   0.00000   0.00000   0.00000   0.00000   3.14159
         Item               Value     Threshold  Converged?
 Maximum Force            0.000804     0.000450     NO 
 RMS     Force            0.000526     0.000300     NO 
 Maximum Displacement     0.002308     0.001800     NO 
 RMS     Displacement     0.001511     0.001200     NO 
 Predicted change in Energy=-2.781937D-06
 GradGradGradGradGradGradGradGradGradGradGradGradGradGradGradGradGradGrad

 Leave Link  103 at Sat Aug 17 18:02:09 2024, MaxMem=   13107200 cpu:       0.0
 (Enter /programs/64bit/g09/g09-gfortran/bin/l202.exe)
                          Input orientation:                          
 ---------------------------------------------------------------------
 Center     Atomic      Atomic             Coordinates (Angstroms)
 Number     Number       Type             X           Y           Z
 ---------------------------------------------------------------------
      1          6           0        0.000000   -0.000000    0.000000
      2          1           0        0.000000    0.000000    1.091221
      3          1           0        0.945025   -0.000000   -0.545611
      4          1           0       -0.945025    0.000000   -0.545611
 ---------------------------------------------------------------------
                    Distance matrix (angstroms):
                    1          2          3          4
     1  C    0.000000
     2  H    1.091221   0.000000
     3  H    1.091221   1.890051   0.000000
     4  H    1.091221   1.890051   1.890051   0.000000
 Stoichiometry    CH3(2)
 Framework group  C2[C2(CH),X(H2)]
 Deg. of freedom     3
 Prev. full point group           C2      NOp   2
 Prev. largest Abelian subgroup   C2      NOp   2
       concise Abelian subgroup   C2      NOp   2
                   Standard orientation:
 ---------------------------------------------------------------------
 Center     Atomic                     Coordinates (Angstroms)
 Number     Number                        X           Y           Z
 ---------------------------------------------------------------------
      1          6                    0.000000    0.000000    0.000000
      2          1                    0.000000    0.000000    1.091221
      3          1                    0.000000    0.945025   -0.545611
      4          1                    0.000000   -0.945025   -0.545611
 ---------------------------------------------------------------------
 Rotational constants (GHZ):    280.7469549    280.7469549    140.3734774
 Leave Link  202 at Sat Aug 17 18:02:09 2024, MaxMem=   13107200 cpu:       0.0
 (Enter /programs/64bit/g09/g09-gfortran/bin/l301.exe)
 Standard basis: STO-3G (5D, 7F)
 Ernie: Thresh=  0.10000D-02 Tol=  0.10000D-05 Strict=F.
 There are     5 symmetry adapted basis functions of A   symmetry.
 There are     3 symmetry adapted basis functions of B   symmetry.
 Integral buffers will be    131072 words long.
 Raffenetti 2 integral format.
 Two-electron integral symmetry is turned on.
     8 basis functions,    24 primitive gaussians,     8 cartesian basis functions
     5 alpha electrons        4 beta electrons
       nuclear repulsion energy         9.5688662980 Hartrees.
 IExCor=    0 DFT=F Ex=HF Corr=None ExCW=0 ScaHFX=  1.000000
 ScaDFX=  1.000000  1.000000  1.000000  1.000000 ScalE2=  1.000000  1.000000
 IRadAn=      0 IRanWt=     -1 IRanGd=            0 ICorTp=0
 NAtoms=    4 NActive=    4 NUniq=    3 SFac= 1.33D+00 NAtFMM=   80 NAOKFM=F Big=F
 Leave Link  301 at Sat Aug 17 18:02:10 2024, MaxMem=   13107200 cpu:       0.1
 (Enter /programs/64bit/g09/g09-gfortran/bin/l302.exe)
 NPDir=0 NMtPBC=     1 NCelOv=     1 NCel=       1 NClECP=     1 NCelD=      1
         NCelK=      1 NCelE2=     1 NClLst=     1 CellRange=     0.0.
 One-electron integrals computed using PRISM.
 One-electron integral symmetry used in STVInt
 NBasis=     8 RedAO= T  NBF=     5     3
 NBsUse=     8 1.00D-06 NBFU=     5     3
 Leave Link  302 at Sat Aug 17 18:02:10 2024, MaxMem=   13107200 cpu:       0.1
 (Enter /programs/64bit/g09/g09-gfortran/bin/l303.exe)
 DipDrv:  MaxL=1.
 Leave Link  303 at Sat Aug 17 18:02:10 2024, MaxMem=   13107200 cpu:       0.0
 (Enter /programs/64bit/g09/g09-gfortran/bin/l401.exe)
 Initial guess read from the read-write file.
 B after Tr=     0.000000    0.000000    0.000000
         Rot=    1.000000    0.000000    0.000000    0.000000 Ang=   0.00 deg.
 Guess basis will be translated and rotated to current coordinates.
 Initial guess orbital symmetries:
 Alpha Orbitals:
       Occupied  (A) (A) (A) (B) (B)
       Virtual   (A) (A) (B)
 Beta  Orbitals:
       Occupied  (A) (A) (A) (B)
       Virtual   (B) (A) (B) (A)
 The electronic state of the initial guess is 2-B.
 Initial guess <Sx>= 0.0000 <Sy>= 0.0000 <Sz>= 0.5000 <S**2>= 0.7661 S= 0.5080
 Leave Link  401 at Sat Aug 17 18:02:10 2024, MaxMem=   13107200 cpu:       0.1
 (Enter /programs/64bit/g09/g09-gfortran/bin/l502.exe)
 UHF open shell SCF:
 Requested convergence on RMS density matrix=1.00D-08 within 128 cycles.
 Requested convergence on MAX density matrix=1.00D-06.
 Requested convergence on             energy=1.00D-06.
 No special actions if energy rises.
 Using DIIS extrapolation, IDIIS=  1040.
 Integral symmetry usage will be decided dynamically.
 Keep R1 and R2 ints in memory in canonical form, NReq=821108.
 IEnd=       19755 IEndB=       19755 NGot=    13107200 MDV=    13103188
 LenX=    13103188 LenY=    13102306
 Symmetry not used in FoFDir.
 MinBra= 0 MaxBra= 1 Meth= 1.
 IRaf=       0 NMat=   1 IRICut=       1 DoRegI=T DoRafI=F ISym2E= 0 JSym2E=0.

 Cycle   1  Pass 1  IDiag  1:
 E= -39.0762775875967    
 DIIS: error= 1.17D-04 at cycle   1 NSaved=   1.
 NSaved= 1 IEnMin= 1 EnMin= -39.0762775875967     IErMin= 1 ErrMin= 1.17D-04
 ErrMax= 1.17D-04 EMaxC= 1.00D-01 BMatC= 5.28D-07 BMatP= 5.28D-07
 IDIUse=3 WtCom= 9.99D-01 WtEn= 1.17D-03
 Coeff-Com:  0.100D+01
 Coeff-En:   0.100D+01
 Coeff:      0.100D+01
 Gap=     0.971 Goal=   None    Shift=    0.000
 Gap=     0.853 Goal=   None    Shift=    0.000
 RMSDP=5.73D-05 MaxDP=2.15D-04              OVMax= 1.11D-16

 Cycle   2  Pass 1  IDiag  1:
 E= -39.0762777511562     Delta-E=       -0.000000163559 Rises=F Damp=F
 DIIS: error= 2.31D-05 at cycle   2 NSaved=   2.
 NSaved= 2 IEnMin= 2 EnMin= -39.0762777511562     IErMin= 2 ErrMin= 2.31D-05
 ErrMax= 2.31D-05 EMaxC= 1.00D-01 BMatC= 2.22D-08 BMatP= 5.28D-07
 IDIUse=1 WtCom= 1.00D+00 WtEn= 0.00D+00
 Coeff-Com: -0.126D+00 0.113D+01
 Coeff:     -0.126D+00 0.113D+01
 Gap=     0.971 Goal=   None    Shift=    0.000
 Gap=     0.853 Goal=   None    Shift=    0.000
 RMSDP=1.56D-05 MaxDP=1.05D-04 DE=-1.64D-07 OVMax= 1.11D-16

 Cycle   3  Pass 1  IDiag  1:
 E= -39.0762777611700     Delta-E=       -0.000000010014 Rises=F Damp=F
 DIIS: error= 8.15D-06 at cycle   3 NSaved=   3.
 NSaved= 3 IEnMin= 3 EnMin= -39.0762777611700     IErMin= 3 ErrMin= 8.15D-06
 ErrMax= 8.15D-06 EMaxC= 1.00D-01 BMatC= 1.71D-09 BMatP= 2.22D-08
 IDIUse=1 WtCom= 1.00D+00 WtEn= 0.00D+00
 Coeff-Com: -0.190D-02-0.198D+00 0.120D+01
 Coeff:     -0.190D-02-0.198D+00 0.120D+01
 Gap=     0.971 Goal=   None    Shift=    0.000
 Gap=     0.853 Goal=   None    Shift=    0.000
 RMSDP=5.07D-06 MaxDP=2.79D-05 DE=-1.00D-08 OVMax= 2.22D-16

 Cycle   4  Pass 1  IDiag  1:
 E= -39.0762777622804     Delta-E=       -0.000000001110 Rises=F Damp=F
 DIIS: error= 3.01D-06 at cycle   4 NSaved=   4.
 NSaved= 4 IEnMin= 4 EnMin= -39.0762777622804     IErMin= 4 ErrMin= 3.01D-06
 ErrMax= 3.01D-06 EMaxC= 1.00D-01 BMatC= 3.68D-10 BMatP= 1.71D-09
 IDIUse=1 WtCom= 1.00D+00 WtEn= 0.00D+00
 Coeff-Com:  0.734D-02 0.637D-01-0.797D+00 0.173D+01
 Coeff:      0.734D-02 0.637D-01-0.797D+00 0.173D+01
 Gap=     0.971 Goal=   None    Shift=    0.000
 Gap=     0.853 Goal=   None    Shift=    0.000
 RMSDP=3.41D-06 MaxDP=1.32D-05 DE=-1.11D-09 OVMax= 2.22D-16

 Cycle   5  Pass 1  IDiag  1:
 E= -39.0762777626197     Delta-E=       -0.000000000339 Rises=F Damp=F
 DIIS: error= 1.06D-06 at cycle   5 NSaved=   5.
 NSaved= 5 IEnMin= 5 EnMin= -39.0762777626197     IErMin= 5 ErrMin= 1.06D-06
 ErrMax= 1.06D-06 EMaxC= 1.00D-01 BMatC= 4.23D-11 BMatP= 3.68D-10
 IDIUse=1 WtCom= 1.00D+00 WtEn= 0.00D+00
 Coeff-Com: -0.189D-02 0.149D-01 0.724D-01-0.697D+00 0.161D+01
 Coeff:     -0.189D-02 0.149D-01 0.724D-01-0.697D+00 0.161D+01
 Gap=     0.971 Goal=   None    Shift=    0.000
 Gap=     0.853 Goal=   None    Shift=    0.000
 RMSDP=1.67D-06 MaxDP=6.63D-06 DE=-3.39D-10 OVMax= 1.11D-16

 Cycle   6  Pass 1  IDiag  1:
 E= -39.0762777626620     Delta-E=       -0.000000000042 Rises=F Damp=F
 DIIS: error= 7.73D-09 at cycle   6 NSaved=   6.
 NSaved= 6 IEnMin= 6 EnMin= -39.0762777626620     IErMin= 6 ErrMin= 7.73D-09
 ErrMax= 7.73D-09 EMaxC= 1.00D-01 BMatC= 1.84D-15 BMatP= 4.23D-11
 IDIUse=1 WtCom= 1.00D+00 WtEn= 0.00D+00
 Coeff-Com:  0.698D-03-0.554D-02-0.266D-01 0.258D+00-0.595D+00 0.137D+01
 Coeff:      0.698D-03-0.554D-02-0.266D-01 0.258D+00-0.595D+00 0.137D+01
 Gap=     0.971 Goal=   None    Shift=    0.000
 Gap=     0.853 Goal=   None    Shift=    0.000
 RMSDP=5.66D-09 MaxDP=3.22D-08 DE=-4.23D-11 OVMax= 0.00D+00

 SCF Done:  E(UHF) =  -39.0762777627     A.U. after    6 cycles
             Convg  =    0.5662D-08             -V/T =  2.0023
 <Sx>= 0.0000 <Sy>= 0.0000 <Sz>= 0.5000 <S**2>= 0.7661 S= 0.5080
 <L.S>=  0.00000000000    
 KE= 3.898470700813D+01 PE=-1.101488279280D+02 EE= 2.251897685919D+01
 Annihilation of the first spin contaminant:
 S**2 before annihilation     0.7661,   after     0.7502
 Leave Link  502 at Sat Aug 17 18:02:10 2024, MaxMem=   13107200 cpu:       0.1
 (Enter /programs/64bit/g09/g09-gfortran/bin/l801.exe)
 ExpMin= 1.69D-01 ExpMax= 7.16D+01 ExpMxC= 7.16D+01 IAcc=1 IRadAn=         1 AccDes= 0.00D+00
 HarFok:  IExCor=  205 AccDes= 0.00D+00 IRadAn=         1 IDoV=-2
 ScaDFX=  1.000000  1.000000  1.000000  1.000000
 Largest valence mixing into a core orbital is  1.36D-04
 Largest core mixing into a valence orbital is  8.24D-05
 Largest valence mixing into a core orbital is  1.67D-04
 Largest core mixing into a valence orbital is  1.50D-04
 Range of M.O.s used for correlation:     2     8
 NBasis=     8 NAE=     5 NBE=     4 NFC=     1 NFV=     0
 NROrb=      7 NOA=     4 NOB=     3 NVA=     3 NVB=     4
 Leave Link  801 at Sat Aug 17 18:02:10 2024, MaxMem=   13107200 cpu:       0.1
 (Enter /programs/64bit/g09/g09-gfortran/bin/l906.exe)
 Frozen-core derivative calculation, NFC=   1 NFV=   0.
 FulOut=F Deriv=T AODrv=T NAtomX=     4
   MMem=        9306  MDisk=           4 MDiskD=           4
  W3Min=         640 MinDsk=       50908 NBas6D=           8
 NBas2D=          42    NTT=          36    LW2=     2000000
    MDV=    13103486 MDiskM=       14457 NBas2p=          35
 Fully direct method using O(ONN) memory.
 IMap=   1   2   3   4   5
 JobTyp=2 Pass  1:  I=   2 to   5 NPSUse=  1 ParTrn=F ParDer=F DoDerP=T.
 IMap=   1   2   3   4
 JobTyp=3 Pass  1:  I=   2 to   4 NPSUse=  1 ParTrn=F ParDer=F DoDerP=T.
 Spin components of T(2) and E(2):
     alpha-alpha T2 =       0.2983486887D-03 E2=     -0.8294683983D-03
     alpha-beta  T2 =       0.1421919805D-01 E2=     -0.3714020785D-01
     beta-beta   T2 =       0.2828996376D-03 E2=     -0.7780386204D-03
 The integrals were generated   2 times.
 (S**2,0)=  0.76611D+00           (S**2,1)=  0.75600D+00
 E(PUHF)=      -0.39080002159D+02        E(PMP2)=      -0.39117588661D+02
 ANorm=    0.1007373042D+01
 E2 =    -0.3874771487D-01 EUMP2 =    -0.39115025477531D+02
 Leave Link  906 at Sat Aug 17 18:02:10 2024, MaxMem=   13107200 cpu:       0.1
 (Enter /programs/64bit/g09/g09-gfortran/bin/l1002.exe)
 Minotr:  UHF open shell wavefunction.
          Computing MP2/KS-MP2 derivatives.
          Using Z-Vector for PSCF gradient.
          Skipping F1 and S1 gradient terms here.
          IDoAtm=1111
          Frozen-core window.
          Direct CPHF calculation.
          Differentiating once with respect to electric field.
                with respect to dipole field.
          Differentiating once with respect to nuclear coordinates.
          Using symmetry in CPHF.
          Requested convergence is 1.0D-10 RMS, and 1.0D-09 maximum.
          NewPWx=F KeepS1=T KeepF1=T KeepIn=T MapXYZ=F SortEE=F KeepMc=T.
          MDV=      13107156 using IRadAn=       0.
          Keep R1 and R2 ints in memory in canonical form, NReq=801801.
 Symmetry not used in FoFDir.
 MinBra= 0 MaxBra= 1 Meth= 1.
 IRaf=       0 NMat=   1 IRICut=       1 DoRegI=T DoRafI=F ISym2E= 0 JSym2E=0.
          Solving linear equations separately, MaxMat=       0.
          There are     1 degrees of freedom in the 1st order CPHF.  IDoFFX=0.
 LinEq1:  Iter=  0 NonCon=     1 RMS=1.90D-03 Max=6.83D-03
 AX will form     1 AO Fock derivatives at one time.
 LinEq1:  Iter=  1 NonCon=     1 RMS=3.14D-04 Max=1.09D-03
 LinEq1:  Iter=  2 NonCon=     1 RMS=5.13D-05 Max=1.58D-04
 LinEq1:  Iter=  3 NonCon=     1 RMS=5.73D-07 Max=1.74D-06
 LinEq1:  Iter=  4 NonCon=     1 RMS=5.88D-08 Max=2.08D-07
 LinEq1:  Iter=  5 NonCon=     0 RMS=2.00D-11 Max=9.08D-11
 Linear equations converged to 1.000D-10 1.000D-09 after     5 iterations.
 End of Minotr Frequency-dependent properties file   721 does not exist.
 End of Minotr Frequency-dependent properties file   722 does not exist.
 Leave Link 1002 at Sat Aug 17 18:02:10 2024, MaxMem=   13107200 cpu:       0.1
 (Enter /programs/64bit/g09/g09-gfortran/bin/l701.exe)
 Compute integral first derivatives.
 ... and contract with generalized density number  2.
 Leave Link  701 at Sat Aug 17 18:02:10 2024, MaxMem=   13107200 cpu:       0.1
 (Enter /programs/64bit/g09/g09-gfortran/bin/l702.exe)
 L702 exits ... SP integral derivatives will be done elsewhere.
 Leave Link  702 at Sat Aug 17 18:02:11 2024, MaxMem=   13107200 cpu:       0.0
 (Enter /programs/64bit/g09/g09-gfortran/bin/l703.exe)
 Compute integral first derivatives, UseDBF=F ICtDFT=           0.
 Integral derivatives from FoFDir, PRISM(SPDF).
 Calling FoFJK, ICntrl=      2127 FMM=F ISym2X=1 I1Cent= 0 IOpClX= 1 NMat=1 NMatS=1 NMatT=0.
 FoFCou: FMM=F IPFlag=           0 FMFlag=      100000 FMFlg1=         800
         NFxFlg=           0 DoJE=F BraDBF=F KetDBF=F FulRan=T
         Omega=  0.000000  0.000000  1.000000  0.000000  0.000000 ICntrl=    2127 IOpCl=  1
         NMat0=    1 NMatS0=    1 NMatT0=    0 NMatD0=    1 NMtDS0=    0 NMtDT0=    0
         I1Cent=           0 NGrid=           0.
 Petite list used in FoFCou.
 Leave Link  703 at Sat Aug 17 18:02:11 2024, MaxMem=   13107200 cpu:       0.1
 (Enter /programs/64bit/g09/g09-gfortran/bin/l716.exe)
 Dipole        =-1.19808250D-29 2.05835349D-13 4.46176429D-12
 ***** Axes restored to original set *****
 -------------------------------------------------------------------
 Center     Atomic                   Forces (Hartrees/Bohr)
 Number     Number              X              Y              Z
 -------------------------------------------------------------------
      1        6           0.000000000   -0.000000000   -0.000000000
      2        1           0.000000000   -0.000000000   -0.000225405
      3        1          -0.000195206    0.000000000    0.000112702
      4        1           0.000195206    0.000000000    0.000112702
 -------------------------------------------------------------------
 Cartesian Forces:  Max     0.000225405 RMS     0.000112702
 Leave Link  716 at Sat Aug 17 18:02:11 2024, MaxMem=   13107200 cpu:       0.0
 (Enter /programs/64bit/g09/g09-gfortran/bin/l103.exe)

 GradGradGradGradGradGradGradGradGradGradGradGradGradGradGradGradGradGrad
 Berny optimization.
 Using GEDIIS/GDIIS optimizer.
 Internal  Forces:  Max     0.000225405 RMS     0.000147562
 Search for a local minimum.
 Step number   2 out of a maximum of   20
 All quantities printed in internal units (Hartrees-Bohrs-Radians)
 RMS Force = .14756D-03 SwitMx=.10000D-02 MixMth= 2
 Mixed Optimization -- En-DIIS/RFO-DIIS
 Swaping is turned off.
 Update second derivatives using D2CorX and points    1    2
 DE= -2.00D-06 DEPred=-2.78D-06 R= 7.18D-01
 SS=  1.41D+00  RLast= 4.00D-03 DXNew= 5.0454D-01 1.1993D-02
 Trust test= 7.18D-01 RLast= 4.00D-03 DXMaxT set to 3.00D-01
 The second derivative matrix:
                          R1        R2        R3        A1        A2
           R1           0.38068
           R2           0.03255   0.38068
           R3           0.03255   0.03255   0.38068
           A1           0.00000   0.00000   0.00000   0.16000
           A2           0.00000   0.00000   0.00000   0.00000   0.16000
           A3          -0.00000  -0.00000  -0.00000  -0.00000  -0.00000
           D1           0.00000   0.00000   0.00000   0.00000   0.00000
                          A3        D1
           A3           0.16000
           D1          -0.00000   0.00235
     Eigenvalues ---    0.00235   0.16000   0.16000   0.34813   0.34813
     Eigenvalues ---    0.445791000.00000
 En-DIIS/RFO-DIIS IScMMF=        0 using points:     2    1
 RFO step:  Lambda=-2.28287211D-07.
 DIIS coeffs:      0.78093      0.21907
 Iteration  1 RMS(Cart)=  0.00033101 RMS(Int)=  0.00000000
 Iteration  2 RMS(Cart)=  0.00000000 RMS(Int)=  0.00000000
 ClnCor:  largest displacement from symmetrization is 1.49D-11 for atom     4.
 Variable       Old X    -DE/DX   Delta X   Delta X   Delta X     New X
                                  (DIIS)     (GDIIS)  (Total)
    R1        2.06211  -0.00023  -0.00051  -0.00000  -0.00051   2.06160
    R2        2.06211  -0.00023  -0.00051  -0.00000  -0.00051   2.06160
    R3        2.06211  -0.00023  -0.00051   0.00000  -0.00051   2.06160
    A1        2.09440  -0.00000   0.00000  -0.00000  -0.00000   2.09440
    A2        2.09440  -0.00000  -0.00000  -0.00000  -0.00000   2.09440
    A3        2.09440   0.00000   0.00000   0.00000   0.00000   2.09440
    D1        3.14159  -0.00000   0.00000  -0.00000   0.00000   3.14159
         Item               Value     Threshold  Converged?
 Maximum Force            0.000225     0.000450     YES
 RMS     Force            0.000148     0.000300     YES
 Maximum Displacement     0.000506     0.001800     YES
 RMS     Displacement     0.000331     0.001200     YES
 Predicted change in Energy=-1.709567D-07
 Optimization completed.
    -- Stationary point found.
                           ----------------------------
                           !   Optimized Parameters   !
                           ! (Angstroms and Degrees)  !
 --------------------------                            --------------------------
 ! Name  Definition              Value          Derivative Info.                !
 --------------------------------------------------------------------------------
 ! R1    R(1,2)                  1.0912         -DE/DX =   -0.0002              !
 ! R2    R(1,3)                  1.0912         -DE/DX =   -0.0002              !
 ! R3    R(1,4)                  1.0912         -DE/DX =   -0.0002              !
 ! A1    A(2,1,3)              120.0            -DE/DX =    0.0                 !
 ! A2    A(2,1,4)              120.0            -DE/DX =    0.0                 !
 ! A3    A(3,1,4)              120.0            -DE/DX =    0.0                 !
 ! D1    D(2,1,4,3)            180.0            -DE/DX =    0.0                 !
 --------------------------------------------------------------------------------
 GradGradGradGradGradGradGradGradGradGradGradGradGradGradGradGradGradGrad

 Largest change from initial coordinates is atom    2       0.001 Angstoms.
 Leave Link  103 at Sat Aug 17 18:02:11 2024, MaxMem=   13107200 cpu:       0.0
 (Enter /programs/64bit/g09/g09-gfortran/bin/l202.exe)
                          Input orientation:                          
 ---------------------------------------------------------------------
 Center     Atomic      Atomic             Coordinates (Angstroms)
 Number     Number       Type             X           Y           Z
 ---------------------------------------------------------------------
      1          6           0        0.000000    0.000000    0.000000
      2          1           0        0.000000    0.000000    1.091221
      3          1           0        0.945025    0.000000   -0.545611
      4          1           0       -0.945025    0.000000   -0.545611
 ---------------------------------------------------------------------
                    Distance matrix (angstroms):
                    1          2          3          4
     1  C    0.000000
     2  H    1.091221   0.000000
     3  H    1.091221   1.890051   0.000000
     4  H    1.091221   1.890051   1.890051   0.000000
 Stoichiometry    CH3(2)
 Framework group  C2[C2(CH),X(H2)]
 Deg. of freedom     3
 Prev. full point group           C2      NOp   2
 Prev. largest Abelian subgroup   C2      NOp   2
       concise Abelian subgroup   C2      NOp   2
                   Standard orientation:
 ---------------------------------------------------------------------
 Center     Atomic                     Coordinates (Angstroms)
 Number     Number                        X           Y           Z
 ---------------------------------------------------------------------
      1          6                    0.000000    0.000000    0.000000
      2          1                    0.000000   -0.753524    0.789282
      3          1                    0.000000    1.060300    0.257929
      4          1                    0.000000   -0.306777   -1.047212
 ---------------------------------------------------------------------
 TstSym:  Max error for IOp=  2 IAt=    2 Err= 2.85D+00
 TstSym:  IOp=  3 I=    5 IP=    3 Err= 2.85D+00
  CI=  0.000000000000D+00  0.000000000000D+00  0.000000000000D+00
   T=  1.743839588697D-16  1.423953085830D+00  1.491527239270D+00
 CIP=  0.000000000000D+00  2.003677022558D+00  4.874159264930D-01
 Unable to use previous symmetry information.  Redetermining point group.
 No symmetry information on checkpoint file.  Reassigning symmetry.
 Symm:  InNGrp=C3V  InAxis=0.
 This structure is nearly, but not quite of a higher symmetry.
 Consider Symm=Loose if the higher symmetry is desired.
 Stoichiometry    CH3(2)
 Framework group  C2[C2(CH),X(H2)]
 Deg. of freedom     3
 Full point group                 C2      NOp   2
 Largest Abelian subgroup         C2      NOp   2
 Largest concise Abelian subgroup C2      NOp   2
                         Standard orientation:                         
 ---------------------------------------------------------------------
 Center     Atomic      Atomic             Coordinates (Angstroms)
 Number     Number       Type             X           Y           Z
 ---------------------------------------------------------------------
      1          6           0        0.000000    0.000000    0.000000
      2          1           0        0.000000    0.000000    1.091221
      3          1           0        0.000000    0.945025   -0.545611
      4          1           0       -0.000000   -0.945025   -0.545611
 ---------------------------------------------------------------------
 Rotational constants (GHZ):    280.7469549    280.7469549    140.3734774
 Leave Link  202 at Sat Aug 17 18:02:11 2024, MaxMem=   13107200 cpu:       0.0
 (Enter /programs/64bit/g09/g09-gfortran/bin/l601.exe)
 Copying SCF densities to generalized density rwf, IOpCl= 1 IROHF=0.

 **********************************************************************

            Population analysis using the SCF density.

 **********************************************************************

 Orbital symmetries:
 Alpha Orbitals:
       Occupied  (A) (A) (A) (B) (B)
       Virtual   (A) (B) (A)
 Beta  Orbitals:
       Occupied  (A) (A) (A) (B)
       Virtual   (B) (A) (B) (A)
 The electronic state is 2-B.
 Alpha  occ. eigenvalues --  -11.00532  -0.90075  -0.53334  -0.53334  -0.35524
 Alpha virt. eigenvalues --    0.61565   0.75734   0.75734
  Beta  occ. eigenvalues --  -10.97378  -0.79062  -0.51689  -0.51689
  Beta virt. eigenvalues --    0.33628   0.67793   0.78450   0.78450
     Alpha Molecular Orbital Coefficients:
                           1         2         3         4         5
                           O         O         O         O         O
     Eigenvalues --   -11.00532  -0.90075  -0.53334  -0.53334  -0.35524
   1 1   C  1S          0.99192  -0.23470  -0.00000   0.00000   0.00000
   2        2S          0.03653   0.71646   0.00000   0.00000   0.00000
   3        2PX         0.00000   0.00000   0.00000   0.00000   1.00000
   4        2PY         0.00000   0.00000   0.00000   0.58072  -0.00000
   5        2PZ        -0.00000  -0.00000   0.58072   0.00000   0.00000
   6 2   H  1S         -0.00723   0.18779   0.46819   0.00000   0.00000
   7 3   H  1S         -0.00723   0.18779  -0.23409   0.40546  -0.00000
   8 4   H  1S         -0.00723   0.18779  -0.23409  -0.40546   0.00000
                           6         7         8
                           V         V         V
     Eigenvalues --     0.61565   0.75734   0.75734
   1 1   C  1S         -0.22054   0.00000   0.00000
   2        2S          1.39252   0.00000  -0.00000
   3        2PX         0.00000  -0.00000   0.00000
   4        2PY         0.00000   1.13086   0.00000
   5        2PZ         0.00000   0.00000   1.13086
   6 2   H  1S         -0.75329   0.00000  -1.01838
   7 3   H  1S         -0.75329  -0.88194   0.50919
   8 4   H  1S         -0.75329   0.88194   0.50919
     Beta Molecular Orbital Coefficients:
                           1         2         3         4         5
                           O         O         O         O         V
     Eigenvalues --   -10.97378  -0.79062  -0.51689  -0.51689   0.33628
   1 1   C  1S          0.99300  -0.20974  -0.00000   0.00000   0.00000
   2        2S          0.03180   0.57814   0.00000   0.00000   0.00000
   3        2PX         0.00000   0.00000   0.00000  -0.00000   1.00000
   4        2PY         0.00000   0.00000   0.00000   0.51429   0.00000
   5        2PZ        -0.00000  -0.00000   0.51429   0.00000   0.00000
   6 2   H  1S         -0.00622   0.25994   0.52635   0.00000   0.00000
   7 3   H  1S         -0.00622   0.25994  -0.26318   0.45583   0.00000
   8 4   H  1S         -0.00622   0.25994  -0.26318  -0.45583  -0.00000
                           6         7         8
                           V         V         V
     Eigenvalues --     0.67793   0.78450   0.78450
   1 1   C  1S         -0.24001   0.00000   0.00000
   2        2S          1.45551   0.00000  -0.00000
   3        2PX         0.00000  -0.00000   0.00000
   4        2PY         0.00000   1.16258   0.00000
   5        2PZ         0.00000   0.00000   1.16258
   6 2   H  1S         -0.73154   0.00000  -0.98957
   7 3   H  1S         -0.73154  -0.85700   0.49479
   8 4   H  1S         -0.73154   0.85700   0.49479
     Alpha Density Matrix:
                           1         2         3         4         5
   1 1   C  1S          1.03900
   2        2S         -0.13192   0.51465
   3        2PX         0.00000   0.00000   1.00000
   4        2PY         0.00000   0.00000   0.00000   0.33723
   5        2PZ        -0.00000   0.00000   0.00000   0.00000   0.33723
   6 2   H  1S         -0.05125   0.13428   0.00000   0.00000   0.27188
   7 3   H  1S         -0.05125   0.13428  -0.00000   0.23546  -0.13594
   8 4   H  1S         -0.05125   0.13428   0.00000  -0.23546  -0.13594
                           6         7         8
   6 2   H  1S          0.25452
   7 3   H  1S         -0.07428   0.25452
   8 4   H  1S         -0.07428  -0.07428   0.25452
     Beta Density Matrix:
                           1         2         3         4         5
   1 1   C  1S          1.03003
   2        2S         -0.08969   0.33526
   3        2PX         0.00000   0.00000   0.00000
   4        2PY         0.00000   0.00000  -0.00000   0.26449
   5        2PZ        -0.00000   0.00000   0.00000   0.00000   0.26449
   6 2   H  1S         -0.06070   0.15008   0.00000   0.00000   0.27069
   7 3   H  1S         -0.06070   0.15008  -0.00000   0.23443  -0.13535
   8 4   H  1S         -0.06070   0.15008   0.00000  -0.23443  -0.13535
                           6         7         8
   6 2   H  1S          0.34465
   7 3   H  1S         -0.07092   0.34465
   8 4   H  1S         -0.07092  -0.07092   0.34465
    Full Mulliken population analysis:
                           1         2         3         4         5
   1 1   C  1S          2.06903
   2        2S         -0.05504   0.84991
   3        2PX         0.00000   0.00000   1.00000
   4        2PY         0.00000   0.00000   0.00000   0.60172
   5        2PZ         0.00000   0.00000   0.00000   0.00000   0.60172
   6 2   H  1S         -0.00695   0.13935   0.00000   0.00000   0.25331
   7 3   H  1S         -0.00695   0.13935   0.00000   0.18998   0.06333
   8 4   H  1S         -0.00695   0.13935   0.00000   0.18998   0.06333
                           6         7         8
   6 2   H  1S          0.59917
   7 3   H  1S         -0.02068   0.59917
   8 4   H  1S         -0.02068  -0.02068   0.59917
     Gross orbital populations:
                         Total     Alpha     Beta      Spin
   1 1   C  1S          1.99314   0.99669   0.99645   0.00024
   2        2S          1.21294   0.67931   0.53363   0.14568
   3        2PX         1.00000   1.00000   0.00000   1.00000
   4        2PY         0.98168   0.52763   0.45405   0.07358
   5        2PZ         0.98168   0.52763   0.45405   0.07358
   6 2   H  1S          0.94352   0.42292   0.52061  -0.09769
   7 3   H  1S          0.94352   0.42292   0.52061  -0.09769
   8 4   H  1S          0.94352   0.42292   0.52061  -0.09769
          Condensed to atoms (all electrons):
              1          2          3          4
     1  C    5.012310   0.385709   0.385709   0.385709
     2  H    0.385709   0.599168  -0.020678  -0.020678
     3  H    0.385709  -0.020678   0.599168  -0.020678
     4  H    0.385709  -0.020678  -0.020678   0.599168
 Mulliken atomic charges:
              1
     1  C   -0.169436
     2  H    0.056479
     3  H    0.056479
     4  H    0.056479
 Sum of Mulliken atomic charges =  -0.00000
 Mulliken charges with hydrogens summed into heavy atoms:
              1
     1  C   -0.000000
 Sum of Mulliken charges with hydrogens summed into heavy atoms =  -0.00000
          Atomic-Atomic Spin Densities.
              1          2          3          4
     1  C    1.312870  -0.006600  -0.006600  -0.006600
     2  H   -0.006600  -0.090132  -0.000479  -0.000479
     3  H   -0.006600  -0.000479  -0.090132  -0.000479
     4  H   -0.006600  -0.000479  -0.000479  -0.090132
 Mulliken atomic spin densities:
              1
     1  C    1.293070
     2  H   -0.097690
     3  H   -0.097690
     4  H   -0.097690
 Sum of Mulliken atomic spin densities =   1.00000
 Electronic spatial extent (au):  <R**2>=             28.4516
 Charge=              0.0000 electrons
 Dipole moment (field-independent basis, Debye):
    X=             -0.0000    Y=             -0.0000    Z=              0.0000  Tot=              0.0000
 Quadrupole moment (field-independent basis, Debye-Ang):
   XX=             -7.5462   YY=             -6.7818   ZZ=             -6.7818
   XY=              0.0000   XZ=              0.0000   YZ=             -0.0000
 Traceless Quadrupole moment (field-independent basis, Debye-Ang):
   XX=             -0.5096   YY=              0.2548   ZZ=              0.2548
   XY=              0.0000   XZ=              0.0000   YZ=             -0.0000
 Octapole moment (field-independent basis, Debye-Ang**2):
  XXX=             -0.0000  YYY=             -0.0000  ZZZ=              0.6399  XYY=             -0.0000
  XXY=             -0.0000  XXZ=              0.0000  XZZ=             -0.0000  YZZ=              0.0000
  YYZ=             -0.6399  XYZ=             -0.0000
 Hexadecapole moment (field-independent basis, Debye-Ang**3):
 XXXX=             -5.9749 YYYY=            -13.0175 ZZZZ=            -13.0175 XXXY=              0.0000
 XXXZ=              0.0000 YYYX=              0.0000 YYYZ=             -0.0000 ZZZX=              0.0000
 ZZZY=             -0.0000 XXYY=             -3.4422 XXZZ=             -3.4422 YYZZ=             -4.3392
 XXYZ=             -0.0000 YYXZ=              0.0000 ZZXY=              0.0000
 N-N= 9.568866297972D+00 E-N=-1.616889157800D+02  KE= 5.762053917835D+01
 Symmetry A    KE= 5.333610797003D+01
 Symmetry B    KE= 4.284431208325D+00
 Orbital energies and kinetic energies (alpha):
                                 1                 2
   1         O               -11.005317         15.630292
   2         O                -0.900751          1.314049
   3         O                -0.533342          0.963403
   4         O                -0.533342          0.963403
   5         O                -0.355237          1.477728
   6         V                 0.615654          2.326130
   7         V                 0.757338          2.185413
   8         V                 0.757338          2.185413
 Orbital energies and kinetic energies (beta):
                                 1                 2
   1         O               -10.973779         15.664682
   2         O                -0.790620          1.127850
   3         O                -0.516889          0.921650
   4         O                -0.516889          0.921650
   5         V                 0.336281          1.477728
   6         V                 0.677928          2.477939
   7         V                 0.784499          2.227166
   8         V                 0.784499          2.227166
 Total kinetic energy from orbitals= 3.898470700813D+01
                          Isotropic Fermi Contact Couplings
        Atom                 a.u.       MegaHertz       Gauss      10(-4) cm-1
     1  C(13)              0.21734     244.33597      87.18515      81.50171
     2  H(1)              -0.02872    -128.37478     -45.80731     -42.82122
     3  H(1)              -0.02872    -128.37478     -45.80731     -42.82122
     4  H(1)              -0.02872    -128.37478     -45.80731     -42.82122
 --------------------------------------------------------
       Center         ----  Spin Dipole Couplings  ----
                      3XX-RR        3YY-RR        3ZZ-RR
 --------------------------------------------------------
     1   Atom        1.207701     -0.603850     -0.603850
     2   Atom       -0.033964     -0.092798      0.126762
     3   Atom       -0.033964      0.071872     -0.037908
     4   Atom       -0.033964      0.071872     -0.037908
 --------------------------------------------------------
                        XY            XZ            YZ
 --------------------------------------------------------
     1   Atom        0.000000      0.000000     -0.000000
     2   Atom        0.000000      0.000000      0.000000
     3   Atom       -0.000000      0.000000     -0.095072
     4   Atom       -0.000000     -0.000000      0.095072
 --------------------------------------------------------


 ---------------------------------------------------------------------------------
              Anisotropic Spin Dipole Couplings in Principal Axis System
 ---------------------------------------------------------------------------------

       Atom             a.u.   MegaHertz   Gauss  10(-4) cm-1        Axes

              Baa    -0.6039   -81.031   -28.914   -27.029 -0.0000  0.0139  0.9999
     1 C(13)  Bbb    -0.6039   -81.031   -28.914   -27.029 -0.0000  0.9999 -0.0139
              Bcc     1.2077   162.062    57.828    54.058  1.0000  0.0000  0.0000
 
              Baa    -0.0928   -49.513   -17.667   -16.516 -0.0000  1.0000 -0.0000
     2 H(1)   Bbb    -0.0340   -18.121    -6.466    -6.045  1.0000  0.0000 -0.0000
              Bcc     0.1268    67.634    24.134    22.560  0.0000  0.0000  1.0000
 
              Baa    -0.0928   -49.513   -17.667   -16.516 -0.0000  0.5000  0.8660
     3 H(1)   Bbb    -0.0340   -18.121    -6.466    -6.045  1.0000  0.0000  0.0000
              Bcc     0.1268    67.634    24.134    22.560 -0.0000  0.8660 -0.5000
 
              Baa    -0.0928   -49.513   -17.667   -16.516  0.0000 -0.5000  0.8660
     4 H(1)   Bbb    -0.0340   -18.121    -6.466    -6.045  1.0000  0.0000  0.0000
              Bcc     0.1268    67.634    24.134    22.560 -0.0000  0.8660  0.5000
 

 ---------------------------------------------------------------------------------

 No NMR shielding tensors so no spin-rotation constants.
 Leave Link  601 at Sat Aug 17 18:02:11 2024, MaxMem=   13107200 cpu:       0.2
 (Enter /programs/64bit/g09/g09-gfortran/bin/l9999.exe)
 B after Tr=     0.000000   -0.000000    0.000000
         Rot=    0.707107   -0.000000    0.000000    0.707107 Ang=  90.00 deg.
 Atom   4 needs variable  -2= 120.0000000000 but is -120.0000000000
 Input z-matrix variables are not compatible with final structure.
 1\1\GINC-MOLMOD\FOpt\UMP2-FC\STO-3G\C1H3(2)\OSPITE\17-Aug-2024\0\\#p m
 p2/STO-3G opt freq symmetry=(follow,pg=C3v) pop=full gfinput\\methyl w
 ith imposed symmetry and hf/STO-3G basis function\\0,2\C,0.,0.,0.\H,0.
 ,0.,1.0912213883\H,0.9450254434,0.,-0.5456106941\H,-0.9450254434,0.,-0
 .5456106941\\Version=EM64L-G09RevA.02\State=2-B\HF=-39.0762778\MP2=-39
 .1150255\PUHF=-39.0800022\PMP2-0=-39.1175887\S2=0.766108\S2-1=0.756002
 \S2A=0.750166\RMSD=5.662e-09\RMSF=1.127e-04\Dipole=0.,0.,0.\PG=C02 [C2
 (C1H1),X(H2)]\\@


 MORNING PEOPLE ARE USUALLY ADMIRED AS EARLY BIRDS.
 RECALL BEN FRANKLIN'S APHORISM THAT THE EARLY BIRD GETS THE WORM.
 I IDENTIFY WITH THE WORM. --  CRAIG JAGGER, MINNEAPOLIS, KS.
 Leave Link 9999 at Sat Aug 17 18:02:11 2024, MaxMem=   13107200 cpu:       0.1
 Job cpu time:  0 days  0 hours  0 minutes  3.1 seconds.
 File lengths (MBytes):  RWF=      5 Int=      0 D2E=      0 Chk=      1 Scr=      1
 Normal termination of Gaussian 09 at Sat Aug 17 18:02:11 2024.
 (Enter /programs/64bit/g09/g09-gfortran/bin/l1.exe)
 Link1:  Proceeding to internal job step number  2.
 --------------------------------------------------------------------
 #P Geom=AllCheck Guess=TCheck SCRF=Check GenChk UMP2(FC)/STO-3G Freq
 --------------------------------------------------------------------
 1/10=4,29=7,30=1,38=1,40=1/1,3;
 2/12=2,40=1/2;
 3/6=3,11=2,14=-4,16=1,24=10,25=1,30=1,70=2,71=2,116=2/1,2,3;
 4/5=101/1;
 5/5=2,98=1/2;
 8/6=3,8=1,10=1,19=11,30=-1/1;
 9/15=3,16=-3/6;
[...]
              Anisotropic Spin Dipole Couplings in Principal Axis System
 ---------------------------------------------------------------------------------

       Atom             a.u.   MegaHertz   Gauss  10(-4) cm-1        Axes

              Baa    -0.6039   -81.031   -28.914   -27.029  1.0000  0.0000  0.0000
     1 C(13)  Bbb    -0.6039   -81.031   -28.914   -27.029 -0.0000  1.0000 -0.0000
              Bcc     1.2077   162.062    57.828    54.058  0.0000  0.0000  1.0000
 
              Baa    -0.0928   -49.513   -17.667   -16.516  1.0000  0.0000  0.0000
     2 H(1)   Bbb    -0.0340   -18.121    -6.466    -6.045  0.0000  0.0000  1.0000
              Bcc     0.1268    67.634    24.134    22.560 -0.0000  1.0000 -0.0000
 
              Baa    -0.0928   -49.513   -17.667   -16.516  0.5000  0.8660  0.0000
     3 H(1)   Bbb    -0.0340   -18.121    -6.466    -6.045  0.0000  0.0000  1.0000
              Bcc     0.1268    67.634    24.134    22.560  0.8660 -0.5000  0.0000
 
              Baa    -0.0928   -49.513   -17.667   -16.516 -0.5000  0.8660  0.0000
     4 H(1)   Bbb    -0.0340   -18.121    -6.466    -6.045  0.0000  0.0000  1.0000
              Bcc     0.1268    67.634    24.134    22.560  0.8660  0.5000 -0.0000
 

 ---------------------------------------------------------------------------------

 No NMR shielding tensors so no spin-rotation constants.
 Leave Link  601 at Sat Aug 17 18:02:14 2024, MaxMem=   13107200 cpu:       0.2
 (Enter /programs/64bit/g09/g09-gfortran/bin/l701.exe)
 Compute integral second derivatives.
 ... and contract with generalized density number  2.
 Leave Link  701 at Sat Aug 17 18:02:14 2024, MaxMem=   13107200 cpu:       0.1
 (Enter /programs/64bit/g09/g09-gfortran/bin/l702.exe)
 L702 exits ... SP integral derivatives will be done elsewhere.
 Leave Link  702 at Sat Aug 17 18:02:14 2024, MaxMem=   13107200 cpu:       0.0
 (Enter /programs/64bit/g09/g09-gfortran/bin/l703.exe)
 Compute integral second derivatives, UseDBF=F ICtDFT=           0.
 Integral derivatives from FoFDir, PRISM(SPDF).
 Calling FoFJK, ICntrl=    100127 FMM=F ISym2X=1 I1Cent= 0 IOpClX= 1 NMat=1 NMatS=1 NMatT=0.
 FoFCou: FMM=F IPFlag=           0 FMFlag=      100000 FMFlg1=         800
         NFxFlg=           0 DoJE=F BraDBF=F KetDBF=F FulRan=T
         Omega=  0.000000  0.000000  1.000000  0.000000  0.000000 ICntrl=  100127 IOpCl=  1
         NMat0=    1 NMatS0=    1 NMatT0=    0 NMatD0=    1 NMtDS0=    0 NMtDT0=    0
         I1Cent=           0 NGrid=           0.
 Petite list used in FoFCou.
 Leave Link  703 at Sat Aug 17 18:02:15 2024, MaxMem=   13107200 cpu:       0.4
 (Enter /programs/64bit/g09/g09-gfortran/bin/l716.exe)
 Dipole        = 5.55111512D-17-1.94289029D-16-3.99237196D-34
 Polarizability= 5.62789233D+00-2.23099642D-15 5.62789233D+00
                 3.04101776D-17-5.06403556D-17 1.78472196D+00
 Full mass-weighted force constant matrix:
 Low frequencies --- -475.9528   -0.0006    0.0003    0.0004   53.5349   53.5349
 Low frequencies ---   53.5349 1597.3661 1597.3661
 ******    1 imaginary frequencies (negative Signs) ****** 
 Diagonal vibrational polarizability:
        0.0055087       0.0055087       3.1005491
 Harmonic frequencies (cm**-1), IR intensities (KM/Mole), Raman scattering
 activities (A**4/AMU), depolarization ratios for plane and unpolarized
 incident light, reduced masses (AMU), force constants (mDyne/A),
 and normal coordinates:
                     1                      2                      3
                    A2"                    E'                     E'
 Frequencies --  -475.9528              1597.3661              1597.3661
 Red. masses --     1.2356                 1.0990                 1.0990
 Frc consts  --     0.1649                 1.6523                 1.6523
 IR Inten    --    26.0996                 0.5052                 0.5052
  Atom  AN      X      Y      Z        X      Y      Z        X      Y      Z
     1   6    -0.00   0.00   0.14    -0.01   0.09  -0.00    -0.09  -0.01  -0.00
     2   1     0.00  -0.00  -0.57     0.11   0.08   0.00     0.80  -0.01   0.00
     3   1     0.00   0.00  -0.57    -0.37  -0.53   0.00     0.19   0.46   0.00
     4   1     0.00  -0.00  -0.57     0.40  -0.63   0.00     0.09  -0.31   0.00
                     4                      5                      6
                    A1'                    E'                     E'
 Frequencies --  3413.5486              3692.9276              3692.9276
 Red. masses --     1.0078                 1.1215                 1.1215
 Frc consts  --     6.9191                 9.0112                 9.0112
 IR Inten    --     0.0000                 0.0916                 0.0916
  Atom  AN      X      Y      Z        X      Y      Z        X      Y      Z
     1   6    -0.00   0.00   0.00     0.10  -0.02  -0.00     0.02   0.10  -0.00
     2   1    -0.00   0.58  -0.00     0.01   0.14   0.00     0.00  -0.80   0.00
     3   1     0.50  -0.29  -0.00    -0.66   0.38   0.00     0.24  -0.13   0.00
     4   1    -0.50  -0.29  -0.00    -0.54  -0.31   0.00    -0.46  -0.26   0.00

 -------------------
 - Thermochemistry -
 -------------------
 Temperature   298.150 Kelvin.  Pressure   1.00000 Atm.
 Atom     1 has atomic number  6 and mass  12.00000
 Atom     2 has atomic number  1 and mass   1.00783
 Atom     3 has atomic number  1 and mass   1.00783
 Atom     4 has atomic number  1 and mass   1.00783
 Molecular mass:    15.02348 amu.
 Principal axes and moments of inertia in atomic units:
                           1         2         3
     Eigenvalues --     6.42836   6.42836  12.85671
           X           -0.50193   0.86491   0.00000
           Y            0.86491   0.50193   0.00000
           Z           -0.00000  -0.00000   1.00000
 This molecule is an oblate symmetric top.
 Rotational symmetry number  6.
 Rotational temperatures (Kelvin)     13.47371    13.47371     6.73686
 Rotational constants (GHZ):         280.74695   280.74695   140.37348
    1 imaginary frequencies ignored.
 Zero-point vibrational energy      83703.5 (Joules/Mol)
                                   20.00562 (Kcal/Mol)
 Vibrational temperatures:   2298.25  2298.25  4911.33  5313.29  5313.29
          (Kelvin)
 
 Zero-point correction=                           0.031881 (Hartree/Particle)
 Thermal correction to Energy=                    0.034720
 Thermal correction to Enthalpy=                  0.035664
 Thermal correction to Gibbs Free Energy=         0.013838
 Sum of electronic and zero-point Energies=            -39.083144
 Sum of electronic and thermal Energies=               -39.080305
 Sum of electronic and thermal Enthalpies=             -39.079361
 Sum of electronic and thermal Free Energies=          -39.101188
 
                     E (Thermal)             CV                S
                      KCal/Mol        Cal/Mol-Kelvin    Cal/Mol-Kelvin
 Total                   21.787              6.068             45.938
 Electronic               0.000              0.000              1.377
 Translational            0.889              2.981             34.068
 Rotational               0.889              2.981             10.477
 Vibrational             20.010              0.106              0.016
                       Q            Log10(Q)             Ln(Q)
 Total Bot       0.431704D-06         -6.364814        -14.655526
 Total V=0       0.199247D+09          8.299391         19.110054
 Vib (Bot)       0.216863D-14        -14.663815        -33.764682
 Vib (V=0)       0.100090D+01          0.000390          0.000898
 Electronic      0.200000D+01          0.301030          0.693147
 Translational   0.228882D+07          6.359611         14.643545
 Rotational      0.434871D+02          1.638360          3.772463
 
                                      methyl with imposed symmetry and hf/STO-3G 
 basis function
                                                             IR Spectrum
 
      3        3                                                              1                                                      
      6        4                                                              5                                                      
      9        1                                                              9                                                      
      3        4                                                              7                                                      
 
      X                                                                       X                                                      
      X                                                                       X                                                      
      X                                                                       X                                                      
      X                                                                       X                                                      
                                                                              X                                                      
                                                                              X                                                      
                                                                              X                                                      
                                                                              X                                                      
                                                                              X                                                      
                                                                              X                                                      
                                                                              X                                                      
                                                                              X                                                      
                                                                              X                                                      
                                                                              X                                                      
                                                                              X                                                      
                                                                              X                                                      
                                                                              X                                                      
                                                                              X                                                      
                                                                              X                                                      
                                                                              X                                                      
 
 ***** Axes restored to original set *****
 -------------------------------------------------------------------
 Center     Atomic                   Forces (Hartrees/Bohr)
 Number     Number              X              Y              Z
 -------------------------------------------------------------------
      1        6          -0.000000000    0.000000000   -0.000000000
      2        1          -0.000000000    0.000000000   -0.000225405
      3        1          -0.000195206   -0.000000000    0.000112702
      4        1           0.000195206    0.000000000    0.000112702
 -------------------------------------------------------------------
 Cartesian Forces:  Max     0.000225405 RMS     0.000112702
 Force constants in Cartesian coordinates: 
                1             2             3             4             5 
      1  0.790197D+00
      2  0.000000D+00 -0.207031D-01
      3  0.000000D+00  0.000000D+00  0.790197D+00
      4 -0.753931D-01  0.000000D+00  0.000000D+00  0.583955D-01
      5  0.000000D+00  0.690105D-02  0.000000D+00  0.000000D+00 -0.222748D-02
      6  0.000000D+00  0.000000D+00 -0.451405D+00  0.000000D+00  0.000000D+00
      7 -0.357402D+00  0.000000D+00  0.162818D+00  0.849882D-02  0.000000D+00
      8  0.000000D+00  0.690105D-02  0.000000D+00  0.000000D+00 -0.233679D-02
      9  0.162818D+00  0.000000D+00 -0.169396D+00  0.287447D-01  0.000000D+00
     10 -0.357402D+00  0.000000D+00 -0.162818D+00  0.849882D-02  0.000000D+00
     11  0.000000D+00  0.690105D-02  0.000000D+00  0.000000D+00 -0.233679D-02
     12 -0.162818D+00  0.000000D+00 -0.169396D+00 -0.287447D-01  0.000000D+00
                6             7             8             9            10 
      6  0.457172D+00
      7 -0.902993D-02  0.357478D+00
      8  0.000000D+00  0.000000D+00 -0.222748D-02
      9 -0.288352D-02 -0.172675D+00  0.000000D+00  0.158090D+00
     10  0.902993D-02 -0.857470D-02  0.000000D+00 -0.188873D-01  0.357478D+00
     11  0.000000D+00  0.000000D+00 -0.233679D-02  0.000000D+00  0.000000D+00
     12 -0.288352D-02  0.188873D-01  0.000000D+00  0.141900D-01  0.172675D+00
               11            12 
     11 -0.222748D-02
     12  0.000000D+00  0.158090D+00
 Force constants in internal coordinates: 
                1             2             3             4             5 
      1  0.457172D+00
      2 -0.637839D-02  0.457172D+00
      3 -0.637839D-02 -0.637839D-02  0.457172D+00
      4  0.481996D-02  0.481996D-02 -0.963991D-02  0.826167D-01
      5  0.481996D-02 -0.963991D-02  0.481996D-02 -0.413083D-01  0.826167D-01
      6 -0.963991D-02  0.481996D-02  0.481996D-02 -0.413083D-01 -0.413083D-01
      7  0.000000D+00  0.000000D+00  0.000000D+00  0.000000D+00  0.000000D+00
                6             7 
      6  0.826167D-01
      7  0.000000D+00 -0.745253D-02
 Leave Link  716 at Sat Aug 17 18:02:15 2024, MaxMem=   13107200 cpu:       0.0
 (Enter /programs/64bit/g09/g09-gfortran/bin/l103.exe)

 GradGradGradGradGradGradGradGradGradGradGradGradGradGradGradGradGradGrad
 Berny optimization.
 Internal  Forces:  Max     0.000225405 RMS     0.000147562
 Search for a local minimum.
 Step number   1 out of a maximum of    2
 All quantities printed in internal units (Hartrees-Bohrs-Radians)
 Second derivative matrix not updated -- analytic derivatives used.
 The second derivative matrix:
                          R1        R2        R3        A1        A2
           R1           0.45717
           R2          -0.00638   0.45717
           R3          -0.00638  -0.00638   0.45717
           A1           0.00482   0.00482  -0.00964   0.08262
           A2           0.00482  -0.00964   0.00482  -0.04131   0.08262
           A3          -0.00964   0.00482   0.00482  -0.04131  -0.04131
           D1          -0.00000  -0.00000   0.00000  -0.00000   0.00000
                          A3        D1
           A3           0.08262
           D1          -0.00000  -0.00745
     Eigenvalues ---   -0.00745   0.12331   0.12331   0.44442   0.46416
     Eigenvalues ---    0.464161000.00000
 Eigenvalue     1 is  -7.45D-03 should be greater than     0.000000 Eigenvector:
                          D1        R3        R2        A2        A1
   1                    1.00000  -0.00000   0.00000  -0.00000   0.00000
                          R1        A3
   1                    0.00000   0.00000
 Angle between quadratic step and forces=   0.00 degrees.
 Linear search not attempted -- first point.
 Iteration  1 RMS(Cart)=  0.00033204 RMS(Int)=  0.00000000
 Iteration  2 RMS(Cart)=  0.00000000 RMS(Int)=  0.00000000
 ClnCor:  largest displacement from symmetrization is 6.47D-15 for atom     4.
 Variable       Old X    -DE/DX   Delta X   Delta X   Delta X     New X
                                 (Linear)    (Quad)   (Total)
    R1        2.06211  -0.00023   0.00000  -0.00051  -0.00051   2.06160
    R2        2.06211  -0.00023   0.00000  -0.00051  -0.00051   2.06160
    R3        2.06211  -0.00023   0.00000  -0.00051  -0.00051   2.06160
    A1        2.09440  -0.00000   0.00000  -0.00000   0.00000   2.09440
    A2        2.09440   0.00000   0.00000   0.00000   0.00000   2.09440
    A3        2.09440  -0.00000   0.00000  -0.00000   0.00000   2.09440
    D1        3.14159   0.00000   0.00000  -0.00000   0.00000   3.14159
         Item               Value     Threshold  Converged?
 Maximum Force            0.000225     0.000450     YES
 RMS     Force            0.000148     0.000300     YES
 Maximum Displacement     0.000507     0.001800     YES
 RMS     Displacement     0.000332     0.001200     YES
 Predicted change in Energy=-1.714858D-07
 Optimization completed.
    -- Stationary point found.
                           ----------------------------
                           !   Optimized Parameters   !
                           ! (Angstroms and Degrees)  !
 --------------------------                            --------------------------
 ! Name  Definition              Value          Derivative Info.                !
 --------------------------------------------------------------------------------
 ! R1    R(1,2)                  1.0912         -DE/DX =   -0.0002              !
 ! R2    R(1,3)                  1.0912         -DE/DX =   -0.0002              !
 ! R3    R(1,4)                  1.0912         -DE/DX =   -0.0002              !
 ! A1    A(2,1,3)              120.0            -DE/DX =    0.0                 !
 ! A2    A(2,1,4)              120.0            -DE/DX =    0.0                 !
 ! A3    A(3,1,4)              120.0            -DE/DX =    0.0                 !
 ! D1    D(2,1,4,3)            180.0            -DE/DX =    0.0                 !
 --------------------------------------------------------------------------------
 GradGradGradGradGradGradGradGradGradGradGradGradGradGradGradGradGradGrad

 Leave Link  103 at Sat Aug 17 18:02:15 2024, MaxMem=   13107200 cpu:       0.0
 (Enter /programs/64bit/g09/g09-gfortran/bin/l9999.exe)
 1\1\GINC-MOLMOD\Freq\UMP2-FC\STO-3G\C1H3(2)\OSPITE\17-Aug-2024\0\\#P G
 eom=AllCheck Guess=TCheck SCRF=Check GenChk UMP2(FC)/STO-3G Freq\\meth
 yl with imposed symmetry and hf/STO-3G basis function\\0,2\C,0.,0.,0.\
 H,0.,0.,1.0912213883\H,0.9450254434,0.,-0.5456106941\H,-0.9450254434,0
 .,-0.5456106941\\Version=EM64L-G09RevA.02\State=2-A2"\HF=-39.0762778\M
 P2=-39.1150255\PUHF=-39.0774942\PMP2-0=-39.1161259\S2=0.766108\S2-1=0.
 763018\S2A=0.750166\RMSD=4.543e-11\RMSF=1.127e-04\ZeroPoint=0.031881\T
 hermal=0.0347201\Dipole=0.,0.,0.\DipoleDeriv=0.034905,0.,0.,0.,-0.2542
 726,0.,0.,0.,0.034905,-0.0176482,0.,0.,0.,0.0847575,0.,0.,0.,-0.005621
 8,-0.0086284,0.,-0.0052076,0.,0.0847575,0.,-0.0052076,0.,-0.0146416,-0
 .0086284,0.,0.0052076,0.,0.0847575,0.,0.0052076,0.,-0.0146416\Polar=5.
 6278923,0.,1.784722,0.,0.,5.6278923\PG=D03H [O(C1),3C2(H1)]\NImag=1\\0
 .79019687,0.,-0.02070315,0.,0.,0.79019687,-0.07539312,0.,0.,0.05839547
 ,0.,0.00690105,0.,0.,-0.00222748,0.,0.,-0.45140480,0.,0.,0.45717184,-0
 .35740188,0.,0.16281783,0.00849882,0.,-0.00902993,0.35747775,0.,0.0069
 0105,0.,0.,-0.00233679,0.,0.,-0.00222748,0.16281783,0.,-0.16939604,0.0
 2874473,0.,-0.00288352,-0.17267523,0.,0.15808956,-0.35740188,0.,-0.162
 81783,0.00849882,0.,0.00902993,-0.00857470,0.,-0.01888733,0.35747775,0
 .,0.00690105,0.,0.,-0.00233679,0.,0.,-0.00233679,0.,0.,-0.00222748,-0.
 16281783,0.,-0.16939604,-0.02874473,0.,-0.00288352,0.01888733,0.,0.014
 19000,0.17267523,0.,0.15808956\\0.,0.,0.,0.,0.,0.00022540,0.00019521,0
 .,-0.00011270,-0.00019521,0.,-0.00011270\\\@


 My opinions may have changed, but not the fact that I am right.
                       -- Ashleigh Brilliant
 Job cpu time:  0 days  0 hours  0 minutes  3.6 seconds.
 File lengths (MBytes):  RWF=     18 Int=      0 D2E=      0 Chk=      1 Scr=      1
 Normal termination of Gaussian 09 at Sat Aug 17 18:02:15 2024.
