 Entering Gaussian System, Link 0=/programs/64bit/g09/g09-gfortran/bin/g09
 Input=gas.com
 Output=gas.log
 Initial command:
 /programs/64bit/g09/g09-gfortran/bin/l1.exe /home/ospite/Desktop/MMfP/Project10/pKa_calcualtion/H2O/Gau-10424.inp -scrdir=/home/ospite/Desktop/MMfP/Project10/pKa_calcualtion/H2O/
 Entering Link 1 = /programs/64bit/g09/g09-gfortran/bin/l1.exe PID=     10425.
  
 Copyright (c) 1988,1990,1992,1993,1995,1998,2003,2009, Gaussian, Inc.
                  All Rights Reserved.
  
 This is part of the Gaussian(R) 09 program.  It is based on
 the Gaussian(R) 03 system (copyright 2003, Gaussian, Inc.),
 the Gaussian(R) 98 system (copyright 1998, Gaussian, Inc.),
 the Gaussian(R) 94 system (copyright 1995, Gaussian, Inc.),
 the Gaussian 92(TM) system (copyright 1992, Gaussian, Inc.),
 the Gaussian 90(TM) system (copyright 1990, Gaussian, Inc.),
 the Gaussian 88(TM) system (copyright 1988, Gaussian, Inc.),
 the Gaussian 86(TM) system (copyright 1986, Carnegie Mellon
 University), and the Gaussian 82(TM) system (copyright 1983,
 Carnegie Mellon University). Gaussian is a federally registered
 trademark of Gaussian, Inc.
  
 This software contains proprietary and confidential information,
 including trade secrets, belonging to Gaussian, Inc.
  
 This software is provided under written license and may be
 used, copied, transmitted, or stored only in accord with that
 written license.
  
 The following legend is applicable only to US Government
 contracts under FAR:
  
                    RESTRICTED RIGHTS LEGEND
  
 Use, reproduction and disclosure by the US Government is
 subject to restrictions as set forth in subparagraphs (a)
 and (c) of the Commercial Computer Software - Restricted
 Rights clause in FAR 52.227-19.
  
 Gaussian, Inc.
 340 Quinnipiac St., Bldg. 40, Wallingford CT 06492
  
  
 ---------------------------------------------------------------
 Warning -- This program may not be used in any manner that
 competes with the business of Gaussian, Inc. or will provide
 assistance to any competitor of Gaussian, Inc.  The licensee
 of this program is prohibited from giving any competitor of
 Gaussian, Inc. access to this program.  By using this program,
 the user acknowledges that Gaussian, Inc. is engaged in the
 business of creating and licensing software in the field of
 computational chemistry and represents and warrants to the
 licensee that it is not a competitor of Gaussian, Inc. and that
 it will not use this program in any manner prohibited above.
 ---------------------------------------------------------------
  

 Cite this work as:
 Gaussian 09, Revision A.02,
 M. J. Frisch, G. W. Trucks, H. B. Schlegel, G. E. Scuseria, 
 M. A. Robb, J. R. Cheeseman, G. Scalmani, V. Barone, B. Mennucci, 
 G. A. Petersson, H. Nakatsuji, M. Caricato, X. Li, H. P. Hratchian, 
 A. F. Izmaylov, J. Bloino, G. Zheng, J. L. Sonnenberg, M. Hada, 
 M. Ehara, K. Toyota, R. Fukuda, J. Hasegawa, M. Ishida, T. Nakajima, 
 Y. Honda, O. Kitao, H. Nakai, T. Vreven, J. A. Montgomery, Jr., 
 J. E. Peralta, F. Ogliaro, M. Bearpark, J. J. Heyd, E. Brothers, 
 K. N. Kudin, V. N. Staroverov, R. Kobayashi, J. Normand, 
 K. Raghavachari, A. Rendell, J. C. Burant, S. S. Iyengar, J. Tomasi, 
 M. Cossi, N. Rega, J. M. Millam, M. Klene, J. E. Knox, J. B. Cross, 
 V. Bakken, C. Adamo, J. Jaramillo, R. Gomperts, R. E. Stratmann, 
 O. Yazyev, A. J. Austin, R. Cammi, C. Pomelli, J. W. Ochterski, 
 R. L. Martin, K. Morokuma, V. G. Zakrzewski, G. A. Voth, 
 P. Salvador, J. J. Dannenberg, S. Dapprich, A. D. Daniels, 
 O. Farkas, J. B. Foresman, J. V. Ortiz, J. Cioslowski, 
 and D. J. Fox, Gaussian, Inc., Wallingford CT, 2009.
 
 ******************************************
 Gaussian 09:  EM64L-G09RevA.02 11-Jun-2009
                17-Sep-2024 
 ******************************************
 %mem=100Mb
 %nprocshared=2
 Will use up to    2 processors via shared memory.
 -----------------------------
 #p B3LYP/6-31+g(d,p) opt freq
 -----------------------------
 1/14=-1,18=20,19=15,26=3,38=1/1,3;
 2/9=110,12=2,17=6,18=5,40=1/2;
 3/5=1,6=6,7=111,11=2,16=1,25=1,30=1,71=1,74=-5/1,2,3;
 4//1;
 5/5=2,38=5/2;
 6/7=2,8=2,9=2,10=2,28=1/1;
 7//1,2,3,16;
 1/14=-1,18=20,19=15/3(2);
 2/9=110/2;
 99//99;
 2/9=110/2;
 3/5=1,6=6,7=111,11=2,16=1,25=1,30=1,71=1,74=-5/1,2,3;
 4/5=5,16=3/1;
 5/5=2,38=5/2;
 7//1,2,3,16;
 1/14=-1,18=20,19=15/3(-5);
 2/9=110/2;
 6/7=2,8=2,9=2,10=2,19=2,28=1/1;
 99/9=1/99;
 Leave Link    1 at Tue Sep 17 19:10:37 2024, MaxMem=   13107200 cpu:       0.1
 (Enter /programs/64bit/g09/g09-gfortran/bin/l101.exe)
 -------
 h2o gas
 -------
 Symbolic Z-matrix:
 Charge =  0 Multiplicity = 1
 o
 h                    1    ho2
 h                    1    ho3      2    hoh3
       Variables:
  ho2                   0.95                     
  ho3                   0.95                     
  hoh3                109.471                    
 
     1 tetrahedral angles replaced.
 NAtoms=      3 NQM=      3 NQMF=      0 NMic=      0 NMicF=      0 NTot=      3.
                    Isotopes and Nuclear Properties:
 (Nuclear quadrupole moments (NQMom) in fm**2, nuclear magnetic moments (NMagM)
  in nuclear magnetons)

  Atom         1           2           3
 IAtWgt=          16           1           1
 AtmWgt=  15.9949146   1.0078250   1.0078250
 NucSpn=           0           1           1
 AtZEff=   0.0000000   0.0000000   0.0000000
 NQMom=    0.0000000   0.0000000   0.0000000
 NMagM=    0.0000000   2.7928460   2.7928460
 Leave Link  101 at Tue Sep 17 19:10:37 2024, MaxMem=   13107200 cpu:       0.2
 (Enter /programs/64bit/g09/g09-gfortran/bin/l103.exe)

 GradGradGradGradGradGradGradGradGradGradGradGradGradGradGradGradGradGrad
 Berny optimization.
 Initialization pass.
                           ----------------------------
                           !    Initial Parameters    !
                           ! (Angstroms and Degrees)  !
 --------------------------                            --------------------------
 ! Name  Definition              Value          Derivative Info.                !
 --------------------------------------------------------------------------------
 ! R1    R(1,2)                  0.95           estimate D2E/DX2                !
 ! R2    R(1,3)                  0.95           estimate D2E/DX2                !
 ! A1    A(2,1,3)              109.4712         estimate D2E/DX2                !
 --------------------------------------------------------------------------------
 Trust Radius=3.00D-01 FncErr=1.00D-07 GrdErr=1.00D-06
 Number of steps in this run=  20 maximum allowed number of steps= 100.
 GradGradGradGradGradGradGradGradGradGradGradGradGradGradGradGradGradGrad

 Leave Link  103 at Tue Sep 17 19:10:37 2024, MaxMem=   13107200 cpu:       0.0
 (Enter /programs/64bit/g09/g09-gfortran/bin/l202.exe)
                          Input orientation:                          
 ---------------------------------------------------------------------
 Center     Atomic      Atomic             Coordinates (Angstroms)
 Number     Number       Type             X           Y           Z
 ---------------------------------------------------------------------
      1          8           0        0.000000    0.000000    0.000000
      2          1           0        0.000000    0.000000    0.950000
      3          1           0        0.895669    0.000000   -0.316667
 ---------------------------------------------------------------------
                    Distance matrix (angstroms):
                    1          2          3
     1  O    0.000000
     2  H    0.950000   0.000000
     3  H    0.950000   1.551344   0.000000
 Stoichiometry    H2O
 Framework group  C2V[C2(O),SGV(H2)]
 Deg. of freedom     2
 Full point group                 C2V     NOp   4
 Largest Abelian subgroup         C2V     NOp   4
 Largest concise Abelian subgroup C2      NOp   2
                         Standard orientation:                         
 ---------------------------------------------------------------------
 Center     Atomic      Atomic             Coordinates (Angstroms)
 Number     Number       Type             X           Y           Z
 ---------------------------------------------------------------------
      1          8           0        0.000000    0.000000    0.109697
      2          1           0       -0.000000    0.775672   -0.438786
      3          1           0       -0.000000   -0.775672   -0.438786
 ---------------------------------------------------------------------
 Rotational constants (GHZ):    938.4724000    416.7216900    288.5799218
 Leave Link  202 at Tue Sep 17 19:10:37 2024, MaxMem=   13107200 cpu:       0.0
 (Enter /programs/64bit/g09/g09-gfortran/bin/l301.exe)
 Standard basis: 6-31+G(d,p) (6D, 7F)
 Ernie: Thresh=  0.10000D-02 Tol=  0.10000D-05 Strict=F.
 There are    14 symmetry adapted basis functions of A1  symmetry.
 There are     2 symmetry adapted basis functions of A2  symmetry.
 There are     5 symmetry adapted basis functions of B1  symmetry.
 There are     8 symmetry adapted basis functions of B2  symmetry.
 Integral buffers will be    131072 words long.
 Raffenetti 2 integral format.
 Two-electron integral symmetry is turned on.
    29 basis functions,    46 primitive gaussians,    29 cartesian basis functions
     5 alpha electrons        5 beta electrons
       nuclear repulsion energy         9.2535672353 Hartrees.
 IExCor=  402 DFT=T Ex+Corr=B3LYP ExCW=0 ScaHFX=  0.200000
 ScaDFX=  0.800000  0.720000  1.000000  0.810000 ScalE2=  1.000000  1.000000
 IRadAn=      0 IRanWt=     -1 IRanGd=            0 ICorTp=0
 NAtoms=    3 NActive=    3 NUniq=    2 SFac= 1.69D+00 NAtFMM=   80 NAOKFM=F Big=F
 Leave Link  301 at Tue Sep 17 19:10:38 2024, MaxMem=   13107200 cpu:       0.1
 (Enter /programs/64bit/g09/g09-gfortran/bin/l302.exe)
 NPDir=0 NMtPBC=     1 NCelOv=     1 NCel=       1 NClECP=     1 NCelD=      1
         NCelK=      1 NCelE2=     1 NClLst=     1 CellRange=     0.0.
 One-electron integrals computed using PRISM.
 One-electron integral symmetry used in STVInt
 NBasis=    29 RedAO= T  NBF=    14     2     5     8
 NBsUse=    29 1.00D-06 NBFU=    14     2     5     8
 Precomputing XC quadrature grid using
 IXCGrd= 2 IRadAn=           0 IRanWt=          -1 IRanGd=           0 AccXCQ= 1.00D-10.
 NRdTot=     187 NPtTot=       23652 NUsed=       25013 NTot=       25045
 NSgBfM=    29    29    29    29    29 NAtAll=     3     3.
 Leave Link  302 at Tue Sep 17 19:10:38 2024, MaxMem=   13107200 cpu:       0.3
 (Enter /programs/64bit/g09/g09-gfortran/bin/l303.exe)
 DipDrv:  MaxL=1.
 Leave Link  303 at Tue Sep 17 19:10:38 2024, MaxMem=   13107200 cpu:       0.0
 (Enter /programs/64bit/g09/g09-gfortran/bin/l401.exe)
 Harris functional with IExCor=  402 diagonalized for initial guess.
 ExpMin= 8.45D-02 ExpMax= 5.48D+03 ExpMxC= 8.25D+02 IAcc=2 IRadAn=         0 AccDes= 0.00D+00
 HarFok:  IExCor=  402 AccDes= 0.00D+00 IRadAn=         0 IDoV= 1
 ScaDFX=  1.000000  1.000000  1.000000  1.000000
 FoFCou: FMM=F IPFlag=           0 FMFlag=      100000 FMFlg1=           0
         NFxFlg=           0 DoJE=T BraDBF=F KetDBF=T FulRan=T
         Omega=  0.000000  0.000000  1.000000  0.000000  0.000000 ICntrl=     500 IOpCl=  0
         NMat0=    1 NMatS0=    1 NMatT0=    0 NMatD0=    1 NMtDS0=    0 NMtDT0=    0
         I1Cent=           4 NGrid=           0.
 Petite list used in FoFCou.
 Harris En= -76.4712053693578    
 Initial guess orbital symmetries:
       Occupied  (A1) (A1) (B2) (A1) (B1)
       Virtual   (A1) (B2) (A1) (B1) (B2) (A1) (B2) (A1) (B1) (B2)
                 (A1) (A1) (A2) (A1) (B1) (A1) (B2) (B2) (B1) (A2)
                 (A1) (A1) (B2) (A1)
 The electronic state of the initial guess is 1-A1.
 Leave Link  401 at Tue Sep 17 19:10:39 2024, MaxMem=   13107200 cpu:       0.4
 (Enter /programs/64bit/g09/g09-gfortran/bin/l502.exe)
 Closed shell SCF:
 Requested convergence on RMS density matrix=1.00D-08 within 128 cycles.
 Requested convergence on MAX density matrix=1.00D-06.
 Requested convergence on             energy=1.00D-06.
 No special actions if energy rises.
 Using DIIS extrapolation, IDIIS=  1040.
 Integral symmetry usage will be decided dynamically.
        24973 words used for storage of precomputed grid.
 Keep R1 ints in memory in canonical form, NReq=999482.
 IEnd=       46098 IEndB=       46098 NGot=    13107200 MDV=    12983755
 LenX=    12983755 LenY=    12982473
 Symmetry not used in FoFDir.
 MinBra= 0 MaxBra= 2 Meth= 1.
 IRaf=       0 NMat=   1 IRICut=       1 DoRegI=T DoRafI=F ISym2E= 0 JSym2E=0.
 Integral accuracy reduced to 1.0D-05 until final iterations.

 Cycle   1  Pass 0  IDiag  1:
 E= -76.3571127763656    
 DIIS: error= 6.92D-02 at cycle   1 NSaved=   1.
 NSaved= 1 IEnMin= 1 EnMin= -76.3571127763656     IErMin= 1 ErrMin= 6.92D-02
 ErrMax= 6.92D-02 EMaxC= 1.00D-01 BMatC= 1.00D-01 BMatP= 1.00D-01
 IDIUse=3 WtCom= 3.08D-01 WtEn= 6.92D-01
 Coeff-Com:  0.100D+01
 Coeff-En:   0.100D+01
 Coeff:      0.100D+01
 Gap=     0.201 Goal=   None    Shift=    0.000
 GapD=    0.201 DampG=1.000 DampE=0.500 DampFc=0.5000 IDamp=-1.
 Damping current iteration by 5.00D-01
 RMSDP=1.65D-02 MaxDP=1.84D-01              OVMax= 2.26D-01

 Cycle   2  Pass 0  IDiag  1:
 E= -76.3710951524332     Delta-E=       -0.013982376068 Rises=F Damp=T
 DIIS: error= 2.60D-02 at cycle   2 NSaved=   2.
 NSaved= 2 IEnMin= 2 EnMin= -76.3710951524332     IErMin= 2 ErrMin= 2.60D-02
 ErrMax= 2.60D-02 EMaxC= 1.00D-01 BMatC= 1.30D-02 BMatP= 1.00D-01
 IDIUse=3 WtCom= 7.40D-01 WtEn= 2.60D-01
 Coeff-Com:  0.256D+00 0.744D+00
 Coeff-En:   0.417D+00 0.583D+00
 Coeff:      0.298D+00 0.702D+00
 Gap=     0.332 Goal=   None    Shift=    0.000
 RMSDP=2.16D-03 MaxDP=1.98D-02 DE=-1.40D-02 OVMax= 1.45D-01

 Cycle   3  Pass 0  IDiag  1:
 E= -76.4330977688534     Delta-E=       -0.062002616420 Rises=F Damp=F
 DIIS: error= 4.18D-03 at cycle   3 NSaved=   3.
 NSaved= 3 IEnMin= 3 EnMin= -76.4330977688534     IErMin= 3 ErrMin= 4.18D-03
 ErrMax= 4.18D-03 EMaxC= 1.00D-01 BMatC= 4.48D-04 BMatP= 1.30D-02
 IDIUse=3 WtCom= 9.58D-01 WtEn= 4.18D-02
 Coeff-Com:  0.568D-01-0.148D-01 0.958D+00
 Coeff-En:   0.000D+00 0.000D+00 0.100D+01
 Coeff:      0.545D-01-0.142D-01 0.960D+00
 Gap=     0.349 Goal=   None    Shift=    0.000
 RMSDP=3.40D-04 MaxDP=4.13D-03 DE=-6.20D-02 OVMax= 4.38D-03

 Cycle   4  Pass 0  IDiag  1:
 E= -76.4333913104879     Delta-E=       -0.000293541634 Rises=F Damp=F
 DIIS: error= 4.12D-04 at cycle   4 NSaved=   4.
 NSaved= 4 IEnMin= 4 EnMin= -76.4333913104879     IErMin= 4 ErrMin= 4.12D-04
 ErrMax= 4.12D-04 EMaxC= 1.00D-01 BMatC= 4.07D-06 BMatP= 4.48D-04
 IDIUse=3 WtCom= 9.96D-01 WtEn= 4.12D-03
 Coeff-Com:  0.835D-02-0.211D-01 0.197D+00 0.816D+00
 Coeff-En:   0.000D+00 0.000D+00 0.000D+00 0.100D+01
 Coeff:      0.832D-02-0.210D-01 0.196D+00 0.817D+00
 Gap=     0.350 Goal=   None    Shift=    0.000
 RMSDP=3.01D-05 MaxDP=2.48D-04 DE=-2.94D-04 OVMax= 4.39D-04

 Cycle   5  Pass 0  IDiag  1:
 E= -76.4333940786208     Delta-E=       -0.000002768133 Rises=F Damp=F
 DIIS: error= 1.48D-04 at cycle   5 NSaved=   5.
 NSaved= 5 IEnMin= 5 EnMin= -76.4333940786208     IErMin= 5 ErrMin= 1.48D-04
 ErrMax= 1.48D-04 EMaxC= 1.00D-01 BMatC= 4.22D-07 BMatP= 4.07D-06
 IDIUse=3 WtCom= 9.99D-01 WtEn= 1.48D-03
 Coeff-Com:  0.213D-02-0.303D-02 0.163D-01 0.679D-01 0.917D+00
 Coeff-En:   0.000D+00 0.000D+00 0.000D+00 0.000D+00 0.100D+01
 Coeff:      0.213D-02-0.303D-02 0.162D-01 0.678D-01 0.917D+00
 Gap=     0.350 Goal=   None    Shift=    0.000
 RMSDP=1.23D-05 MaxDP=1.35D-04 DE=-2.77D-06 OVMax= 1.69D-04

 Cycle   6  Pass 0  IDiag  1:
 E= -76.4333944025890     Delta-E=       -0.000000323968 Rises=F Damp=F
 DIIS: error= 1.30D-05 at cycle   6 NSaved=   6.
 NSaved= 6 IEnMin= 6 EnMin= -76.4333944025890     IErMin= 6 ErrMin= 1.30D-05
 ErrMax= 1.30D-05 EMaxC= 1.00D-01 BMatC= 3.12D-09 BMatP= 4.22D-07
 IDIUse=1 WtCom= 1.00D+00 WtEn= 0.00D+00
 Coeff-Com:  0.987D-06 0.542D-08-0.336D-03-0.511D-02-0.727D-01 0.108D+01
 Coeff:      0.987D-06 0.542D-08-0.336D-03-0.511D-02-0.727D-01 0.108D+01
 Gap=     0.350 Goal=   None    Shift=    0.000
 RMSDP=1.11D-06 MaxDP=1.38D-05 DE=-3.24D-07 OVMax= 1.70D-05

 Initial convergence to 1.0D-05 achieved.  Increase integral accuracy.
 Cycle   7  Pass 1  IDiag  1:
 E= -76.4333906467690     Delta-E=        0.000003755820 Rises=F Damp=F
 DIIS: error= 2.90D-06 at cycle   1 NSaved=   1.
 NSaved= 1 IEnMin= 1 EnMin= -76.4333906467690     IErMin= 1 ErrMin= 2.90D-06
 ErrMax= 2.90D-06 EMaxC= 1.00D-01 BMatC= 1.14D-10 BMatP= 1.14D-10
 IDIUse=1 WtCom= 1.00D+00 WtEn= 0.00D+00
 Coeff-Com:  0.100D+01
 Coeff:      0.100D+01
 Gap=     0.350 Goal=   None    Shift=    0.000
 RMSDP=1.11D-06 MaxDP=1.38D-05 DE= 3.76D-06 OVMax= 1.31D-05

 Cycle   8  Pass 1  IDiag  1:
 E= -76.4333906469957     Delta-E=       -0.000000000227 Rises=F Damp=F
 DIIS: error= 8.68D-07 at cycle   2 NSaved=   2.
 NSaved= 2 IEnMin= 2 EnMin= -76.4333906469957     IErMin= 2 ErrMin= 8.68D-07
 ErrMax= 8.68D-07 EMaxC= 1.00D-01 BMatC= 1.51D-11 BMatP= 1.14D-10
 IDIUse=1 WtCom= 1.00D+00 WtEn= 0.00D+00
 Coeff-Com:  0.889D-01 0.911D+00
 Coeff:      0.889D-01 0.911D+00
 Gap=     0.350 Goal=   None    Shift=    0.000
 RMSDP=1.81D-07 MaxDP=2.18D-06 DE=-2.27D-10 OVMax= 2.76D-06

 Cycle   9  Pass 1  IDiag  1:
 E= -76.4333906469906     Delta-E=        0.000000000005 Rises=F Damp=F
 DIIS: error= 1.15D-06 at cycle   3 NSaved=   3.
 NSaved= 3 IEnMin= 2 EnMin= -76.4333906469957     IErMin= 2 ErrMin= 8.68D-07
 ErrMax= 1.15D-06 EMaxC= 1.00D-01 BMatC= 2.53D-11 BMatP= 1.51D-11
 IDIUse=1 WtCom= 1.00D+00 WtEn= 0.00D+00
 Coeff-Com: -0.283D-01 0.582D+00 0.446D+00
 Coeff:     -0.283D-01 0.582D+00 0.446D+00
 Gap=     0.350 Goal=   None    Shift=    0.000
 RMSDP=9.10D-08 MaxDP=1.21D-06 DE= 5.12D-12 OVMax= 1.43D-06

 Cycle  10  Pass 1  IDiag  1:
 E= -76.4333906470086     Delta-E=       -0.000000000018 Rises=F Damp=F
 DIIS: error= 1.84D-08 at cycle   4 NSaved=   4.
 NSaved= 4 IEnMin= 4 EnMin= -76.4333906470086     IErMin= 4 ErrMin= 1.84D-08
 ErrMax= 1.84D-08 EMaxC= 1.00D-01 BMatC= 1.07D-14 BMatP= 1.51D-11
 IDIUse=1 WtCom= 1.00D+00 WtEn= 0.00D+00
 Coeff-Com: -0.427D-02 0.185D-01 0.160D-01 0.970D+00
 Coeff:     -0.427D-02 0.185D-01 0.160D-01 0.970D+00
 Gap=     0.350 Goal=   None    Shift=    0.000
 RMSDP=4.54D-09 MaxDP=4.43D-08 DE=-1.80D-11 OVMax= 7.20D-08

 SCF Done:  E(RB3LYP) =  -76.4333906470     A.U. after   10 cycles
             Convg  =    0.4536D-08             -V/T =  2.0086
 KE= 7.577892796230D+01 PE=-1.988228017647D+02 EE= 3.735691592008D+01
 Leave Link  502 at Tue Sep 17 19:10:40 2024, MaxMem=   13107200 cpu:       0.9
 (Enter /programs/64bit/g09/g09-gfortran/bin/l601.exe)
 Copying SCF densities to generalized density rwf, IOpCl= 0 IROHF=0.

 **********************************************************************

            Population analysis using the SCF density.

 **********************************************************************

 Orbital symmetries:
       Occupied  (A1) (A1) (B2) (A1) (B1)
       Virtual   (A1) (B2) (A1) (B1) (B2) (A1) (B2) (A1) (B2) (B1)
                 (A1) (A1) (A2) (A1) (B1) (B2) (A1) (B2) (B1) (A2)
                 (A1) (A1) (B2) (A1)
 The electronic state is 1-A1.
 Alpha  occ. eigenvalues --  -19.16607  -1.02622  -0.55480  -0.38868  -0.32158
 Alpha virt. eigenvalues --    0.02831   0.11485   0.15486   0.15505   0.21629
 Alpha virt. eigenvalues --    0.24012   0.91902   0.99540   1.08597   1.11325
 Alpha virt. eigenvalues --    1.11389   1.22524   1.49661   1.56120   1.64238
 Alpha virt. eigenvalues --    2.23108   2.24815   2.54424   2.63706   2.67327
 Alpha virt. eigenvalues --    3.05693   3.35274   3.51176   3.94188
          Condensed to atoms (all electrons):
              1          2          3
     1  O    8.134858   0.291771   0.291771
     2  H    0.291771   0.373794  -0.024766
     3  H    0.291771  -0.024766   0.373794
 Mulliken atomic charges:
              1
     1  O   -0.718401
     2  H    0.359201
     3  H    0.359201
 Sum of Mulliken atomic charges =  -0.00000
 Mulliken charges with hydrogens summed into heavy atoms:
              1
     1  O   -0.000000
 Sum of Mulliken charges with hydrogens summed into heavy atoms =  -0.00000
 Electronic spatial extent (au):  <R**2>=             19.9512
 Charge=             -0.0000 electrons
 Dipole moment (field-independent basis, Debye):
    X=             -0.0000    Y=             -0.0000    Z=             -2.1226  Tot=              2.1226
 Quadrupole moment (field-independent basis, Debye-Ang):
   XX=             -7.8556   YY=             -4.2444   ZZ=             -6.6432
   XY=              0.0000   XZ=              0.0000   YZ=             -0.0000
 Traceless Quadrupole moment (field-independent basis, Debye-Ang):
   XX=             -1.6079   YY=              2.0033   ZZ=             -0.3954
   XY=              0.0000   XZ=              0.0000   YZ=             -0.0000
 Octapole moment (field-independent basis, Debye-Ang**2):
  XXX=              0.0000  YYY=              0.0000  ZZZ=             -1.5520  XYY=             -0.0000
  XXY=             -0.0000  XXZ=             -0.4700  XZZ=              0.0000  YZZ=             -0.0000
  YYZ=             -1.3772  XYZ=             -0.0000
 Hexadecapole moment (field-independent basis, Debye-Ang**3):
 XXXX=             -7.9280 YYYY=             -6.2704 ZZZZ=             -8.0753 XXXY=             -0.0000
 XXXZ=             -0.0000 YYYX=              0.0000 YYYZ=             -0.0000 ZZZX=             -0.0000
 ZZZY=             -0.0000 XXYY=             -2.6710 XXZZ=             -2.7090 YYZZ=             -2.1376
 XXYZ=              0.0000 YYXZ=              0.0000 ZZXY=              0.0000
 N-N= 9.253567235346D+00 E-N=-1.988228016755D+02  KE= 7.577892796230D+01
 Symmetry A1   KE= 6.768800974102D+01
 Symmetry A2   KE= 1.315093432388D-36
 Symmetry B1   KE= 4.459863373491D+00
 Symmetry B2   KE= 3.631054847782D+00
 No NMR shielding tensors so no spin-rotation constants.
 Leave Link  601 at Tue Sep 17 19:10:40 2024, MaxMem=   13107200 cpu:       0.2
 (Enter /programs/64bit/g09/g09-gfortran/bin/l701.exe)
 Compute integral first derivatives.
 ... and contract with generalized density number  0.
 Leave Link  701 at Tue Sep 17 19:10:40 2024, MaxMem=   13107200 cpu:       0.3
 (Enter /programs/64bit/g09/g09-gfortran/bin/l702.exe)
 L702 exits ... SP integral derivatives will be done elsewhere.
 Leave Link  702 at Tue Sep 17 19:10:40 2024, MaxMem=   13107200 cpu:       0.1
 (Enter /programs/64bit/g09/g09-gfortran/bin/l703.exe)
 Compute integral first derivatives, UseDBF=F ICtDFT=           0.
 Integral derivatives from FoFDir, PRISM(SPDF).
 Calling FoFJK, ICntrl=      2127 FMM=F ISym2X=1 I1Cent= 0 IOpClX= 0 NMat=1 NMatS=1 NMatT=0.
 FoFCou: FMM=F IPFlag=           0 FMFlag=      100000 FMFlg1=         800
         NFxFlg=           0 DoJE=F BraDBF=F KetDBF=F FulRan=T
         Omega=  0.000000  0.000000  1.000000  0.000000  0.000000 ICntrl=    2127 IOpCl=  0
         NMat0=    1 NMatS0=    1 NMatT0=    0 NMatD0=    1 NMtDS0=    0 NMtDT0=    0
         I1Cent=           0 NGrid=           0.
 Petite list used in FoFCou.
 Leave Link  703 at Tue Sep 17 19:10:41 2024, MaxMem=   13107200 cpu:       0.7
 (Enter /programs/64bit/g09/g09-gfortran/bin/l716.exe)
 Dipole        =-5.66566907D-17 0.00000000D+00-8.35104511D-01
 ***** Axes restored to original set *****
 -------------------------------------------------------------------
 Center     Atomic                   Forces (Hartrees/Bohr)
 Number     Number              X              Y              Z
 -------------------------------------------------------------------
      1        8          -0.019210431    0.000000000   -0.013583826
      2        1           0.004491527   -0.000000000    0.014023761
      3        1           0.014718904   -0.000000000   -0.000439935
 -------------------------------------------------------------------
 Cartesian Forces:  Max     0.019210431 RMS     0.010473460
 Leave Link  716 at Tue Sep 17 19:10:41 2024, MaxMem=   13107200 cpu:       0.0
 (Enter /programs/64bit/g09/g09-gfortran/bin/l103.exe)

 GradGradGradGradGradGradGradGradGradGradGradGradGradGradGradGradGradGrad
 Berny optimization.
 Internal  Forces:  Max     0.014023761 RMS     0.012360551
 Search for a local minimum.
 Step number   1 out of a maximum of   20
 All quantities printed in internal units (Hartrees-Bohrs-Radians)
 RMS Force = .12361D-01 SwitMx=.10000D-02 MixMth= 1
 Mixed Optimization -- RFO/linear search
 Second derivative matrix not updated -- first step.
 The second derivative matrix:
                          R1        R2        A1
           R1           0.57681
           R2           0.00000   0.57681
           A1           0.00000   0.00000   0.16000
     Eigenvalues ---    0.16000   0.57681   0.57681
 RFO step:  Lambda=-1.08425473D-03 EMin= 1.60000000D-01
 Linear search not attempted -- first point.
 Iteration  1 RMS(Cart)=  0.02441705 RMS(Int)=  0.00059850
 Iteration  2 RMS(Cart)=  0.00066843 RMS(Int)=  0.00000015
 Iteration  3 RMS(Cart)=  0.00000010 RMS(Int)=  0.00000000
 ClnCor:  largest displacement from symmetrization is 5.58D-16 for atom     1.
 Variable       Old X    -DE/DX   Delta X   Delta X   Delta X     New X
                                 (Linear)    (Quad)   (Total)
    R1        1.79524   0.01402   0.00000   0.02427   0.02427   1.81951
    R2        1.79524   0.01402   0.00000   0.02427   0.02427   1.81951
    A1        1.91063  -0.00806   0.00000  -0.05006  -0.05006   1.86058
         Item               Value     Threshold  Converged?
 Maximum Force            0.014024     0.000450     NO 
 RMS     Force            0.012361     0.000300     NO 
 Maximum Displacement     0.027685     0.001800     NO 
 RMS     Displacement     0.024636     0.001200     NO 
 Predicted change in Energy=-5.441242D-04
 GradGradGradGradGradGradGradGradGradGradGradGradGradGradGradGradGradGrad

 Leave Link  103 at Tue Sep 17 19:10:41 2024, MaxMem=   13107200 cpu:       0.0
 (Enter /programs/64bit/g09/g09-gfortran/bin/l202.exe)
                          Input orientation:                          
 ---------------------------------------------------------------------
 Center     Atomic      Atomic             Coordinates (Angstroms)
 Number     Number       Type             X           Y           Z
 ---------------------------------------------------------------------
      1          8           0       -0.014650   -0.000000   -0.010359
      2          1           0        0.009446   -0.000000    0.952181
      3          1           0        0.900873    0.000000   -0.308488
 ---------------------------------------------------------------------
                    Distance matrix (angstroms):
                    1          2          3
     1  O    0.000000
     2  H    0.962842   0.000000
     3  H    0.962842   1.543998   0.000000
 Stoichiometry    H2O
 Framework group  C2V[C2(O),SGV(H2)]
 Deg. of freedom     2
 Full point group                 C2V     NOp   4
 Largest Abelian subgroup         C2V     NOp   4
 Largest concise Abelian subgroup C2      NOp   2
                         Standard orientation:                         
 ---------------------------------------------------------------------
 Center     Atomic      Atomic             Coordinates (Angstroms)
 Number     Number       Type             X           Y           Z
 ---------------------------------------------------------------------
      1          8           0        0.000000    0.000000    0.115079
      2          1           0        0.000000    0.771999   -0.460318
      3          1           0       -0.000000   -0.771999   -0.460318
 ---------------------------------------------------------------------
 Rotational constants (GHZ):    852.7316930    420.6963836    281.7129181
 Leave Link  202 at Tue Sep 17 19:10:41 2024, MaxMem=   13107200 cpu:       0.0
 (Enter /programs/64bit/g09/g09-gfortran/bin/l301.exe)
 Standard basis: 6-31+G(d,p) (6D, 7F)
 Ernie: Thresh=  0.10000D-02 Tol=  0.10000D-05 Strict=F.
 There are    14 symmetry adapted basis functions of A1  symmetry.
 There are     2 symmetry adapted basis functions of A2  symmetry.
 There are     5 symmetry adapted basis functions of B1  symmetry.
 There are     8 symmetry adapted basis functions of B2  symmetry.
 Integral buffers will be    131072 words long.
 Raffenetti 2 integral format.
 Two-electron integral symmetry is turned on.
    29 basis functions,    46 primitive gaussians,    29 cartesian basis functions
     5 alpha electrons        5 beta electrons
       nuclear repulsion energy         9.1363237128 Hartrees.
 IExCor=  402 DFT=T Ex+Corr=B3LYP ExCW=0 ScaHFX=  0.200000
 ScaDFX=  0.800000  0.720000  1.000000  0.810000 ScalE2=  1.000000  1.000000
 IRadAn=      0 IRanWt=     -1 IRanGd=            0 ICorTp=0
 NAtoms=    3 NActive=    3 NUniq=    2 SFac= 1.69D+00 NAtFMM=   80 NAOKFM=F Big=F
 Leave Link  301 at Tue Sep 17 19:10:41 2024, MaxMem=   13107200 cpu:       0.1
 (Enter /programs/64bit/g09/g09-gfortran/bin/l302.exe)
 NPDir=0 NMtPBC=     1 NCelOv=     1 NCel=       1 NClECP=     1 NCelD=      1
         NCelK=      1 NCelE2=     1 NClLst=     1 CellRange=     0.0.
 One-electron integrals computed using PRISM.
 One-electron integral symmetry used in STVInt
 NBasis=    29 RedAO= T  NBF=    14     2     5     8
 NBsUse=    29 1.00D-06 NBFU=    14     2     5     8
 Precomputing XC quadrature grid using
 IXCGrd= 2 IRadAn=           0 IRanWt=          -1 IRanGd=           0 AccXCQ= 1.00D-10.
 NRdTot=     187 NPtTot=       23652 NUsed=       25013 NTot=       25045
 NSgBfM=    29    29    29    29    29 NAtAll=     3     3.
 Leave Link  302 at Tue Sep 17 19:10:42 2024, MaxMem=   13107200 cpu:       0.3
 (Enter /programs/64bit/g09/g09-gfortran/bin/l303.exe)
 DipDrv:  MaxL=1.
 Leave Link  303 at Tue Sep 17 19:10:42 2024, MaxMem=   13107200 cpu:       0.0
 (Enter /programs/64bit/g09/g09-gfortran/bin/l401.exe)
 Initial guess read from the read-write file.
 B after Tr=     0.000000    0.000000    0.000000
         Rot=    1.000000    0.000000    0.000000    0.000000 Ang=   0.00 deg.
 Guess basis will be translated and rotated to current coordinates.
 Initial guess orbital symmetries:
       Occupied  (A1) (A1) (B2) (A1) (B1)
       Virtual   (A1) (B2) (A1) (B1) (B2) (A1) (B2) (A1) (B2) (B1)
                 (A1) (A1) (A2) (A1) (B1) (B2) (A1) (B2) (B1) (A2)
                 (A1) (A1) (B2) (A1)
 The electronic state of the initial guess is 1-A1.
 Generating alternative initial guess.
 Harris functional with IExCor=  402 diagonalized for initial guess.
 ExpMin= 8.45D-02 ExpMax= 5.48D+03 ExpMxC= 8.25D+02 IAcc=2 IRadAn=         0 AccDes= 0.00D+00
 HarFok:  IExCor=  402 AccDes= 0.00D+00 IRadAn=         0 IDoV= 1
 ScaDFX=  1.000000  1.000000  1.000000  1.000000
 FoFCou: FMM=F IPFlag=           0 FMFlag=      100000 FMFlg1=           0
         NFxFlg=           0 DoJE=T BraDBF=F KetDBF=T FulRan=T
         Omega=  0.000000  0.000000  1.000000  0.000000  0.000000 ICntrl=     500 IOpCl=  0
         NMat0=    1 NMatS0=    1 NMatT0=    0 NMatD0=    1 NMtDS0=    0 NMtDT0=    0
         I1Cent=           4 NGrid=           0.
 Petite list used in FoFCou.
 Harris En= -76.4705515479185    
 Leave Link  401 at Tue Sep 17 19:10:42 2024, MaxMem=   13107200 cpu:       0.5
 (Enter /programs/64bit/g09/g09-gfortran/bin/l502.exe)
 Closed shell SCF:
 Requested convergence on RMS density matrix=1.00D-08 within 128 cycles.
 Requested convergence on MAX density matrix=1.00D-06.
 Requested convergence on             energy=1.00D-06.
 No special actions if energy rises.
 Using DIIS extrapolation, IDIIS=  1040.
 Integral symmetry usage will be decided dynamically.
        24973 words used for storage of precomputed grid.
 Keep R1 ints in memory in canonical form, NReq=999482.
 IEnd=       46098 IEndB=       46098 NGot=    13107200 MDV=    12983755
 LenX=    12983755 LenY=    12982473
 Symmetry not used in FoFDir.
 MinBra= 0 MaxBra= 2 Meth= 1.
 IRaf=       0 NMat=   1 IRICut=       1 DoRegI=T DoRafI=F ISym2E= 0 JSym2E=0.
 Integral accuracy reduced to 1.0D-05 until final iterations.

 Cycle   1  Pass 0  IDiag  1:
 E= -76.4338132817536    
 DIIS: error= 2.31D-03 at cycle   1 NSaved=   1.
 NSaved= 1 IEnMin= 1 EnMin= -76.4338132817536     IErMin= 1 ErrMin= 2.31D-03
 ErrMax= 2.31D-03 EMaxC= 1.00D-01 BMatC= 1.65D-04 BMatP= 1.65D-04
 IDIUse=3 WtCom= 9.77D-01 WtEn= 2.31D-02
 Coeff-Com:  0.100D+01
 Coeff-En:   0.100D+01
 Coeff:      0.100D+01
 Gap=     0.345 Goal=   None    Shift=    0.000
 GapD=    0.345 DampG=1.000 DampE=1.000 DampFc=1.0000 IDamp=-1.
 RMSDP=7.86D-04 MaxDP=6.13D-03              OVMax= 8.24D-03

 Cycle   2  Pass 0  IDiag  1:
 E= -76.4339867169021     Delta-E=       -0.000173435148 Rises=F Damp=F
 DIIS: error= 1.69D-03 at cycle   2 NSaved=   2.
 NSaved= 2 IEnMin= 2 EnMin= -76.4339867169021     IErMin= 2 ErrMin= 1.69D-03
 ErrMax= 1.69D-03 EMaxC= 1.00D-01 BMatC= 5.72D-05 BMatP= 1.65D-04
 IDIUse=3 WtCom= 9.83D-01 WtEn= 1.69D-02
 Coeff-Com:  0.296D+00 0.704D+00
 Coeff-En:   0.000D+00 0.100D+01
 Coeff:      0.291D+00 0.709D+00
 Gap=     0.348 Goal=   None    Shift=    0.000
 RMSDP=2.44D-04 MaxDP=3.13D-03 DE=-1.73D-04 OVMax= 3.56D-03

 Cycle   3  Pass 0  IDiag  1:
 E= -76.4339997970820     Delta-E=       -0.000013080180 Rises=F Damp=F
 DIIS: error= 1.34D-03 at cycle   3 NSaved=   3.
 NSaved= 3 IEnMin= 3 EnMin= -76.4339997970820     IErMin= 3 ErrMin= 1.34D-03
 ErrMax= 1.34D-03 EMaxC= 1.00D-01 BMatC= 3.99D-05 BMatP= 5.72D-05
 IDIUse=3 WtCom= 9.87D-01 WtEn= 1.34D-02
 Coeff-Com: -0.260D-01 0.460D+00 0.566D+00
 Coeff-En:   0.000D+00 0.422D+00 0.578D+00
 Coeff:     -0.256D-01 0.460D+00 0.566D+00
 Gap=     0.347 Goal=   None    Shift=    0.000
 RMSDP=1.22D-04 MaxDP=1.38D-03 DE=-1.31D-05 OVMax= 1.59D-03

 Cycle   4  Pass 0  IDiag  1:
 E= -76.4340283632550     Delta-E=       -0.000028566173 Rises=F Damp=F
 DIIS: error= 3.97D-05 at cycle   4 NSaved=   4.
 NSaved= 4 IEnMin= 4 EnMin= -76.4340283632550     IErMin= 4 ErrMin= 3.97D-05
 ErrMax= 3.97D-05 EMaxC= 1.00D-01 BMatC= 2.81D-08 BMatP= 3.99D-05
 IDIUse=1 WtCom= 1.00D+00 WtEn= 0.00D+00
 Coeff-Com: -0.745D-02 0.861D-01 0.109D+00 0.812D+00
 Coeff:     -0.745D-02 0.861D-01 0.109D+00 0.812D+00
 Gap=     0.347 Goal=   None    Shift=    0.000
 RMSDP=3.97D-06 MaxDP=2.07D-05 DE=-2.86D-05 OVMax= 5.68D-05

 Initial convergence to 1.0D-05 achieved.  Increase integral accuracy.
 Cycle   5  Pass 1  IDiag  1:
 E= -76.4340247125791     Delta-E=        0.000003650676 Rises=F Damp=F
 DIIS: error= 4.09D-06 at cycle   1 NSaved=   1.
 NSaved= 1 IEnMin= 1 EnMin= -76.4340247125791     IErMin= 1 ErrMin= 4.09D-06
 ErrMax= 4.09D-06 EMaxC= 1.00D-01 BMatC= 4.13D-10 BMatP= 4.13D-10
 IDIUse=1 WtCom= 1.00D+00 WtEn= 0.00D+00
 Coeff-Com:  0.100D+01
 Coeff:      0.100D+01
 Gap=     0.347 Goal=   None    Shift=    0.000
 RMSDP=3.97D-06 MaxDP=2.07D-05 DE= 3.65D-06 OVMax= 1.60D-05

 Cycle   6  Pass 1  IDiag  1:
 E= -76.4340247131236     Delta-E=       -0.000000000545 Rises=F Damp=F
 DIIS: error= 2.24D-06 at cycle   2 NSaved=   2.
 NSaved= 2 IEnMin= 2 EnMin= -76.4340247131236     IErMin= 2 ErrMin= 2.24D-06
 ErrMax= 2.24D-06 EMaxC= 1.00D-01 BMatC= 1.14D-10 BMatP= 4.13D-10
 IDIUse=1 WtCom= 1.00D+00 WtEn= 0.00D+00
 Coeff-Com:  0.308D+00 0.692D+00
 Coeff:      0.308D+00 0.692D+00
 Gap=     0.347 Goal=   None    Shift=    0.000
 RMSDP=3.16D-07 MaxDP=3.83D-06 DE=-5.45D-10 OVMax= 4.75D-06

 Cycle   7  Pass 1  IDiag  1:
 E= -76.4340247131737     Delta-E=       -0.000000000050 Rises=F Damp=F
 DIIS: error= 1.48D-06 at cycle   3 NSaved=   3.
 NSaved= 3 IEnMin= 3 EnMin= -76.4340247131737     IErMin= 3 ErrMin= 1.48D-06
 ErrMax= 1.48D-06 EMaxC= 1.00D-01 BMatC= 5.24D-11 BMatP= 1.14D-10
 IDIUse=1 WtCom= 1.00D+00 WtEn= 0.00D+00
 Coeff-Com:  0.791D-01 0.411D+00 0.510D+00
 Coeff:      0.791D-01 0.411D+00 0.510D+00
 Gap=     0.347 Goal=   None    Shift=    0.000
 RMSDP=1.51D-07 MaxDP=1.87D-06 DE=-5.01D-11 OVMax= 2.24D-06

 Cycle   8  Pass 1  IDiag  1:
 E= -76.4340247132112     Delta-E=       -0.000000000038 Rises=F Damp=F
 DIIS: error= 2.23D-07 at cycle   4 NSaved=   4.
 NSaved= 4 IEnMin= 4 EnMin= -76.4340247132112     IErMin= 4 ErrMin= 2.23D-07
 ErrMax= 2.23D-07 EMaxC= 1.00D-01 BMatC= 7.02D-13 BMatP= 5.24D-11
 IDIUse=1 WtCom= 1.00D+00 WtEn= 0.00D+00
 Coeff-Com: -0.197D-01 0.859D-02 0.112D+00 0.899D+00
 Coeff:     -0.197D-01 0.859D-02 0.112D+00 0.899D+00
 Gap=     0.347 Goal=   None    Shift=    0.000
 RMSDP=2.72D-08 MaxDP=3.22D-07 DE=-3.76D-11 OVMax= 4.83D-07

 Cycle   9  Pass 1  IDiag  1:
 E= -76.4340247132118     Delta-E=       -0.000000000001 Rises=F Damp=F
 DIIS: error= 8.15D-09 at cycle   5 NSaved=   5.
 NSaved= 5 IEnMin= 5 EnMin= -76.4340247132118     IErMin= 5 ErrMin= 8.15D-09
 ErrMax= 8.15D-09 EMaxC= 1.00D-01 BMatC= 9.28D-16 BMatP= 7.02D-13
 IDIUse=1 WtCom= 1.00D+00 WtEn= 0.00D+00
 Coeff-Com:  0.645D-03-0.355D-02-0.511D-02-0.357D-01 0.104D+01
 Coeff:      0.645D-03-0.355D-02-0.511D-02-0.357D-01 0.104D+01
 Gap=     0.347 Goal=   None    Shift=    0.000
 RMSDP=1.21D-09 MaxDP=1.40D-08 DE=-5.97D-13 OVMax= 1.82D-08

 SCF Done:  E(RB3LYP) =  -76.4340247132     A.U. after    9 cycles
             Convg  =    0.1208D-08             -V/T =  2.0092
 KE= 7.573855171524D+01 PE=-1.985699708522D+02 EE= 3.726107071094D+01
 Leave Link  502 at Tue Sep 17 19:10:43 2024, MaxMem=   13107200 cpu:       0.9
 (Enter /programs/64bit/g09/g09-gfortran/bin/l701.exe)
 Compute integral first derivatives.
 ... and contract with generalized density number  0.
 Leave Link  701 at Tue Sep 17 19:10:44 2024, MaxMem=   13107200 cpu:       0.3
 (Enter /programs/64bit/g09/g09-gfortran/bin/l702.exe)
 L702 exits ... SP integral derivatives will be done elsewhere.
 Leave Link  702 at Tue Sep 17 19:10:44 2024, MaxMem=   13107200 cpu:       0.0
 (Enter /programs/64bit/g09/g09-gfortran/bin/l703.exe)
 Compute integral first derivatives, UseDBF=F ICtDFT=           0.
 Integral derivatives from FoFDir, PRISM(SPDF).
 Calling FoFJK, ICntrl=      2127 FMM=F ISym2X=1 I1Cent= 0 IOpClX= 0 NMat=1 NMatS=1 NMatT=0.
 FoFCou: FMM=F IPFlag=           0 FMFlag=      100000 FMFlg1=         800
         NFxFlg=           0 DoJE=F BraDBF=F KetDBF=F FulRan=T
         Omega=  0.000000  0.000000  1.000000  0.000000  0.000000 ICntrl=    2127 IOpCl=  0
         NMat0=    1 NMatS0=    1 NMatT0=    0 NMatD0=    1 NMtDS0=    0 NMtDT0=    0
         I1Cent=           0 NGrid=           0.
 Petite list used in FoFCou.
 Leave Link  703 at Tue Sep 17 19:10:45 2024, MaxMem=   13107200 cpu:       0.8
 (Enter /programs/64bit/g09/g09-gfortran/bin/l716.exe)
 Dipole        =-5.64038154D-17-4.44089210D-16-8.57481133D-01
 ***** Axes restored to original set *****
 -------------------------------------------------------------------
 Center     Atomic                   Forces (Hartrees/Bohr)
 Number     Number              X              Y              Z
 -------------------------------------------------------------------
      1        8          -0.003249203    0.000000000   -0.002297533
      2        1           0.001166209   -0.000000000    0.001797031
      3        1           0.002082994   -0.000000000    0.000500502
 -------------------------------------------------------------------
 Cartesian Forces:  Max     0.003249203 RMS     0.001667157
 Leave Link  716 at Tue Sep 17 19:10:45 2024, MaxMem=   13107200 cpu:       0.0
 (Enter /programs/64bit/g09/g09-gfortran/bin/l103.exe)

 GradGradGradGradGradGradGradGradGradGradGradGradGradGradGradGradGradGrad
 Berny optimization.
 Using GEDIIS/GDIIS optimizer.
 Internal  Forces:  Max     0.002039433 RMS     0.001899589
 Search for a local minimum.
 Step number   2 out of a maximum of   20
 All quantities printed in internal units (Hartrees-Bohrs-Radians)
 RMS Force = .18996D-02 SwitMx=.10000D-02 MixMth= 1
 Mixed Optimization -- RFO/linear search
 Update second derivatives using D2CorX and points    1    2
 DE= -6.34D-04 DEPred=-5.44D-04 R= 1.17D+00
 SS=  1.41D+00  RLast= 6.07D-02 DXNew= 5.0454D-01 1.8207D-01
 Trust test= 1.17D+00 RLast= 6.07D-02 DXMaxT set to 3.00D-01
 The second derivative matrix:
                          R1        R2        A1
           R1           0.56196
           R2          -0.01485   0.56196
           A1           0.02154   0.02154   0.14123
 Use linear search instead of GDIIS.
     Eigenvalues ---    0.13896   0.54938   0.57681
 RFO step:  Lambda=-6.22061040D-06 EMin= 1.38956172D-01
 Quartic linear search produced a step of  0.21950.
 Iteration  1 RMS(Cart)=  0.00810224 RMS(Int)=  0.00005292
 Iteration  2 RMS(Cart)=  0.00005522 RMS(Int)=  0.00000000
 Iteration  3 RMS(Cart)=  0.00000000 RMS(Int)=  0.00000000
 ClnCor:  largest displacement from symmetrization is 1.67D-15 for atom     3.
 Variable       Old X    -DE/DX   Delta X   Delta X   Delta X     New X
                                 (Linear)    (Quad)   (Total)
    R1        1.81951   0.00183   0.00533  -0.00129   0.00404   1.82355
    R2        1.81951   0.00183   0.00533  -0.00129   0.00404   1.82355
    A1        1.86058  -0.00204  -0.01099  -0.00521  -0.01620   1.84438
         Item               Value     Threshold  Converged?
 Maximum Force            0.002039     0.000450     NO 
 RMS     Force            0.001900     0.000300     NO 
 Maximum Displacement     0.007740     0.001800     NO 
 RMS     Displacement     0.008129     0.001200     NO 
 Predicted change in Energy=-2.314849D-05
 GradGradGradGradGradGradGradGradGradGradGradGradGradGradGradGradGradGrad

 Leave Link  103 at Tue Sep 17 19:10:45 2024, MaxMem=   13107200 cpu:       0.0
 (Enter /programs/64bit/g09/g09-gfortran/bin/l202.exe)
                          Input orientation:                          
 ---------------------------------------------------------------------
 Center     Atomic      Atomic             Coordinates (Angstroms)
 Number     Number       Type             X           Y           Z
 ---------------------------------------------------------------------
      1          8           0       -0.018746   -0.000000   -0.013255
      2          1           0        0.013215   -0.000000    0.951195
      3          1           0        0.901200    0.000000   -0.304606
 ---------------------------------------------------------------------
                    Distance matrix (angstroms):
                    1          2          3
     1  O    0.000000
     2  H    0.964980   0.000000
     3  H    0.964980   1.538035   0.000000
 Stoichiometry    H2O
 Framework group  C2V[C2(O),SGV(H2)]
 Deg. of freedom     2
 Full point group                 C2V     NOp   4
 Largest Abelian subgroup         C2V     NOp   4
 Largest concise Abelian subgroup C2      NOp   2
                         Standard orientation:                         
 ---------------------------------------------------------------------
 Center     Atomic      Atomic             Coordinates (Angstroms)
 Number     Number       Type             X           Y           Z
 ---------------------------------------------------------------------
      1          8           0        0.000000    0.000000    0.116584
      2          1           0       -0.000000    0.769018   -0.466337
      3          1           0       -0.000000   -0.769018   -0.466337
 ---------------------------------------------------------------------
 Rotational constants (GHZ):    830.8591901    423.9644356    280.7205255
 Leave Link  202 at Tue Sep 17 19:10:45 2024, MaxMem=   13107200 cpu:       0.0
 (Enter /programs/64bit/g09/g09-gfortran/bin/l301.exe)
 Standard basis: 6-31+G(d,p) (6D, 7F)
 Ernie: Thresh=  0.10000D-02 Tol=  0.10000D-05 Strict=F.
 There are    14 symmetry adapted basis functions of A1  symmetry.
 There are     2 symmetry adapted basis functions of A2  symmetry.
 There are     5 symmetry adapted basis functions of B1  symmetry.
 There are     8 symmetry adapted basis functions of B2  symmetry.
 Integral buffers will be    131072 words long.
 Raffenetti 2 integral format.
 Two-electron integral symmetry is turned on.
    29 basis functions,    46 primitive gaussians,    29 cartesian basis functions
     5 alpha electrons        5 beta electrons
       nuclear repulsion energy         9.1181689786 Hartrees.
 IExCor=  402 DFT=T Ex+Corr=B3LYP ExCW=0 ScaHFX=  0.200000
 ScaDFX=  0.800000  0.720000  1.000000  0.810000 ScalE2=  1.000000  1.000000
 IRadAn=      0 IRanWt=     -1 IRanGd=            0 ICorTp=0
 NAtoms=    3 NActive=    3 NUniq=    2 SFac= 1.69D+00 NAtFMM=   80 NAOKFM=F Big=F
 Leave Link  301 at Tue Sep 17 19:10:45 2024, MaxMem=   13107200 cpu:       0.1
 (Enter /programs/64bit/g09/g09-gfortran/bin/l302.exe)
 NPDir=0 NMtPBC=     1 NCelOv=     1 NCel=       1 NClECP=     1 NCelD=      1
         NCelK=      1 NCelE2=     1 NClLst=     1 CellRange=     0.0.
 One-electron integrals computed using PRISM.
 One-electron integral symmetry used in STVInt
 NBasis=    29 RedAO= T  NBF=    14     2     5     8
 NBsUse=    29 1.00D-06 NBFU=    14     2     5     8
 Precomputing XC quadrature grid using
 IXCGrd= 2 IRadAn=           0 IRanWt=          -1 IRanGd=           0 AccXCQ= 1.00D-10.
 NRdTot=     187 NPtTot=       23652 NUsed=       25013 NTot=       25045
 NSgBfM=    29    29    29    29    29 NAtAll=     3     3.
 Leave Link  302 at Tue Sep 17 19:10:45 2024, MaxMem=   13107200 cpu:       0.3
 (Enter /programs/64bit/g09/g09-gfortran/bin/l303.exe)
 DipDrv:  MaxL=1.
 Leave Link  303 at Tue Sep 17 19:10:45 2024, MaxMem=   13107200 cpu:       0.0
 (Enter /programs/64bit/g09/g09-gfortran/bin/l401.exe)
 Initial guess read from the read-write file.
 B after Tr=     0.000000    0.000000    0.000000
         Rot=    1.000000    0.000000    0.000000    0.000000 Ang=   0.00 deg.
 Guess basis will be translated and rotated to current coordinates.
 Initial guess orbital symmetries:
       Occupied  (A1) (A1) (B2) (A1) (B1)
       Virtual   (A1) (B2) (A1) (B1) (B2) (A1) (B2) (A1) (B2) (B1)
                 (A1) (A1) (A2) (A1) (B1) (A1) (B2) (B2) (A2) (B1)
                 (A1) (A1) (B2) (A1)
 The electronic state of the initial guess is 1-A1.
 Leave Link  401 at Tue Sep 17 19:10:46 2024, MaxMem=   13107200 cpu:       0.2
 (Enter /programs/64bit/g09/g09-gfortran/bin/l502.exe)
 Closed shell SCF:
 Requested convergence on RMS density matrix=1.00D-08 within 128 cycles.
 Requested convergence on MAX density matrix=1.00D-06.
 Requested convergence on             energy=1.00D-06.
 No special actions if energy rises.
 Using DIIS extrapolation, IDIIS=  1040.
 Integral symmetry usage will be decided dynamically.
        24973 words used for storage of precomputed grid.
 Keep R1 ints in memory in canonical form, NReq=999482.
 IEnd=       46098 IEndB=       46098 NGot=    13107200 MDV=    12983755
 LenX=    12983755 LenY=    12982473
 Symmetry not used in FoFDir.
 MinBra= 0 MaxBra= 2 Meth= 1.
 IRaf=       0 NMat=   1 IRICut=       1 DoRegI=T DoRafI=F ISym2E= 0 JSym2E=0.

 Cycle   1  Pass 1  IDiag  1:
 E= -76.4340338309445    
 DIIS: error= 6.25D-04 at cycle   1 NSaved=   1.
 NSaved= 1 IEnMin= 1 EnMin= -76.4340338309445     IErMin= 1 ErrMin= 6.25D-04
 ErrMax= 6.25D-04 EMaxC= 1.00D-01 BMatC= 1.01D-05 BMatP= 1.01D-05
 IDIUse=3 WtCom= 9.94D-01 WtEn= 6.25D-03
 Coeff-Com:  0.100D+01
 Coeff-En:   0.100D+01
 Coeff:      0.100D+01
 Gap=     0.346 Goal=   None    Shift=    0.000
 RMSDP=2.13D-04 MaxDP=1.60D-03              OVMax= 2.09D-03

 Cycle   2  Pass 1  IDiag  1:
 E= -76.4340462435359     Delta-E=       -0.000012412591 Rises=F Damp=F
 DIIS: error= 2.92D-04 at cycle   2 NSaved=   2.
 NSaved= 2 IEnMin= 2 EnMin= -76.4340462435359     IErMin= 2 ErrMin= 2.92D-04
 ErrMax= 2.92D-04 EMaxC= 1.00D-01 BMatC= 1.74D-06 BMatP= 1.01D-05
 IDIUse=3 WtCom= 9.97D-01 WtEn= 2.92D-03
 Coeff-Com:  0.164D+00 0.836D+00
 Coeff-En:   0.000D+00 0.100D+01
 Coeff:      0.163D+00 0.837D+00
 Gap=     0.347 Goal=   None    Shift=    0.000
 RMSDP=5.04D-05 MaxDP=6.37D-04 DE=-1.24D-05 OVMax= 7.25D-04

 Cycle   3  Pass 1  IDiag  1:
 E= -76.4340458494040     Delta-E=        0.000000394132 Rises=F Damp=F
 DIIS: error= 3.28D-04 at cycle   3 NSaved=   3.
 NSaved= 3 IEnMin= 2 EnMin= -76.4340462435359     IErMin= 2 ErrMin= 2.92D-04
 ErrMax= 3.28D-04 EMaxC= 1.00D-01 BMatC= 2.35D-06 BMatP= 1.74D-06
 IDIUse=3 WtCom= 3.56D-01 WtEn= 6.44D-01
 Coeff-Com: -0.314D-01 0.549D+00 0.482D+00
 Coeff-En:   0.000D+00 0.556D+00 0.444D+00
 Coeff:     -0.112D-01 0.554D+00 0.458D+00
 Gap=     0.346 Goal=   None    Shift=    0.000
 RMSDP=2.82D-05 MaxDP=3.18D-04 DE= 3.94D-07 OVMax= 3.61D-04

 Cycle   4  Pass 1  IDiag  1:
 E= -76.4340475328432     Delta-E=       -0.000001683439 Rises=F Damp=F
 DIIS: error= 8.98D-06 at cycle   4 NSaved=   4.
 NSaved= 4 IEnMin= 4 EnMin= -76.4340475328432     IErMin= 4 ErrMin= 8.98D-06
 ErrMax= 8.98D-06 EMaxC= 1.00D-01 BMatC= 2.19D-09 BMatP= 1.74D-06
 IDIUse=1 WtCom= 1.00D+00 WtEn= 0.00D+00
 Coeff-Com: -0.383D-02 0.389D-01 0.785D-02 0.957D+00
 Coeff:     -0.383D-02 0.389D-01 0.785D-02 0.957D+00
 Gap=     0.346 Goal=   None    Shift=    0.000
 RMSDP=1.49D-06 MaxDP=1.21D-05 DE=-1.68D-06 OVMax= 1.72D-05

 Cycle   5  Pass 1  IDiag  1:
 E= -76.4340475346323     Delta-E=       -0.000000001789 Rises=F Damp=F
 DIIS: error= 1.05D-06 at cycle   5 NSaved=   5.
 NSaved= 5 IEnMin= 5 EnMin= -76.4340475346323     IErMin= 5 ErrMin= 1.05D-06
 ErrMax= 1.05D-06 EMaxC= 1.00D-01 BMatC= 2.26D-11 BMatP= 2.19D-09
 IDIUse=1 WtCom= 1.00D+00 WtEn= 0.00D+00
 Coeff-Com:  0.206D-03-0.970D-02-0.130D-01 0.167D+00 0.856D+00
 Coeff:      0.206D-03-0.970D-02-0.130D-01 0.167D+00 0.856D+00
 Gap=     0.346 Goal=   None    Shift=    0.000
 RMSDP=1.74D-07 MaxDP=1.73D-06 DE=-1.79D-09 OVMax= 1.89D-06

 Cycle   6  Pass 1  IDiag  1:
 E= -76.4340475346517     Delta-E=       -0.000000000019 Rises=F Damp=F
 DIIS: error= 1.16D-07 at cycle   6 NSaved=   6.
 NSaved= 6 IEnMin= 6 EnMin= -76.4340475346517     IErMin= 6 ErrMin= 1.16D-07
 ErrMax= 1.16D-07 EMaxC= 1.00D-01 BMatC= 2.48D-13 BMatP= 2.26D-11
 IDIUse=1 WtCom= 1.00D+00 WtEn= 0.00D+00
 Coeff-Com:  0.249D-04-0.214D-03 0.412D-03-0.103D-01-0.127D-01 0.102D+01
 Coeff:      0.249D-04-0.214D-03 0.412D-03-0.103D-01-0.127D-01 0.102D+01
 Gap=     0.346 Goal=   None    Shift=    0.000
 RMSDP=1.40D-08 MaxDP=1.30D-07 DE=-1.94D-11 OVMax= 1.70D-07

 Cycle   7  Pass 1  IDiag  1:
 E= -76.4340475346520     Delta-E=       -0.000000000000 Rises=F Damp=F
 DIIS: error= 3.56D-09 at cycle   7 NSaved=   7.
 NSaved= 7 IEnMin= 7 EnMin= -76.4340475346520     IErMin= 7 ErrMin= 3.56D-09
 ErrMax= 3.56D-09 EMaxC= 1.00D-01 BMatC= 1.98D-16 BMatP= 2.48D-13
 IDIUse=1 WtCom= 1.00D+00 WtEn= 0.00D+00
 Coeff-Com: -0.163D-05 0.391D-04-0.192D-05 0.180D-03-0.127D-02-0.754D-01
 Coeff-Com:  0.108D+01
 Coeff:     -0.163D-05 0.391D-04-0.192D-05 0.180D-03-0.127D-02-0.754D-01
 Coeff:      0.108D+01
 Gap=     0.346 Goal=   None    Shift=    0.000
 RMSDP=9.03D-10 MaxDP=1.03D-08 DE=-3.13D-13 OVMax= 1.70D-08

 SCF Done:  E(RB3LYP) =  -76.4340475347     A.U. after    7 cycles
             Convg  =    0.9028D-09             -V/T =  2.0093
 KE= 7.573308297520D+01 PE=-1.985303390483D+02 EE= 3.724503955988D+01
 Leave Link  502 at Tue Sep 17 19:10:47 2024, MaxMem=   13107200 cpu:       0.9
 (Enter /programs/64bit/g09/g09-gfortran/bin/l701.exe)
 Compute integral first derivatives.
 ... and contract with generalized density number  0.
 Leave Link  701 at Tue Sep 17 19:10:47 2024, MaxMem=   13107200 cpu:       0.3
 (Enter /programs/64bit/g09/g09-gfortran/bin/l702.exe)
 L702 exits ... SP integral derivatives will be done elsewhere.
 Leave Link  702 at Tue Sep 17 19:10:47 2024, MaxMem=   13107200 cpu:       0.0
 (Enter /programs/64bit/g09/g09-gfortran/bin/l703.exe)
 Compute integral first derivatives, UseDBF=F ICtDFT=           0.
 Integral derivatives from FoFDir, PRISM(SPDF).
 Calling FoFJK, ICntrl=      2127 FMM=F ISym2X=1 I1Cent= 0 IOpClX= 0 NMat=1 NMatS=1 NMatT=0.
 FoFCou: FMM=F IPFlag=           0 FMFlag=      100000 FMFlg1=         800
         NFxFlg=           0 DoJE=F BraDBF=F KetDBF=F FulRan=T
         Omega=  0.000000  0.000000  1.000000  0.000000  0.000000 ICntrl=    2127 IOpCl=  0
         NMat0=    1 NMatS0=    1 NMatT0=    0 NMatD0=    1 NMtDS0=    0 NMtDT0=    0
         I1Cent=           0 NGrid=           0.
 Petite list used in FoFCou.
 Leave Link  703 at Tue Sep 17 19:10:48 2024, MaxMem=   13107200 cpu:       0.7
 (Enter /programs/64bit/g09/g09-gfortran/bin/l716.exe)
 Dipole        =-5.61087645D-17 0.00000000D+00-8.64056696D-01
 ***** Axes restored to original set *****
 -------------------------------------------------------------------
 Center     Atomic                   Forces (Hartrees/Bohr)
 Number     Number              X              Y              Z
 -------------------------------------------------------------------
      1        8           0.000008081    0.000000000    0.000005714
      2        1          -0.000107927   -0.000000000    0.000144060
      3        1           0.000099846   -0.000000000   -0.000149775
 -------------------------------------------------------------------
 Cartesian Forces:  Max     0.000149775 RMS     0.000084919
 Leave Link  716 at Tue Sep 17 19:10:48 2024, MaxMem=   13107200 cpu:       0.0
 (Enter /programs/64bit/g09/g09-gfortran/bin/l103.exe)

 GradGradGradGradGradGradGradGradGradGradGradGradGradGradGradGradGradGrad
 Berny optimization.
 Using GEDIIS/GDIIS optimizer.
 Internal  Forces:  Max     0.000205403 RMS     0.000164943
 Search for a local minimum.
 Step number   3 out of a maximum of   20
 All quantities printed in internal units (Hartrees-Bohrs-Radians)
 RMS Force = .16494D-03 SwitMx=.10000D-02 MixMth= 2
 Mixed Optimization -- En-DIIS/RFO-DIIS
 Update second derivatives using D2CorX and points    1    2    3
 DE= -2.28D-05 DEPred=-2.31D-05 R= 9.86D-01
 SS=  1.41D+00  RLast= 1.72D-02 DXNew= 5.0454D-01 5.1525D-02
 Trust test= 9.86D-01 RLast= 1.72D-02 DXMaxT set to 3.00D-01
 The second derivative matrix:
                          R1        R2        A1
           R1           0.54702
           R2          -0.02979   0.54702
           A1           0.02498   0.02498   0.15106
 Use linear search instead of GDIIS.
     Eigenvalues ---    0.14768   0.52061   0.57681
 RFO step:  Lambda=-2.27382473D-07 EMin= 1.47683406D-01
 Quartic linear search produced a step of -0.04374.
 Iteration  1 RMS(Cart)=  0.00081097 RMS(Int)=  0.00000032
 Iteration  2 RMS(Cart)=  0.00000024 RMS(Int)=  0.00000000
 ClnCor:  largest displacement from symmetrization is 1.35D-15 for atom     3.
 Variable       Old X    -DE/DX   Delta X   Delta X   Delta X     New X
                                 (Linear)    (Quad)   (Total)
    R1        1.82355   0.00014  -0.00018   0.00039   0.00021   1.82376
    R2        1.82355   0.00014  -0.00018   0.00039   0.00021   1.82376
    A1        1.84438   0.00021   0.00071   0.00058   0.00129   1.84567
         Item               Value     Threshold  Converged?
 Maximum Force            0.000205     0.000450     YES
 RMS     Force            0.000165     0.000300     YES
 Maximum Displacement     0.000871     0.001800     YES
 RMS     Displacement     0.000811     0.001200     YES
 Predicted change in Energy=-1.619088D-07
 Optimization completed.
    -- Stationary point found.
                           ----------------------------
                           !   Optimized Parameters   !
                           ! (Angstroms and Degrees)  !
 --------------------------                            --------------------------
 ! Name  Definition              Value          Derivative Info.                !
 --------------------------------------------------------------------------------
 ! R1    R(1,2)                  0.965          -DE/DX =    0.0001              !
 ! R2    R(1,3)                  0.965          -DE/DX =    0.0001              !
 ! A1    A(2,1,3)              105.6752         -DE/DX =    0.0002              !
 --------------------------------------------------------------------------------
 GradGradGradGradGradGradGradGradGradGradGradGradGradGradGradGradGradGrad

 Largest change from initial coordinates is atom    2       0.028 Angstoms.
 Leave Link  103 at Tue Sep 17 19:10:48 2024, MaxMem=   13107200 cpu:       0.0
 (Enter /programs/64bit/g09/g09-gfortran/bin/l202.exe)
                          Input orientation:                          
 ---------------------------------------------------------------------
 Center     Atomic      Atomic             Coordinates (Angstroms)
 Number     Number       Type             X           Y           Z
 ---------------------------------------------------------------------
      1          8           0       -0.018746   -0.000000   -0.013255
      2          1           0        0.013215   -0.000000    0.951195
      3          1           0        0.901200    0.000000   -0.304606
 ---------------------------------------------------------------------
                    Distance matrix (angstroms):
                    1          2          3
     1  O    0.000000
     2  H    0.964980   0.000000
     3  H    0.964980   1.538035   0.000000
 Stoichiometry    H2O
 Framework group  C2V[C2(O),SGV(H2)]
 Deg. of freedom     2
 Full point group                 C2V     NOp   4
 Largest Abelian subgroup         C2V     NOp   4
 Largest concise Abelian subgroup C2      NOp   2
                         Standard orientation:                         
 ---------------------------------------------------------------------
 Center     Atomic      Atomic             Coordinates (Angstroms)
 Number     Number       Type             X           Y           Z
 ---------------------------------------------------------------------
      1          8           0       -0.000000    0.000000    0.116584
      2          1           0        0.000000    0.769018   -0.466337
      3          1           0       -0.000000   -0.769018   -0.466337
 ---------------------------------------------------------------------
 Rotational constants (GHZ):    830.8591901    423.9644356    280.7205255
 Leave Link  202 at Tue Sep 17 19:10:48 2024, MaxMem=   13107200 cpu:       0.0
 (Enter /programs/64bit/g09/g09-gfortran/bin/l601.exe)
 Copying SCF densities to generalized density rwf, IOpCl= 0 IROHF=0.

 **********************************************************************

            Population analysis using the SCF density.

 **********************************************************************

 Orbital symmetries:
       Occupied  (A1) (A1) (B2) (A1) (B1)
       Virtual   (A1) (B2) (B1) (A1) (B2) (A1) (B2) (A1) (B2) (B1)
                 (A1) (A1) (A2) (A1) (B1) (A1) (B2) (B2) (A2) (B1)
                 (A1) (A1) (B2) (A1)
 The electronic state is 1-A1.
 Alpha  occ. eigenvalues --  -19.16962  -1.02239  -0.54222  -0.39438  -0.32106
 Alpha virt. eigenvalues --    0.02514   0.11453   0.15505   0.15507   0.20608
 Alpha virt. eigenvalues --    0.24212   0.90033   0.98889   1.08831   1.11264
 Alpha virt. eigenvalues --    1.12691   1.23138   1.50310   1.53585   1.63024
 Alpha virt. eigenvalues --    2.23036   2.24201   2.50102   2.63243   2.64640
 Alpha virt. eigenvalues --    3.02419   3.31889   3.51048   3.92161
          Condensed to atoms (all electrons):
              1          2          3
     1  O    8.147354   0.282189   0.282189
     2  H    0.282189   0.386026  -0.024082
     3  H    0.282189  -0.024082   0.386026
 Mulliken atomic charges:
              1
     1  O   -0.711733
     2  H    0.355866
     3  H    0.355866
 Sum of Mulliken atomic charges =   0.00000
 Mulliken charges with hydrogens summed into heavy atoms:
              1
     1  O    0.000000
 Sum of Mulliken charges with hydrogens summed into heavy atoms =   0.00000
 Electronic spatial extent (au):  <R**2>=             20.1412
 Charge=              0.0000 electrons
 Dipole moment (field-independent basis, Debye):
    X=             -0.0000    Y=             -0.0000    Z=             -2.1962  Tot=              2.1962
 Quadrupole moment (field-independent basis, Debye-Ang):
   XX=             -7.8837   YY=             -4.3791   ZZ=             -6.5353
   XY=              0.0000   XZ=              0.0000   YZ=              0.0000
 Traceless Quadrupole moment (field-independent basis, Debye-Ang):
   XX=             -1.6177   YY=              1.8870   ZZ=             -0.2693
   XY=              0.0000   XZ=              0.0000   YZ=              0.0000
 Octapole moment (field-independent basis, Debye-Ang**2):
  XXX=              0.0000  YYY=             -0.0000  ZZZ=             -1.6103  XYY=             -0.0000
  XXY=             -0.0000  XXZ=             -0.4784  XZZ=             -0.0000  YZZ=              0.0000
  YYZ=             -1.4073  XYZ=             -0.0000
 Hexadecapole moment (field-independent basis, Debye-Ang**3):
 XXXX=             -7.9573 YYYY=             -6.5074 ZZZZ=             -8.1544 XXXY=             -0.0000
 XXXZ=             -0.0000 YYYX=             -0.0000 YYYZ=              0.0000 ZZZX=             -0.0000
 ZZZY=              0.0000 XXYY=             -2.6987 XXZZ=             -2.7376 YYZZ=             -2.1272
 XXYZ=              0.0000 YYXZ=              0.0000 ZZXY=              0.0000
 N-N= 9.118168978582D+00 E-N=-1.985303389711D+02  KE= 7.573308297520D+01
 Symmetry A1   KE= 6.765753388773D+01
 Symmetry A2   KE= 1.885758365500D-36
 Symmetry B1   KE= 4.464380588655D+00
 Symmetry B2   KE= 3.611168498815D+00
 No NMR shielding tensors so no spin-rotation constants.
 Leave Link  601 at Tue Sep 17 19:10:48 2024, MaxMem=   13107200 cpu:       0.2
 (Enter /programs/64bit/g09/g09-gfortran/bin/l9999.exe)
 B after Tr=     0.169257   -0.000000    0.119683
         Rot=   -0.325057    0.627963   -0.627963   -0.325057 Ang= 217.94 deg.
 Final structure in terms of initial Z-matrix:
 O
 H,1,ho2
 H,1,ho3,2,hoh3
      Variables:
 ho2=0.96497956
 ho3=0.96497956
 hoh3=105.67517428
 1\1\GINC-MOLMOD\FOpt\RB3LYP\6-31+G(d,p)\H2O1\OSPITE\17-Sep-2024\0\\#p 
 B3LYP/6-31+g(d,p) opt freq\\h2o gas\\0,1\O,-0.018746036,0.,-0.01325544
 92\H,0.0132147579,0.,0.9511946839\H,0.9011998676,0.,-0.3046059014\\Ver
 sion=EM64L-G09RevA.02\State=1-A1\HF=-76.4340475\RMSD=9.028e-10\RMSF=8.
 492e-05\Dipole=0.7054993,0.,0.4988634\Quadrupole=0.3341781,-1.2027198,
 0.8685418,0.,-0.7557044,0.\PG=C02V [C2(O1),SGV(H2)]\\@


 IT IS UNWORTHY OF EXCELLENT MEN TO LOSE HOURS LIKE SLAVES IN THE LABOR
 OF CALCULATION WHICH COULD BE SAFELY RELEGATED TO ANYONE ELSE
 IF A MACHINE WERE USED.
    -- G.W. VON LEIBNIZ
 Leave Link 9999 at Tue Sep 17 19:10:48 2024, MaxMem=   13107200 cpu:       0.0
 Job cpu time:  0 days  0 hours  0 minutes  9.9 seconds.
 File lengths (MBytes):  RWF=      5 Int=      0 D2E=      0 Chk=      1 Scr=      1
 Normal termination of Gaussian 09 at Tue Sep 17 19:10:48 2024.
 (Enter /programs/64bit/g09/g09-gfortran/bin/l1.exe)
 Link1:  Proceeding to internal job step number  2.
 ----------------------------------------------------------------------
 #P Geom=AllCheck Guess=TCheck SCRF=Check GenChk RB3LYP/6-31+G(d,p) Fre
 q
 ----------------------------------------------------------------------
 1/10=4,29=7,30=1,38=1,40=1/1,3;
 2/12=2,40=1/2;
 3/5=1,6=6,7=111,11=2,14=-4,16=1,25=1,30=1,70=2,71=2,74=-5,116=1/1,2,3;
 4/5=101/1;
 5/5=2,98=1/2;
 8/6=4,10=90,11=11/1;
 11/6=1,8=1,9=11,15=111,16=1/1,2,10;
 10/6=1/2;
 6/7=2,8=2,9=2,10=2,18=1,28=1/1;
 7/8=1,10=1,25=1/1,2,3,16;
 1/10=4,30=1/3;
 99//99;
 Leave Link    1 at Tue Sep 17 19:10:48 2024, MaxMem=   13107200 cpu:       0.1
 (Enter /programs/64bit/g09/g09-gfortran/bin/l101.exe)
 -------
 h2o gas
 -------
 Redundant internal coordinates taken from checkpoint file:
 /home/ospite/Desktop/MMfP/Project10/pKa_calcualtion/H2O/Gau-10425.chk
 Charge =  0 Multiplicity = 1
 O,0,-0.018746036,0.,-0.0132554492
 H,0,0.0132147579,0.,0.9511946839
 H,0,0.9011998676,0.,-0.3046059014
 Recover connectivity data from disk.
                    Isotopes and Nuclear Properties:
 (Nuclear quadrupole moments (NQMom) in fm**2, nuclear magnetic moments (NMagM)
  in nuclear magnetons)

  Atom         1           2           3
 IAtWgt=          16           1           1
 AtmWgt=  15.9949146   1.0078250   1.0078250
 NucSpn=           0           1           1
 AtZEff=  -5.6000000  -1.0000000  -1.0000000
 NQMom=    0.0000000   0.0000000   0.0000000
 NMagM=    0.0000000   2.7928460   2.7928460
 Leave Link  101 at Tue Sep 17 19:10:49 2024, MaxMem=   13107200 cpu:       0.2
 (Enter /programs/64bit/g09/g09-gfortran/bin/l103.exe)

 GradGradGradGradGradGradGradGradGradGradGradGradGradGradGradGradGradGrad
 Berny optimization.
 Initialization pass.
                           ----------------------------
                           !    Initial Parameters    !
                           ! (Angstroms and Degrees)  !
 --------------------------                            --------------------------
 ! Name  Definition              Value          Derivative Info.                !
 --------------------------------------------------------------------------------
 ! R1    R(1,2)                  0.965          calculate D2E/DX2 analytically  !
 ! R2    R(1,3)                  0.965          calculate D2E/DX2 analytically  !
 ! A1    A(2,1,3)              105.6752         calculate D2E/DX2 analytically  !
 --------------------------------------------------------------------------------
 Trust Radius=3.00D-01 FncErr=1.00D-07 GrdErr=1.00D-07
 Number of steps in this run=   2 maximum allowed number of steps=   2.
 GradGradGradGradGradGradGradGradGradGradGradGradGradGradGradGradGradGrad

 Leave Link  103 at Tue Sep 17 19:10:49 2024, MaxMem=   13107200 cpu:       0.0
 (Enter /programs/64bit/g09/g09-gfortran/bin/l202.exe)
                          Input orientation:                          
 ---------------------------------------------------------------------
 Center     Atomic      Atomic             Coordinates (Angstroms)
 Number     Number       Type             X           Y           Z
 ---------------------------------------------------------------------
      1          8           0       -0.018746   -0.000000   -0.013255
      2          1           0        0.013215   -0.000000    0.951195
      3          1           0        0.901200    0.000000   -0.304606
 ---------------------------------------------------------------------
                    Distance matrix (angstroms):
                    1          2          3
     1  O    0.000000
     2  H    0.964980   0.000000
     3  H    0.964980   1.538035   0.000000
 Stoichiometry    H2O
 Framework group  C2V[C2(O),SGV(H2)]
 Deg. of freedom     2
 Full point group                 C2V     NOp   4
 Largest Abelian subgroup         C2V     NOp   4
 Largest concise Abelian subgroup C2      NOp   2
                         Standard orientation:                         
 ---------------------------------------------------------------------
 Center     Atomic      Atomic             Coordinates (Angstroms)
 Number     Number       Type             X           Y           Z
 ---------------------------------------------------------------------
      1          8           0       -0.000000    0.000000    0.116584
      2          1           0       -0.000000    0.769018   -0.466337
      3          1           0       -0.000000   -0.769018   -0.466337
 ---------------------------------------------------------------------
 Rotational constants (GHZ):    830.8591901    423.9644356    280.7205255
 Leave Link  202 at Tue Sep 17 19:10:49 2024, MaxMem=   13107200 cpu:       0.0
 (Enter /programs/64bit/g09/g09-gfortran/bin/l301.exe)
 Standard basis: 6-31+G(d,p) (6D, 7F)
 Ernie: Thresh=  0.10000D-02 Tol=  0.10000D-05 Strict=F.
 There are    14 symmetry adapted basis functions of A1  symmetry.
 There are     2 symmetry adapted basis functions of A2  symmetry.
 There are     5 symmetry adapted basis functions of B1  symmetry.
 There are     8 symmetry adapted basis functions of B2  symmetry.
 Integral buffers will be    131072 words long.
 Raffenetti 2 integral format.
 Two-electron integral symmetry is turned on.
    29 basis functions,    46 primitive gaussians,    29 cartesian basis functions
     5 alpha electrons        5 beta electrons
       nuclear repulsion energy         9.1181689786 Hartrees.
 IExCor=  402 DFT=T Ex+Corr=B3LYP ExCW=0 ScaHFX=  0.200000
 ScaDFX=  0.800000  0.720000  1.000000  0.810000 ScalE2=  1.000000  1.000000
 IRadAn=      0 IRanWt=     -1 IRanGd=            0 ICorTp=0
 NAtoms=    3 NActive=    3 NUniq=    2 SFac= 1.69D+00 NAtFMM=   80 NAOKFM=F Big=F
 Leave Link  301 at Tue Sep 17 19:10:49 2024, MaxMem=   13107200 cpu:       0.1
 (Enter /programs/64bit/g09/g09-gfortran/bin/l302.exe)
 NPDir=0 NMtPBC=     1 NCelOv=     1 NCel=       1 NClECP=     1 NCelD=      1
         NCelK=      1 NCelE2=     1 NClLst=     1 CellRange=     0.0.
 One-electron integrals computed using PRISM.
 One-electron integral symmetry used in STVInt
 NBasis=    29 RedAO= T  NBF=    14     2     5     8
 NBsUse=    29 1.00D-06 NBFU=    14     2     5     8
 Precomputing XC quadrature grid using
 IXCGrd= 2 IRadAn=           0 IRanWt=          -1 IRanGd=           0 AccXCQ= 1.00D-10.
 NRdTot=     187 NPtTot=       23652 NUsed=       25013 NTot=       25045
 NSgBfM=    29    29    29    29    29 NAtAll=     3     3.
 Leave Link  302 at Tue Sep 17 19:10:49 2024, MaxMem=   13107200 cpu:       0.3
 (Enter /programs/64bit/g09/g09-gfortran/bin/l303.exe)
 DipDrv:  MaxL=1.
 Leave Link  303 at Tue Sep 17 19:10:49 2024, MaxMem=   13107200 cpu:       0.0
 (Enter /programs/64bit/g09/g09-gfortran/bin/l401.exe)
 Initial guess read from the checkpoint file:  /home/ospite/Desktop/MMfP/Project1
 0/pKa_calcualtion/H2O/Gau-10425.chk
 B after Tr=    -0.000000    0.000000    0.000000
         Rot=    1.000000   -0.000000   -0.000000    0.000000 Ang=   0.00 deg.
 Guess basis will be translated and rotated to current coordinates.
 Initial guess orbital symmetries:
       Occupied  (A1) (A1) (B2) (A1) (B1)
       Virtual   (A1) (B2) (B1) (A1) (B2) (A1) (B2) (A1) (B2) (B1)
                 (A1) (A1) (A2) (A1) (B1) (A1) (B2) (B2) (A2) (B1)
                 (A1) (A1) (B2) (A1)
 The electronic state of the initial guess is 1-A1.
 Leave Link  401 at Tue Sep 17 19:10:50 2024, MaxMem=   13107200 cpu:       0.2
 (Enter /programs/64bit/g09/g09-gfortran/bin/l502.exe)
 Closed shell SCF:
 Requested convergence on RMS density matrix=1.00D-08 within 128 cycles.
 Requested convergence on MAX density matrix=1.00D-06.
 Requested convergence on             energy=1.00D-06.
 No special actions if energy rises.
 Using DIIS extrapolation, IDIIS=  1040.
 Integral symmetry usage will be decided dynamically.
        24973 words used for storage of precomputed grid.
 Keep R1 ints in memory in canonical form, NReq=999482.
 IEnd=       46098 IEndB=       46098 NGot=    13107200 MDV=    12983755
 LenX=    12983755 LenY=    12982473
 Symmetry not used in FoFDir.
 MinBra= 0 MaxBra= 2 Meth= 1.
 IRaf=       0 NMat=   1 IRICut=       1 DoRegI=T DoRafI=F ISym2E= 0 JSym2E=0.

 Cycle   1  Pass 1  IDiag  1:
 E= -76.4340475346520    
 DIIS: error= 2.49D-10 at cycle   1 NSaved=   1.
 NSaved= 1 IEnMin= 1 EnMin= -76.4340475346520     IErMin= 1 ErrMin= 2.49D-10
 ErrMax= 2.49D-10 EMaxC= 1.00D-01 BMatC= 6.86D-19 BMatP= 6.86D-19
 IDIUse=1 WtCom= 1.00D+00 WtEn= 0.00D+00
 Coeff-Com:  0.100D+01
 Coeff:      0.100D+01
 Gap=     0.346 Goal=   None    Shift=    0.000
 RMSDP=5.69D-11 MaxDP=5.07D-10              OVMax= 6.98D-10

 SCF Done:  E(RB3LYP) =  -76.4340475347     A.U. after    1 cycles
             Convg  =    0.5693D-10             -V/T =  2.0093
 KE= 7.573308298524D+01 PE=-1.985303389811D+02 EE= 3.724503948264D+01
 Leave Link  502 at Tue Sep 17 19:10:50 2024, MaxMem=   13107200 cpu:       0.3
 (Enter /programs/64bit/g09/g09-gfortran/bin/l801.exe)
 Range of M.O.s used for correlation:     1    29
 NBasis=    29 NAE=     5 NBE=     5 NFC=     0 NFV=     0
 NROrb=     29 NOA=     5 NOB=     5 NVA=    24 NVB=    24
 Leave Link  801 at Tue Sep 17 19:10:50 2024, MaxMem=   13107200 cpu:       0.0
 (Enter /programs/64bit/g09/g09-gfortran/bin/l1101.exe)
 Using compressed storage, NAtomX=     3.
 Will process   4 centers per pass.
 Leave Link 1101 at Tue Sep 17 19:10:50 2024, MaxMem=   13107200 cpu:       0.3
 (Enter /programs/64bit/g09/g09-gfortran/bin/l1102.exe)
 Symmetrizing basis deriv contribution to polar:
 IMax=3 JMax=2 DiffMx= 0.00D+00
 Leave Link 1102 at Tue Sep 17 19:10:50 2024, MaxMem=   13107200 cpu:       0.1
 (Enter /programs/64bit/g09/g09-gfortran/bin/l1110.exe)
 Forming Gx(P) for the SCF density, NAtomX=     3.
 Integral derivatives from FoFDir/FoFCou, PRISM(SPDF).
 Do as many integral derivatives as possible in FoFDir.
 G2DrvN: MDV=      13107072.
 G2DrvN: will do     4 centers at a time, making    1 passes doing MaxLOS=2.
 Calling FoFCou, ICntrl=  3107 FMM=F I1Cent=   0 AccDes= 0.00D+00.
 FoFCou: FMM=F IPFlag=           0 FMFlag=      100000 FMFlg1=           0
         NFxFlg=           0 DoJE=F BraDBF=F KetDBF=F FulRan=T
         Omega=  0.000000  0.000000  1.000000  0.000000  0.000000 ICntrl=    3107 IOpCl=  0
         NMat0=    1 NMatS0=    1 NMatT0=    0 NMatD0=    1 NMtDS0=    0 NMtDT0=    0
         I1Cent=           0 NGrid=           0.
 Petite list used in FoFCou.
 FoFDir/FoFCou used for L=0 through L=2.
 End of G2Drv Frequency-dependent properties file   721 does not exist.
 End of G2Drv Frequency-dependent properties file   722 does not exist.
 Leave Link 1110 at Tue Sep 17 19:10:52 2024, MaxMem=   13107200 cpu:       1.1
 (Enter /programs/64bit/g09/g09-gfortran/bin/l1002.exe)
 Minotr:  Closed shell wavefunction.
          IDoAtm=111
          Direct CPHF calculation.
          Differentiating once with respect to electric field.
                with respect to dipole field.
          Differentiating once with respect to nuclear coordinates.
          Using symmetry in CPHF.
          Requested convergence is 1.0D-08 RMS, and 1.0D-07 maximum.
          Secondary convergence is 1.0D-12 RMS, and 1.0D-12 maximum.
          NewPWx=T KeepS1=F KeepF1=F KeepIn=T MapXYZ=F SortEE=F KeepMc=T.
          MDV=      13107166 using IRadAn=       2.
 Generate precomputed XC quadrature information.
          Keep R1 ints in memory in canonical form, NReq=916070.
 Symmetry not used in FoFDir.
 MinBra= 0 MaxBra= 2 Meth= 1.
 IRaf=       0 NMat=   1 IRICut=       1 DoRegI=T DoRafI=F ISym2E= 0 JSym2E=0.
          Solving linear equations simultaneously, MaxMat=       0.
          There are     9 degrees of freedom in the 1st order CPHF.  IDoFFX=4.
      9 vectors produced by pass  0 Test12= 1.33D-15 1.11D-08 XBig12= 3.46D+00 1.35D+00.
 AX will form     9 AO Fock derivatives at one time.
      9 vectors produced by pass  1 Test12= 1.33D-15 1.11D-08 XBig12= 4.99D-01 2.93D-01.
      9 vectors produced by pass  2 Test12= 1.33D-15 1.11D-08 XBig12= 4.39D-03 2.44D-02.
      9 vectors produced by pass  3 Test12= 1.33D-15 1.11D-08 XBig12= 1.02D-05 1.25D-03.
      9 vectors produced by pass  4 Test12= 1.33D-15 1.11D-08 XBig12= 2.75D-08 7.96D-05.
      4 vectors produced by pass  5 Test12= 1.33D-15 1.11D-08 XBig12= 2.17D-11 1.92D-06.
      1 vectors produced by pass  6 Test12= 1.33D-15 1.11D-08 XBig12= 6.97D-15 3.38D-08.
 Inverted reduced A of dimension    50 with in-core refinement.
 FullF1:  Do perturbations    1 to     9.
 Isotropic polarizability for W=    0.000000        7.03 Bohr**3.
 End of Minotr Frequency-dependent properties file   721 does not exist.
 End of Minotr Frequency-dependent properties file   722 does not exist.
 Leave Link 1002 at Tue Sep 17 19:10:56 2024, MaxMem=   13107200 cpu:       3.8
 (Enter /programs/64bit/g09/g09-gfortran/bin/l601.exe)
 Copying SCF densities to generalized density rwf, IOpCl= 0 IROHF=0.

 **********************************************************************

            Population analysis using the SCF density.

 **********************************************************************

 Orbital symmetries:
       Occupied  (A1) (A1) (B2) (A1) (B1)
       Virtual   (A1) (B2) (B1) (A1) (B2) (A1) (B2) (A1) (B2) (B1)
                 (A1) (A1) (A2) (A1) (B1) (A1) (B2) (B2) (A2) (B1)
                 (A1) (A1) (B2) (A1)
 The electronic state is 1-A1.
 Alpha  occ. eigenvalues --  -19.16962  -1.02239  -0.54222  -0.39438  -0.32106
 Alpha virt. eigenvalues --    0.02514   0.11453   0.15505   0.15507   0.20608
 Alpha virt. eigenvalues --    0.24212   0.90033   0.98889   1.08831   1.11264
 Alpha virt. eigenvalues --    1.12691   1.23138   1.50310   1.53585   1.63024
 Alpha virt. eigenvalues --    2.23036   2.24201   2.50102   2.63243   2.64640
 Alpha virt. eigenvalues --    3.02419   3.31889   3.51048   3.92161
          Condensed to atoms (all electrons):
              1          2          3
     1  O    8.147354   0.282189   0.282189
     2  H    0.282189   0.386026  -0.024082
     3  H    0.282189  -0.024082   0.386026
 Mulliken atomic charges:
              1
     1  O   -0.711733
     2  H    0.355866
     3  H    0.355866
 Sum of Mulliken atomic charges =   0.00000
 Mulliken charges with hydrogens summed into heavy atoms:
              1
     1  O    0.000000
 Sum of Mulliken charges with hydrogens summed into heavy atoms =   0.00000
 APT atomic charges:
              1
     1  O   -0.569751
     2  H    0.284875
     3  H    0.284875
 Sum of APT charges=   0.00000
 APT Atomic charges with hydrogens summed into heavy atoms:
              1
     1  O    0.000000
     2  H    0.000000
     3  H    0.000000
 Sum of APT charges=   0.00000
 Electronic spatial extent (au):  <R**2>=             20.1412
 Charge=              0.0000 electrons
 Dipole moment (field-independent basis, Debye):
    X=             -0.0000    Y=              0.0000    Z=             -2.1962  Tot=              2.1962
 Quadrupole moment (field-independent basis, Debye-Ang):
   XX=             -7.8837   YY=             -4.3791   ZZ=             -6.5353
   XY=              0.0000   XZ=              0.0000   YZ=             -0.0000
 Traceless Quadrupole moment (field-independent basis, Debye-Ang):
   XX=             -1.6177   YY=              1.8870   ZZ=             -0.2693
   XY=              0.0000   XZ=              0.0000   YZ=             -0.0000
 Octapole moment (field-independent basis, Debye-Ang**2):
  XXX=              0.0000  YYY=              0.0000  ZZZ=             -1.6103  XYY=             -0.0000
  XXY=              0.0000  XXZ=             -0.4784  XZZ=             -0.0000  YZZ=              0.0000
  YYZ=             -1.4073  XYZ=             -0.0000
 Hexadecapole moment (field-independent basis, Debye-Ang**3):
 XXXX=             -7.9573 YYYY=             -6.5074 ZZZZ=             -8.1544 XXXY=             -0.0000
 XXXZ=             -0.0000 YYYX=             -0.0000 YYYZ=             -0.0000 ZZZX=             -0.0000
 ZZZY=             -0.0000 XXYY=             -2.6987 XXZZ=             -2.7376 YYZZ=             -2.1272
 XXYZ=              0.0000 YYXZ=              0.0000 ZZXY=              0.0000
 N-N= 9.118168978582D+00 E-N=-1.985303389928D+02  KE= 7.573308298524D+01
 Symmetry A1   KE= 6.765753388977D+01
 Symmetry A2   KE= 7.691986703821D-35
 Symmetry B1   KE= 4.464380592769D+00
 Symmetry B2   KE= 3.611168502697D+00
  Exact polarizability:   6.677  -0.000   7.837   0.000  -0.000   6.579
 Approx polarizability:   6.824   0.000   9.666   0.000  -0.000   7.663
 No NMR shielding tensors so no spin-rotation constants.
 Leave Link  601 at Tue Sep 17 19:10:56 2024, MaxMem=   13107200 cpu:       0.2
 (Enter /programs/64bit/g09/g09-gfortran/bin/l701.exe)
 Compute integral second derivatives.
 ... and contract with generalized density number  0.
 Leave Link  701 at Tue Sep 17 19:10:56 2024, MaxMem=   13107200 cpu:       0.4
 (Enter /programs/64bit/g09/g09-gfortran/bin/l702.exe)
 L702 exits ... SP integral derivatives will be done elsewhere.
 Leave Link  702 at Tue Sep 17 19:10:56 2024, MaxMem=   13107200 cpu:       0.0
 (Enter /programs/64bit/g09/g09-gfortran/bin/l703.exe)
 Compute integral second derivatives, UseDBF=F ICtDFT=           0.
 Integral derivatives from FoFDir, PRISM(SPDF).
 Calling FoFJK, ICntrl=    100127 FMM=F ISym2X=1 I1Cent= 0 IOpClX= 0 NMat=1 NMatS=1 NMatT=0.
 FoFCou: FMM=F IPFlag=           0 FMFlag=      100000 FMFlg1=         800
         NFxFlg=           0 DoJE=F BraDBF=F KetDBF=F FulRan=T
         Omega=  0.000000  0.000000  1.000000  0.000000  0.000000 ICntrl=  100127 IOpCl=  0
         NMat0=    1 NMatS0=    1 NMatT0=    0 NMatD0=    1 NMtDS0=    0 NMtDT0=    0
         I1Cent=           0 NGrid=           0.
 Petite list used in FoFCou.
 Leave Link  703 at Tue Sep 17 19:10:59 2024, MaxMem=   13107200 cpu:       2.6
 (Enter /programs/64bit/g09/g09-gfortran/bin/l716.exe)
 Dipole        =-5.61087646D-17 5.70290343D-16-8.64056698D-01
 Polarizability= 6.67697748D+00-1.06445436D-10 7.83721981D+00
                 2.33823443D-10-4.34411562D-10 6.57912367D+00
 Full mass-weighted force constant matrix:
 Low frequencies ---  -81.9261  -50.0722  -38.4476   -0.0025   -0.0021   -0.0020
 Low frequencies --- 1603.7394 3811.0254 3932.4264
 Diagonal vibrational polarizability:
        0.0000000       0.0991940       0.9637886
 Harmonic frequencies (cm**-1), IR intensities (KM/Mole), Raman scattering
 activities (A**4/AMU), depolarization ratios for plane and unpolarized
 incident light, reduced masses (AMU), force constants (mDyne/A),
 and normal coordinates:
                     1                      2                      3
                    A1                     A1                     B2
 Frequencies --  1603.7394              3811.0254              3932.4264
 Red. masses --     1.0837                 1.0442                 1.0830
 Frc consts  --     1.6422                 8.9354                 9.8675
 IR Inten    --    90.9753                 6.4189                56.9998
  Atom  AN      X      Y      Z        X      Y      Z        X      Y      Z
     1   8     0.00   0.00   0.07     0.00   0.00   0.05     0.00   0.07  -0.00
     2   1    -0.00  -0.42  -0.56     0.00   0.59  -0.39    -0.00  -0.56   0.43
     3   1    -0.00   0.42  -0.56    -0.00  -0.59  -0.39    -0.00  -0.56  -0.43

 -------------------
 - Thermochemistry -
 -------------------
 Temperature   298.150 Kelvin.  Pressure   1.00000 Atm.
 Atom     1 has atomic number  8 and mass  15.99491
 Atom     2 has atomic number  1 and mass   1.00783
 Atom     3 has atomic number  1 and mass   1.00783
 Molecular mass:    18.01056 amu.
 Principal axes and moments of inertia in atomic units:
                           1         2         3
     Eigenvalues --     2.17214   4.25682   6.42896
           X            0.00000   0.00000   1.00000
           Y            1.00000   0.00000  -0.00000
           Z           -0.00000   1.00000  -0.00000
 This molecule is an asymmetric top.
 Rotational symmetry number  2.
 Rotational temperatures (Kelvin)     39.87490    20.34706    13.47244
 Rotational constants (GHZ):         830.85919   423.96444   280.72053
 Zero-point vibrational energy      55908.6 (Joules/Mol)
                                   13.36248 (Kcal/Mol)
 Vibrational temperatures:   2307.42  5483.21  5657.88
          (Kelvin)
 
 Zero-point correction=                           0.021294 (Hartree/Particle)
 Thermal correction to Energy=                    0.024130
 Thermal correction to Enthalpy=                  0.025074
 Thermal correction to Gibbs Free Energy=         0.003646
 Sum of electronic and zero-point Energies=            -76.412753
 Sum of electronic and thermal Energies=               -76.409917
 Sum of electronic and thermal Enthalpies=             -76.408973
 Sum of electronic and thermal Free Energies=          -76.430402
 
                     E (Thermal)             CV                S
                      KCal/Mol        Cal/Mol-Kelvin    Cal/Mol-Kelvin
 Total                   15.142              6.014             45.100
 Electronic               0.000              0.000              0.000
 Translational            0.889              2.981             34.608
 Rotational               0.889              2.981             10.484
 Vibrational             13.364              0.052              0.008
                       Q            Log10(Q)             Ln(Q)
 Total Bot       0.210404D-01         -1.676946         -3.861311
 Total V=0       0.131162D+09          8.117809         18.691945
 Vib (Bot)       0.160485D-09         -9.794565        -22.552820
 Vib (V=0)       0.100044D+01          0.000189          0.000436
 Electronic      0.100000D+01          0.000000          0.000000
 Translational   0.300432D+07          6.477746         14.915562
 Rotational      0.436389D+02          1.639873          3.775948
 
                                                               h2o gas
                                                             IR Spectrum
 
      3  3                                                                       1                                                   
      9  8                                                                       6                                                   
      3  1                                                                       0                                                   
      2  1                                                                       4                                                   
 
      X  X                                                                       X                                                   
      X                                                                          X                                                   
      X                                                                          X                                                   
      X                                                                          X                                                   
      X                                                                          X                                                   
      X                                                                          X                                                   
      X                                                                          X                                                   
      X                                                                          X                                                   
      X                                                                          X                                                   
      X                                                                          X                                                   
      X                                                                          X                                                   
      X                                                                          X                                                   
      X                                                                          X                                                   
                                                                                 X                                                   
                                                                                 X                                                   
                                                                                 X                                                   
                                                                                 X                                                   
                                                                                 X                                                   
                                                                                 X                                                   
                                                                                 X                                                   
 
 ***** Axes restored to original set *****
 -------------------------------------------------------------------
 Center     Atomic                   Forces (Hartrees/Bohr)
 Number     Number              X              Y              Z
 -------------------------------------------------------------------
      1        8           0.000008081    0.000000000    0.000005714
      2        1          -0.000107927    0.000000000    0.000144061
      3        1           0.000099846   -0.000000000   -0.000149775
 -------------------------------------------------------------------
 Cartesian Forces:  Max     0.000149775 RMS     0.000084919
 Force constants in Cartesian coordinates: 
                1             2             3             4             5 
      1  0.526606D+00
      2  0.000000D+00 -0.100138D-03
      3 -0.118073D+00  0.000000D+00  0.610096D+00
      4 -0.439845D-01  0.000000D+00 -0.488101D-01  0.458252D-01
      5  0.000000D+00  0.500691D-04  0.000000D+00  0.000000D+00 -0.153029D-03
      6  0.118015D-01  0.000000D+00 -0.524366D+00  0.916423D-04  0.000000D+00
      7 -0.482621D+00  0.000000D+00  0.166883D+00 -0.184069D-02  0.000000D+00
      8  0.000000D+00  0.500691D-04  0.000000D+00  0.000000D+00  0.102960D-03
      9  0.106271D+00  0.000000D+00 -0.857296D-01  0.487185D-01  0.000000D+00
                6             7             8             9 
      6  0.539227D+00
      7 -0.118932D-01  0.484462D+00
      8  0.000000D+00  0.000000D+00 -0.153029D-03
      9 -0.148604D-01 -0.154990D+00  0.000000D+00  0.100590D+00
 Force constants in internal coordinates: 
                1             2             3 
      1  0.538670D+00
      2 -0.737108D-02  0.538670D+00
      3  0.295485D-01  0.295485D-01  0.154444D+00
 Leave Link  716 at Tue Sep 17 19:10:59 2024, MaxMem=   13107200 cpu:       0.0
 (Enter /programs/64bit/g09/g09-gfortran/bin/l103.exe)

 GradGradGradGradGradGradGradGradGradGradGradGradGradGradGradGradGradGrad
 Berny optimization.
 Internal  Forces:  Max     0.000205403 RMS     0.000164943
 Search for a local minimum.
 Step number   1 out of a maximum of    2
 All quantities printed in internal units (Hartrees-Bohrs-Radians)
 Second derivative matrix not updated -- analytic derivatives used.
 The second derivative matrix:
                          R1        R2        A1
           R1           0.53867
           R2          -0.00737   0.53867
           A1           0.02955   0.02955   0.15444
     Eigenvalues ---    0.14987   0.53588   0.54604
 Angle between quadratic step and forces=  31.68 degrees.
 Linear search not attempted -- first point.
 Iteration  1 RMS(Cart)=  0.00078619 RMS(Int)=  0.00000030
 Iteration  2 RMS(Cart)=  0.00000023 RMS(Int)=  0.00000000
 ClnCor:  largest displacement from symmetrization is 3.76D-15 for atom     3.
 Variable       Old X    -DE/DX   Delta X   Delta X   Delta X     New X
                                 (Linear)    (Quad)   (Total)
    R1        1.82355   0.00014   0.00000   0.00019   0.00019   1.82374
    R2        1.82355   0.00014   0.00000   0.00019   0.00019   1.82374
    A1        1.84438   0.00021   0.00000   0.00126   0.00126   1.84564
         Item               Value     Threshold  Converged?
 Maximum Force            0.000205     0.000450     YES
 RMS     Force            0.000165     0.000300     YES
 Maximum Displacement     0.000844     0.001800     YES
 RMS     Displacement     0.000786     0.001200     YES
 Predicted change in Energy=-1.562478D-07
 Optimization completed.
    -- Stationary point found.
                           ----------------------------
                           !   Optimized Parameters   !
                           ! (Angstroms and Degrees)  !
 --------------------------                            --------------------------
 ! Name  Definition              Value          Derivative Info.                !
 --------------------------------------------------------------------------------
 ! R1    R(1,2)                  0.965          -DE/DX =    0.0001              !
 ! R2    R(1,3)                  0.965          -DE/DX =    0.0001              !
 ! A1    A(2,1,3)              105.6752         -DE/DX =    0.0002              !
 --------------------------------------------------------------------------------
 GradGradGradGradGradGradGradGradGradGradGradGradGradGradGradGradGradGrad

 Leave Link  103 at Tue Sep 17 19:10:59 2024, MaxMem=   13107200 cpu:       0.0
 (Enter /programs/64bit/g09/g09-gfortran/bin/l9999.exe)
 1\1\GINC-MOLMOD\Freq\RB3LYP\6-31+G(d,p)\H2O1\OSPITE\17-Sep-2024\0\\#P 
 Geom=AllCheck Guess=TCheck SCRF=Check GenChk RB3LYP/6-31+G(d,p) Freq\\
 h2o gas\\0,1\O,-0.018746036,0.,-0.0132554492\H,0.0132147579,0.,0.95119
 46839\H,0.9011998676,0.,-0.3046059014\\Version=EM64L-G09RevA.02\State=
 1-A1\HF=-76.4340475\RMSD=5.693e-11\RMSF=8.492e-05\ZeroPoint=0.0212945\
 Thermal=0.0241302\Dipole=0.7054993,0.,0.4988634\DipoleDeriv=-0.4404813
 ,0.,0.0620749,0.,-0.7843963,0.,0.0620749,0.,-0.4843749,0.3027184,0.,-0
 .0697863,0.,0.3921982,0.,-0.0506092,0.,0.1597097,0.1377629,0.,0.007711
 3,0.,0.3921982,0.,-0.0114657,0.,0.3246652\Polar=6.9984891,0.,6.6769775
 ,-0.5930722,0.,7.4178544\PG=C02V [C2(O1),SGV(H2)]\NImag=0\\0.52660566,
 0.,-0.00010014,-0.11807289,0.,0.61009580,-0.04398450,0.,-0.04881011,0.
 04582520,0.,0.00005007,0.,0.,-0.00015303,0.01180153,0.,-0.52436623,0.0
 0009164,0.,0.53922663,-0.48262116,0.,0.16688300,-0.00184069,0.,-0.0118
 9317,0.48446185,0.,0.00005007,0.,0.,0.00010296,0.,0.,-0.00015303,0.106
 27136,0.,-0.08572957,0.04871847,0.,-0.01486040,-0.15498983,0.,0.100589
 98\\-0.00000808,0.,-0.00000571,0.00010793,0.,-0.00014406,-0.00009985,0
 .,0.00014977\\\@


 I WOULD TAKE COUNSEL OF MYSELF.
 I WOULD STOP AND LOOK WITHIN
 AND LOOKING WITHIN, LOOK BACK, ALSO
 THAT I MAY LOOK AHEAD WITH CLEARER UNDERSTANDING
 OF THE WAY I HAVE BEEN MOVING, AND IN WHAT DIRECTION.
 I NEED TO KNOW IF I AM GOING FORWARD OR RETREATING,
 WHETHER I HAVE BEEN WASTING, OR ENJOYING
 THE PRECIOUS MOMENTS OF LIFE.  THERE HAVE BEEN FRICTIONS,
 ANNOYANCES AND SOMETIMES WRATH,
 BUT WERE THEY BECAUSE I WAS RIGHT AND OTHERS WRONG.....
 HAVE I HAD MY THOUGHTS TOO SHARPLY FOCUSED
 ON THAT WHICH PLEASED ME, SERVED MY SELF-ESTEEM,
 UNDERGIRDED MY SECURITY,
 OF WHICH I DID NOT INQUIRE WHETHER IT SERVED OR HAMPERED OTHERS.....
 HAVE I BEEN TRYING TO STOP THE CLOCK
 TO HOLD THE WORLD
 IN PERPETUATION OF WHAT WAS AN IS ALREADY SLIPPING AWAY.....
 HAVE I BEEN CRITICAL OF OTHERS FOR WHAT REALLY NEEDED CHANGING IN ME...
 LET ME INDEED TAKE COUNSEL OF MYSELF
 AND SET MY DIRECTIONS STRAIGHT.

                          R.T. WESTON AS ADAPTED BY D. OSBORN 1967
 Job cpu time:  0 days  0 hours  0 minutes 10.3 seconds.
 File lengths (MBytes):  RWF=      5 Int=      0 D2E=      0 Chk=      1 Scr=      1
 Normal termination of Gaussian 09 at Tue Sep 17 19:10:59 2024.
