 Entering Gaussian System, Link 0=/programs/64bit/g09/g09-gfortran/bin/g09
 Input=sol.com
 Output=sol.log
 Initial command:
 /programs/64bit/g09/g09-gfortran/bin/l1.exe /home/ospite/Desktop/MMfP/Project10/pKa_calcualtion/H2O/Gau-11389.inp -scrdir=/home/ospite/Desktop/MMfP/Project10/pKa_calcualtion/H2O/
 Entering Link 1 = /programs/64bit/g09/g09-gfortran/bin/l1.exe PID=     11390.
  
 Copyright (c) 1988,1990,1992,1993,1995,1998,2003,2009, Gaussian, Inc.
                  All Rights Reserved.
  
 This is part of the Gaussian(R) 09 program.  It is based on
 the Gaussian(R) 03 system (copyright 2003, Gaussian, Inc.),
 the Gaussian(R) 98 system (copyright 1998, Gaussian, Inc.),
 the Gaussian(R) 94 system (copyright 1995, Gaussian, Inc.),
 the Gaussian 92(TM) system (copyright 1992, Gaussian, Inc.),
 the Gaussian 90(TM) system (copyright 1990, Gaussian, Inc.),
 the Gaussian 88(TM) system (copyright 1988, Gaussian, Inc.),
 the Gaussian 86(TM) system (copyright 1986, Carnegie Mellon
 University), and the Gaussian 82(TM) system (copyright 1983,
 Carnegie Mellon University). Gaussian is a federally registered
 trademark of Gaussian, Inc.
  
 This software contains proprietary and confidential information,
 including trade secrets, belonging to Gaussian, Inc.
  
 This software is provided under written license and may be
 used, copied, transmitted, or stored only in accord with that
 written license.
  
 The following legend is applicable only to US Government
 contracts under FAR:
  
                    RESTRICTED RIGHTS LEGEND
  
 Use, reproduction and disclosure by the US Government is
 subject to restrictions as set forth in subparagraphs (a)
 and (c) of the Commercial Computer Software - Restricted
 Rights clause in FAR 52.227-19.
  
 Gaussian, Inc.
 340 Quinnipiac St., Bldg. 40, Wallingford CT 06492
  
  
 ---------------------------------------------------------------
 Warning -- This program may not be used in any manner that
 competes with the business of Gaussian, Inc. or will provide
 assistance to any competitor of Gaussian, Inc.  The licensee
 of this program is prohibited from giving any competitor of
 Gaussian, Inc. access to this program.  By using this program,
 the user acknowledges that Gaussian, Inc. is engaged in the
 business of creating and licensing software in the field of
 computational chemistry and represents and warrants to the
 licensee that it is not a competitor of Gaussian, Inc. and that
 it will not use this program in any manner prohibited above.
 ---------------------------------------------------------------
  

 Cite this work as:
 Gaussian 09, Revision A.02,
 M. J. Frisch, G. W. Trucks, H. B. Schlegel, G. E. Scuseria, 
 M. A. Robb, J. R. Cheeseman, G. Scalmani, V. Barone, B. Mennucci, 
 G. A. Petersson, H. Nakatsuji, M. Caricato, X. Li, H. P. Hratchian, 
 A. F. Izmaylov, J. Bloino, G. Zheng, J. L. Sonnenberg, M. Hada, 
 M. Ehara, K. Toyota, R. Fukuda, J. Hasegawa, M. Ishida, T. Nakajima, 
 Y. Honda, O. Kitao, H. Nakai, T. Vreven, J. A. Montgomery, Jr., 
 J. E. Peralta, F. Ogliaro, M. Bearpark, J. J. Heyd, E. Brothers, 
 K. N. Kudin, V. N. Staroverov, R. Kobayashi, J. Normand, 
 K. Raghavachari, A. Rendell, J. C. Burant, S. S. Iyengar, J. Tomasi, 
 M. Cossi, N. Rega, J. M. Millam, M. Klene, J. E. Knox, J. B. Cross, 
 V. Bakken, C. Adamo, J. Jaramillo, R. Gomperts, R. E. Stratmann, 
 O. Yazyev, A. J. Austin, R. Cammi, C. Pomelli, J. W. Ochterski, 
 R. L. Martin, K. Morokuma, V. G. Zakrzewski, G. A. Voth, 
 P. Salvador, J. J. Dannenberg, S. Dapprich, A. D. Daniels, 
 O. Farkas, J. B. Foresman, J. V. Ortiz, J. Cioslowski, 
 and D. J. Fox, Gaussian, Inc., Wallingford CT, 2009.
 
 ******************************************
 Gaussian 09:  EM64L-G09RevA.02 11-Jun-2009
                17-Sep-2024 
 ******************************************
 %mem=100Mb
 %nprocshared=2
 Will use up to    2 processors via shared memory.
 ------------------------------------------------------
 #p B3LYP/6-31+g(d,p) opt freq scrf=(smd,solvent=water)
 ------------------------------------------------------
 1/14=-1,18=20,19=15,26=3,38=1/1,3;
 2/9=110,12=2,17=6,18=5,40=1/2;
 3/5=1,6=6,7=111,11=2,16=1,25=1,30=1,70=32201,71=1,72=1,74=-5/1,2,3;
 4//1;
 5/5=2,38=5,53=1/2;
 6/7=2,8=2,9=2,10=2,28=1/1;
 7//1,2,3,16;
 1/14=-1,18=20,19=15/3(2);
 2/9=110/2;
 99//99;
 2/9=110/2;
 3/5=1,6=6,7=111,11=2,16=1,25=1,30=1,70=32205,71=1,72=1,74=-5/1,2,3;
 4/5=5,16=3/1;
 5/5=2,38=5,53=1/2;
 7//1,2,3,16;
 1/14=-1,18=20,19=15/3(-5);
 2/9=110/2;
 6/7=2,8=2,9=2,10=2,19=2,28=1/1;
 99/9=1/99;
 Leave Link    1 at Tue Sep 17 19:17:12 2024, MaxMem=   13107200 cpu:       0.1
 (Enter /programs/64bit/g09/g09-gfortran/bin/l101.exe)
 ------------
 h2o solution
 ------------
 Symbolic Z-matrix:
 Charge =  0 Multiplicity = 1
 o
 h                    1    ho2
 h                    1    ho3      2    hoh3
       Variables:
  ho2                   0.95                     
  ho3                   0.95                     
  hoh3                109.471                    
 
     1 tetrahedral angles replaced.
 NAtoms=      3 NQM=      3 NQMF=      0 NMic=      0 NMicF=      0 NTot=      3.
                    Isotopes and Nuclear Properties:
 (Nuclear quadrupole moments (NQMom) in fm**2, nuclear magnetic moments (NMagM)
  in nuclear magnetons)

  Atom         1           2           3
 IAtWgt=          16           1           1
 AtmWgt=  15.9949146   1.0078250   1.0078250
 NucSpn=           0           1           1
 AtZEff=   0.0000000   0.0000000   0.0000000
 NQMom=    0.0000000   0.0000000   0.0000000
 NMagM=    0.0000000   2.7928460   2.7928460
 Leave Link  101 at Tue Sep 17 19:17:13 2024, MaxMem=   13107200 cpu:       0.2
 (Enter /programs/64bit/g09/g09-gfortran/bin/l103.exe)

 GradGradGradGradGradGradGradGradGradGradGradGradGradGradGradGradGradGrad
 Berny optimization.
 Initialization pass.
                           ----------------------------
                           !    Initial Parameters    !
                           ! (Angstroms and Degrees)  !
 --------------------------                            --------------------------
 ! Name  Definition              Value          Derivative Info.                !
 --------------------------------------------------------------------------------
 ! R1    R(1,2)                  0.95           estimate D2E/DX2                !
 ! R2    R(1,3)                  0.95           estimate D2E/DX2                !
 ! A1    A(2,1,3)              109.4712         estimate D2E/DX2                !
 --------------------------------------------------------------------------------
 Trust Radius=3.00D-01 FncErr=1.00D-07 GrdErr=1.00D-06
 Number of steps in this run=  20 maximum allowed number of steps= 100.
 GradGradGradGradGradGradGradGradGradGradGradGradGradGradGradGradGradGrad

 Leave Link  103 at Tue Sep 17 19:17:13 2024, MaxMem=   13107200 cpu:       0.0
 (Enter /programs/64bit/g09/g09-gfortran/bin/l202.exe)
                          Input orientation:                          
 ---------------------------------------------------------------------
 Center     Atomic      Atomic             Coordinates (Angstroms)
 Number     Number       Type             X           Y           Z
 ---------------------------------------------------------------------
      1          8           0        0.000000    0.000000    0.000000
      2          1           0        0.000000    0.000000    0.950000
      3          1           0        0.895669    0.000000   -0.316667
 ---------------------------------------------------------------------
                    Distance matrix (angstroms):
                    1          2          3
     1  O    0.000000
     2  H    0.950000   0.000000
     3  H    0.950000   1.551344   0.000000
 Stoichiometry    H2O
 Framework group  C2V[C2(O),SGV(H2)]
 Deg. of freedom     2
 Full point group                 C2V     NOp   4
 Largest Abelian subgroup         C2V     NOp   4
 Largest concise Abelian subgroup C2      NOp   2
                         Standard orientation:                         
 ---------------------------------------------------------------------
 Center     Atomic      Atomic             Coordinates (Angstroms)
 Number     Number       Type             X           Y           Z
 ---------------------------------------------------------------------
      1          8           0        0.000000    0.000000    0.109697
      2          1           0       -0.000000    0.775672   -0.438786
      3          1           0       -0.000000   -0.775672   -0.438786
 ---------------------------------------------------------------------
 Rotational constants (GHZ):    938.4724000    416.7216900    288.5799218
 Leave Link  202 at Tue Sep 17 19:17:13 2024, MaxMem=   13107200 cpu:       0.0
 (Enter /programs/64bit/g09/g09-gfortran/bin/l301.exe)
 Standard basis: 6-31+G(d,p) (6D, 7F)
 Ernie: Thresh=  0.10000D-02 Tol=  0.10000D-05 Strict=F.
 There are    14 symmetry adapted basis functions of A1  symmetry.
 There are     2 symmetry adapted basis functions of A2  symmetry.
 There are     5 symmetry adapted basis functions of B1  symmetry.
 There are     8 symmetry adapted basis functions of B2  symmetry.
 Integral buffers will be    131072 words long.
 Raffenetti 2 integral format.
 Two-electron integral symmetry is turned on.
    29 basis functions,    46 primitive gaussians,    29 cartesian basis functions
     5 alpha electrons        5 beta electrons
       nuclear repulsion energy         9.2535672353 Hartrees.
 IExCor=  402 DFT=T Ex+Corr=B3LYP ExCW=0 ScaHFX=  0.200000
 ScaDFX=  0.800000  0.720000  1.000000  0.810000 ScalE2=  1.000000  1.000000
 IRadAn=      0 IRanWt=     -1 IRanGd=            0 ICorTp=0
 NAtoms=    3 NActive=    3 NUniq=    2 SFac= 1.69D+00 NAtFMM=   80 NAOKFM=F Big=F
 ------------------------------------------------------------------------------
 Polarizable Continuum Model (PCM)
 =================================
 Model                : PCM.
 Atomic radii         : SMD-Coulomb.
 Polarization charges : Total charges.
 Charge compensation  : None.
 Solution method      : Matrix inversion.
 Cavity type          : VdW (van der Waals Surface) (Alpha=1.000).
 Cavity algorithm     : GePol (No added spheres)
                        Default sphere list used, NSphG=    3.
                        Lebedev-Laikov grids with approx.  5.0 points / Ang**2.
                        Smoothing algorithm: Karplus/York (Gamma=1.0000).
                        Polarization charges: spherical gaussians, with
                                              point-specific exponents (IZeta= 3).
                        Self-potential: point-specific (ISelfS= 7).
                        Self-field    : sphere-specific E.n sum rule (ISelfD= 2).
 1st derivatives      : Analytical E(r).r(x)/FMM algorithm (CHGder, D1EAlg=3).
                        Cavity 1st derivative terms included.
 Solvent              : Water, Eps=  78.355300 Eps(inf)=   1.777849
 ------------------------------------------------------------------------------
 Spheres list:
 ISph  on   Nord    Re0     Alpha      Xe            Ye            Ze
    1   O      1    1.520   1.000      0.000000      0.000000      0.109697
    2   H      2    1.200   1.000     -0.000000      0.775672     -0.438786
    3   H      3    1.200   1.000     -0.000000     -0.775672     -0.438786
 ------------------------------------------------------------------------------
 GePol: Number of generator spheres                  =       3
 GePol: Total number of spheres                      =       3
 GePol: Number of exposed spheres                    =       3 (100.00%)
 GePol: Number of points                             =     244
 GePol: Average weight of points                     =       0.15
 GePol: Minimum weight of points                     =   0.14D-04
 GePol: Maximum weight of points                     =    0.21991
 GePol: Number of points with low weight             =       8
 GePol: Fraction of low-weight points (<1% of avg)   =       3.28%
 GePol: Cavity surface area                          =     35.833 Ang**2
 GePol: Cavity volume                                =     19.071 Ang**3
 ------------------------------------------------------------------------------
 Atomic radii for non-electrostatic terms: SMD-CDS.
 ------------------------------------------------------------------------------
 PCM non-electrostatic energy =         0.0023136239 Hartrees.
 Nuclear repulsion after PCM non-electrostatic terms =        9.2558808592 Hartrees.
 Leave Link  301 at Tue Sep 17 19:17:13 2024, MaxMem=   13107200 cpu:       0.1
 (Enter /programs/64bit/g09/g09-gfortran/bin/l302.exe)
 NPDir=0 NMtPBC=     1 NCelOv=     1 NCel=       1 NClECP=     1 NCelD=      1
         NCelK=      1 NCelE2=     1 NClLst=     1 CellRange=     0.0.
 One-electron integrals computed using PRISM.
 One-electron integral symmetry used in STVInt
 NBasis=    29 RedAO= T  NBF=    14     2     5     8
 NBsUse=    29 1.00D-06 NBFU=    14     2     5     8
 Precomputing XC quadrature grid using
 IXCGrd= 2 IRadAn=           0 IRanWt=          -1 IRanGd=           0 AccXCQ= 1.00D-10.
 NRdTot=     187 NPtTot=       23652 NUsed=       25013 NTot=       25045
 NSgBfM=    29    29    29    29    29 NAtAll=     3     3.
 Leave Link  302 at Tue Sep 17 19:17:13 2024, MaxMem=   13107200 cpu:       0.3
 (Enter /programs/64bit/g09/g09-gfortran/bin/l303.exe)
 DipDrv:  MaxL=1.
 Leave Link  303 at Tue Sep 17 19:17:13 2024, MaxMem=   13107200 cpu:       0.0
 (Enter /programs/64bit/g09/g09-gfortran/bin/l401.exe)
 Harris functional with IExCor=  402 diagonalized for initial guess.
 ExpMin= 8.45D-02 ExpMax= 5.48D+03 ExpMxC= 8.25D+02 IAcc=2 IRadAn=         0 AccDes= 0.00D+00
 HarFok:  IExCor=  402 AccDes= 0.00D+00 IRadAn=         0 IDoV= 1
 ScaDFX=  1.000000  1.000000  1.000000  1.000000
 FoFCou: FMM=F IPFlag=           0 FMFlag=      100000 FMFlg1=           0
         NFxFlg=           0 DoJE=T BraDBF=F KetDBF=T FulRan=T
         Omega=  0.000000  0.000000  1.000000  0.000000  0.000000 ICntrl=     500 IOpCl=  0
         NMat0=    1 NMatS0=    1 NMatT0=    0 NMatD0=    1 NMtDS0=    0 NMtDT0=    0
         I1Cent=           4 NGrid=           0.
 Petite list used in FoFCou.
 Harris En= -76.4688917454764    
 Initial guess orbital symmetries:
       Occupied  (A1) (A1) (B2) (A1) (B1)
       Virtual   (A1) (B2) (A1) (B1) (B2) (A1) (B2) (A1) (B1) (B2)
                 (A1) (A1) (A2) (A1) (B1) (A1) (B2) (B2) (B1) (A2)
                 (A1) (A1) (B2) (A1)
 The electronic state of the initial guess is 1-A1.
 Leave Link  401 at Tue Sep 17 19:17:14 2024, MaxMem=   13107200 cpu:       0.4
 (Enter /programs/64bit/g09/g09-gfortran/bin/l502.exe)
 Closed shell SCF:
 Requested convergence on RMS density matrix=1.00D-08 within 128 cycles.
 Requested convergence on MAX density matrix=1.00D-06.
 Requested convergence on             energy=1.00D-06.
 No special actions if energy rises.
 Using DIIS extrapolation, IDIIS=  1040.
 Integral symmetry usage will be decided dynamically.
        24973 words used for storage of precomputed grid.
 Keep R1 ints in memory in canonical form, NReq=3068703.
 IEnd=       46098 IEndB=       46098 NGot=    13107200 MDV=    12983755
 LenX=    12983755 LenY=    12982473
 Symmetry not used in FoFDir.
 MinBra= 0 MaxBra= 2 Meth= 1.
 IRaf=       0 NMat=   1 IRICut=       1 DoRegI=T DoRafI=F ISym2E= 0 JSym2E=0.

 Cycle   1  Pass 1  IDiag  1:
 E= -76.3782387709922    
 DIIS: error= 6.53D-02 at cycle   1 NSaved=   1.
 NSaved= 1 IEnMin= 1 EnMin= -76.3782387709922     IErMin= 1 ErrMin= 6.53D-02
 ErrMax= 6.53D-02 EMaxC= 1.00D-01 BMatC= 9.26D-02 BMatP= 9.26D-02
 IDIUse=3 WtCom= 3.47D-01 WtEn= 6.53D-01
 Coeff-Com:  0.100D+01
 Coeff-En:   0.100D+01
 Coeff:      0.100D+01
 Gap=     0.240 Goal=   None    Shift=    0.000
 GapD=    0.240 DampG=1.000 DampE=0.500 DampFc=0.5000 IDamp=-1.
 Damping current iteration by 5.00D-01
 RMSDP=1.47D-02 MaxDP=1.85D-01              OVMax= 2.24D-01

 Cycle   2  Pass 1  IDiag  1:
 E= -76.3931622035171     Delta-E=       -0.014923432525 Rises=F Damp=T
 DIIS: error= 2.17D-02 at cycle   2 NSaved=   2.
 NSaved= 2 IEnMin= 2 EnMin= -76.3931622035171     IErMin= 2 ErrMin= 2.17D-02
 ErrMax= 2.17D-02 EMaxC= 1.00D-01 BMatC= 1.01D-02 BMatP= 9.26D-02
 IDIUse=3 WtCom= 7.83D-01 WtEn= 2.17D-01
 Coeff-Com:  0.240D+00 0.760D+00
 Coeff-En:   0.398D+00 0.602D+00
 Coeff:      0.274D+00 0.726D+00
 Gap=     0.358 Goal=   None    Shift=    0.000
 RMSDP=1.85D-03 MaxDP=1.59D-02 DE=-1.49D-02 OVMax= 1.38D-01

 Cycle   3  Pass 1  IDiag  1:
 E= -76.4469121797875     Delta-E=       -0.053749976270 Rises=F Damp=F
 DIIS: error= 2.73D-03 at cycle   3 NSaved=   3.
 NSaved= 3 IEnMin= 3 EnMin= -76.4469121797875     IErMin= 3 ErrMin= 2.73D-03
 ErrMax= 2.73D-03 EMaxC= 1.00D-01 BMatC= 1.98D-04 BMatP= 1.01D-02
 IDIUse=3 WtCom= 9.73D-01 WtEn= 2.73D-02
 Coeff-Com:  0.308D-01-0.479D-01 0.102D+01
 Coeff-En:   0.000D+00 0.000D+00 0.100D+01
 Coeff:      0.300D-01-0.465D-01 0.102D+01
 Gap=     0.371 Goal=   None    Shift=    0.000
 RMSDP=2.12D-04 MaxDP=2.52D-03 DE=-5.37D-02 OVMax= 2.57D-03

 Cycle   4  Pass 1  IDiag  1:
 E= -76.4470354102423     Delta-E=       -0.000123230455 Rises=F Damp=F
 DIIS: error= 3.37D-04 at cycle   4 NSaved=   4.
 NSaved= 4 IEnMin= 4 EnMin= -76.4470354102423     IErMin= 4 ErrMin= 3.37D-04
 ErrMax= 3.37D-04 EMaxC= 1.00D-01 BMatC= 2.84D-06 BMatP= 1.98D-04
 IDIUse=3 WtCom= 9.97D-01 WtEn= 3.37D-03
 Coeff-Com:  0.702D-02-0.162D-01 0.179D+00 0.830D+00
 Coeff-En:   0.000D+00 0.000D+00 0.000D+00 0.100D+01
 Coeff:      0.700D-02-0.162D-01 0.179D+00 0.830D+00
 Gap=     0.371 Goal=   None    Shift=    0.000
 RMSDP=2.58D-05 MaxDP=2.66D-04 DE=-1.23D-04 OVMax= 3.58D-04

 Cycle   5  Pass 1  IDiag  1:
 E= -76.4470374958128     Delta-E=       -0.000002085571 Rises=F Damp=F
 DIIS: error= 8.64D-05 at cycle   5 NSaved=   5.
 NSaved= 5 IEnMin= 5 EnMin= -76.4470374958128     IErMin= 5 ErrMin= 8.64D-05
 ErrMax= 8.64D-05 EMaxC= 1.00D-01 BMatC= 1.59D-07 BMatP= 2.84D-06
 IDIUse=1 WtCom= 1.00D+00 WtEn= 0.00D+00
 Coeff-Com:  0.161D-02-0.217D-02 0.146D-01 0.101D+00 0.885D+00
 Coeff:      0.161D-02-0.217D-02 0.146D-01 0.101D+00 0.885D+00
 Gap=     0.372 Goal=   None    Shift=    0.000
 RMSDP=7.18D-06 MaxDP=7.55D-05 DE=-2.09D-06 OVMax= 9.70D-05

 Cycle   6  Pass 1  IDiag  1:
 E= -76.4470376148230     Delta-E=       -0.000000119010 Rises=F Damp=F
 DIIS: error= 7.73D-06 at cycle   6 NSaved=   6.
 NSaved= 6 IEnMin= 6 EnMin= -76.4470376148230     IErMin= 6 ErrMin= 7.73D-06
 ErrMax= 7.73D-06 EMaxC= 1.00D-01 BMatC= 1.25D-09 BMatP= 1.59D-07
 IDIUse=1 WtCom= 1.00D+00 WtEn= 0.00D+00
 Coeff-Com: -0.775D-04 0.103D-03-0.117D-02-0.108D-01-0.102D+00 0.111D+01
 Coeff:     -0.775D-04 0.103D-03-0.117D-02-0.108D-01-0.102D+00 0.111D+01
 Gap=     0.372 Goal=   None    Shift=    0.000
 RMSDP=8.86D-07 MaxDP=8.46D-06 DE=-1.19D-07 OVMax= 1.23D-05

 Cycle   7  Pass 1  IDiag  1:
 E= -76.4470376158002     Delta-E=       -0.000000000977 Rises=F Damp=F
 DIIS: error= 4.64D-07 at cycle   7 NSaved=   7.
 NSaved= 7 IEnMin= 7 EnMin= -76.4470376158002     IErMin= 7 ErrMin= 4.64D-07
 ErrMax= 4.64D-07 EMaxC= 1.00D-01 BMatC= 3.31D-12 BMatP= 1.25D-09
 IDIUse=1 WtCom= 1.00D+00 WtEn= 0.00D+00
 Coeff-Com: -0.897D-05 0.124D-04-0.432D-04 0.314D-03 0.202D-02-0.764D-01
 Coeff-Com:  0.107D+01
 Coeff:     -0.897D-05 0.124D-04-0.432D-04 0.314D-03 0.202D-02-0.764D-01
 Coeff:      0.107D+01
 Gap=     0.372 Goal=   None    Shift=    0.000
 RMSDP=4.78D-08 MaxDP=5.39D-07 DE=-9.77D-10 OVMax= 7.02D-07

 Cycle   8  Pass 1  IDiag  1:
 E= -76.4470376158030     Delta-E=       -0.000000000003 Rises=F Damp=F
 DIIS: error= 5.47D-08 at cycle   8 NSaved=   8.
 NSaved= 8 IEnMin= 8 EnMin= -76.4470376158030     IErMin= 8 ErrMin= 5.47D-08
 ErrMax= 5.47D-08 EMaxC= 1.00D-01 BMatC= 5.69D-14 BMatP= 3.31D-12
 IDIUse=1 WtCom= 1.00D+00 WtEn= 0.00D+00
 Coeff-Com:  0.467D-06-0.501D-06 0.341D-05 0.433D-04 0.490D-03 0.102D-02
 Coeff-Com: -0.563D-01 0.105D+01
 Coeff:      0.467D-06-0.501D-06 0.341D-05 0.433D-04 0.490D-03 0.102D-02
 Coeff:     -0.563D-01 0.105D+01
 Gap=     0.372 Goal=   None    Shift=    0.000
 RMSDP=4.56D-09 MaxDP=6.18D-08 DE=-2.81D-12 OVMax= 6.96D-08

 Error on total polarization charges =  0.03134
 SCF Done:  E(RB3LYP) =  -76.4470376158     A.U. after    8 cycles
             Convg  =    0.4564D-08             -V/T =  2.0091
 KE= 7.575739042985D+01 PE=-1.988621622768D+02 EE= 3.740185337197D+01
 SMD-CDS (non-electrostatic) energy             (kcal/mol) =       1.45
 (included in total energy above)
 Leave Link  502 at Tue Sep 17 19:17:16 2024, MaxMem=   13107200 cpu:       2.2
 (Enter /programs/64bit/g09/g09-gfortran/bin/l601.exe)
 Copying SCF densities to generalized density rwf, IOpCl= 0 IROHF=0.

 **********************************************************************

            Population analysis using the SCF density.

 **********************************************************************

 Orbital symmetries:
       Occupied  (A1) (A1) (B2) (A1) (B1)
       Virtual   (A1) (B2) (A1) (B1) (B2) (A1) (B2) (A1) (B2) (B1)
                 (A1) (A1) (A2) (A1) (B1) (B2) (A1) (B2) (B1) (A2)
                 (A1) (A1) (B2) (A1)
 The electronic state is 1-A1.
 Alpha  occ. eigenvalues --  -19.16280  -1.02039  -0.54576  -0.39404  -0.32547
 Alpha virt. eigenvalues --    0.04614   0.12843   0.14378   0.15097   0.23035
 Alpha virt. eigenvalues --    0.25733   0.94000   1.01693   1.08322   1.10727
 Alpha virt. eigenvalues --    1.11856   1.21549   1.50348   1.56018   1.63947
 Alpha virt. eigenvalues --    2.25218   2.25484   2.55639   2.65123   2.68440
 Alpha virt. eigenvalues --    3.07209   3.36867   3.52117   3.93857
          Condensed to atoms (all electrons):
              1          2          3
     1  O    8.243027   0.290178   0.290178
     2  H    0.290178   0.314348  -0.016218
     3  H    0.290178  -0.016218   0.314348
 Mulliken atomic charges:
              1
     1  O   -0.823384
     2  H    0.411692
     3  H    0.411692
 Sum of Mulliken atomic charges =  -0.00000
 Mulliken charges with hydrogens summed into heavy atoms:
              1
     1  O   -0.000000
 Sum of Mulliken charges with hydrogens summed into heavy atoms =  -0.00000
 Electronic spatial extent (au):  <R**2>=             19.8648
 Charge=             -0.0000 electrons
 Dipole moment (field-independent basis, Debye):
    X=             -0.0000    Y=             -0.0000    Z=             -2.5375  Tot=              2.5375
 Quadrupole moment (field-independent basis, Debye-Ang):
   XX=             -7.9333   YY=             -4.0571   ZZ=             -6.6366
   XY=              0.0000   XZ=              0.0000   YZ=             -0.0000
 Traceless Quadrupole moment (field-independent basis, Debye-Ang):
   XX=             -1.7243   YY=              2.1519   ZZ=             -0.4276
   XY=              0.0000   XZ=              0.0000   YZ=             -0.0000
 Octapole moment (field-independent basis, Debye-Ang**2):
  XXX=              0.0000  YYY=              0.0000  ZZZ=             -2.0716  XYY=             -0.0000
  XXY=             -0.0000  XXZ=             -0.6252  XZZ=             -0.0000  YZZ=             -0.0000
  YYZ=             -1.6808  XYZ=             -0.0000
 Hexadecapole moment (field-independent basis, Debye-Ang**3):
 XXXX=             -8.1456 YYYY=             -5.8539 ZZZZ=             -8.0995 XXXY=             -0.0000
 XXXZ=             -0.0000 YYYX=              0.0000 YYYZ=             -0.0000 ZZZX=             -0.0000
 ZZZY=             -0.0000 XXYY=             -2.6652 XXZZ=             -2.7529 YYZZ=             -2.0380
 XXYZ=              0.0000 YYXZ=              0.0000 ZZXY=              0.0000
 N-N= 9.255880859228D+00 E-N=-1.988621607010D+02  KE= 7.575739042985D+01
 Symmetry A1   KE= 6.766213192597D+01
 Symmetry A2   KE= 3.510677672015D-37
 Symmetry B1   KE= 4.404898558035D+00
 Symmetry B2   KE= 3.690359945838D+00
 No NMR shielding tensors so no spin-rotation constants.
 Leave Link  601 at Tue Sep 17 19:17:16 2024, MaxMem=   13107200 cpu:       0.2
 (Enter /programs/64bit/g09/g09-gfortran/bin/l701.exe)
 Compute integral first derivatives.
 ... and contract with generalized density number  0.
 D1PCM: PCM CHGder 1st derivatives, ID1Alg=3 FixD1E=F DoIter=F DoCFld=F I1PDM=0.
 GePol: Maximum number of non-zero 1st derivatives   =     158
 Leave Link  701 at Tue Sep 17 19:17:17 2024, MaxMem=   13107200 cpu:       0.7
 (Enter /programs/64bit/g09/g09-gfortran/bin/l702.exe)
 L702 exits ... SP integral derivatives will be done elsewhere.
 Leave Link  702 at Tue Sep 17 19:17:17 2024, MaxMem=   13107200 cpu:       0.0
 (Enter /programs/64bit/g09/g09-gfortran/bin/l703.exe)
 Compute integral first derivatives, UseDBF=F ICtDFT=           0.
 Integral derivatives from FoFDir, PRISM(SPDF).
 Calling FoFJK, ICntrl=      2127 FMM=F ISym2X=1 I1Cent= 0 IOpClX= 0 NMat=1 NMatS=1 NMatT=0.
 FoFCou: FMM=F IPFlag=           0 FMFlag=      100000 FMFlg1=         800
         NFxFlg=           0 DoJE=F BraDBF=F KetDBF=F FulRan=T
         Omega=  0.000000  0.000000  1.000000  0.000000  0.000000 ICntrl=    2127 IOpCl=  0
         NMat0=    1 NMatS0=    1 NMatT0=    0 NMatD0=    1 NMtDS0=    0 NMtDT0=    0
         I1Cent=           0 NGrid=           0.
 Petite list used in FoFCou.
 Leave Link  703 at Tue Sep 17 19:17:18 2024, MaxMem=   13107200 cpu:       0.7
 (Enter /programs/64bit/g09/g09-gfortran/bin/l716.exe)
 Dipole        =-6.47664821D-17 0.00000000D+00-9.98343918D-01
 ***** Axes restored to original set *****
 -------------------------------------------------------------------
 Center     Atomic                   Forces (Hartrees/Bohr)
 Number     Number              X              Y              Z
 -------------------------------------------------------------------
      1        8          -0.023637388    0.000000000   -0.016714157
      2        1           0.005834624   -0.000000000    0.016819831
      3        1           0.017802763   -0.000000000   -0.000105674
 -------------------------------------------------------------------
 Cartesian Forces:  Max     0.023637388 RMS     0.012788833
 Leave Link  716 at Tue Sep 17 19:17:18 2024, MaxMem=   13107200 cpu:       0.0
 (Enter /programs/64bit/g09/g09-gfortran/bin/l103.exe)

 GradGradGradGradGradGradGradGradGradGradGradGradGradGradGradGradGradGrad
 Berny optimization.
 Internal  Forces:  Max     0.016819831 RMS     0.015005884
 Search for a local minimum.
 Step number   1 out of a maximum of   20
 All quantities printed in internal units (Hartrees-Bohrs-Radians)
 RMS Force = .15006D-01 SwitMx=.10000D-02 MixMth= 1
 Mixed Optimization -- RFO/linear search
 Second derivative matrix not updated -- first step.
 The second derivative matrix:
                          R1        R2        A1
           R1           0.57681
           R2           0.00000   0.57681
           A1           0.00000   0.00000   0.16000
     Eigenvalues ---    0.16000   0.57681   0.57681
 RFO step:  Lambda=-1.65682276D-03 EMin= 1.60000000D-01
 Linear search not attempted -- first point.
 Iteration  1 RMS(Cart)=  0.03134670 RMS(Int)=  0.00097122
 Iteration  2 RMS(Cart)=  0.00108192 RMS(Int)=  0.00000037
 Iteration  3 RMS(Cart)=  0.00000026 RMS(Int)=  0.00000000
 ClnCor:  largest displacement from symmetrization is 4.58D-16 for atom     3.
 Variable       Old X    -DE/DX   Delta X   Delta X   Delta X     New X
                                 (Linear)    (Quad)   (Total)
    R1        1.79524   0.01682   0.00000   0.02908   0.02908   1.82432
    R2        1.79524   0.01682   0.00000   0.02908   0.02908   1.82432
    A1        1.91063  -0.01047   0.00000  -0.06479  -0.06479   1.84584
         Item               Value     Threshold  Converged?
 Maximum Force            0.016820     0.000450     NO 
 RMS     Force            0.015006     0.000300     NO 
 Maximum Displacement     0.035101     0.001800     NO 
 RMS     Displacement     0.031734     0.001200     NO 
 Predicted change in Energy=-8.332900D-04
 GradGradGradGradGradGradGradGradGradGradGradGradGradGradGradGradGradGrad

 Leave Link  103 at Tue Sep 17 19:17:18 2024, MaxMem=   13107200 cpu:       0.0
 (Enter /programs/64bit/g09/g09-gfortran/bin/l202.exe)
                          Input orientation:                          
 ---------------------------------------------------------------------
 Center     Atomic      Atomic             Coordinates (Angstroms)
 Number     Number       Type             X           Y           Z
 ---------------------------------------------------------------------
      1          8           0       -0.018574   -0.000000   -0.013134
      2          1           0        0.012696   -0.000000    0.951746
      3          1           0        0.901547    0.000000   -0.305279
 ---------------------------------------------------------------------
                    Distance matrix (angstroms):
                    1          2          3
     1  O    0.000000
     2  H    0.965387   0.000000
     3  H    0.965387   1.539534   0.000000
 Stoichiometry    H2O
 Framework group  C2V[C2(O),SGV(H2)]
 Deg. of freedom     2
 Full point group                 C2V     NOp   4
 Largest Abelian subgroup         C2V     NOp   4
 Largest concise Abelian subgroup C2      NOp   2
                         Standard orientation:                         
 ---------------------------------------------------------------------
 Center     Atomic      Atomic             Coordinates (Angstroms)
 Number     Number       Type             X           Y           Z
 ---------------------------------------------------------------------
      1          8           0        0.000000    0.000000    0.116521
      2          1           0       -0.000000    0.769767   -0.466085
      3          1           0       -0.000000   -0.769767   -0.466085
 ---------------------------------------------------------------------
 Rotational constants (GHZ):    831.7587600    423.1392521    280.4608632
 Leave Link  202 at Tue Sep 17 19:17:18 2024, MaxMem=   13107200 cpu:       0.0
 (Enter /programs/64bit/g09/g09-gfortran/bin/l301.exe)
 Standard basis: 6-31+G(d,p) (6D, 7F)
 Ernie: Thresh=  0.10000D-02 Tol=  0.10000D-05 Strict=F.
 There are    14 symmetry adapted basis functions of A1  symmetry.
 There are     2 symmetry adapted basis functions of A2  symmetry.
 There are     5 symmetry adapted basis functions of B1  symmetry.
 There are     8 symmetry adapted basis functions of B2  symmetry.
 Integral buffers will be    131072 words long.
 Raffenetti 2 integral format.
 Two-electron integral symmetry is turned on.
    29 basis functions,    46 primitive gaussians,    29 cartesian basis functions
     5 alpha electrons        5 beta electrons
       nuclear repulsion energy         9.1141342517 Hartrees.
 IExCor=  402 DFT=T Ex+Corr=B3LYP ExCW=0 ScaHFX=  0.200000
 ScaDFX=  0.800000  0.720000  1.000000  0.810000 ScalE2=  1.000000  1.000000
 IRadAn=      0 IRanWt=     -1 IRanGd=            0 ICorTp=0
 NAtoms=    3 NActive=    3 NUniq=    2 SFac= 1.69D+00 NAtFMM=   80 NAOKFM=F Big=F
 ------------------------------------------------------------------------------
 Polarizable Continuum Model (PCM)
 =================================
 Model                : PCM.
 Atomic radii         : SMD-Coulomb.
 Polarization charges : Total charges.
 Charge compensation  : None.
 Solution method      : Matrix inversion.
 Cavity type          : VdW (van der Waals Surface) (Alpha=1.000).
 Cavity algorithm     : GePol (No added spheres)
                        Default sphere list used, NSphG=    3.
                        Lebedev-Laikov grids with approx.  5.0 points / Ang**2.
                        Smoothing algorithm: Karplus/York (Gamma=1.0000).
                        Polarization charges: spherical gaussians, with
                                              point-specific exponents (IZeta= 3).
                        Self-potential: point-specific (ISelfS= 7).
                        Self-field    : sphere-specific E.n sum rule (ISelfD= 2).
 1st derivatives      : Analytical E(r).r(x)/FMM algorithm (CHGder, D1EAlg=3).
                        Cavity 1st derivative terms included.
 Solvent              : Water, Eps=  78.355300 Eps(inf)=   1.777849
 ------------------------------------------------------------------------------
 Spheres list:
 ISph  on   Nord    Re0     Alpha      Xe            Ye            Ze
    1   O      1    1.520   1.000      0.000000      0.000000      0.116521
    2   H      2    1.200   1.000     -0.000000      0.769767     -0.466085
    3   H      3    1.200   1.000     -0.000000     -0.769767     -0.466085
 ------------------------------------------------------------------------------
 GePol: Number of generator spheres                  =       3
 GePol: Total number of spheres                      =       3
 GePol: Number of exposed spheres                    =       3 (100.00%)
 GePol: Number of points                             =     244
 GePol: Average weight of points                     =       0.15
 GePol: Minimum weight of points                     =   0.11D-03
 GePol: Maximum weight of points                     =    0.21991
 GePol: Number of points with low weight             =      16
 GePol: Fraction of low-weight points (<1% of avg)   =       6.56%
 GePol: Cavity surface area                          =     36.030 Ang**2
 GePol: Cavity volume                                =     19.194 Ang**3
 ------------------------------------------------------------------------------
 Atomic radii for non-electrostatic terms: SMD-CDS.
 ------------------------------------------------------------------------------
 PCM non-electrostatic energy =         0.0023296248 Hartrees.
 Nuclear repulsion after PCM non-electrostatic terms =        9.1164638765 Hartrees.
 Leave Link  301 at Tue Sep 17 19:17:18 2024, MaxMem=   13107200 cpu:       0.1
 (Enter /programs/64bit/g09/g09-gfortran/bin/l302.exe)
 NPDir=0 NMtPBC=     1 NCelOv=     1 NCel=       1 NClECP=     1 NCelD=      1
         NCelK=      1 NCelE2=     1 NClLst=     1 CellRange=     0.0.
 One-electron integrals computed using PRISM.
 One-electron integral symmetry used in STVInt
 NBasis=    29 RedAO= T  NBF=    14     2     5     8
 NBsUse=    29 1.00D-06 NBFU=    14     2     5     8
 Precomputing XC quadrature grid using
 IXCGrd= 2 IRadAn=           0 IRanWt=          -1 IRanGd=           0 AccXCQ= 1.00D-10.
 NRdTot=     187 NPtTot=       23652 NUsed=       25013 NTot=       25045
 NSgBfM=    29    29    29    29    29 NAtAll=     3     3.
 Leave Link  302 at Tue Sep 17 19:17:19 2024, MaxMem=   13107200 cpu:       0.3
 (Enter /programs/64bit/g09/g09-gfortran/bin/l303.exe)
 DipDrv:  MaxL=1.
 Leave Link  303 at Tue Sep 17 19:17:19 2024, MaxMem=   13107200 cpu:       0.0
 (Enter /programs/64bit/g09/g09-gfortran/bin/l401.exe)
 Initial guess read from the read-write file.
 B after Tr=     0.000000    0.000000    0.000000
         Rot=    1.000000    0.000000    0.000000    0.000000 Ang=   0.00 deg.
 Guess basis will be translated and rotated to current coordinates.
 Initial guess orbital symmetries:
       Occupied  (A1) (A1) (B2) (A1) (B1)
       Virtual   (A1) (B2) (A1) (B1) (B2) (A1) (B2) (A1) (B2) (B1)
                 (A1) (A1) (A2) (A1) (B1) (B2) (A1) (B2) (B1) (A2)
                 (A1) (A1) (B2) (A1)
 The electronic state of the initial guess is 1-A1.
 Generating alternative initial guess.
 Harris functional with IExCor=  402 diagonalized for initial guess.
 ExpMin= 8.45D-02 ExpMax= 5.48D+03 ExpMxC= 8.25D+02 IAcc=2 IRadAn=         0 AccDes= 0.00D+00
 HarFok:  IExCor=  402 AccDes= 0.00D+00 IRadAn=         0 IDoV= 1
 ScaDFX=  1.000000  1.000000  1.000000  1.000000
 FoFCou: FMM=F IPFlag=           0 FMFlag=      100000 FMFlg1=           0
         NFxFlg=           0 DoJE=T BraDBF=F KetDBF=T FulRan=T
         Omega=  0.000000  0.000000  1.000000  0.000000  0.000000 ICntrl=     500 IOpCl=  0
         NMat0=    1 NMatS0=    1 NMatT0=    0 NMatD0=    1 NMtDS0=    0 NMtDT0=    0
         I1Cent=           4 NGrid=           0.
 Petite list used in FoFCou.
 Harris En= -76.4679816806256    
 Leave Link  401 at Tue Sep 17 19:17:19 2024, MaxMem=   13107200 cpu:       0.5
 (Enter /programs/64bit/g09/g09-gfortran/bin/l502.exe)
 Closed shell SCF:
 Requested convergence on RMS density matrix=1.00D-08 within 128 cycles.
 Requested convergence on MAX density matrix=1.00D-06.
 Requested convergence on             energy=1.00D-06.
 No special actions if energy rises.
 Using DIIS extrapolation, IDIIS=  1040.
 Integral symmetry usage will be decided dynamically.
        24973 words used for storage of precomputed grid.
 Keep R1 ints in memory in canonical form, NReq=3068703.
 IEnd=       46098 IEndB=       46098 NGot=    13107200 MDV=    12983755
 LenX=    12983755 LenY=    12982473
 Symmetry not used in FoFDir.
 MinBra= 0 MaxBra= 2 Meth= 1.
 IRaf=       0 NMat=   1 IRICut=       1 DoRegI=T DoRafI=F ISym2E= 0 JSym2E=0.

 Cycle   1  Pass 1  IDiag  1:
 E= -76.4477159397705    
 DIIS: error= 2.92D-03 at cycle   1 NSaved=   1.
 NSaved= 1 IEnMin= 1 EnMin= -76.4477159397705     IErMin= 1 ErrMin= 2.92D-03
 ErrMax= 2.92D-03 EMaxC= 1.00D-01 BMatC= 2.45D-04 BMatP= 2.45D-04
 IDIUse=3 WtCom= 9.71D-01 WtEn= 2.92D-02
 Coeff-Com:  0.100D+01
 Coeff-En:   0.100D+01
 Coeff:      0.100D+01
 Gap=     0.367 Goal=   None    Shift=    0.000
 GapD=    0.367 DampG=1.000 DampE=1.000 DampFc=1.0000 IDamp=-1.
 RMSDP=7.56D-04 MaxDP=5.21D-03              OVMax= 8.24D-03

 Cycle   2  Pass 1  IDiag  1:
 E= -76.4479658236714     Delta-E=       -0.000249883901 Rises=F Damp=F
 DIIS: error= 1.82D-03 at cycle   2 NSaved=   2.
 NSaved= 2 IEnMin= 2 EnMin= -76.4479658236714     IErMin= 2 ErrMin= 1.82D-03
 ErrMax= 1.82D-03 EMaxC= 1.00D-01 BMatC= 6.75D-05 BMatP= 2.45D-04
 IDIUse=3 WtCom= 9.82D-01 WtEn= 1.82D-02
 Coeff-Com:  0.257D+00 0.743D+00
 Coeff-En:   0.000D+00 0.100D+01
 Coeff:      0.253D+00 0.747D+00
 Gap=     0.370 Goal=   None    Shift=    0.000
 RMSDP=2.67D-04 MaxDP=3.59D-03 DE=-2.50D-04 OVMax= 4.07D-03

 Cycle   3  Pass 1  IDiag  1:
 E= -76.4479764798043     Delta-E=       -0.000010656133 Rises=F Damp=F
 DIIS: error= 1.57D-03 at cycle   3 NSaved=   3.
 NSaved= 3 IEnMin= 3 EnMin= -76.4479764798043     IErMin= 3 ErrMin= 1.57D-03
 ErrMax= 1.57D-03 EMaxC= 1.00D-01 BMatC= 5.37D-05 BMatP= 6.75D-05
 IDIUse=3 WtCom= 9.84D-01 WtEn= 1.57D-02
 Coeff-Com: -0.236D-01 0.476D+00 0.547D+00
 Coeff-En:   0.000D+00 0.448D+00 0.552D+00
 Coeff:     -0.233D-01 0.476D+00 0.548D+00
 Gap=     0.369 Goal=   None    Shift=    0.000
 RMSDP=1.35D-04 MaxDP=1.61D-03 DE=-1.07D-05 OVMax= 1.79D-03

 Cycle   4  Pass 1  IDiag  1:
 E= -76.4480146834929     Delta-E=       -0.000038203689 Rises=F Damp=F
 DIIS: error= 4.59D-05 at cycle   4 NSaved=   4.
 NSaved= 4 IEnMin= 4 EnMin= -76.4480146834929     IErMin= 4 ErrMin= 4.59D-05
 ErrMax= 4.59D-05 EMaxC= 1.00D-01 BMatC= 5.42D-08 BMatP= 5.37D-05
 IDIUse=1 WtCom= 1.00D+00 WtEn= 0.00D+00
 Coeff-Com: -0.730D-02 0.774D-01 0.102D+00 0.828D+00
 Coeff:     -0.730D-02 0.774D-01 0.102D+00 0.828D+00
 Gap=     0.369 Goal=   None    Shift=    0.000
 RMSDP=6.19D-06 MaxDP=4.68D-05 DE=-3.82D-05 OVMax= 1.01D-04

 Cycle   5  Pass 1  IDiag  1:
 E= -76.4480147325588     Delta-E=       -0.000000049066 Rises=F Damp=F
 DIIS: error= 4.17D-06 at cycle   5 NSaved=   5.
 NSaved= 5 IEnMin= 5 EnMin= -76.4480147325588     IErMin= 5 ErrMin= 4.17D-06
 ErrMax= 4.17D-06 EMaxC= 1.00D-01 BMatC= 5.44D-10 BMatP= 5.42D-08
 IDIUse=1 WtCom= 1.00D+00 WtEn= 0.00D+00
 Coeff-Com:  0.178D-03-0.909D-02-0.909D-02 0.236D-01 0.994D+00
 Coeff:      0.178D-03-0.909D-02-0.909D-02 0.236D-01 0.994D+00
 Gap=     0.369 Goal=   None    Shift=    0.000
 RMSDP=1.39D-06 MaxDP=1.19D-05 DE=-4.91D-08 OVMax= 1.90D-05

 Cycle   6  Pass 1  IDiag  1:
 E= -76.4480147332660     Delta-E=       -0.000000000707 Rises=F Damp=F
 DIIS: error= 6.56D-07 at cycle   6 NSaved=   6.
 NSaved= 6 IEnMin= 6 EnMin= -76.4480147332660     IErMin= 6 ErrMin= 6.56D-07
 ErrMax= 6.56D-07 EMaxC= 1.00D-01 BMatC= 7.13D-12 BMatP= 5.44D-10
 IDIUse=1 WtCom= 1.00D+00 WtEn= 0.00D+00
 Coeff-Com:  0.527D-04-0.543D-03-0.372D-03-0.483D-02-0.197D-01 0.103D+01
 Coeff:      0.527D-04-0.543D-03-0.372D-03-0.483D-02-0.197D-01 0.103D+01
 Gap=     0.369 Goal=   None    Shift=    0.000
 RMSDP=1.29D-07 MaxDP=1.26D-06 DE=-7.07D-10 OVMax= 1.83D-06

 Cycle   7  Pass 1  IDiag  1:
 E= -76.4480147332741     Delta-E=       -0.000000000008 Rises=F Damp=F
 DIIS: error= 2.73D-08 at cycle   7 NSaved=   7.
 NSaved= 7 IEnMin= 7 EnMin= -76.4480147332741     IErMin= 7 ErrMin= 2.73D-08
 ErrMax= 2.73D-08 EMaxC= 1.00D-01 BMatC= 1.35D-14 BMatP= 7.13D-12
 IDIUse=1 WtCom= 1.00D+00 WtEn= 0.00D+00
 Coeff-Com: -0.274D-05 0.566D-04 0.316D-04 0.343D-04-0.281D-02-0.521D-01
 Coeff-Com:  0.105D+01
 Coeff:     -0.274D-05 0.566D-04 0.316D-04 0.343D-04-0.281D-02-0.521D-01
 Coeff:      0.105D+01
 Gap=     0.369 Goal=   None    Shift=    0.000
 RMSDP=9.63D-09 MaxDP=1.07D-07 DE=-8.03D-12 OVMax= 1.39D-07

 Error on total polarization charges =  0.03127
 SCF Done:  E(RB3LYP) =  -76.4480147333     A.U. after    7 cycles
             Convg  =    0.9628D-08             -V/T =  2.0098
 KE= 7.570796880632D+01 PE=-1.985663534162D+02 EE= 3.729390600018D+01
 SMD-CDS (non-electrostatic) energy             (kcal/mol) =       1.46
 (included in total energy above)
 Leave Link  502 at Tue Sep 17 19:17:21 2024, MaxMem=   13107200 cpu:       1.9
 (Enter /programs/64bit/g09/g09-gfortran/bin/l701.exe)
 Compute integral first derivatives.
 ... and contract with generalized density number  0.
 D1PCM: PCM CHGder 1st derivatives, ID1Alg=3 FixD1E=F DoIter=F DoCFld=F I1PDM=0.
 GePol: Maximum number of non-zero 1st derivatives   =     154
 Leave Link  701 at Tue Sep 17 19:17:22 2024, MaxMem=   13107200 cpu:       0.7
 (Enter /programs/64bit/g09/g09-gfortran/bin/l702.exe)
 L702 exits ... SP integral derivatives will be done elsewhere.
 Leave Link  702 at Tue Sep 17 19:17:22 2024, MaxMem=   13107200 cpu:       0.0
 (Enter /programs/64bit/g09/g09-gfortran/bin/l703.exe)
 Compute integral first derivatives, UseDBF=F ICtDFT=           0.
 Integral derivatives from FoFDir, PRISM(SPDF).
 Calling FoFJK, ICntrl=      2127 FMM=F ISym2X=1 I1Cent= 0 IOpClX= 0 NMat=1 NMatS=1 NMatT=0.
 FoFCou: FMM=F IPFlag=           0 FMFlag=      100000 FMFlg1=         800
         NFxFlg=           0 DoJE=F BraDBF=F KetDBF=F FulRan=T
         Omega=  0.000000  0.000000  1.000000  0.000000  0.000000 ICntrl=    2127 IOpCl=  0
         NMat0=    1 NMatS0=    1 NMatT0=    0 NMatD0=    1 NMtDS0=    0 NMtDT0=    0
         I1Cent=           0 NGrid=           0.
 Petite list used in FoFCou.
 Leave Link  703 at Tue Sep 17 19:17:23 2024, MaxMem=   13107200 cpu:       0.7
 (Enter /programs/64bit/g09/g09-gfortran/bin/l716.exe)
 Dipole        =-6.47629845D-17-6.66133815D-16-1.03847989D+00
 ***** Axes restored to original set *****
 -------------------------------------------------------------------
 Center     Atomic                   Forces (Hartrees/Bohr)
 Number     Number              X              Y              Z
 -------------------------------------------------------------------
      1        8          -0.004175074    0.000000000   -0.002952223
      2        1           0.001625543   -0.000000000    0.002129470
      3        1           0.002549531   -0.000000000    0.000822753
 -------------------------------------------------------------------
 Cartesian Forces:  Max     0.004175074 RMS     0.002121345
 Leave Link  716 at Tue Sep 17 19:17:23 2024, MaxMem=   13107200 cpu:       0.0
 (Enter /programs/64bit/g09/g09-gfortran/bin/l103.exe)

 GradGradGradGradGradGradGradGradGradGradGradGradGradGradGradGradGradGrad
 Berny optimization.
 Using GEDIIS/GDIIS optimizer.
 Internal  Forces:  Max     0.002838112 RMS     0.002419949
 Search for a local minimum.
 Step number   2 out of a maximum of   20
 All quantities printed in internal units (Hartrees-Bohrs-Radians)
 RMS Force = .24199D-02 SwitMx=.10000D-02 MixMth= 1
 Mixed Optimization -- RFO/linear search
 Update second derivatives using D2CorX and points    1    2
 DE= -9.77D-04 DEPred=-8.33D-04 R= 1.17D+00
 SS=  1.41D+00  RLast= 7.67D-02 DXNew= 5.0454D-01 2.3022D-01
 Trust test= 1.17D+00 RLast= 7.67D-02 DXMaxT set to 3.00D-01
 The second derivative matrix:
                          R1        R2        A1
           R1           0.56523
           R2          -0.01158   0.56523
           A1           0.02252   0.02252   0.13807
 Use linear search instead of GDIIS.
     Eigenvalues ---    0.13564   0.55607   0.57681
 RFO step:  Lambda=-1.36711592D-05 EMin= 1.35640471D-01
 Quartic linear search produced a step of  0.23958.
 Iteration  1 RMS(Cart)=  0.01176436 RMS(Int)=  0.00010591
 Iteration  2 RMS(Cart)=  0.00010855 RMS(Int)=  0.00000000
 Iteration  3 RMS(Cart)=  0.00000000 RMS(Int)=  0.00000000
 ClnCor:  largest displacement from symmetrization is 1.12D-14 for atom     3.
 Variable       Old X    -DE/DX   Delta X   Delta X   Delta X     New X
                                 (Linear)    (Quad)   (Total)
    R1        1.82432   0.00218   0.00697  -0.00198   0.00498   1.82930
    R2        1.82432   0.00218   0.00697  -0.00198   0.00498   1.82930
    A1        1.84584  -0.00284  -0.01552  -0.00760  -0.02312   1.82272
         Item               Value     Threshold  Converged?
 Maximum Force            0.002838     0.000450     NO 
 RMS     Force            0.002420     0.000300     NO 
 Maximum Displacement     0.011064     0.001800     NO 
 RMS     Displacement     0.011820     0.001200     NO 
 Predicted change in Energy=-4.189389D-05
 GradGradGradGradGradGradGradGradGradGradGradGradGradGradGradGradGradGrad

 Leave Link  103 at Tue Sep 17 19:17:23 2024, MaxMem=   13107200 cpu:       0.0
 (Enter /programs/64bit/g09/g09-gfortran/bin/l202.exe)
                          Input orientation:                          
 ---------------------------------------------------------------------
 Center     Atomic      Atomic             Coordinates (Angstroms)
 Number     Number       Type             X           Y           Z
 ---------------------------------------------------------------------
      1          8           0       -0.024277   -0.000000   -0.017166
      2          1           0        0.018262   -0.000000    0.949923
      3          1           0        0.901684    0.000000   -0.299424
 ---------------------------------------------------------------------
                    Distance matrix (angstroms):
                    1          2          3
     1  O    0.000000
     2  H    0.968025   0.000000
     3  H    0.968025   1.530132   0.000000
 Stoichiometry    H2O
 Framework group  C2V[C2(O),SGV(H2)]
 Deg. of freedom     2
 Full point group                 C2V     NOp   4
 Largest Abelian subgroup         C2V     NOp   4
 Largest concise Abelian subgroup C2      NOp   2
                         Standard orientation:                         
 ---------------------------------------------------------------------
 Center     Atomic      Atomic             Coordinates (Angstroms)
 Number     Number       Type             X           Y           Z
 ---------------------------------------------------------------------
      1          8           0       -0.000000    0.000000    0.118616
      2          1           0        0.000000    0.765066   -0.474465
      3          1           0       -0.000000   -0.765066   -0.474465
 ---------------------------------------------------------------------
 Rotational constants (GHZ):    802.6358497    428.3556454    279.2981095
 Leave Link  202 at Tue Sep 17 19:17:23 2024, MaxMem=   13107200 cpu:       0.0
 (Enter /programs/64bit/g09/g09-gfortran/bin/l301.exe)
 Standard basis: 6-31+G(d,p) (6D, 7F)
 Ernie: Thresh=  0.10000D-02 Tol=  0.10000D-05 Strict=F.
 There are    14 symmetry adapted basis functions of A1  symmetry.
 There are     2 symmetry adapted basis functions of A2  symmetry.
 There are     5 symmetry adapted basis functions of B1  symmetry.
 There are     8 symmetry adapted basis functions of B2  symmetry.
 Integral buffers will be    131072 words long.
 Raffenetti 2 integral format.
 Two-electron integral symmetry is turned on.
    29 basis functions,    46 primitive gaussians,    29 cartesian basis functions
     5 alpha electrons        5 beta electrons
       nuclear repulsion energy         9.0923469939 Hartrees.
 IExCor=  402 DFT=T Ex+Corr=B3LYP ExCW=0 ScaHFX=  0.200000
 ScaDFX=  0.800000  0.720000  1.000000  0.810000 ScalE2=  1.000000  1.000000
 IRadAn=      0 IRanWt=     -1 IRanGd=            0 ICorTp=0
 NAtoms=    3 NActive=    3 NUniq=    2 SFac= 1.69D+00 NAtFMM=   80 NAOKFM=F Big=F
 ------------------------------------------------------------------------------
 Polarizable Continuum Model (PCM)
 =================================
 Model                : PCM.
 Atomic radii         : SMD-Coulomb.
 Polarization charges : Total charges.
 Charge compensation  : None.
 Solution method      : Matrix inversion.
 Cavity type          : VdW (van der Waals Surface) (Alpha=1.000).
 Cavity algorithm     : GePol (No added spheres)
                        Default sphere list used, NSphG=    3.
                        Lebedev-Laikov grids with approx.  5.0 points / Ang**2.
                        Smoothing algorithm: Karplus/York (Gamma=1.0000).
                        Polarization charges: spherical gaussians, with
                                              point-specific exponents (IZeta= 3).
                        Self-potential: point-specific (ISelfS= 7).
                        Self-field    : sphere-specific E.n sum rule (ISelfD= 2).
 1st derivatives      : Analytical E(r).r(x)/FMM algorithm (CHGder, D1EAlg=3).
                        Cavity 1st derivative terms included.
 Solvent              : Water, Eps=  78.355300 Eps(inf)=   1.777849
 ------------------------------------------------------------------------------
 Spheres list:
 ISph  on   Nord    Re0     Alpha      Xe            Ye            Ze
    1   O      1    1.520   1.000     -0.000000      0.000000      0.118616
    2   H      2    1.200   1.000      0.000000      0.765066     -0.474465
    3   H      3    1.200   1.000     -0.000000     -0.765066     -0.474465
 ------------------------------------------------------------------------------
 GePol: Number of generator spheres                  =       3
 GePol: Total number of spheres                      =       3
 GePol: Number of exposed spheres                    =       3 (100.00%)
 GePol: Number of points                             =     244
 GePol: Average weight of points                     =       0.15
 GePol: Minimum weight of points                     =   0.20D-06
 GePol: Maximum weight of points                     =    0.21991
 GePol: Number of points with low weight             =      16
 GePol: Fraction of low-weight points (<1% of avg)   =       6.56%
 GePol: Cavity surface area                          =     36.097 Ang**2
 GePol: Cavity volume                                =     19.230 Ang**3
 ------------------------------------------------------------------------------
 Atomic radii for non-electrostatic terms: SMD-CDS.
 ------------------------------------------------------------------------------
 PCM non-electrostatic energy =         0.0023262956 Hartrees.
 Nuclear repulsion after PCM non-electrostatic terms =        9.0946732894 Hartrees.
 Leave Link  301 at Tue Sep 17 19:17:23 2024, MaxMem=   13107200 cpu:       0.1
 (Enter /programs/64bit/g09/g09-gfortran/bin/l302.exe)
 NPDir=0 NMtPBC=     1 NCelOv=     1 NCel=       1 NClECP=     1 NCelD=      1
         NCelK=      1 NCelE2=     1 NClLst=     1 CellRange=     0.0.
 One-electron integrals computed using PRISM.
 One-electron integral symmetry used in STVInt
 NBasis=    29 RedAO= T  NBF=    14     2     5     8
 NBsUse=    29 1.00D-06 NBFU=    14     2     5     8
 Precomputing XC quadrature grid using
 IXCGrd= 2 IRadAn=           0 IRanWt=          -1 IRanGd=           0 AccXCQ= 1.00D-10.
 NRdTot=     187 NPtTot=       23652 NUsed=       25013 NTot=       25045
 NSgBfM=    29    29    29    29    29 NAtAll=     3     3.
 Leave Link  302 at Tue Sep 17 19:17:23 2024, MaxMem=   13107200 cpu:       0.3
 (Enter /programs/64bit/g09/g09-gfortran/bin/l303.exe)
 DipDrv:  MaxL=1.
 Leave Link  303 at Tue Sep 17 19:17:24 2024, MaxMem=   13107200 cpu:       0.0
 (Enter /programs/64bit/g09/g09-gfortran/bin/l401.exe)
 Initial guess read from the read-write file.
 B after Tr=     0.000000    0.000000    0.000000
         Rot=    1.000000    0.000000    0.000000    0.000000 Ang=   0.00 deg.
 Guess basis will be translated and rotated to current coordinates.
 Initial guess orbital symmetries:
       Occupied  (A1) (A1) (B2) (A1) (B1)
       Virtual   (A1) (B2) (A1) (B1) (B2) (A1) (B2) (A1) (B2) (B1)
                 (A1) (A1) (A2) (A1) (B1) (A1) (B2) (B2) (A2) (B1)
                 (A1) (A1) (B2) (A1)
 The electronic state of the initial guess is 1-A1.
 Leave Link  401 at Tue Sep 17 19:17:24 2024, MaxMem=   13107200 cpu:       0.2
 (Enter /programs/64bit/g09/g09-gfortran/bin/l502.exe)
 Closed shell SCF:
 Requested convergence on RMS density matrix=1.00D-08 within 128 cycles.
 Requested convergence on MAX density matrix=1.00D-06.
 Requested convergence on             energy=1.00D-06.
 No special actions if energy rises.
 Using DIIS extrapolation, IDIIS=  1040.
 Integral symmetry usage will be decided dynamically.
        24973 words used for storage of precomputed grid.
 Keep R1 ints in memory in canonical form, NReq=3068703.
 IEnd=       46098 IEndB=       46098 NGot=    13107200 MDV=    12983755
 LenX=    12983755 LenY=    12982473
 Symmetry not used in FoFDir.
 MinBra= 0 MaxBra= 2 Meth= 1.
 IRaf=       0 NMat=   1 IRICut=       1 DoRegI=T DoRafI=F ISym2E= 0 JSym2E=0.

 Cycle   1  Pass 1  IDiag  1:
 E= -76.4480330343769    
 DIIS: error= 8.86D-04 at cycle   1 NSaved=   1.
 NSaved= 1 IEnMin= 1 EnMin= -76.4480330343769     IErMin= 1 ErrMin= 8.86D-04
 ErrMax= 8.86D-04 EMaxC= 1.00D-01 BMatC= 1.81D-05 BMatP= 1.81D-05
 IDIUse=3 WtCom= 9.91D-01 WtEn= 8.86D-03
 Coeff-Com:  0.100D+01
 Coeff-En:   0.100D+01
 Coeff:      0.100D+01
 Gap=     0.368 Goal=   None    Shift=    0.000
 RMSDP=2.16D-04 MaxDP=1.45D-03              OVMax= 2.35D-03

 Cycle   2  Pass 1  IDiag  1:
 E= -76.4480545540037     Delta-E=       -0.000021519627 Rises=F Damp=F
 DIIS: error= 3.05D-04 at cycle   2 NSaved=   2.
 NSaved= 2 IEnMin= 2 EnMin= -76.4480545540037     IErMin= 2 ErrMin= 3.05D-04
 ErrMax= 3.05D-04 EMaxC= 1.00D-01 BMatC= 1.95D-06 BMatP= 1.81D-05
 IDIUse=3 WtCom= 9.97D-01 WtEn= 3.05D-03
 Coeff-Com:  0.985D-01 0.901D+00
 Coeff-En:   0.000D+00 0.100D+01
 Coeff:      0.982D-01 0.902D+00
 Gap=     0.368 Goal=   None    Shift=    0.000
 RMSDP=5.50D-05 MaxDP=7.27D-04 DE=-2.15D-05 OVMax= 8.22D-04

 Cycle   3  Pass 1  IDiag  1:
 E= -76.4480538119606     Delta-E=        0.000000742043 Rises=F Damp=F
 DIIS: error= 3.82D-04 at cycle   3 NSaved=   3.
 NSaved= 3 IEnMin= 2 EnMin= -76.4480545540037     IErMin= 2 ErrMin= 3.05D-04
 ErrMax= 3.82D-04 EMaxC= 1.00D-01 BMatC= 3.10D-06 BMatP= 1.95D-06
 IDIUse=3 WtCom= 3.38D-01 WtEn= 6.62D-01
 Coeff-Com: -0.331D-01 0.572D+00 0.461D+00
 Coeff-En:   0.000D+00 0.589D+00 0.411D+00
 Coeff:     -0.112D-01 0.583D+00 0.428D+00
 Gap=     0.368 Goal=   None    Shift=    0.000
 RMSDP=3.04D-05 MaxDP=3.76D-04 DE= 7.42D-07 OVMax= 4.21D-04

 Cycle   4  Pass 1  IDiag  1:
 E= -76.4480560145914     Delta-E=       -0.000002202631 Rises=F Damp=F
 DIIS: error= 1.33D-05 at cycle   4 NSaved=   4.
 NSaved= 4 IEnMin= 4 EnMin= -76.4480560145914     IErMin= 4 ErrMin= 1.33D-05
 ErrMax= 1.33D-05 EMaxC= 1.00D-01 BMatC= 4.73D-09 BMatP= 1.95D-06
 IDIUse=1 WtCom= 1.00D+00 WtEn= 0.00D+00
 Coeff-Com: -0.555D-02 0.608D-01 0.165D-01 0.928D+00
 Coeff:     -0.555D-02 0.608D-01 0.165D-01 0.928D+00
 Gap=     0.368 Goal=   None    Shift=    0.000
 RMSDP=2.15D-06 MaxDP=1.42D-05 DE=-2.20D-06 OVMax= 2.77D-05

 Cycle   5  Pass 1  IDiag  1:
 E= -76.4480560188305     Delta-E=       -0.000000004239 Rises=F Damp=F
 DIIS: error= 1.15D-06 at cycle   5 NSaved=   5.
 NSaved= 5 IEnMin= 5 EnMin= -76.4480560188305     IErMin= 5 ErrMin= 1.15D-06
 ErrMax= 1.15D-06 EMaxC= 1.00D-01 BMatC= 3.71D-11 BMatP= 4.73D-09
 IDIUse=1 WtCom= 1.00D+00 WtEn= 0.00D+00
 Coeff-Com:  0.470D-03-0.139D-01-0.124D-01 0.706D-01 0.955D+00
 Coeff:      0.470D-03-0.139D-01-0.124D-01 0.706D-01 0.955D+00
 Gap=     0.368 Goal=   None    Shift=    0.000
 RMSDP=3.05D-07 MaxDP=2.52D-06 DE=-4.24D-09 OVMax= 3.83D-06

 Cycle   6  Pass 1  IDiag  1:
 E= -76.4480560188700     Delta-E=       -0.000000000039 Rises=F Damp=F
 DIIS: error= 1.03D-07 at cycle   6 NSaved=   6.
 NSaved= 6 IEnMin= 6 EnMin= -76.4480560188700     IErMin= 6 ErrMin= 1.03D-07
 ErrMax= 1.03D-07 EMaxC= 1.00D-01 BMatC= 1.99D-13 BMatP= 3.71D-11
 IDIUse=1 WtCom= 1.00D+00 WtEn= 0.00D+00
 Coeff-Com:  0.205D-04-0.240D-04 0.376D-03-0.564D-02-0.318D-01 0.104D+01
 Coeff:      0.205D-04-0.240D-04 0.376D-03-0.564D-02-0.318D-01 0.104D+01
 Gap=     0.368 Goal=   None    Shift=    0.000
 RMSDP=2.53D-08 MaxDP=2.67D-07 DE=-3.95D-11 OVMax= 3.64D-07

 Cycle   7  Pass 1  IDiag  1:
 E= -76.4480560188704     Delta-E=       -0.000000000000 Rises=F Damp=F
 DIIS: error= 4.99D-09 at cycle   7 NSaved=   7.
 NSaved= 7 IEnMin= 7 EnMin= -76.4480560188704     IErMin= 7 ErrMin= 4.99D-09
 ErrMax= 4.99D-09 EMaxC= 1.00D-01 BMatC= 3.87D-16 BMatP= 1.99D-13
 IDIUse=1 WtCom= 1.00D+00 WtEn= 0.00D+00
 Coeff-Com: -0.206D-05 0.499D-04 0.256D-04-0.202D-03-0.276D-02-0.463D-01
 Coeff-Com:  0.105D+01
 Coeff:     -0.206D-05 0.499D-04 0.256D-04-0.202D-03-0.276D-02-0.463D-01
 Coeff:      0.105D+01
 Gap=     0.368 Goal=   None    Shift=    0.000
 RMSDP=2.14D-09 MaxDP=2.46D-08 DE=-4.12D-13 OVMax= 2.95D-08

 Error on total polarization charges =  0.03121
 SCF Done:  E(RB3LYP) =  -76.4480560189     A.U. after    7 cycles
             Convg  =    0.2137D-08             -V/T =  2.0099
 KE= 7.570115330399D+01 PE=-1.985195668546D+02 EE= 3.727568424233D+01
 SMD-CDS (non-electrostatic) energy             (kcal/mol) =       1.46
 (included in total energy above)
 Leave Link  502 at Tue Sep 17 19:17:26 2024, MaxMem=   13107200 cpu:       1.9
 (Enter /programs/64bit/g09/g09-gfortran/bin/l701.exe)
 Compute integral first derivatives.
 ... and contract with generalized density number  0.
 D1PCM: PCM CHGder 1st derivatives, ID1Alg=3 FixD1E=F DoIter=F DoCFld=F I1PDM=0.
 GePol: Maximum number of non-zero 1st derivatives   =     154
 Leave Link  701 at Tue Sep 17 19:17:27 2024, MaxMem=   13107200 cpu:       0.7
 (Enter /programs/64bit/g09/g09-gfortran/bin/l702.exe)
 L702 exits ... SP integral derivatives will be done elsewhere.
 Leave Link  702 at Tue Sep 17 19:17:27 2024, MaxMem=   13107200 cpu:       0.0
 (Enter /programs/64bit/g09/g09-gfortran/bin/l703.exe)
 Compute integral first derivatives, UseDBF=F ICtDFT=           0.
 Integral derivatives from FoFDir, PRISM(SPDF).
 Calling FoFJK, ICntrl=      2127 FMM=F ISym2X=1 I1Cent= 0 IOpClX= 0 NMat=1 NMatS=1 NMatT=0.
 FoFCou: FMM=F IPFlag=           0 FMFlag=      100000 FMFlg1=         800
         NFxFlg=           0 DoJE=F BraDBF=F KetDBF=F FulRan=T
         Omega=  0.000000  0.000000  1.000000  0.000000  0.000000 ICntrl=    2127 IOpCl=  0
         NMat0=    1 NMatS0=    1 NMatT0=    0 NMatD0=    1 NMtDS0=    0 NMtDT0=    0
         I1Cent=           0 NGrid=           0.
 Petite list used in FoFCou.
 Leave Link  703 at Tue Sep 17 19:17:27 2024, MaxMem=   13107200 cpu:       0.7
 (Enter /programs/64bit/g09/g09-gfortran/bin/l716.exe)
 Dipole        =-6.43783523D-17 0.00000000D+00-1.05098517D+00
 ***** Axes restored to original set *****
 -------------------------------------------------------------------
 Center     Atomic                   Forces (Hartrees/Bohr)
 Number     Number              X              Y              Z
 -------------------------------------------------------------------
      1        8           0.000037227    0.000000000    0.000026324
      2        1          -0.000152716   -0.000000000    0.000176488
      3        1           0.000115489   -0.000000000   -0.000202811
 -------------------------------------------------------------------
 Cartesian Forces:  Max     0.000202811 RMS     0.000111065
 Leave Link  716 at Tue Sep 17 19:17:28 2024, MaxMem=   13107200 cpu:       0.1
 (Enter /programs/64bit/g09/g09-gfortran/bin/l103.exe)

 GradGradGradGradGradGradGradGradGradGradGradGradGradGradGradGradGradGrad
 Berny optimization.
 Using GEDIIS/GDIIS optimizer.
 Internal  Forces:  Max     0.000293281 RMS     0.000218744
 Search for a local minimum.
 Step number   3 out of a maximum of   20
 All quantities printed in internal units (Hartrees-Bohrs-Radians)
 RMS Force = .21874D-03 SwitMx=.10000D-02 MixMth= 2
 Mixed Optimization -- En-DIIS/RFO-DIIS
 Update second derivatives using D2CorX and points    1    2    3
 DE= -4.13D-05 DEPred=-4.19D-05 R= 9.85D-01
 SS=  1.41D+00  RLast= 2.42D-02 DXNew= 5.0454D-01 7.2512D-02
 Trust test= 9.85D-01 RLast= 2.42D-02 DXMaxT set to 3.00D-01
 The second derivative matrix:
                          R1        R2        A1
           R1           0.55216
           R2          -0.02465   0.55216
           A1           0.02674   0.02674   0.14697
 Use linear search instead of GDIIS.
     Eigenvalues ---    0.14325   0.53124   0.57681
 RFO step:  Lambda=-3.55668101D-07 EMin= 1.43250755D-01
 Quartic linear search produced a step of -0.05455.
 Iteration  1 RMS(Cart)=  0.00117067 RMS(Int)=  0.00000069
 Iteration  2 RMS(Cart)=  0.00000053 RMS(Int)=  0.00000000
 ClnCor:  largest displacement from symmetrization is 6.44D-15 for atom     3.
 Variable       Old X    -DE/DX   Delta X   Delta X   Delta X     New X
                                 (Linear)    (Quad)   (Total)
    R1        1.82930   0.00017  -0.00027   0.00050   0.00023   1.82953
    R2        1.82930   0.00017  -0.00027   0.00050   0.00023   1.82953
    A1        1.82272   0.00029   0.00126   0.00064   0.00190   1.82462
         Item               Value     Threshold  Converged?
 Maximum Force            0.000293     0.000450     YES
 RMS     Force            0.000219     0.000300     YES
 Maximum Displacement     0.001253     0.001800     YES
 RMS     Displacement     0.001170     0.001200     YES
 Predicted change in Energy=-3.187056D-07
 Optimization completed.
    -- Stationary point found.
                           ----------------------------
                           !   Optimized Parameters   !
                           ! (Angstroms and Degrees)  !
 --------------------------                            --------------------------
 ! Name  Definition              Value          Derivative Info.                !
 --------------------------------------------------------------------------------
 ! R1    R(1,2)                  0.968          -DE/DX =    0.0002              !
 ! R2    R(1,3)                  0.968          -DE/DX =    0.0002              !
 ! A1    A(2,1,3)              104.4341         -DE/DX =    0.0003              !
 --------------------------------------------------------------------------------
 GradGradGradGradGradGradGradGradGradGradGradGradGradGradGradGradGradGrad

 Largest change from initial coordinates is atom    3       0.037 Angstoms.
 Leave Link  103 at Tue Sep 17 19:17:28 2024, MaxMem=   13107200 cpu:       0.0
 (Enter /programs/64bit/g09/g09-gfortran/bin/l202.exe)
                          Input orientation:                          
 ---------------------------------------------------------------------
 Center     Atomic      Atomic             Coordinates (Angstroms)
 Number     Number       Type             X           Y           Z
 ---------------------------------------------------------------------
      1          8           0       -0.024277    0.000000   -0.017166
      2          1           0        0.018262   -0.000000    0.949923
      3          1           0        0.901684    0.000000   -0.299424
 ---------------------------------------------------------------------
                    Distance matrix (angstroms):
                    1          2          3
     1  O    0.000000
     2  H    0.968025   0.000000
     3  H    0.968025   1.530132   0.000000
 Stoichiometry    H2O
 Framework group  C2V[C2(O),SGV(H2)]
 Deg. of freedom     2
 Full point group                 C2V     NOp   4
 Largest Abelian subgroup         C2V     NOp   4
 Largest concise Abelian subgroup C2      NOp   2
                         Standard orientation:                         
 ---------------------------------------------------------------------
 Center     Atomic      Atomic             Coordinates (Angstroms)
 Number     Number       Type             X           Y           Z
 ---------------------------------------------------------------------
      1          8           0        0.000000   -0.000000    0.118616
      2          1           0        0.000000    0.765066   -0.474465
      3          1           0       -0.000000   -0.765066   -0.474465
 ---------------------------------------------------------------------
 Rotational constants (GHZ):    802.6358497    428.3556454    279.2981095
 Leave Link  202 at Tue Sep 17 19:17:28 2024, MaxMem=   13107200 cpu:       0.0
 (Enter /programs/64bit/g09/g09-gfortran/bin/l601.exe)
 Copying SCF densities to generalized density rwf, IOpCl= 0 IROHF=0.

 **********************************************************************

            Population analysis using the SCF density.

 **********************************************************************

 Orbital symmetries:
       Occupied  (A1) (A1) (B2) (A1) (B1)
       Virtual   (A1) (B2) (A1) (B1) (B2) (A1) (B2) (A1) (B2) (B1)
                 (A1) (A1) (A2) (A1) (B1) (A1) (B2) (B2) (A2) (B1)
                 (A1) (A1) (B2) (A1)
 The electronic state is 1-A1.
 Alpha  occ. eigenvalues --  -19.16641  -1.01570  -0.52960  -0.40103  -0.32473
 Alpha virt. eigenvalues --    0.04328   0.12937   0.14275   0.15075   0.21563
 Alpha virt. eigenvalues --    0.26011   0.91787   1.01038   1.08528   1.10667
 Alpha virt. eigenvalues --    1.13152   1.22777   1.51257   1.52730   1.62402
 Alpha virt. eigenvalues --    2.23343   2.26771   2.50673   2.63340   2.66551
 Alpha virt. eigenvalues --    3.02999   3.33023   3.52173   3.91413
          Condensed to atoms (all electrons):
              1          2          3
     1  O    8.259105   0.281826   0.281826
     2  H    0.281826   0.323014  -0.016219
     3  H    0.281826  -0.016219   0.323014
 Mulliken atomic charges:
              1
     1  O   -0.822758
     2  H    0.411379
     3  H    0.411379
 Sum of Mulliken atomic charges =  -0.00000
 Mulliken charges with hydrogens summed into heavy atoms:
              1
     1  O   -0.000000
 Sum of Mulliken charges with hydrogens summed into heavy atoms =  -0.00000
 Electronic spatial extent (au):  <R**2>=             20.0782
 Charge=             -0.0000 electrons
 Dipole moment (field-independent basis, Debye):
    X=             -0.0000    Y=             -0.0000    Z=             -2.6713  Tot=              2.6713
 Quadrupole moment (field-independent basis, Debye-Ang):
   XX=             -7.9713   YY=             -4.2317   ZZ=             -6.4769
   XY=              0.0000   XZ=              0.0000   YZ=              0.0000
 Traceless Quadrupole moment (field-independent basis, Debye-Ang):
   XX=             -1.7447   YY=              1.9950   ZZ=             -0.2503
   XY=              0.0000   XZ=              0.0000   YZ=              0.0000
 Octapole moment (field-independent basis, Debye-Ang**2):
  XXX=              0.0000  YYY=             -0.0000  ZZZ=             -2.1980  XYY=             -0.0000
  XXY=             -0.0000  XXZ=             -0.6446  XZZ=             -0.0000  YZZ=             -0.0000
  YYZ=             -1.7436  XYZ=             -0.0000
 Hexadecapole moment (field-independent basis, Debye-Ang**3):
 XXXX=             -8.1980 YYYY=             -6.1332 ZZZZ=             -8.1731 XXXY=             -0.0000
 XXXZ=             -0.0000 YYYX=              0.0000 YYYZ=              0.0000 ZZZX=             -0.0000
 ZZZY=              0.0000 XXYY=             -2.6973 XXZZ=             -2.7895 YYZZ=             -2.0033
 XXYZ=             -0.0000 YYXZ=              0.0000 ZZXY=              0.0000
 N-N= 9.094673289424D+00 E-N=-1.985195667521D+02  KE= 7.570115330399D+01
 Symmetry A1   KE= 6.762451287821D+01
 Symmetry A2   KE= 4.430063169348D-36
 Symmetry B1   KE= 4.406175264179D+00
 Symmetry B2   KE= 3.670465161600D+00
 No NMR shielding tensors so no spin-rotation constants.
 Leave Link  601 at Tue Sep 17 19:17:28 2024, MaxMem=   13107200 cpu:       0.2
 (Enter /programs/64bit/g09/g09-gfortran/bin/l9999.exe)
 B after Tr=     0.169257   -0.000000    0.119683
         Rot=   -0.325057    0.627963   -0.627963   -0.325057 Ang= 217.94 deg.
 Final structure in terms of initial Z-matrix:
 O
 H,1,ho2
 H,1,ho3,2,hoh3
      Variables:
 ho2=0.96802451
 ho3=0.96802451
 hoh3=104.4340706
 1\1\GINC-MOLMOD\FOpt\RB3LYP\6-31+G(d,p)\H2O1\OSPITE\17-Sep-2024\0\\#p 
 B3LYP/6-31+g(d,p) opt freq scrf=(smd,solvent=water)\\h2o solution\\0,1
 \O,-0.0242765381,0.,-0.0171661047\H,0.0182616258,0.,0.9499233182\H,0.9
 016835018,0.,-0.2994238801\\Version=EM64L-G09RevA.02\State=1-A1\HF=-76
 .448056\RMSD=2.137e-09\RMSF=1.111e-04\Dipole=0.8581258,0.,0.6067866\Qu
 adrupole=0.3703476,-1.2971209,0.9267733,0.,-0.7869048,0.\PG=C02V [C2(O
 1),SGV(H2)]\\@


 LIFE IS SO UNCERTAIN - EAT DESSERT FIRST.
 Leave Link 9999 at Tue Sep 17 19:17:28 2024, MaxMem=   13107200 cpu:       0.0
 Job cpu time:  0 days  0 hours  0 minutes 14.3 seconds.
 File lengths (MBytes):  RWF=      5 Int=      0 D2E=      0 Chk=      1 Scr=      1
 Normal termination of Gaussian 09 at Tue Sep 17 19:17:28 2024.
 (Enter /programs/64bit/g09/g09-gfortran/bin/l1.exe)
 Link1:  Proceeding to internal job step number  2.
 ----------------------------------------------------------------------
 #P Geom=AllCheck Guess=TCheck SCRF=Check GenChk RB3LYP/6-31+G(d,p) Fre
 q
 ----------------------------------------------------------------------
 1/10=4,29=7,30=1,38=1,40=1/1,3;
 2/12=2,40=1/2;
 3/5=1,6=6,7=111,11=2,14=-4,16=1,25=1,30=1,70=2,71=2,72=1,74=-5,116=1/1,2,3;
 4/5=101/1;
 5/5=2,53=1,98=1/2;
 8/6=4,10=90,11=11/1;
 11/6=1,8=1,9=11,15=111,16=1/1,2,10;
 10/6=1/2;
 6/7=2,8=2,9=2,10=2,18=1,28=1/1;
 7/8=1,10=1,25=1/1,2,3,16;
 1/10=4,30=1/3;
 99//99;
 Leave Link    1 at Tue Sep 17 19:17:28 2024, MaxMem=   13107200 cpu:       0.1
 (Enter /programs/64bit/g09/g09-gfortran/bin/l101.exe)
 ------------
 h2o solution
 ------------
 Redundant internal coordinates taken from checkpoint file:
 /home/ospite/Desktop/MMfP/Project10/pKa_calcualtion/H2O/Gau-11390.chk
 Charge =  0 Multiplicity = 1
 O,0,-0.0242765381,0.,-0.0171661047
 H,0,0.0182616258,0.,0.9499233182
 H,0,0.9016835018,0.,-0.2994238801
 Recover connectivity data from disk.
                    Isotopes and Nuclear Properties:
 (Nuclear quadrupole moments (NQMom) in fm**2, nuclear magnetic moments (NMagM)
  in nuclear magnetons)

  Atom         1           2           3
 IAtWgt=          16           1           1
 AtmWgt=  15.9949146   1.0078250   1.0078250
 NucSpn=           0           1           1
 AtZEff=  -5.6000000  -1.0000000  -1.0000000
 NQMom=    0.0000000   0.0000000   0.0000000
 NMagM=    0.0000000   2.7928460   2.7928460
 Leave Link  101 at Tue Sep 17 19:17:28 2024, MaxMem=   13107200 cpu:       0.2
 (Enter /programs/64bit/g09/g09-gfortran/bin/l103.exe)

 GradGradGradGradGradGradGradGradGradGradGradGradGradGradGradGradGradGrad
 Berny optimization.
 Initialization pass.
                           ----------------------------
                           !    Initial Parameters    !
                           ! (Angstroms and Degrees)  !
 --------------------------                            --------------------------
 ! Name  Definition              Value          Derivative Info.                !
 --------------------------------------------------------------------------------
 ! R1    R(1,2)                  0.968          calculate D2E/DX2 analytically  !
 ! R2    R(1,3)                  0.968          calculate D2E/DX2 analytically  !
 ! A1    A(2,1,3)              104.4341         calculate D2E/DX2 analytically  !
 --------------------------------------------------------------------------------
 Trust Radius=3.00D-01 FncErr=1.00D-07 GrdErr=1.00D-07
 Number of steps in this run=   2 maximum allowed number of steps=   2.
 GradGradGradGradGradGradGradGradGradGradGradGradGradGradGradGradGradGrad

 Leave Link  103 at Tue Sep 17 19:17:28 2024, MaxMem=   13107200 cpu:       0.0
 (Enter /programs/64bit/g09/g09-gfortran/bin/l202.exe)
                          Input orientation:                          
 ---------------------------------------------------------------------
 Center     Atomic      Atomic             Coordinates (Angstroms)
 Number     Number       Type             X           Y           Z
 ---------------------------------------------------------------------
      1          8           0       -0.024277   -0.000000   -0.017166
      2          1           0        0.018262   -0.000000    0.949923
      3          1           0        0.901684    0.000000   -0.299424
 ---------------------------------------------------------------------
                    Distance matrix (angstroms):
                    1          2          3
     1  O    0.000000
     2  H    0.968025   0.000000
     3  H    0.968025   1.530132   0.000000
 Stoichiometry    H2O
 Framework group  C2V[C2(O),SGV(H2)]
 Deg. of freedom     2
 Full point group                 C2V     NOp   4
 Largest Abelian subgroup         C2V     NOp   4
 Largest concise Abelian subgroup C2      NOp   2
                         Standard orientation:                         
 ---------------------------------------------------------------------
 Center     Atomic      Atomic             Coordinates (Angstroms)
 Number     Number       Type             X           Y           Z
 ---------------------------------------------------------------------
      1          8           0       -0.000000    0.000000    0.118616
      2          1           0       -0.000000    0.765066   -0.474465
      3          1           0       -0.000000   -0.765066   -0.474465
 ---------------------------------------------------------------------
 Rotational constants (GHZ):    802.6358497    428.3556454    279.2981095
 Leave Link  202 at Tue Sep 17 19:17:28 2024, MaxMem=   13107200 cpu:       0.0
 (Enter /programs/64bit/g09/g09-gfortran/bin/l301.exe)
 Standard basis: 6-31+G(d,p) (6D, 7F)
 Ernie: Thresh=  0.10000D-02 Tol=  0.10000D-05 Strict=F.
 There are    14 symmetry adapted basis functions of A1  symmetry.
 There are     2 symmetry adapted basis functions of A2  symmetry.
 There are     5 symmetry adapted basis functions of B1  symmetry.
 There are     8 symmetry adapted basis functions of B2  symmetry.
 Integral buffers will be    131072 words long.
 Raffenetti 2 integral format.
 Two-electron integral symmetry is turned on.
    29 basis functions,    46 primitive gaussians,    29 cartesian basis functions
     5 alpha electrons        5 beta electrons
       nuclear repulsion energy         9.0923469939 Hartrees.
 IExCor=  402 DFT=T Ex+Corr=B3LYP ExCW=0 ScaHFX=  0.200000
 ScaDFX=  0.800000  0.720000  1.000000  0.810000 ScalE2=  1.000000  1.000000
 IRadAn=      0 IRanWt=     -1 IRanGd=            0 ICorTp=0
 NAtoms=    3 NActive=    3 NUniq=    2 SFac= 1.69D+00 NAtFMM=   80 NAOKFM=F Big=F
 ------------------------------------------------------------------------------
 Polarizable Continuum Model (PCM)
 =================================
 Model                : PCM.
 Atomic radii         : SMD-Coulomb.
 Polarization charges : Total charges.
 Charge compensation  : None.
 Solution method      : Matrix inversion.
 Cavity type          : VdW (van der Waals Surface) (Alpha=1.000).
 Cavity algorithm     : GePol (No added spheres)
                        Default sphere list used, NSphG=    3.
                        Lebedev-Laikov grids with approx.  5.0 points / Ang**2.
                        Smoothing algorithm: Karplus/York (Gamma=1.0000).
                        Polarization charges: spherical gaussians, with
                                              point-specific exponents (IZeta= 3).
                        Self-potential: point-specific (ISelfS= 7).
                        Self-field    : sphere-specific E.n sum rule (ISelfD= 2).
 1st derivatives      : Analytical E(r).r(x)/FMM algorithm (CHGder, D1EAlg=3).
                        Cavity 1st derivative terms included.
 2nd derivatives      : Analytical E(r).r(xy)/FMM algorithm (CHGder, D2EAlg=3).
                        Cavity 2nd derivative terms included.
 Solvent              : Water, Eps=  78.355300 Eps(inf)=   1.777849
 ------------------------------------------------------------------------------
 Spheres list:
 ISph  on   Nord    Re0     Alpha      Xe            Ye            Ze
    1   O      1    1.520   1.000     -0.000000      0.000000      0.118616
    2   H      2    1.200   1.000     -0.000000      0.765066     -0.474465
    3   H      3    1.200   1.000     -0.000000     -0.765066     -0.474465
 ------------------------------------------------------------------------------
 GePol: Number of generator spheres                  =       3
 GePol: Total number of spheres                      =       3
 GePol: Number of exposed spheres                    =       3 (100.00%)
 GePol: Number of points                             =     244
 GePol: Average weight of points                     =       0.15
 GePol: Minimum weight of points                     =   0.20D-06
 GePol: Maximum weight of points                     =    0.21991
 GePol: Number of points with low weight             =      16
 GePol: Fraction of low-weight points (<1% of avg)   =       6.56%
 GePol: Cavity surface area                          =     36.097 Ang**2
 GePol: Cavity volume                                =     19.230 Ang**3
 ------------------------------------------------------------------------------
 Atomic radii for non-electrostatic terms: SMD-CDS.
 ------------------------------------------------------------------------------
 PCM non-electrostatic energy =         0.0023262956 Hartrees.
 Nuclear repulsion after PCM non-electrostatic terms =        9.0946732894 Hartrees.
 Leave Link  301 at Tue Sep 17 19:17:29 2024, MaxMem=   13107200 cpu:       0.1
 (Enter /programs/64bit/g09/g09-gfortran/bin/l302.exe)
 NPDir=0 NMtPBC=     1 NCelOv=     1 NCel=       1 NClECP=     1 NCelD=      1
         NCelK=      1 NCelE2=     1 NClLst=     1 CellRange=     0.0.
 One-electron integrals computed using PRISM.
 One-electron integral symmetry used in STVInt
 NBasis=    29 RedAO= T  NBF=    14     2     5     8
 NBsUse=    29 1.00D-06 NBFU=    14     2     5     8
 Precomputing XC quadrature grid using
 IXCGrd= 2 IRadAn=           0 IRanWt=          -1 IRanGd=           0 AccXCQ= 1.00D-10.
 NRdTot=     187 NPtTot=       23652 NUsed=       25013 NTot=       25045
 NSgBfM=    29    29    29    29    29 NAtAll=     3     3.
 Leave Link  302 at Tue Sep 17 19:17:29 2024, MaxMem=   13107200 cpu:       0.3
 (Enter /programs/64bit/g09/g09-gfortran/bin/l303.exe)
 DipDrv:  MaxL=1.
 Leave Link  303 at Tue Sep 17 19:17:29 2024, MaxMem=   13107200 cpu:       0.0
 (Enter /programs/64bit/g09/g09-gfortran/bin/l401.exe)
 Initial guess read from the checkpoint file:  /home/ospite/Desktop/MMfP/Project1
 0/pKa_calcualtion/H2O/Gau-11390.chk
 B after Tr=     0.000000   -0.000000   -0.000000
         Rot=    1.000000    0.000000    0.000000   -0.000000 Ang=   0.00 deg.
 Guess basis will be translated and rotated to current coordinates.
 Initial guess orbital symmetries:
       Occupied  (A1) (A1) (B2) (A1) (B1)
       Virtual   (A1) (B2) (A1) (B1) (B2) (A1) (B2) (A1) (B2) (B1)
                 (A1) (A1) (A2) (A1) (B1) (A1) (B2) (B2) (A2) (B1)
                 (A1) (A1) (B2) (A1)
[...]
 Generate precomputed XC quadrature information.
          Keep R1 ints in memory in canonical form, NReq=916070.
 Symmetry not used in FoFDir.
 MinBra= 0 MaxBra= 2 Meth= 1.
 IRaf=       0 NMat=   1 IRICut=       1 DoRegI=T DoRafI=F ISym2E= 0 JSym2E=0.
          Solving linear equations simultaneously, MaxMat=       0.
          There are     9 degrees of freedom in the 1st order CPHF.  IDoFFX=4.
      9 vectors produced by pass  0 Test12= 1.33D-15 1.11D-08 XBig12= 3.12D+00 1.43D+00.
 AX will form     9 AO Fock derivatives at one time.
      9 vectors produced by pass  1 Test12= 1.33D-15 1.11D-08 XBig12= 3.08D-01 2.08D-01.
      9 vectors produced by pass  2 Test12= 1.33D-15 1.11D-08 XBig12= 1.87D-03 1.64D-02.
      9 vectors produced by pass  3 Test12= 1.33D-15 1.11D-08 XBig12= 1.65D-06 5.16D-04.
      8 vectors produced by pass  4 Test12= 1.33D-15 1.11D-08 XBig12= 5.46D-10 9.29D-06.
      4 vectors produced by pass  5 Test12= 1.33D-15 1.11D-08 XBig12= 2.86D-13 2.37D-07.
 Inverted reduced A of dimension    48 with in-core refinement.
 FullF1:  Do perturbations    1 to     9.
 Isotropic polarizability for W=    0.000000        8.12 Bohr**3.
 End of Minotr Frequency-dependent properties file   721 does not exist.
 End of Minotr Frequency-dependent properties file   722 does not exist.
 Leave Link 1002 at Tue Sep 17 19:17:38 2024, MaxMem=   13107200 cpu:       4.5
 (Enter /programs/64bit/g09/g09-gfortran/bin/l601.exe)
 Copying SCF densities to generalized density rwf, IOpCl= 0 IROHF=0.

 **********************************************************************

            Population analysis using the SCF density.

 **********************************************************************

 Orbital symmetries:
       Occupied  (A1) (A1) (B2) (A1) (B1)
       Virtual   (A1) (B2) (A1) (B1) (B2) (A1) (B2) (A1) (B2) (B1)
                 (A1) (A1) (A2) (A1) (B1) (A1) (B2) (B2) (A2) (B1)
                 (A1) (A1) (B2) (A1)
 The electronic state is 1-A1.
 Alpha  occ. eigenvalues --  -19.16641  -1.01570  -0.52960  -0.40103  -0.32473
 Alpha virt. eigenvalues --    0.04328   0.12937   0.14275   0.15075   0.21563
 Alpha virt. eigenvalues --    0.26011   0.91787   1.01038   1.08528   1.10667
 Alpha virt. eigenvalues --    1.13152   1.22777   1.51257   1.52730   1.62402
 Alpha virt. eigenvalues --    2.23343   2.26771   2.50673   2.63340   2.66551
 Alpha virt. eigenvalues --    3.02999   3.33023   3.52173   3.91413
          Condensed to atoms (all electrons):
              1          2          3
     1  O    8.259105   0.281826   0.281826
     2  H    0.281826   0.323014  -0.016219
     3  H    0.281826  -0.016219   0.323014
 Mulliken atomic charges:
              1
     1  O   -0.822758
     2  H    0.411379
     3  H    0.411379
 Sum of Mulliken atomic charges =  -0.00000
 Mulliken charges with hydrogens summed into heavy atoms:
              1
     1  O   -0.000000
 Sum of Mulliken charges with hydrogens summed into heavy atoms =  -0.00000
 APT atomic charges:
              1
     1  O   -0.764259
     2  H    0.382130
     3  H    0.382130
 Sum of APT charges=   0.00000
 APT Atomic charges with hydrogens summed into heavy atoms:
              1
     1  O    0.000000
     2  H    0.000000
     3  H    0.000000
 Sum of APT charges=   0.00000
 Electronic spatial extent (au):  <R**2>=             20.0782
 Charge=             -0.0000 electrons
 Dipole moment (field-independent basis, Debye):
    X=             -0.0000    Y=             -0.0000    Z=             -2.6713  Tot=              2.6713
 Quadrupole moment (field-independent basis, Debye-Ang):
   XX=             -7.9713   YY=             -4.2317   ZZ=             -6.4769
   XY=              0.0000   XZ=              0.0000   YZ=              0.0000
 Traceless Quadrupole moment (field-independent basis, Debye-Ang):
   XX=             -1.7447   YY=              1.9950   ZZ=             -0.2503
   XY=              0.0000   XZ=              0.0000   YZ=              0.0000
 Octapole moment (field-independent basis, Debye-Ang**2):
  XXX=              0.0000  YYY=             -0.0000  ZZZ=             -2.1980  XYY=             -0.0000
  XXY=              0.0000  XXZ=             -0.6446  XZZ=             -0.0000  YZZ=             -0.0000
  YYZ=             -1.7436  XYZ=             -0.0000
 Hexadecapole moment (field-independent basis, Debye-Ang**3):
 XXXX=             -8.1980 YYYY=             -6.1332 ZZZZ=             -8.1731 XXXY=             -0.0000
 XXXZ=             -0.0000 YYYX=              0.0000 YYYZ=              0.0000 ZZZX=             -0.0000
 ZZZY=              0.0000 XXYY=             -2.6973 XXZZ=             -2.7895 YYZZ=             -2.0033
 XXYZ=             -0.0000 YYXZ=              0.0000 ZZXY=              0.0000
 N-N= 9.094673289424D+00 E-N=-1.985195667975D+02  KE= 7.570115332564D+01
 Symmetry A1   KE= 6.762451288332D+01
 Symmetry A2   KE= 9.431219771151D-37
 Symmetry B1   KE= 4.406175273451D+00
 Symmetry B2   KE= 3.670465168869D+00
  Exact polarizability:   7.919   0.000   8.921   0.000  -0.000   7.530
 Approx polarizability:   6.950   0.000   9.075   0.000   0.000   7.337
 No NMR shielding tensors so no spin-rotation constants.
 Leave Link  601 at Tue Sep 17 19:17:38 2024, MaxMem=   13107200 cpu:       0.2
 (Enter /programs/64bit/g09/g09-gfortran/bin/l701.exe)
 Compute integral second derivatives.
 ... and contract with generalized density number  0.
 D2PCM: PCM CHGder 2nd derivatives, FixD1E=F FixD2E=F DoIter=F DoCFld=F I1PDM=0
 GePol: Maximum number of non-zero 2nd derivatives   =     154
 Leave Link  701 at Tue Sep 17 19:17:40 2024, MaxMem=   13107200 cpu:       2.2
 (Enter /programs/64bit/g09/g09-gfortran/bin/l702.exe)
 L702 exits ... SP integral derivatives will be done elsewhere.
 Leave Link  702 at Tue Sep 17 19:17:40 2024, MaxMem=   13107200 cpu:       0.0
 (Enter /programs/64bit/g09/g09-gfortran/bin/l703.exe)
 Compute integral second derivatives, UseDBF=F ICtDFT=           0.
 Integral derivatives from FoFDir, PRISM(SPDF).
 Calling FoFJK, ICntrl=    100127 FMM=F ISym2X=1 I1Cent= 0 IOpClX= 0 NMat=1 NMatS=1 NMatT=0.
 FoFCou: FMM=F IPFlag=           0 FMFlag=      100000 FMFlg1=         800
         NFxFlg=           0 DoJE=F BraDBF=F KetDBF=F FulRan=T
         Omega=  0.000000  0.000000  1.000000  0.000000  0.000000 ICntrl=  100127 IOpCl=  0
         NMat0=    1 NMatS0=    1 NMatT0=    0 NMatD0=    1 NMtDS0=    0 NMtDT0=    0
         I1Cent=           0 NGrid=           0.
 Petite list used in FoFCou.
 Leave Link  703 at Tue Sep 17 19:17:43 2024, MaxMem=   13107200 cpu:       2.6
 (Enter /programs/64bit/g09/g09-gfortran/bin/l716.exe)
 Dipole        =-6.43783525D-17 2.51968585D-16-1.05098517D+00
 Polarizability= 7.91949040D+00 1.01741807D-11 8.92054644D+00
                 1.80917375D-09-6.29180751D-10 7.52968306D+00
 Full mass-weighted force constant matrix:
 Low frequencies --- -295.5922 -203.5626 -156.5613    0.0018    0.0023    0.0024
 Low frequencies --- 1573.5519 3779.3725 3872.1846
 Diagonal vibrational polarizability:
        0.0000000       0.2809591       1.7033062
 Harmonic frequencies (cm**-1), IR intensities (KM/Mole), Raman scattering
 activities (A**4/AMU), depolarization ratios for plane and unpolarized
 incident light, reduced masses (AMU), force constants (mDyne/A),
 and normal coordinates:
                     1                      2                      3
                    A1                     A1                     B2
 Frequencies --  1573.5519              3779.3725              3872.1706
 Red. masses --     1.0818                 1.0460                 1.0818
 Frc consts  --     1.5781                 8.8030                 9.5566
 IR Inten    --   148.6380                46.6169               156.5377
  Atom  AN      X      Y      Z        X      Y      Z        X      Y      Z
     1   8     0.00  -0.00   0.07     0.00   0.00   0.05     0.00   0.07  -0.00
     2   1    -0.00  -0.43  -0.56     0.00   0.58  -0.40    -0.00  -0.56   0.43
     3   1    -0.00   0.43  -0.56    -0.00  -0.58  -0.40    -0.00  -0.56  -0.43

 -------------------
 - Thermochemistry -
 -------------------
 Temperature   298.150 Kelvin.  Pressure   1.00000 Atm.
 Atom     1 has atomic number  8 and mass  15.99491
 Atom     2 has atomic number  1 and mass   1.00783
 Atom     3 has atomic number  1 and mass   1.00783
 Molecular mass:    18.01056 amu.
 Principal axes and moments of inertia in atomic units:
                           1         2         3
     Eigenvalues --     2.24852   4.21318   6.46170
           X            0.00000   0.00000   1.00000
           Y            1.00000  -0.00000  -0.00000
           Z            0.00000   1.00000  -0.00000
 This molecule is an asymmetric top.
 Rotational symmetry number  2.
 Rotational temperatures (Kelvin)     38.52040    20.55780    13.40418
 Rotational constants (GHZ):         802.63585   428.35565   279.29811
 Zero-point vibrational energy      55178.3 (Joules/Mol)
                                   13.18794 (Kcal/Mol)
 Vibrational temperatures:   2263.99  5437.67  5571.18
          (Kelvin)
 
 Zero-point correction=                           0.021016 (Hartree/Particle)
 Thermal correction to Energy=                    0.023852
 Thermal correction to Enthalpy=                  0.024797
 Thermal correction to Gibbs Free Energy=         0.003354
 Sum of electronic and zero-point Energies=            -76.427040
 Sum of electronic and thermal Energies=               -76.424204
 Sum of electronic and thermal Enthalpies=             -76.423259
 Sum of electronic and thermal Free Energies=          -76.444702
 
                     E (Thermal)             CV                S
                      KCal/Mol        Cal/Mol-Kelvin    Cal/Mol-Kelvin
 Total                   14.968              6.019             45.130
 Electronic               0.000              0.000              0.000
 Translational            0.889              2.981             34.608
 Rotational               0.889              2.981             10.514
 Vibrational             13.190              0.058              0.009
                       Q            Log10(Q)             Ln(Q)
 Total Bot       0.286679D-01         -1.542604         -3.551977
 Total V=0       0.133109D+09          8.124208         18.706681
 Vib (Bot)       0.215480D-09         -9.666593        -22.258154
 Vib (V=0)       0.100050D+01          0.000219          0.000504
 Electronic      0.100000D+01          0.000000          0.000000
 Translational   0.300432D+07          6.477746         14.915562
 Rotational      0.442836D+02          1.646243          3.790615
 
                                                             h2o solution
                                                             IR Spectrum
 
      3  3                                                                       1                                                   
      8  7                                                                       5                                                   
      7  7                                                                       7                                                   
      2  9                                                                       4                                                   
 
      X  X                                                                       X                                                   
      X  X                                                                       X                                                   
      X  X                                                                       X                                                   
      X  X                                                                       X                                                   
      X  X                                                                       X                                                   
      X  X                                                                       X                                                   
      X                                                                          X                                                   
      X                                                                          X                                                   
      X                                                                          X                                                   
      X                                                                          X                                                   
      X                                                                          X                                                   
      X                                                                          X                                                   
      X                                                                          X                                                   
      X                                                                          X                                                   
      X                                                                          X                                                   
      X                                                                          X                                                   
      X                                                                          X                                                   
      X                                                                          X                                                   
      X                                                                          X                                                   
      X                                                                                                                              
 
 ***** Axes restored to original set *****
 -------------------------------------------------------------------
 Center     Atomic                   Forces (Hartrees/Bohr)
 Number     Number              X              Y              Z
 -------------------------------------------------------------------
      1        8           0.000037227    0.000000000    0.000026323
      2        1          -0.000152716    0.000000000    0.000176488
      3        1           0.000115489   -0.000000000   -0.000202812
 -------------------------------------------------------------------
 Cartesian Forces:  Max     0.000202812 RMS     0.000111065
 Force constants in Cartesian coordinates: 
                1             2             3             4             5 
      1  0.518434D+00
      2  0.000000D+00 -0.166047D-02
      3 -0.102093D+00  0.000000D+00  0.590624D+00
      4 -0.424052D-01  0.000000D+00 -0.533937D-01  0.425770D-01
      5  0.000000D+00  0.830233D-03  0.000000D+00  0.000000D+00 -0.120533D-02
      6  0.217759D-02  0.000000D+00 -0.512124D+00  0.573137D-02  0.000000D+00
      7 -0.476029D+00  0.000000D+00  0.155487D+00 -0.171815D-03  0.000000D+00
      8  0.000000D+00  0.830233D-03  0.000000D+00  0.000000D+00  0.375094D-03
      9  0.999153D-01  0.000000D+00 -0.785005D-01  0.476623D-01  0.000000D+00
                6             7             8             9 
      6  0.526351D+00
      7 -0.790897D-02  0.476200D+00
      8  0.000000D+00  0.000000D+00 -0.120533D-02
      9 -0.142267D-01 -0.147578D+00  0.000000D+00  0.927272D-01
 Force constants in internal coordinates: 
                1             2             3 
      1  0.526297D+00
      2 -0.440912D-02  0.526297D+00
      3  0.268351D-01  0.268351D-01  0.149409D+00
 Leave Link  716 at Tue Sep 17 19:17:43 2024, MaxMem=   13107200 cpu:       0.0
 (Enter /programs/64bit/g09/g09-gfortran/bin/l103.exe)

 GradGradGradGradGradGradGradGradGradGradGradGradGradGradGradGradGradGrad
 Berny optimization.
 Internal  Forces:  Max     0.000293281 RMS     0.000218744
 Search for a local minimum.
 Step number   1 out of a maximum of    2
 All quantities printed in internal units (Hartrees-Bohrs-Radians)
 Second derivative matrix not updated -- analytic derivatives used.
 The second derivative matrix:
                          R1        R2        A1
           R1           0.52630
           R2          -0.00441   0.52630
           A1           0.02684   0.02684   0.14941
     Eigenvalues ---    0.14558   0.52572   0.53071
 Angle between quadratic step and forces=  29.54 degrees.
 Linear search not attempted -- first point.
 Iteration  1 RMS(Cart)=  0.00116042 RMS(Int)=  0.00000067
 Iteration  2 RMS(Cart)=  0.00000052 RMS(Int)=  0.00000000
 ClnCor:  largest displacement from symmetrization is 1.81D-14 for atom     3.
 Variable       Old X    -DE/DX   Delta X   Delta X   Delta X     New X
                                 (Linear)    (Quad)   (Total)
    R1        1.82930   0.00017   0.00000   0.00023   0.00023   1.82953
    R2        1.82930   0.00017   0.00000   0.00023   0.00023   1.82953
    A1        1.82272   0.00029   0.00000   0.00188   0.00188   1.82460
         Item               Value     Threshold  Converged?
 Maximum Force            0.000293     0.000450     YES
 RMS     Force            0.000219     0.000300     YES
 Maximum Displacement     0.001242     0.001800     YES
 RMS     Displacement     0.001160     0.001200     YES
 Predicted change in Energy=-3.145378D-07
 Optimization completed.
    -- Stationary point found.
                           ----------------------------
                           !   Optimized Parameters   !
                           ! (Angstroms and Degrees)  !
 --------------------------                            --------------------------
 ! Name  Definition              Value          Derivative Info.                !
 --------------------------------------------------------------------------------
 ! R1    R(1,2)                  0.968          -DE/DX =    0.0002              !
 ! R2    R(1,3)                  0.968          -DE/DX =    0.0002              !
 ! A1    A(2,1,3)              104.4341         -DE/DX =    0.0003              !
 --------------------------------------------------------------------------------
 GradGradGradGradGradGradGradGradGradGradGradGradGradGradGradGradGradGrad

 Leave Link  103 at Tue Sep 17 19:17:43 2024, MaxMem=   13107200 cpu:       0.0
 (Enter /programs/64bit/g09/g09-gfortran/bin/l9999.exe)
 1\1\GINC-MOLMOD\Freq\RB3LYP\6-31+G(d,p)\H2O1\OSPITE\17-Sep-2024\0\\#P 
 Geom=AllCheck Guess=TCheck SCRF=Check GenChk RB3LYP/6-31+G(d,p) Freq\\
 h2o solution\\0,1\O,-0.0242765381,0.,-0.0171661047\H,0.0182616258,0.,0
 .9499233182\H,0.9016835018,0.,-0.2994238801\\Version=EM64L-G09RevA.02\
 State=1-A1\HF=-76.448056\RMSD=1.200e-10\RMSF=1.111e-04\ZeroPoint=0.021
 0163\Thermal=0.0238525\Dipole=0.8581258,0.,0.6067866\DipoleDeriv=-0.64
 96334,0.,0.0780866,0.,-0.9382952,0.,0.0780866,0.,-0.704849,0.3757466,0
 .,-0.072834,0.,0.4691476,0.,-0.0412655,0.,0.3014945,0.2738868,0.,-0.00
 52526,0.,0.4691476,0.,-0.0368211,0.,0.4033544\Polar=7.9933042,0.,7.919
 4904,-0.6556593,0.,8.4569253\PG=C02V [C2(O1),SGV(H2)]\NImag=0\\0.51843
 375,0.,-0.00166047,-0.10209294,0.,0.59062436,-0.04240517,0.,-0.0533936
 8,0.04257699,0.,0.00083023,0.,0.,-0.00120533,0.00217759,0.,-0.51212388
 ,0.00573137,0.,0.52635062,-0.47602857,0.,0.15548662,-0.00017182,0.,-0.
 00790897,0.47620039,0.,0.00083023,0.,0.,0.00037509,0.,0.,-0.00120533,0
 .09991535,0.,-0.07850048,0.04766230,0.,-0.01422674,-0.14757765,0.,0.09
 272722\\-0.00003723,0.,-0.00002632,0.00015272,0.,-0.00017649,-0.000115
 49,0.,0.00020281\\\@


 The cat could very well be man's best friend
 but would never stoop to admitting it.
                               -- Doug Larson
 Job cpu time:  0 days  0 hours  0 minutes 14.6 seconds.
 File lengths (MBytes):  RWF=      5 Int=      0 D2E=      0 Chk=      2 Scr=      1
 Normal termination of Gaussian 09 at Tue Sep 17 19:17:43 2024.
