 Entering Gaussian System, Link 0=/programs/64bit/g09/g09-gfortran/bin/g09
 Input=no2.com
 Output=no2.log
 Initial command:
 /programs/64bit/g09/g09-gfortran/bin/l1.exe /home/ospite/Desktop/MMfP/Project3/NO2/Gau-5600.inp -scrdir=/home/ospite/Desktop/MMfP/Project3/NO2/
 Entering Link 1 = /programs/64bit/g09/g09-gfortran/bin/l1.exe PID=      5601.
  
 Copyright (c) 1988,1990,1992,1993,1995,1998,2003,2009, Gaussian, Inc.
                  All Rights Reserved.
  
 This is part of the Gaussian(R) 09 program.  It is based on
 the Gaussian(R) 03 system (copyright 2003, Gaussian, Inc.),
 the Gaussian(R) 98 system (copyright 1998, Gaussian, Inc.),
 the Gaussian(R) 94 system (copyright 1995, Gaussian, Inc.),
 the Gaussian 92(TM) system (copyright 1992, Gaussian, Inc.),
 the Gaussian 90(TM) system (copyright 1990, Gaussian, Inc.),
 the Gaussian 88(TM) system (copyright 1988, Gaussian, Inc.),
 the Gaussian 86(TM) system (copyright 1986, Carnegie Mellon
 University), and the Gaussian 82(TM) system (copyright 1983,
 Carnegie Mellon University). Gaussian is a federally registered
 trademark of Gaussian, Inc.
  
 This software contains proprietary and confidential information,
 including trade secrets, belonging to Gaussian, Inc.
  
 This software is provided under written license and may be
 used, copied, transmitted, or stored only in accord with that
 written license.
  
 The following legend is applicable only to US Government
 contracts under FAR:
  
                    RESTRICTED RIGHTS LEGEND
  
 Use, reproduction and disclosure by the US Government is
 subject to restrictions as set forth in subparagraphs (a)
 and (c) of the Commercial Computer Software - Restricted
 Rights clause in FAR 52.227-19.
  
 Gaussian, Inc.
 340 Quinnipiac St., Bldg. 40, Wallingford CT 06492
  
  
 ---------------------------------------------------------------
 Warning -- This program may not be used in any manner that
 competes with the business of Gaussian, Inc. or will provide
 assistance to any competitor of Gaussian, Inc.  The licensee
 of this program is prohibited from giving any competitor of
 Gaussian, Inc. access to this program.  By using this program,
 the user acknowledges that Gaussian, Inc. is engaged in the
 business of creating and licensing software in the field of
 computational chemistry and represents and warrants to the
 licensee that it is not a competitor of Gaussian, Inc. and that
 it will not use this program in any manner prohibited above.
 ---------------------------------------------------------------
  

 Cite this work as:
 Gaussian 09, Revision A.02,
 M. J. Frisch, G. W. Trucks, H. B. Schlegel, G. E. Scuseria, 
 M. A. Robb, J. R. Cheeseman, G. Scalmani, V. Barone, B. Mennucci, 
 G. A. Petersson, H. Nakatsuji, M. Caricato, X. Li, H. P. Hratchian, 
 A. F. Izmaylov, J. Bloino, G. Zheng, J. L. Sonnenberg, M. Hada, 
 M. Ehara, K. Toyota, R. Fukuda, J. Hasegawa, M. Ishida, T. Nakajima, 
 Y. Honda, O. Kitao, H. Nakai, T. Vreven, J. A. Montgomery, Jr., 
 J. E. Peralta, F. Ogliaro, M. Bearpark, J. J. Heyd, E. Brothers, 
 K. N. Kudin, V. N. Staroverov, R. Kobayashi, J. Normand, 
 K. Raghavachari, A. Rendell, J. C. Burant, S. S. Iyengar, J. Tomasi, 
 M. Cossi, N. Rega, J. M. Millam, M. Klene, J. E. Knox, J. B. Cross, 
 V. Bakken, C. Adamo, J. Jaramillo, R. Gomperts, R. E. Stratmann, 
 O. Yazyev, A. J. Austin, R. Cammi, C. Pomelli, J. W. Ochterski, 
 R. L. Martin, K. Morokuma, V. G. Zakrzewski, G. A. Voth, 
 P. Salvador, J. J. Dannenberg, S. Dapprich, A. D. Daniels, 
 O. Farkas, J. B. Foresman, J. V. Ortiz, J. Cioslowski, 
 and D. J. Fox, Gaussian, Inc., Wallingford CT, 2009.
 
 ******************************************
 Gaussian 09:  EM64L-G09RevA.02 11-Jun-2009
                13-Aug-2024 
 ******************************************
 ----------------------------------------------
 #p B3LYP/6-31+g(d,p) opt freq pop=full gfinput
 ----------------------------------------------
 1/14=-1,18=20,19=15,26=3,38=1/1,3;
 2/9=110,12=2,17=6,18=5,40=1/2;
 3/5=1,6=6,7=111,11=2,16=1,24=10,25=1,30=1,71=1,74=-5/1,2,3;
 4//1;
 5/5=2,38=5/2;
 6/7=3,28=1/1;
 7//1,2,3,16;
 1/14=-1,18=20,19=15/3(2);
 2/9=110/2;
 99//99;
 2/9=110/2;
 3/5=1,6=6,7=111,11=2,16=1,25=1,30=1,71=1,74=-5/1,2,3;
 4/5=5,16=3/1;
 5/5=2,38=5/2;
 7//1,2,3,16;
 1/14=-1,18=20,19=15/3(-5);
 2/9=110/2;
 6/7=3,19=2,28=1/1;
 99/9=1/99;
 Leave Link    1 at Tue Aug 13 22:24:15 2024, MaxMem=          0 cpu:       0.1
 (Enter /programs/64bit/g09/g09-gfortran/bin/l101.exe)
 ----------------
 nitrogen_dioxite
 ----------------
 Symbolic Z-matrix:
 Charge =  0 Multiplicity = 2
 N1
 O2                   1    d
 O3                   1    d        2    a
       Variables:
  d                     1.21                     
  a                   134.1                      
 
 NAtoms=      3 NQM=      3 NQMF=      0 NMic=      0 NMicF=      0 NTot=      3.
                    Isotopes and Nuclear Properties:
 (Nuclear quadrupole moments (NQMom) in fm**2, nuclear magnetic moments (NMagM)
  in nuclear magnetons)

  Atom         1           2           3
 IAtWgt=          14          16          16
 AtmWgt=  14.0030740  15.9949146  15.9949146
 NucSpn=           2           0           0
 AtZEff=   0.0000000   0.0000000   0.0000000
 NQMom=    2.0440000   0.0000000   0.0000000
 NMagM=    0.4037610   0.0000000   0.0000000
 Leave Link  101 at Tue Aug 13 22:24:15 2024, MaxMem=   33554432 cpu:       0.1
 (Enter /programs/64bit/g09/g09-gfortran/bin/l103.exe)

 GradGradGradGradGradGradGradGradGradGradGradGradGradGradGradGradGradGrad
 Berny optimization.
 Initialization pass.
                           ----------------------------
                           !    Initial Parameters    !
                           ! (Angstroms and Degrees)  !
 --------------------------                            --------------------------
 ! Name  Definition              Value          Derivative Info.                !
 --------------------------------------------------------------------------------
 ! R1    R(1,2)                  1.21           estimate D2E/DX2                !
 ! R2    R(1,3)                  1.21           estimate D2E/DX2                !
 ! A1    A(2,1,3)              134.1            estimate D2E/DX2                !
 --------------------------------------------------------------------------------
 Trust Radius=3.00D-01 FncErr=1.00D-07 GrdErr=1.00D-06
 Number of steps in this run=  20 maximum allowed number of steps= 100.
 GradGradGradGradGradGradGradGradGradGradGradGradGradGradGradGradGradGrad

 Leave Link  103 at Tue Aug 13 22:24:15 2024, MaxMem=   33554432 cpu:       0.0
 (Enter /programs/64bit/g09/g09-gfortran/bin/l202.exe)
                          Input orientation:                          
 ---------------------------------------------------------------------
 Center     Atomic      Atomic             Coordinates (Angstroms)
 Number     Number       Type             X           Y           Z
 ---------------------------------------------------------------------
      1          7           0        0.000000    0.000000    0.000000
      2          8           0        0.000000    0.000000    1.210000
      3          8           0        0.868933    0.000000   -0.842054
 ---------------------------------------------------------------------
                    Distance matrix (angstroms):
                    1          2          3
     1  N    0.000000
     2  O    1.210000   0.000000
     3  O    1.210000   2.228446   0.000000
 Stoichiometry    NO2(2)
 Framework group  C2V[C2(N),SGV(O2)]
 Deg. of freedom     2
 Full point group                 C2V     NOp   4
 Largest Abelian subgroup         C2V     NOp   4
 Largest concise Abelian subgroup C2      NOp   2
                         Standard orientation:                         
 ---------------------------------------------------------------------
 Center     Atomic      Atomic             Coordinates (Angstroms)
 Number     Number       Type             X           Y           Z
 ---------------------------------------------------------------------
      1          7           0        0.000000    0.000000    0.328217
      2          8           0        0.000000    1.114223   -0.143595
      3          8           0       -0.000000   -1.114223   -0.143595
 ---------------------------------------------------------------------
 Rotational constants (GHZ):    233.0954655     12.7250944     12.0663699
 Leave Link  202 at Tue Aug 13 22:24:15 2024, MaxMem=   33554432 cpu:       0.0
 (Enter /programs/64bit/g09/g09-gfortran/bin/l301.exe)
 Standard basis: 6-31+G(d,p) (6D, 7F)
 Ernie: Thresh=  0.10000D-02 Tol=  0.10000D-05 Strict=F.
 AO basis set in the form of general basis input (Overlap normalization):
      1 0
 S   6 1.00       0.000000000000
      0.4173511460D+04  0.1834772160D-02
      0.6274579110D+03  0.1399462700D-01
      0.1429020930D+03  0.6858655181D-01
      0.4023432930D+02  0.2322408730D+00
      0.1282021290D+02  0.4690699481D+00
      0.4390437010D+01  0.3604551991D+00
 SP   3 1.00       0.000000000000
      0.1162636186D+02 -0.1149611817D+00  0.6757974388D-01
      0.2716279807D+01 -0.1691174786D+00  0.3239072959D+00
      0.7722183966D+00  0.1145851947D+01  0.7408951398D+00
 SP   1 1.00       0.000000000000
      0.2120314975D+00  0.1000000000D+01  0.1000000000D+01
 SP   1 1.00       0.000000000000
      0.6390000000D-01  0.1000000000D+01  0.1000000000D+01
 D   1 1.00       0.000000000000
      0.8000000000D+00  0.1000000000D+01
 ****
      2 0
 S   6 1.00       0.000000000000
      0.5484671660D+04  0.1831074430D-02
      0.8252349460D+03  0.1395017220D-01
      0.1880469580D+03  0.6844507810D-01
      0.5296450000D+02  0.2327143360D+00
      0.1689757040D+02  0.4701928980D+00
      0.5799635340D+01  0.3585208530D+00
 SP   3 1.00       0.000000000000
      0.1553961625D+02 -0.1107775495D+00  0.7087426823D-01
      0.3599933586D+01 -0.1480262627D+00  0.3397528391D+00
      0.1013761750D+01  0.1130767015D+01  0.7271585773D+00
 SP   1 1.00       0.000000000000
      0.2700058226D+00  0.1000000000D+01  0.1000000000D+01
 SP   1 1.00       0.000000000000
      0.8450000000D-01  0.1000000000D+01  0.1000000000D+01
 D   1 1.00       0.000000000000
      0.8000000000D+00  0.1000000000D+01
 ****
      3 0
 S   6 1.00       0.000000000000
      0.5484671660D+04  0.1831074430D-02
      0.8252349460D+03  0.1395017220D-01
      0.1880469580D+03  0.6844507810D-01
      0.5296450000D+02  0.2327143360D+00
      0.1689757040D+02  0.4701928980D+00
      0.5799635340D+01  0.3585208530D+00
 SP   3 1.00       0.000000000000
      0.1553961625D+02 -0.1107775495D+00  0.7087426823D-01
      0.3599933586D+01 -0.1480262627D+00  0.3397528391D+00
      0.1013761750D+01  0.1130767015D+01  0.7271585773D+00
 SP   1 1.00       0.000000000000
      0.2700058226D+00  0.1000000000D+01  0.1000000000D+01
 SP   1 1.00       0.000000000000
      0.8450000000D-01  0.1000000000D+01  0.1000000000D+01
 D   1 1.00       0.000000000000
      0.8000000000D+00  0.1000000000D+01
 ****

 There are    24 symmetry adapted basis functions of A1  symmetry.
 There are     6 symmetry adapted basis functions of A2  symmetry.
 There are     9 symmetry adapted basis functions of B1  symmetry.
 There are    18 symmetry adapted basis functions of B2  symmetry.
 Integral buffers will be    131072 words long.
 Raffenetti 2 integral format.
 Two-electron integral symmetry is turned on.
    57 basis functions,    96 primitive gaussians,    57 cartesian basis functions
    12 alpha electrons       11 beta electrons
       nuclear repulsion energy        64.1794309113 Hartrees.
 IExCor=  402 DFT=T Ex+Corr=B3LYP ExCW=0 ScaHFX=  0.200000
 ScaDFX=  0.800000  0.720000  1.000000  0.810000 ScalE2=  1.000000  1.000000
 IRadAn=      0 IRanWt=     -1 IRanGd=            0 ICorTp=0
 NAtoms=    3 NActive=    3 NUniq=    2 SFac= 1.69D+00 NAtFMM=   80 NAOKFM=F Big=F
 Leave Link  301 at Tue Aug 13 22:24:15 2024, MaxMem=   33554432 cpu:       0.1
 (Enter /programs/64bit/g09/g09-gfortran/bin/l302.exe)
 NPDir=0 NMtPBC=     1 NCelOv=     1 NCel=       1 NClECP=     1 NCelD=      1
         NCelK=      1 NCelE2=     1 NClLst=     1 CellRange=     0.0.
 One-electron integrals computed using PRISM.
 One-electron integral symmetry used in STVInt
 NBasis=    57 RedAO= T  NBF=    24     6     9    18
 NBsUse=    57 1.00D-06 NBFU=    24     6     9    18
 Precomputing XC quadrature grid using
 IXCGrd= 2 IRadAn=           0 IRanWt=          -1 IRanGd=           0 AccXCQ= 1.00D-10.
 NRdTot=     191 NPtTot=       23992 NUsed=       25381 NTot=       25413
 NSgBfM=    57    57    57    57    57 NAtAll=     3     3.
 Leave Link  302 at Tue Aug 13 22:24:15 2024, MaxMem=   33554432 cpu:       0.2
 (Enter /programs/64bit/g09/g09-gfortran/bin/l303.exe)
 DipDrv:  MaxL=1.
 Leave Link  303 at Tue Aug 13 22:24:15 2024, MaxMem=   33554432 cpu:       0.0
 (Enter /programs/64bit/g09/g09-gfortran/bin/l401.exe)
 Harris functional with IExCor=  402 diagonalized for initial guess.
 ExpMin= 6.39D-02 ExpMax= 5.48D+03 ExpMxC= 8.25D+02 IAcc=2 IRadAn=         0 AccDes= 0.00D+00
 HarFok:  IExCor=  402 AccDes= 0.00D+00 IRadAn=         0 IDoV= 1
 ScaDFX=  1.000000  1.000000  1.000000  1.000000
 FoFCou: FMM=F IPFlag=           0 FMFlag=      100000 FMFlg1=           0
         NFxFlg=           0 DoJE=T BraDBF=F KetDBF=T FulRan=T
         Omega=  0.000000  0.000000  1.000000  0.000000  0.000000 ICntrl=     500 IOpCl=  0
         NMat0=    1 NMatS0=    1 NMatT0=    0 NMatD0=    1 NMtDS0=    0 NMtDT0=    0
         I1Cent=           4 NGrid=           0.
 Petite list used in FoFCou.
 Harris En= -205.099294517273    
 Initial guess orbital symmetries:
 Alpha Orbitals:
       Occupied  (A1) (B2) (A1) (A1) (B2) (A1) (B2) (A1) (B1) (A2)
                 (B2) (A1)
       Virtual   (B1) (A1) (B2) (A1) (B1) (A1) (B2) (A2) (A1) (B1)
                 (A1) (B2) (A1) (B2) (B2) (A1) (B1) (B2) (A1) (A2)
                 (A1) (B2) (B1) (A1) (B2) (A2) (B1) (A1) (A1) (B2)
                 (B2) (A2) (A1) (B1) (B2) (A1) (B1) (B2) (A2) (A1)
                 (B2) (A1) (A1) (A1) (B2)
 Beta  Orbitals:
       Occupied  (A1) (B2) (A1) (A1) (B2) (A1) (B2) (A1) (B1) (A2)
                 (B2)
       Virtual   (A1) (B1) (A1) (B2) (A1) (B1) (A1) (B2) (A2) (A1)
                 (B1) (A1) (B2) (A1) (B2) (B2) (A1) (B1) (B2) (A1)
                 (A2) (A1) (B2) (B1) (A1) (B2) (A2) (B1) (A1) (A1)
                 (B2) (B2) (A2) (A1) (B1) (B2) (A1) (B1) (B2) (A2)
                 (A1) (B2) (A1) (A1) (A1) (B2)
 The electronic state of the initial guess is 2-A1.
 Initial guess <Sx>= 0.0000 <Sy>= 0.0000 <Sz>= 0.5000 <S**2>= 0.7500 S= 0.5000
 Leave Link  401 at Tue Aug 13 22:24:16 2024, MaxMem=   33554432 cpu:       0.5
 (Enter /programs/64bit/g09/g09-gfortran/bin/l502.exe)
 UHF open shell SCF:
 Requested convergence on RMS density matrix=1.00D-08 within 128 cycles.
 Requested convergence on MAX density matrix=1.00D-06.
 Requested convergence on             energy=1.00D-06.
 No special actions if energy rises.
 Using DIIS extrapolation, IDIIS=  1040.
 Integral symmetry usage will be decided dynamically.
        25341 words used for storage of precomputed grid.
 Keep R1 and R2 ints in memory in canonical form, NReq=3664001.
 IEnd=       54098 IEndB=       54098 NGot=    33554432 MDV=    30786191
 LenX=    30786191 LenY=    30782501
 Symmetry not used in FoFDir.
 MinBra= 0 MaxBra= 2 Meth= 1.
 IRaf=       0 NMat=   1 IRICut=       1 DoRegI=T DoRafI=F ISym2E= 0 JSym2E=0.
 Integral accuracy reduced to 1.0D-05 until final iterations.

 Cycle   1  Pass 0  IDiag  1:
 E= -205.000343305376    
 DIIS: error= 4.40D-02 at cycle   1 NSaved=   1.
 NSaved= 1 IEnMin= 1 EnMin= -205.000343305376     IErMin= 1 ErrMin= 4.40D-02
 ErrMax= 4.40D-02 EMaxC= 1.00D-01 BMatC= 4.65D-01 BMatP= 4.65D-01
 IDIUse=3 WtCom= 5.60D-01 WtEn= 4.40D-01
 Coeff-Com:  0.100D+01
 Coeff-En:   0.100D+01
 Coeff:      0.100D+01
 Gap=     0.167 Goal=   None    Shift=    0.000
 Gap=     0.099 Goal=   None    Shift=    0.000
 GapD=    0.099 DampG=0.500 DampE=0.500 DampFc=0.2500 IDamp=-1.
 Damping current iteration by 2.50D-01
 RMSDP=1.15D-02 MaxDP=2.05D-01              OVMax= 2.99D-01

 Cycle   2  Pass 0  IDiag  1:
 E= -205.030551596986     Delta-E=       -0.030208291610 Rises=F Damp=T
 DIIS: error= 1.28D-02 at cycle   2 NSaved=   2.
 NSaved= 2 IEnMin= 2 EnMin= -205.030551596986     IErMin= 2 ErrMin= 1.28D-02
 ErrMax= 1.28D-02 EMaxC= 1.00D-01 BMatC= 3.86D-02 BMatP= 4.65D-01
 IDIUse=3 WtCom= 8.72D-01 WtEn= 1.28D-01
 Coeff-Com: -0.291D+00 0.129D+01
 Coeff-En:   0.397D-01 0.960D+00
 Coeff:     -0.249D+00 0.125D+01
 Gap=     0.192 Goal=   None    Shift=    0.000
 Gap=     0.176 Goal=   None    Shift=    0.000
 RMSDP=2.26D-03 MaxDP=3.88D-02 DE=-3.02D-02 OVMax= 1.96D-01

 Cycle   3  Pass 0  IDiag  1:
 E= -205.083278487483     Delta-E=       -0.052726890497 Rises=F Damp=F
 DIIS: error= 3.40D-03 at cycle   3 NSaved=   3.
 NSaved= 3 IEnMin= 3 EnMin= -205.083278487483     IErMin= 3 ErrMin= 3.40D-03
 ErrMax= 3.40D-03 EMaxC= 1.00D-01 BMatC= 1.72D-03 BMatP= 3.86D-02
 IDIUse=3 WtCom= 9.66D-01 WtEn= 3.40D-02
 Coeff-Com:  0.138D-01 0.994D-01 0.887D+00
 Coeff-En:   0.000D+00 0.000D+00 0.100D+01
 Coeff:      0.133D-01 0.960D-01 0.891D+00
 Gap=     0.193 Goal=   None    Shift=    0.000
 Gap=     0.190 Goal=   None    Shift=    0.000
 RMSDP=4.16D-04 MaxDP=4.70D-03 DE=-5.27D-02 OVMax= 5.87D-03

 Cycle   4  Pass 0  IDiag  1:
 E= -205.083633082107     Delta-E=       -0.000354594624 Rises=F Damp=F
 DIIS: error= 6.13D-04 at cycle   4 NSaved=   4.
 NSaved= 4 IEnMin= 4 EnMin= -205.083633082107     IErMin= 4 ErrMin= 6.13D-04
 ErrMax= 6.13D-04 EMaxC= 1.00D-01 BMatC= 8.76D-05 BMatP= 1.72D-03
 IDIUse=3 WtCom= 9.94D-01 WtEn= 6.13D-03
 Coeff-Com:  0.111D-01-0.390D-01 0.144D+00 0.884D+00
 Coeff-En:   0.000D+00 0.000D+00 0.000D+00 0.100D+01
 Coeff:      0.110D-01-0.387D-01 0.143D+00 0.884D+00
 Gap=     0.194 Goal=   None    Shift=    0.000
 Gap=     0.191 Goal=   None    Shift=    0.000
 RMSDP=1.22D-04 MaxDP=1.92D-03 DE=-3.55D-04 OVMax= 2.02D-03

 Cycle   5  Pass 0  IDiag  1:
 E= -205.083653460054     Delta-E=       -0.000020377947 Rises=F Damp=F
 DIIS: error= 1.76D-04 at cycle   5 NSaved=   5.
 NSaved= 5 IEnMin= 5 EnMin= -205.083653460054     IErMin= 5 ErrMin= 1.76D-04
 ErrMax= 1.76D-04 EMaxC= 1.00D-01 BMatC= 6.44D-06 BMatP= 8.76D-05
 IDIUse=3 WtCom= 9.98D-01 WtEn= 1.76D-03
 Coeff-Com:  0.462D-03-0.871D-02 0.491D-02 0.204D+00 0.800D+00
 Coeff-En:   0.000D+00 0.000D+00 0.000D+00 0.000D+00 0.100D+01
 Coeff:      0.462D-03-0.870D-02 0.490D-02 0.203D+00 0.800D+00
 Gap=     0.194 Goal=   None    Shift=    0.000
 Gap=     0.191 Goal=   None    Shift=    0.000
 RMSDP=2.77D-05 MaxDP=3.63D-04 DE=-2.04D-05 OVMax= 4.91D-04

 Cycle   6  Pass 0  IDiag  1:
 E= -205.083654832708     Delta-E=       -0.000001372654 Rises=F Damp=F
 DIIS: error= 6.31D-05 at cycle   6 NSaved=   6.
 NSaved= 6 IEnMin= 6 EnMin= -205.083654832708     IErMin= 6 ErrMin= 6.31D-05
 ErrMax= 6.31D-05 EMaxC= 1.00D-01 BMatC= 7.18D-07 BMatP= 6.44D-06
 IDIUse=1 WtCom= 1.00D+00 WtEn= 0.00D+00
 Coeff-Com: -0.132D-02 0.138D-02-0.153D-01-0.365D-01 0.221D+00 0.831D+00
 Coeff:     -0.132D-02 0.138D-02-0.153D-01-0.365D-01 0.221D+00 0.831D+00
 Gap=     0.194 Goal=   None    Shift=    0.000
 Gap=     0.191 Goal=   None    Shift=    0.000
 RMSDP=1.11D-05 MaxDP=1.94D-04 DE=-1.37D-06 OVMax= 2.53D-04

 Cycle   7  Pass 0  IDiag  1:
 E= -205.083655027429     Delta-E=       -0.000000194720 Rises=F Damp=F
 DIIS: error= 1.35D-05 at cycle   7 NSaved=   7.
 NSaved= 7 IEnMin= 7 EnMin= -205.083655027429     IErMin= 7 ErrMin= 1.35D-05
 ErrMax= 1.35D-05 EMaxC= 1.00D-01 BMatC= 2.62D-08 BMatP= 7.18D-07
 IDIUse=1 WtCom= 1.00D+00 WtEn= 0.00D+00
 Coeff-Com: -0.259D-03 0.625D-03-0.382D-02-0.158D-01 0.193D-01 0.190D+00
 Coeff-Com:  0.810D+00
 Coeff:     -0.259D-03 0.625D-03-0.382D-02-0.158D-01 0.193D-01 0.190D+00
 Coeff:      0.810D+00
 Gap=     0.194 Goal=   None    Shift=    0.000
 Gap=     0.191 Goal=   None    Shift=    0.000
 RMSDP=1.61D-06 MaxDP=3.48D-05 DE=-1.95D-07 OVMax= 5.08D-05

 Initial convergence to 1.0D-05 achieved.  Increase integral accuracy.
 Cycle   8  Pass 1  IDiag  1:
 E= -205.083671188731     Delta-E=       -0.000016161302 Rises=F Damp=F
 DIIS: error= 6.52D-06 at cycle   1 NSaved=   1.
 NSaved= 1 IEnMin= 1 EnMin= -205.083671188731     IErMin= 1 ErrMin= 6.52D-06
 ErrMax= 6.52D-06 EMaxC= 1.00D-01 BMatC= 7.18D-09 BMatP= 7.18D-09
 IDIUse=1 WtCom= 1.00D+00 WtEn= 0.00D+00
 Coeff-Com:  0.100D+01
 Coeff:      0.100D+01
 Gap=     0.194 Goal=   None    Shift=    0.000
 Gap=     0.191 Goal=   None    Shift=    0.000
 RMSDP=1.61D-06 MaxDP=3.48D-05 DE=-1.62D-05 OVMax= 3.24D-05

 Cycle   9  Pass 1  IDiag  1:
 E= -205.083671192131     Delta-E=       -0.000000003401 Rises=F Damp=F
 DIIS: error= 1.83D-06 at cycle   2 NSaved=   2.
 NSaved= 2 IEnMin= 2 EnMin= -205.083671192131     IErMin= 2 ErrMin= 1.83D-06
 ErrMax= 1.83D-06 EMaxC= 1.00D-01 BMatC= 3.82D-10 BMatP= 7.18D-09
 IDIUse=1 WtCom= 1.00D+00 WtEn= 0.00D+00
 Coeff-Com: -0.696D-01 0.107D+01
 Coeff:     -0.696D-01 0.107D+01
 Gap=     0.194 Goal=   None    Shift=    0.000
 Gap=     0.191 Goal=   None    Shift=    0.000
 RMSDP=5.16D-07 MaxDP=1.08D-05 DE=-3.40D-09 OVMax= 1.63D-05

 Cycle  10  Pass 1  IDiag  1:
 E= -205.083671192414     Delta-E=       -0.000000000282 Rises=F Damp=F
 DIIS: error= 1.44D-06 at cycle   3 NSaved=   3.
 NSaved= 3 IEnMin= 3 EnMin= -205.083671192414     IErMin= 3 ErrMin= 1.44D-06
 ErrMax= 1.44D-06 EMaxC= 1.00D-01 BMatC= 2.43D-10 BMatP= 3.82D-10
 IDIUse=1 WtCom= 1.00D+00 WtEn= 0.00D+00
 Coeff-Com: -0.563D-01 0.452D+00 0.604D+00
 Coeff:     -0.563D-01 0.452D+00 0.604D+00
 Gap=     0.194 Goal=   None    Shift=    0.000
 Gap=     0.191 Goal=   None    Shift=    0.000
 RMSDP=1.51D-07 MaxDP=4.33D-06 DE=-2.82D-10 OVMax= 6.93D-06

 Cycle  11  Pass 1  IDiag  1:
 E= -205.083671192464     Delta-E=       -0.000000000051 Rises=F Damp=F
 DIIS: error= 1.15D-06 at cycle   4 NSaved=   4.
 NSaved= 4 IEnMin= 4 EnMin= -205.083671192464     IErMin= 4 ErrMin= 1.15D-06
 ErrMax= 1.15D-06 EMaxC= 1.00D-01 BMatC= 1.66D-10 BMatP= 2.43D-10
 IDIUse=1 WtCom= 1.00D+00 WtEn= 0.00D+00
 Coeff-Com: -0.479D-02-0.253D+00 0.499D+00 0.758D+00
 Coeff:     -0.479D-02-0.253D+00 0.499D+00 0.758D+00
 Gap=     0.194 Goal=   None    Shift=    0.000
 Gap=     0.191 Goal=   None    Shift=    0.000
 RMSDP=1.29D-07 MaxDP=4.60D-06 DE=-5.06D-11 OVMax= 7.19D-06

 Cycle  12  Pass 1  IDiag  1:
 E= -205.083671192517     Delta-E=       -0.000000000053 Rises=F Damp=F
 DIIS: error= 2.80D-07 at cycle   5 NSaved=   5.
 NSaved= 5 IEnMin= 5 EnMin= -205.083671192517     IErMin= 5 ErrMin= 2.80D-07
 ErrMax= 2.80D-07 EMaxC= 1.00D-01 BMatC= 9.01D-12 BMatP= 1.66D-10
 IDIUse=1 WtCom= 1.00D+00 WtEn= 0.00D+00
 Coeff-Com:  0.806D-02-0.163D+00 0.152D-01 0.252D+00 0.887D+00
 Coeff:      0.806D-02-0.163D+00 0.152D-01 0.252D+00 0.887D+00
 Gap=     0.194 Goal=   None    Shift=    0.000
 Gap=     0.191 Goal=   None    Shift=    0.000
 RMSDP=4.91D-08 MaxDP=1.48D-06 DE=-5.26D-11 OVMax= 2.27D-06

 Cycle  13  Pass 1  IDiag  1:
 E= -205.083671192522     Delta-E=       -0.000000000005 Rises=F Damp=F
 DIIS: error= 4.95D-08 at cycle   6 NSaved=   6.
 NSaved= 6 IEnMin= 6 EnMin= -205.083671192522     IErMin= 6 ErrMin= 4.95D-08
 ErrMax= 4.95D-08 EMaxC= 1.00D-01 BMatC= 5.21D-13 BMatP= 9.01D-12
 IDIUse=1 WtCom= 1.00D+00 WtEn= 0.00D+00
 Coeff-Com:  0.271D-02-0.390D-01-0.257D-01 0.396D-01 0.305D+00 0.718D+00
 Coeff:      0.271D-02-0.390D-01-0.257D-01 0.396D-01 0.305D+00 0.718D+00
 Gap=     0.194 Goal=   None    Shift=    0.000
 Gap=     0.191 Goal=   None    Shift=    0.000
 RMSDP=8.82D-09 MaxDP=2.04D-07 DE=-4.66D-12 OVMax= 2.76D-07

 SCF Done:  E(UB3LYP) =  -205.083671193     A.U. after   13 cycles
             Convg  =    0.8818D-08             -V/T =  2.0092
 <Sx>= 0.0000 <Sy>= 0.0000 <Sz>= 0.5000 <S**2>= 0.7537 S= 0.5018
 <L.S>=  0.00000000000    
 KE= 2.032145186226D+02 PE=-6.100803428833D+02 EE= 1.376027221569D+02
 Annihilation of the first spin contaminant:
 S**2 before annihilation     0.7537,   after     0.7500
 Leave Link  502 at Tue Aug 13 22:24:23 2024, MaxMem=   33554432 cpu:       5.0
 (Enter /programs/64bit/g09/g09-gfortran/bin/l601.exe)
 Copying SCF densities to generalized density rwf, IOpCl= 1 IROHF=0.

 **********************************************************************

            Population analysis using the SCF density.

 **********************************************************************

 Orbital symmetries:
 Alpha Orbitals:
       Occupied  (B2) (A1) (A1) (A1) (B2) (A1) (A1) (B2) (B1) (B2)
                 (A2) (A1)
       Virtual   (B1) (A1) (B2) (A1) (B1) (A1) (B2) (A2) (A1) (B1)
                 (A1) (B2) (A1) (B2) (B2) (A1) (B1) (B2) (A1) (A1)
                 (A2) (B2) (A1) (B1) (B2) (A2) (B1) (A1) (A1) (B2)
                 (B2) (A2) (A1) (B1) (B2) (A1) (B1) (B2) (A2) (A1)
                 (B2) (A1) (A1) (A1) (B2)
 Beta  Orbitals:
       Occupied  (B2) (A1) (A1) (A1) (B2) (A1) (B1) (B2) (A1) (A2)
                 (B2)
       Virtual   (A1) (B1) (A1) (B2) (A1) (B1) (A1) (B2) (A2) (A1)
                 (B1) (A1) (B2) (A1) (B2) (B2) (B1) (A1) (B2) (A1)
                 (A2) (A1) (B2) (A1) (B1) (B2) (A2) (B1) (A1) (A1)
                 (B2) (B2) (A2) (A1) (B1) (B2) (A1) (B1) (B2) (A2)
                 (A1) (B2) (A1) (A1) (A1) (B2)
 The electronic state is 2-A1.
 Alpha  occ. eigenvalues --  -19.28615 -19.28614 -14.60295  -1.29345  -1.14989
 Alpha  occ. eigenvalues --   -0.69508  -0.58742  -0.58714  -0.57681  -0.39790
 Alpha  occ. eigenvalues --   -0.39352  -0.30639
 Alpha virt. eigenvalues --   -0.11230   0.02949   0.07429   0.08388   0.08807
 Alpha virt. eigenvalues --    0.14954   0.17329   0.18852   0.19932   0.22575
 Alpha virt. eigenvalues --    0.23683   0.25132   0.30998   0.35386   0.40478
 Alpha virt. eigenvalues --    0.76109   0.77644   0.81575   1.02909   1.09640
 Alpha virt. eigenvalues --    1.09660   1.12606   1.14100   1.16914   1.18643
 Alpha virt. eigenvalues --    1.36340   1.38834   1.40387   1.58215   1.61750
 Alpha virt. eigenvalues --    1.70569   1.71715   1.80377   1.81689   1.83120
 Alpha virt. eigenvalues --    2.22273   2.31884   2.65469   2.69699   2.78004
 Alpha virt. eigenvalues --    2.82112   2.95531   3.86854   4.13819   4.21252
  Beta  occ. eigenvalues --  -19.27734 -19.27732 -14.59254  -1.27480  -1.12858
  Beta  occ. eigenvalues --   -0.66282  -0.56588  -0.56432  -0.54230  -0.38606
  Beta  occ. eigenvalues --   -0.35838
  Beta virt. eigenvalues --   -0.16753  -0.09622   0.03550   0.07548   0.08816
  Beta virt. eigenvalues --    0.08890   0.15535   0.17490   0.18842   0.20525
  Beta virt. eigenvalues --    0.22713   0.24484   0.25193   0.31365   0.35886
  Beta virt. eigenvalues --    0.43149   0.78462   0.78924   0.82016   1.03488
  Beta virt. eigenvalues --    1.10043   1.11632   1.14809   1.15853   1.17440
  Beta virt. eigenvalues --    1.19517   1.36879   1.40906   1.42601   1.59043
  Beta virt. eigenvalues --    1.62805   1.72245   1.72821   1.82550   1.83920
  Beta virt. eigenvalues --    1.84133   2.23904   2.32874   2.68284   2.70763
  Beta virt. eigenvalues --    2.79656   2.83074   2.97531   3.89084   4.14994
  Beta virt. eigenvalues --    4.22317
     Alpha Molecular Orbital Coefficients:
                           1         2         3         4         5
                        (B2)--O   (A1)--O   (A1)--O   (A1)--O   (B2)--O
     Eigenvalues --   -19.28615 -19.28614 -14.60295  -1.29345  -1.14989
   1 1   N  1S          0.00000  -0.00002   0.99271  -0.15813   0.00000
   2        2S          0.00000   0.00039   0.03461   0.33981   0.00000
   3        2PX         0.00000   0.00000   0.00000   0.00000   0.00000
   4        2PY         0.00032   0.00000   0.00000   0.00000   0.31915
   5        2PZ         0.00000  -0.00010  -0.00120  -0.10521   0.00000
   6        3S          0.00000  -0.00069   0.00562   0.20207   0.00000
   7        3PX         0.00000   0.00000   0.00000   0.00000   0.00000
   8        3PY        -0.00100   0.00000   0.00000   0.00000   0.01891
   9        3PZ         0.00000   0.00056   0.00009  -0.00525   0.00000
  10        4S          0.00000   0.00967   0.00056   0.16469   0.00000
  11        4PX         0.00000   0.00000   0.00000   0.00000   0.00000
  12        4PY         0.00535   0.00000   0.00000   0.00000   0.07850
  13        4PZ         0.00000  -0.00194  -0.00039  -0.03334   0.00000
  14        5XX         0.00000  -0.00012  -0.00848  -0.02262   0.00000
  15        5YY         0.00000  -0.00104  -0.00778   0.01682   0.00000
  16        5ZZ         0.00000  -0.00020  -0.00814  -0.01285   0.00000
  17        5XY         0.00000   0.00000   0.00000   0.00000   0.00000
  18        5XZ         0.00000   0.00000   0.00000   0.00000   0.00000
  19        5YZ         0.00027   0.00000   0.00000   0.00000  -0.03258
  20 2   O  1S          0.70180   0.70182  -0.00004  -0.11637  -0.14593
  21        2S          0.01782   0.01794   0.00032   0.25438   0.32400
  22        2PX         0.00000   0.00000   0.00000   0.00000   0.00000
  23        2PY        -0.00097  -0.00103  -0.00013  -0.12744  -0.11143
  24        2PZ         0.00036   0.00047   0.00005   0.04768   0.06375
  25        3S          0.01189   0.01161  -0.00077   0.22542   0.32351
  26        3PX         0.00000   0.00000   0.00000   0.00000   0.00000
  27        3PY         0.00018  -0.00022   0.00058  -0.04569  -0.04000
  28        3PZ         0.00009   0.00002  -0.00024   0.01142   0.02701
  29        4S         -0.00982  -0.00780  -0.00087  -0.12429  -0.13368
  30        4PX         0.00000   0.00000   0.00000   0.00000   0.00000
  31        4PY         0.00116   0.00129   0.00025   0.03748   0.02461
  32        4PZ        -0.00107  -0.00024  -0.00006  -0.00945  -0.02006
  33        5XX        -0.00625  -0.00625   0.00015  -0.01004  -0.01056
  34        5YY        -0.00612  -0.00606  -0.00036   0.01428  -0.00067
  35        5ZZ        -0.00622  -0.00602   0.00006  -0.00788  -0.00317
  36        5XY         0.00000   0.00000   0.00000   0.00000   0.00000
  37        5XZ         0.00000   0.00000   0.00000   0.00000   0.00000
  38        5YZ         0.00002  -0.00023   0.00020  -0.00944  -0.01055
  39 3   O  1S         -0.70180   0.70182  -0.00004  -0.11637   0.14593
  40        2S         -0.01782   0.01794   0.00032   0.25438  -0.32400
  41        2PX         0.00000   0.00000   0.00000   0.00000   0.00000
  42        2PY        -0.00097   0.00103   0.00013   0.12744  -0.11143
  43        2PZ        -0.00036   0.00047   0.00005   0.04768  -0.06375
  44        3S         -0.01189   0.01161  -0.00077   0.22542  -0.32351
  45        3PX         0.00000   0.00000   0.00000   0.00000   0.00000
  46        3PY         0.00018   0.00022  -0.00058   0.04569  -0.04000
  47        3PZ        -0.00009   0.00002  -0.00024   0.01142  -0.02701
  48        4S          0.00982  -0.00780  -0.00087  -0.12429   0.13368
  49        4PX         0.00000   0.00000   0.00000   0.00000   0.00000
  50        4PY         0.00116  -0.00129  -0.00025  -0.03748   0.02461
  51        4PZ         0.00107  -0.00024  -0.00006  -0.00945   0.02006
  52        5XX         0.00625  -0.00625   0.00015  -0.01004   0.01056
  53        5YY         0.00612  -0.00606  -0.00036   0.01428   0.00067
  54        5ZZ         0.00622  -0.00602   0.00006  -0.00788   0.00317
  55        5XY         0.00000   0.00000   0.00000   0.00000   0.00000
  56        5XZ         0.00000   0.00000   0.00000   0.00000   0.00000
  57        5YZ         0.00002   0.00023  -0.00020   0.00944  -0.01055
                           6         7         8         9        10
                        (A1)--O   (A1)--O   (B2)--O   (B1)--O   (B2)--O
     Eigenvalues --    -0.69508  -0.58742  -0.58714  -0.57681  -0.39790
   1 1   N  1S         -0.14015  -0.01710   0.00000   0.00000   0.00000
   2        2S          0.34168   0.03348   0.00000   0.00000   0.00000
   3        2PX         0.00000   0.00000   0.00000   0.47075   0.00000
   4        2PY         0.00000   0.00000   0.36347   0.00000  -0.05109
   5        2PZ         0.11440   0.46944   0.00000   0.00000   0.00000
   6        3S          0.45101   0.07625   0.00000   0.00000   0.00000
   7        3PX         0.00000   0.00000   0.00000   0.21493   0.00000
   8        3PY         0.00000   0.00000   0.12342   0.00000   0.01510
   9        3PZ         0.02459   0.19941   0.00000   0.00000   0.00000
  10        4S         -0.01118   0.02862   0.00000   0.00000   0.00000
  11        4PX         0.00000   0.00000   0.00000   0.02162   0.00000
  12        4PY         0.00000   0.00000  -0.02611   0.00000   0.04129
  13        4PZ         0.01767   0.00747   0.00000   0.00000   0.00000
  14        5XX        -0.00669   0.00552   0.00000   0.00000   0.00000
  15        5YY        -0.01552   0.01794   0.00000   0.00000   0.00000
  16        5ZZ        -0.01074  -0.02413   0.00000   0.00000   0.00000
  17        5XY         0.00000   0.00000   0.00000   0.00000   0.00000
  18        5XZ         0.00000   0.00000   0.00000  -0.01978   0.00000
  19        5YZ         0.00000   0.00000  -0.00840   0.00000   0.04543
  20 2   O  1S          0.11405  -0.03216   0.07858   0.00000  -0.00208
  21        2S         -0.26228   0.07103  -0.17384   0.00000   0.00747
  22        2PX         0.00000   0.00000   0.00000   0.31539   0.00000
  23        2PY        -0.18469   0.23873  -0.29639   0.00000   0.28876
  24        2PZ         0.13533   0.21446   0.22574   0.00000   0.40569
  25        3S         -0.38626   0.12359  -0.30077   0.00000  -0.00657
  26        3PX         0.00000   0.00000   0.00000   0.16533   0.00000
  27        3PY        -0.05177   0.11031  -0.11742   0.00000   0.17503
  28        3PZ         0.05628   0.11283   0.09990   0.00000   0.24591
  29        4S         -0.02276   0.00111  -0.01212   0.00000  -0.01668
  30        4PX         0.00000   0.00000   0.00000  -0.00147   0.00000
  31        4PY         0.00441   0.00740  -0.00684   0.00000   0.01533
  32        4PZ        -0.00899   0.00071   0.00890   0.00000   0.03104
  33        5XX        -0.00148   0.00233  -0.00393   0.00000   0.00240
  34        5YY         0.01567  -0.02409   0.01374   0.00000  -0.01384
  35        5ZZ         0.00304   0.01500   0.00246   0.00000   0.01433
  36        5XY         0.00000   0.00000   0.00000  -0.02837   0.00000
  37        5XZ         0.00000   0.00000   0.00000   0.01112   0.00000
  38        5YZ        -0.01414  -0.01255  -0.01464   0.00000  -0.01109
  39 3   O  1S          0.11405  -0.03216  -0.07858   0.00000   0.00208
  40        2S         -0.26228   0.07103   0.17384   0.00000  -0.00747
  41        2PX         0.00000   0.00000   0.00000   0.31539   0.00000
  42        2PY         0.18469  -0.23873  -0.29639   0.00000   0.28876
  43        2PZ         0.13533   0.21446  -0.22574   0.00000  -0.40569
  44        3S         -0.38626   0.12359   0.30077   0.00000   0.00657
  45        3PX         0.00000   0.00000   0.00000   0.16533   0.00000
  46        3PY         0.05177  -0.11031  -0.11742   0.00000   0.17503
  47        3PZ         0.05628   0.11283  -0.09990   0.00000  -0.24591
  48        4S         -0.02276   0.00111   0.01212   0.00000   0.01668
  49        4PX         0.00000   0.00000   0.00000  -0.00147   0.00000
  50        4PY        -0.00441  -0.00740  -0.00684   0.00000   0.01533
  51        4PZ        -0.00899   0.00071  -0.00890   0.00000  -0.03104
  52        5XX        -0.00148   0.00233   0.00393   0.00000  -0.00240
  53        5YY         0.01567  -0.02409  -0.01374   0.00000   0.01384
  54        5ZZ         0.00304   0.01500  -0.00246   0.00000  -0.01433
  55        5XY         0.00000   0.00000   0.00000   0.02837   0.00000
  56        5XZ         0.00000   0.00000   0.00000   0.01112   0.00000
  57        5YZ         0.01414   0.01255  -0.01464   0.00000  -0.01109
                          11        12        13        14        15
                        (A2)--O   (A1)--O   (B1)--V   (A1)--V   (B2)--V
     Eigenvalues --    -0.39352  -0.30639  -0.11230   0.02949   0.07429
   1 1   N  1S          0.00000   0.06642   0.00000   0.00725   0.00000
   2        2S          0.00000  -0.14580   0.00000  -0.07429   0.00000
   3        2PX         0.00000   0.00000   0.56995   0.00000   0.00000
   4        2PY         0.00000   0.00000   0.00000   0.00000  -0.06371
   5        2PZ         0.00000  -0.40529   0.00000  -0.17935   0.00000
   6        3S          0.00000  -0.41151   0.00000   0.13633   0.00000
   7        3PX         0.00000   0.00000   0.46634   0.00000   0.00000
   8        3PY         0.00000   0.00000   0.00000   0.00000  -0.25459
   9        3PZ         0.00000  -0.22148   0.00000  -0.26706   0.00000
  10        4S          0.00000  -0.10955   0.00000   5.09832   0.00000
  11        4PX         0.00000   0.00000   0.20853   0.00000   0.00000
  12        4PY         0.00000   0.00000   0.00000   0.00000  -3.42208
  13        4PZ         0.00000  -0.05490   0.00000  -0.91410   0.00000
  14        5XX         0.00000  -0.01229   0.00000   0.01347   0.00000
  15        5YY         0.00000   0.06028   0.00000  -0.02554   0.00000
  16        5ZZ         0.00000  -0.02508   0.00000  -0.00160   0.00000
  17        5XY         0.05227   0.00000   0.00000   0.00000   0.00000
  18        5XZ         0.00000   0.00000   0.01310   0.00000   0.00000
  19        5YZ         0.00000   0.00000   0.00000   0.00000  -0.00457
  20 2   O  1S          0.00000  -0.01755   0.00000   0.03476  -0.02941
  21        2S          0.00000   0.04996   0.00000  -0.12683   0.12587
  22        2PX         0.48385   0.00000  -0.38481   0.00000   0.00000
  23        2PY         0.00000  -0.04826   0.00000   0.03219   0.05944
  24        2PZ         0.00000   0.41932   0.00000   0.07044   0.04860
  25        3S          0.00000   0.09955   0.00000  -0.13298   0.05889
  26        3PX         0.30299   0.00000  -0.29790   0.00000   0.00000
  27        3PY         0.00000  -0.02255   0.00000   0.02548   0.01869
  28        3PZ         0.00000   0.27576   0.00000   0.05707   0.03889
  29        4S          0.00000  -0.02145   0.00000  -2.25297   3.51033
  30        4PX         0.04841   0.00000  -0.18514   0.00000   0.00000
  31        4PY         0.00000   0.01221   0.00000   0.72212  -0.81354
  32        4PZ         0.00000   0.07237   0.00000  -0.09299   0.63440
  33        5XX         0.00000  -0.00334   0.00000   0.00025   0.00995
  34        5YY         0.00000  -0.00160   0.00000  -0.00607   0.01052
  35        5ZZ         0.00000  -0.00562   0.00000  -0.00858   0.01011
  36        5XY        -0.01949   0.00000  -0.00984   0.00000   0.00000
  37        5XZ         0.00838   0.00000   0.00669   0.00000   0.00000
  38        5YZ         0.00000  -0.00118   0.00000   0.00566  -0.00181
  39 3   O  1S          0.00000  -0.01755   0.00000   0.03476   0.02941
  40        2S          0.00000   0.04996   0.00000  -0.12683  -0.12587
  41        2PX        -0.48385   0.00000  -0.38481   0.00000   0.00000
  42        2PY         0.00000   0.04826   0.00000  -0.03219   0.05944
  43        2PZ         0.00000   0.41932   0.00000   0.07044  -0.04860
  44        3S          0.00000   0.09955   0.00000  -0.13298  -0.05889
  45        3PX        -0.30299   0.00000  -0.29790   0.00000   0.00000
  46        3PY         0.00000   0.02255   0.00000  -0.02548   0.01869
  47        3PZ         0.00000   0.27576   0.00000   0.05707  -0.03889
  48        4S          0.00000  -0.02145   0.00000  -2.25297  -3.51033
  49        4PX        -0.04841   0.00000  -0.18514   0.00000   0.00000
  50        4PY         0.00000  -0.01221   0.00000  -0.72212  -0.81354
  51        4PZ         0.00000   0.07237   0.00000  -0.09299  -0.63440
  52        5XX         0.00000  -0.00334   0.00000   0.00025  -0.00995
  53        5YY         0.00000  -0.00160   0.00000  -0.00607  -0.01052
  54        5ZZ         0.00000  -0.00562   0.00000  -0.00858  -0.01011
  55        5XY        -0.01949   0.00000   0.00984   0.00000   0.00000
  56        5XZ        -0.00838   0.00000   0.00669   0.00000   0.00000
  57        5YZ         0.00000   0.00118   0.00000  -0.00566  -0.00181
                          16        17        18        19        20
                        (A1)--V   (B1)--V   (A1)--V   (B2)--V   (A2)--V
     Eigenvalues --     0.08388   0.08807   0.14954   0.17329   0.18852
   1 1   N  1S          0.04062   0.00000   0.10231   0.00000   0.00000
   2        2S         -0.07749   0.00000  -0.22628   0.00000   0.00000
   3        2PX         0.00000  -0.14448   0.00000   0.00000   0.00000
   4        2PY         0.00000   0.00000   0.00000  -0.11970   0.00000
   5        2PZ        -0.09416   0.00000   0.20730   0.00000   0.00000
   6        3S         -0.44911   0.00000  -1.28794   0.00000   0.00000
   7        3PX         0.00000  -0.25337   0.00000   0.00000   0.00000
   8        3PY         0.00000   0.00000   0.00000  -0.30619   0.00000
   9        3PZ        -0.18582   0.00000   0.31169   0.00000   0.00000
  10        4S         -1.80787   0.00000   2.16585   0.00000   0.00000
  11        4PX         0.00000   1.47005   0.00000   0.00000   0.00000
  12        4PY         0.00000   0.00000   0.00000   1.39012   0.00000
  13        4PZ         1.88179   0.00000  -0.33924   0.00000   0.00000
  14        5XX         0.00218   0.00000   0.00669   0.00000   0.00000
  15        5YY         0.01717   0.00000   0.06637   0.00000   0.00000
  16        5ZZ         0.03283   0.00000   0.01085   0.00000   0.00000
  17        5XY         0.00000   0.00000   0.00000   0.00000  -0.00335
  18        5XZ         0.00000   0.01652   0.00000   0.00000   0.00000
  19        5YZ         0.00000   0.00000   0.00000   0.00357   0.00000
  20 2   O  1S         -0.01207   0.00000  -0.04877  -0.02430   0.00000
  21        2S          0.05428   0.00000   0.07328   0.01112   0.00000
  22        2PX         0.00000  -0.10588   0.00000   0.00000  -0.15377
  23        2PY        -0.04911   0.00000  -0.15540  -0.02477   0.00000
  24        2PZ        -0.08359   0.00000   0.08465  -0.10305   0.00000
  25        3S         -0.00525   0.00000   0.60473   0.39372   0.00000
  26        3PX         0.00000  -0.07207   0.00000   0.00000  -0.29809
  27        3PY        -0.01811   0.00000  -0.15405  -0.04406   0.00000
  28        3PZ        -0.05245   0.00000   0.12611  -0.15415   0.00000
  29        4S          1.22596   0.00000  -1.29312  -0.93089   0.00000
  30        4PX         0.00000  -0.19295   0.00000   0.00000   1.15942
  31        4PY        -0.38172   0.00000  -0.47964  -0.55449   0.00000
  32        4PZ        -0.14492   0.00000  -0.18223   0.76605   0.00000
  33        5XX         0.00433   0.00000  -0.01148  -0.01401   0.00000
  34        5YY        -0.00008   0.00000  -0.05512  -0.02172   0.00000
  35        5ZZ         0.00444   0.00000  -0.00634  -0.01894   0.00000
  36        5XY         0.00000   0.00767   0.00000   0.00000   0.01827
  37        5XZ         0.00000  -0.00148   0.00000   0.00000  -0.00352
  38        5YZ         0.00822   0.00000   0.00709   0.01583   0.00000
  39 3   O  1S         -0.01207   0.00000  -0.04877   0.02430   0.00000
  40        2S          0.05428   0.00000   0.07328  -0.01112   0.00000
  41        2PX         0.00000  -0.10588   0.00000   0.00000   0.15377
  42        2PY         0.04911   0.00000   0.15540  -0.02477   0.00000
  43        2PZ        -0.08359   0.00000   0.08465   0.10305   0.00000
  44        3S         -0.00525   0.00000   0.60473  -0.39372   0.00000
  45        3PX         0.00000  -0.07207   0.00000   0.00000   0.29809
  46        3PY         0.01811   0.00000   0.15405  -0.04406   0.00000
  47        3PZ        -0.05245   0.00000   0.12611   0.15415   0.00000
  48        4S          1.22596   0.00000  -1.29312   0.93089   0.00000
  49        4PX         0.00000  -0.19295   0.00000   0.00000  -1.15942
  50        4PY         0.38172   0.00000   0.47964  -0.55449   0.00000
  51        4PZ        -0.14492   0.00000  -0.18223  -0.76605   0.00000
  52        5XX         0.00433   0.00000  -0.01148   0.01401   0.00000
  53        5YY        -0.00008   0.00000  -0.05512   0.02172   0.00000
  54        5ZZ         0.00444   0.00000  -0.00634   0.01894   0.00000
  55        5XY         0.00000  -0.00767   0.00000   0.00000   0.01827
  56        5XZ         0.00000  -0.00148   0.00000   0.00000   0.00352
  57        5YZ        -0.00822   0.00000  -0.00709   0.01583   0.00000
                          21        22        23        24        25
                        (A1)--V   (B1)--V   (A1)--V   (B2)--V   (A1)--V
     Eigenvalues --     0.19932   0.22575   0.23683   0.25132   0.30998
   1 1   N  1S          0.02230   0.00000   0.07390   0.00000  -0.08530
   2        2S         -0.08300   0.00000  -0.20546   0.00000   0.12531
   3        2PX         0.00000  -0.10326   0.00000   0.00000   0.00000
   4        2PY         0.00000   0.00000   0.00000  -0.03884   0.00000
   5        2PZ         0.14329   0.00000   0.33991   0.00000  -0.08972
   6        3S         -0.26271   0.00000  -0.81476   0.00000   2.18304
   7        3PX         0.00000  -0.02933   0.00000   0.00000   0.00000
   8        3PY         0.00000   0.00000   0.00000  -0.01431   0.00000
   9        3PZ         0.41358   0.00000   0.44361   0.00000  -0.40209
  10        4S         -1.06168   0.00000   3.88146   0.00000  11.58502
  11        4PX         0.00000   2.77827   0.00000   0.00000   0.00000
  12        4PY         0.00000   0.00000   0.00000   3.26083   0.00000
  13        4PZ         2.14661   0.00000  -2.32194   0.00000  -2.31998
  14        5XX        -0.05085   0.00000  -0.03350   0.00000  -0.03452
  15        5YY         0.00576   0.00000   0.06131   0.00000  -0.00450
  16        5ZZ        -0.01385   0.00000  -0.02036   0.00000  -0.03793
  17        5XY         0.00000   0.00000   0.00000   0.00000   0.00000
  18        5XZ         0.00000   0.01467   0.00000   0.00000   0.00000
  19        5YZ         0.00000   0.00000   0.00000   0.01077   0.00000
  20 2   O  1S         -0.02304   0.00000  -0.05012   0.00604  -0.04971
  21        2S          0.04865   0.00000   0.09428  -0.00927   0.00218
  22        2PX         0.00000   0.16201   0.00000   0.00000   0.00000
  23        2PY        -0.20087   0.00000  -0.35328   0.05320   0.13408
  24        2PZ         0.08431   0.00000  -0.08732   0.05807  -0.07421
  25        3S          0.36126   0.00000   0.67499  -0.13649   0.92023
  26        3PX         0.00000   0.33163   0.00000   0.00000   0.00000
  27        3PY        -0.37384   0.00000  -0.51486   0.16589   0.38900
  28        3PZ         0.22072   0.00000  -0.17514   0.16301  -0.14317
  29        4S          0.83382   0.00000  -2.29238  -0.94167  -7.74675
  30        4PX         0.00000  -1.95118   0.00000   0.00000   0.00000
  31        4PY         0.28986   0.00000   0.93556  -1.82802   1.68783
  32        4PZ        -1.42602   0.00000   0.93948  -1.10502  -0.32592
  33        5XX        -0.02239   0.00000  -0.00997   0.01186  -0.04987
  34        5YY         0.01002   0.00000  -0.02926  -0.02105  -0.04642
  35        5ZZ         0.01105   0.00000  -0.00965   0.01622  -0.06242
  36        5XY         0.00000  -0.00440   0.00000   0.00000   0.00000
  37        5XZ         0.00000   0.01292   0.00000   0.00000   0.00000
  38        5YZ        -0.02053   0.00000   0.00037  -0.00363  -0.01225
  39 3   O  1S         -0.02304   0.00000  -0.05012  -0.00604  -0.04971
  40        2S          0.04865   0.00000   0.09428   0.00927   0.00218
  41        2PX         0.00000   0.16201   0.00000   0.00000   0.00000
  42        2PY         0.20087   0.00000   0.35328   0.05320  -0.13408
  43        2PZ         0.08431   0.00000  -0.08732  -0.05807  -0.07421
  44        3S          0.36126   0.00000   0.67499   0.13649   0.92023
  45        3PX         0.00000   0.33163   0.00000   0.00000   0.00000
  46        3PY         0.37384   0.00000   0.51486   0.16589  -0.38900
  47        3PZ         0.22072   0.00000  -0.17514  -0.16301  -0.14317
  48        4S          0.83382   0.00000  -2.29238   0.94167  -7.74675
  49        4PX         0.00000  -1.95118   0.00000   0.00000   0.00000
  50        4PY        -0.28986   0.00000  -0.93556  -1.82802  -1.68783
  51        4PZ        -1.42602   0.00000   0.93948   1.10502  -0.32592
  52        5XX        -0.02239   0.00000  -0.00997  -0.01186  -0.04987
  53        5YY         0.01002   0.00000  -0.02926   0.02105  -0.04642
  54        5ZZ         0.01105   0.00000  -0.00965  -0.01622  -0.06242
  55        5XY         0.00000   0.00440   0.00000   0.00000   0.00000
  56        5XZ         0.00000   0.01292   0.00000   0.00000   0.00000
  57        5YZ         0.02053   0.00000  -0.00037  -0.00363   0.01225
                          26        27        28        29        30
                        (B2)--V   (B2)--V   (A1)--V   (B1)--V   (B2)--V
     Eigenvalues --     0.35386   0.40478   0.76109   0.77644   0.81575
   1 1   N  1S          0.00000   0.00000   0.01629   0.00000   0.00000
   2        2S          0.00000   0.00000  -0.08967   0.00000   0.00000
   3        2PX         0.00000   0.00000   0.00000  -0.93203   0.00000
   4        2PY         0.19913  -0.70287   0.00000   0.00000  -0.72995
   5        2PZ         0.00000   0.00000  -0.85660   0.00000   0.00000
   6        3S          0.00000   0.00000  -1.34753   0.00000   0.00000
   7        3PX         0.00000   0.00000   0.00000   1.68034   0.00000
   8        3PY        -0.02817  -2.22204   0.00000   0.00000   4.57083
   9        3PZ         0.00000   0.00000   2.16642   0.00000   0.00000
  10        4S          0.00000   0.00000  -0.92434   0.00000   0.00000
  11        4PX         0.00000   0.00000   0.00000  -0.85345   0.00000
  12        4PY        -6.37811  -2.33304   0.00000   0.00000   0.97928
  13        4PZ         0.00000   0.00000  -0.73938   0.00000   0.00000
  14        5XX         0.00000   0.00000  -0.04074   0.00000   0.00000
  15        5YY         0.00000   0.00000  -0.14733   0.00000   0.00000
  16        5ZZ         0.00000   0.00000   0.03250   0.00000   0.00000
  17        5XY         0.00000   0.00000   0.00000   0.00000   0.00000
  18        5XZ         0.00000   0.00000   0.00000   0.04056   0.00000
  19        5YZ         0.05693  -0.04426   0.00000   0.00000  -0.05218
  20 2   O  1S          0.08885  -0.03720  -0.00837   0.00000  -0.00024
  21        2S         -0.07006   0.08915  -0.03398   0.00000   0.13117
  22        2PX         0.00000   0.00000   0.00000  -0.09520   0.00000
  23        2PY         0.01337  -0.30449   0.00704   0.00000  -0.09791
  24        2PZ        -0.12058   0.22571  -0.09142   0.00000  -0.06750
  25        3S         -1.57438   0.77162   0.79354   0.00000  -1.95354
  26        3PX         0.00000   0.00000   0.00000  -0.21628   0.00000
  27        3PY        -0.06613  -0.84814  -0.61662   0.00000   0.88215
  28        3PZ        -0.13016   0.52504  -0.06178   0.00000  -0.62574
  29        4S          9.50436   4.20438   0.52384   0.00000  -3.78327
  30        4PX         0.00000   0.00000   0.00000   0.12762   0.00000
  31        4PY        -1.51387  -0.63782  -0.10342   0.00000   1.34809
  32        4PZ         1.57805   0.54352   0.17641   0.00000  -0.64909
  33        5XX         0.06386   0.02557  -0.05859   0.00000   0.06087
  34        5YY         0.06819   0.00148   0.10087   0.00000  -0.12400
  35        5ZZ         0.06520  -0.01319  -0.02840   0.00000   0.08304
  36        5XY         0.00000   0.00000   0.00000   0.04472   0.00000
  37        5XZ         0.00000   0.00000   0.00000  -0.01186   0.00000
  38        5YZ        -0.01004   0.02825  -0.01995   0.00000   0.09409
  39 3   O  1S         -0.08885   0.03720  -0.00837   0.00000   0.00024
  40        2S          0.07006  -0.08915  -0.03398   0.00000  -0.13117
  41        2PX         0.00000   0.00000   0.00000  -0.09520   0.00000
  42        2PY         0.01337  -0.30449  -0.00704   0.00000  -0.09791
  43        2PZ         0.12058  -0.22571  -0.09142   0.00000   0.06750
  44        3S          1.57438  -0.77162   0.79354   0.00000   1.95354
  45        3PX         0.00000   0.00000   0.00000  -0.21628   0.00000
  46        3PY        -0.06613  -0.84814   0.61662   0.00000   0.88215
  47        3PZ         0.13016  -0.52504  -0.06178   0.00000   0.62574
  48        4S         -9.50436  -4.20438   0.52384   0.00000   3.78327
  49        4PX         0.00000   0.00000   0.00000   0.12762   0.00000
  50        4PY        -1.51387  -0.63782   0.10342   0.00000   1.34809
  51        4PZ        -1.57805  -0.54352   0.17641   0.00000   0.64909
  52        5XX        -0.06386  -0.02557  -0.05859   0.00000  -0.06087
  53        5YY        -0.06819  -0.00148   0.10087   0.00000   0.12400
  54        5ZZ        -0.06520   0.01319  -0.02840   0.00000  -0.08304
  55        5XY         0.00000   0.00000   0.00000  -0.04472   0.00000
  56        5XZ         0.00000   0.00000   0.00000  -0.01186   0.00000
  57        5YZ        -0.01004   0.02825   0.01995   0.00000   0.09409
                          31        32        33        34        35
                        (A1)--V   (A1)--V   (A2)--V   (B2)--V   (A1)--V
     Eigenvalues --     1.02909   1.09640   1.09660   1.12606   1.14100
   1 1   N  1S          0.04018  -0.03600   0.00000   0.00000  -0.04777
   2        2S          0.33245  -1.31952   0.00000   0.00000  -1.00683
   3        2PX         0.00000   0.00000   0.00000   0.00000   0.00000
   4        2PY         0.00000   0.00000   0.00000  -0.01487   0.00000
   5        2PZ        -0.15546  -0.05750   0.00000   0.00000   0.01505
   6        3S          1.84721   5.63163   0.00000   0.00000   3.66013
   7        3PX         0.00000   0.00000   0.00000   0.00000   0.00000
   8        3PY         0.00000   0.00000   0.00000   2.36297   0.00000
   9        3PZ        -0.76836  -0.66685   0.00000   0.00000  -1.11852
  10        4S          0.24957   3.34783   0.00000   0.00000   1.01136
  11        4PX         0.00000   0.00000   0.00000   0.00000   0.00000
  12        4PY         0.00000   0.00000   0.00000   0.92147   0.00000
  13        4PZ        -0.12447  -1.09271   0.00000   0.00000   0.75930
  14        5XX         0.00159  -0.11730   0.00000   0.00000   0.05527
  15        5YY         0.42130   0.00423   0.00000   0.00000  -0.19875
  16        5ZZ        -0.03958  -0.23430   0.00000   0.00000  -0.20639
  17        5XY         0.00000   0.00000   0.00214   0.00000   0.00000
  18        5XZ         0.00000   0.00000   0.00000   0.00000   0.00000
  19        5YZ         0.00000   0.00000   0.00000  -0.12696   0.00000
  20 2   O  1S          0.02772   0.00822   0.00000   0.01046   0.00487
  21        2S         -0.05553   0.16036   0.00000  -0.14749   0.01269
  22        2PX         0.00000   0.00000  -0.68458   0.00000   0.00000
  23        2PY        -0.51385  -0.02719   0.00000  -0.28218  -0.20835
  24        2PZ         0.04048   0.42087   0.00000   0.56492  -0.46353
  25        3S         -0.80917  -1.18700   0.00000  -0.73065  -0.73262
  26        3PX         0.00000   0.00000   1.08499   0.00000   0.00000
  27        3PY         1.74585   0.89393   0.00000   1.18567   0.84495
  28        3PZ        -0.39401  -0.98049   0.00000  -1.40090   0.85410
  29        4S         -0.43584  -2.80537   0.00000  -2.24053  -1.04951
  30        4PX         0.00000   0.00000  -0.66320   0.00000   0.00000
  31        4PY        -0.53830   0.89083   0.00000   0.24431   0.25330
  32        4PZ         0.16425   0.18964   0.00000   0.24905  -0.97059
  33        5XX         0.01191   0.13676   0.00000  -0.08278   0.13484
  34        5YY        -0.09368  -0.07545   0.00000  -0.07645  -0.05174
  35        5ZZ        -0.05533  -0.00154   0.00000  -0.01224  -0.05247
  36        5XY         0.00000   0.00000  -0.00993   0.00000   0.00000
  37        5XZ         0.00000   0.00000   0.01909   0.00000   0.00000
  38        5YZ        -0.02731   0.06945   0.00000  -0.02065   0.05452
  39 3   O  1S          0.02772   0.00822   0.00000  -0.01046   0.00487
  40        2S         -0.05553   0.16036   0.00000   0.14749   0.01269
  41        2PX         0.00000   0.00000   0.68458   0.00000   0.00000
  42        2PY         0.51385   0.02719   0.00000  -0.28218   0.20835
  43        2PZ         0.04048   0.42087   0.00000  -0.56492  -0.46353
  44        3S         -0.80917  -1.18700   0.00000   0.73065  -0.73262
  45        3PX         0.00000   0.00000  -1.08499   0.00000   0.00000
  46        3PY        -1.74585  -0.89393   0.00000   1.18567  -0.84495
  47        3PZ        -0.39401  -0.98049   0.00000   1.40090   0.85410
  48        4S         -0.43584  -2.80537   0.00000   2.24053  -1.04951
  49        4PX         0.00000   0.00000   0.66320   0.00000   0.00000
  50        4PY         0.53830  -0.89083   0.00000   0.24431  -0.25330
  51        4PZ         0.16425   0.18964   0.00000  -0.24905  -0.97059
  52        5XX         0.01191   0.13676   0.00000   0.08278   0.13484
  53        5YY        -0.09368  -0.07545   0.00000   0.07645  -0.05174
  54        5ZZ        -0.05533  -0.00154   0.00000   0.01224  -0.05247
  55        5XY         0.00000   0.00000  -0.00993   0.00000   0.00000
  56        5XZ         0.00000   0.00000  -0.01909   0.00000   0.00000
  57        5YZ         0.02731  -0.06945   0.00000  -0.02065  -0.05452
                          36        37        38        39        40
                        (B1)--V   (B2)--V   (A2)--V   (B1)--V   (A1)--V
     Eigenvalues --     1.16914   1.18643   1.36340   1.38834   1.40387
   1 1   N  1S          0.00000   0.00000   0.00000   0.00000  -0.00486
   2        2S          0.00000   0.00000   0.00000   0.00000  -0.27676
   3        2PX         0.05827   0.00000   0.00000   0.13619   0.00000
   4        2PY         0.00000  -0.03803   0.00000   0.00000   0.00000
   5        2PZ         0.00000   0.00000   0.00000   0.00000   0.15012
   6        3S          0.00000   0.00000   0.00000   0.00000   1.14923
   7        3PX        -0.69811   0.00000   0.00000  -0.12059   0.00000
   8        3PY         0.00000  -0.95689   0.00000   0.00000   0.00000
   9        3PZ         0.00000   0.00000   0.00000   0.00000  -0.29294
  10        4S          0.00000   0.00000   0.00000   0.00000   3.26421
  11        4PX         1.19553   0.00000   0.00000  -0.06381   0.00000
  12        4PY         0.00000  -2.02002   0.00000   0.00000   0.00000
  13        4PZ         0.00000   0.00000   0.00000   0.00000  -0.69147
  14        5XX         0.00000   0.00000   0.00000   0.00000  -0.49223
  15        5YY         0.00000   0.00000   0.00000   0.00000  -0.11006
  16        5ZZ         0.00000   0.00000   0.00000   0.00000   0.61035
  17        5XY         0.00000   0.00000   0.58453   0.00000   0.00000
  18        5XZ        -0.06157   0.00000   0.00000   0.70923   0.00000
  19        5YZ         0.00000   0.23685   0.00000   0.00000   0.00000
  20 2   O  1S          0.00000  -0.00726   0.00000   0.00000  -0.02260
  21        2S          0.00000  -0.07501   0.00000   0.00000  -0.33186
  22        2PX        -0.66134   0.00000  -0.03640   0.00186   0.00000
  23        2PY         0.00000   0.52340   0.00000   0.00000  -0.11942
  24        2PZ         0.00000   0.30931   0.00000   0.00000   0.04801
  25        3S          0.00000   0.50141   0.00000   0.00000   0.78879
  26        3PX         1.31524   0.00000  -0.24952   0.14949   0.00000
  27        3PY         0.00000  -1.39945   0.00000   0.00000   0.38268
  28        3PZ         0.00000  -0.37385   0.00000   0.00000   0.03845
  29        4S          0.00000   2.08442   0.00000   0.00000  -2.43095
  30        4PX        -1.04944   0.00000   0.17199   0.00338   0.00000
  31        4PY         0.00000   0.53643   0.00000   0.00000   0.42031
  32        4PZ         0.00000   0.83260   0.00000   0.00000  -0.11520
  33        5XX         0.00000   0.05104   0.00000   0.00000  -0.31496
  34        5YY         0.00000  -0.08952   0.00000   0.00000   0.05215
  35        5ZZ         0.00000   0.04639   0.00000   0.00000  -0.03691
  36        5XY         0.04184   0.00000  -0.32180   0.30888   0.00000
  37        5XZ        -0.04830   0.00000   0.26567   0.24541   0.00000
  38        5YZ         0.00000  -0.04668   0.00000   0.00000   0.31149
  39 3   O  1S          0.00000   0.00726   0.00000   0.00000  -0.02260
  40        2S          0.00000   0.07501   0.00000   0.00000  -0.33186
  41        2PX        -0.66134   0.00000   0.03640   0.00186   0.00000
  42        2PY         0.00000   0.52340   0.00000   0.00000   0.11942
  43        2PZ         0.00000  -0.30931   0.00000   0.00000   0.04801
  44        3S          0.00000  -0.50141   0.00000   0.00000   0.78879
  45        3PX         1.31524   0.00000   0.24952   0.14949   0.00000
  46        3PY         0.00000  -1.39945   0.00000   0.00000  -0.38268
  47        3PZ         0.00000   0.37385   0.00000   0.00000   0.03845
  48        4S          0.00000  -2.08442   0.00000   0.00000  -2.43095
  49        4PX        -1.04944   0.00000  -0.17199   0.00338   0.00000
  50        4PY         0.00000   0.53643   0.00000   0.00000  -0.42031
  51        4PZ         0.00000  -0.83260   0.00000   0.00000  -0.11520
  52        5XX         0.00000  -0.05104   0.00000   0.00000  -0.31496
  53        5YY         0.00000   0.08952   0.00000   0.00000   0.05215
  54        5ZZ         0.00000  -0.04639   0.00000   0.00000  -0.03691
  55        5XY        -0.04184   0.00000  -0.32180  -0.30888   0.00000
  56        5XZ        -0.04830   0.00000  -0.26567   0.24541   0.00000
  57        5YZ         0.00000  -0.04668   0.00000   0.00000  -0.31149
                          41        42        43        44        45
                        (A1)--V   (B2)--V   (B2)--V   (A2)--V   (A1)--V
     Eigenvalues --     1.58215   1.61750   1.70569   1.71715   1.80377
   1 1   N  1S         -0.01482   0.00000   0.00000   0.00000  -0.04044
   2        2S         -0.05596   0.00000   0.00000   0.00000  -0.50453
   3        2PX         0.00000   0.00000   0.00000   0.00000   0.00000
   4        2PY         0.00000  -0.02128  -0.06210   0.00000   0.00000
   5        2PZ        -0.07767   0.00000   0.00000   0.00000  -0.07014
   6        3S         -1.60937   0.00000   0.00000   0.00000   2.50712
   7        3PX         0.00000   0.00000   0.00000   0.00000   0.00000
   8        3PY         0.00000   1.18445   1.84103   0.00000   0.00000
   9        3PZ         0.85595   0.00000   0.00000   0.00000  -0.90699
  10        4S          6.43959   0.00000   0.00000   0.00000   0.48475
  11        4PX         0.00000   0.00000   0.00000   0.00000   0.00000
  12        4PY         0.00000  -3.73152  -0.45420   0.00000   0.00000
  13        4PZ        -1.43211   0.00000   0.00000   0.00000  -0.00726
  14        5XX         0.13358   0.00000   0.00000   0.00000  -0.03990
  15        5YY        -0.06357   0.00000   0.00000   0.00000   0.24976
  16        5ZZ        -0.08254   0.00000   0.00000   0.00000  -0.34395
  17        5XY         0.00000   0.00000   0.00000  -0.01055   0.00000
  18        5XZ         0.00000   0.00000   0.00000   0.00000   0.00000
  19        5YZ         0.00000  -0.03215  -0.30288   0.00000   0.00000
  20 2   O  1S         -0.06931   0.06248   0.02095   0.00000   0.01767
  21        2S         -1.38125   1.40127   0.31323   0.00000   0.14933
  22        2PX         0.00000   0.00000   0.00000   0.02008   0.00000
  23        2PY         0.03977  -0.00448   0.10133   0.00000   0.05390
  24        2PZ         0.04853   0.08543   0.04164   0.00000  -0.12009
  25        3S          4.12867  -4.14257  -1.70064   0.00000  -1.12405
  26        3PX         0.00000   0.00000   0.00000  -0.00335   0.00000
  27        3PY        -0.84571   0.33574   0.43416   0.00000   0.58806
  28        3PZ        -0.03242  -0.49397  -0.42845   0.00000   0.01825
  29        4S         -4.73087   6.39092   0.34297   0.00000  -0.41370
  30        4PX         0.00000   0.00000   0.00000  -0.04657   0.00000
  31        4PY         1.05627  -0.99079   0.07747   0.00000   0.12855
  32        4PZ        -0.07269   0.92501   0.07268   0.00000  -0.05904
  33        5XX        -0.22095   0.05987   0.56229   0.00000  -0.50717
  34        5YY        -0.51924   0.37078   0.09612   0.00000  -0.04363
  35        5ZZ        -0.14153   0.44173  -0.50675   0.00000   0.62006
  36        5XY         0.00000   0.00000   0.00000   0.41692   0.00000
  37        5XZ         0.00000   0.00000   0.00000   0.57303   0.00000
  38        5YZ        -0.03861  -0.14105  -0.18647   0.00000  -0.01711
  39 3   O  1S         -0.06931  -0.06248  -0.02095   0.00000   0.01767
  40        2S         -1.38125  -1.40127  -0.31323   0.00000   0.14933
  41        2PX         0.00000   0.00000   0.00000  -0.02008   0.00000
  42        2PY        -0.03977  -0.00448   0.10133   0.00000  -0.05390
  43        2PZ         0.04853  -0.08543  -0.04164   0.00000  -0.12009
  44        3S          4.12867   4.14257   1.70064   0.00000  -1.12405
  45        3PX         0.00000   0.00000   0.00000   0.00335   0.00000
  46        3PY         0.84571   0.33574   0.43416   0.00000  -0.58806
  47        3PZ        -0.03242   0.49397   0.42845   0.00000   0.01825
  48        4S         -4.73087  -6.39092  -0.34297   0.00000  -0.41370
  49        4PX         0.00000   0.00000   0.00000   0.04657   0.00000
  50        4PY        -1.05627  -0.99079   0.07747   0.00000  -0.12855
  51        4PZ        -0.07269  -0.92501  -0.07268   0.00000  -0.05904
  52        5XX        -0.22095  -0.05987  -0.56229   0.00000  -0.50717
  53        5YY        -0.51924  -0.37078  -0.09612   0.00000  -0.04363
  54        5ZZ        -0.14153  -0.44173   0.50675   0.00000   0.62006
  55        5XY         0.00000   0.00000   0.00000   0.41692   0.00000
  56        5XZ         0.00000   0.00000   0.00000  -0.57303   0.00000
  57        5YZ         0.03861  -0.14105  -0.18647   0.00000   0.01711
                          46        47        48        49        50
                        (B1)--V   (B2)--V   (A1)--V   (B1)--V   (B2)--V
     Eigenvalues --     1.81689   1.83120   2.22273   2.31884   2.65469
   1 1   N  1S          0.00000   0.00000  -0.08166   0.00000   0.00000
   2        2S          0.00000   0.00000  -0.77477   0.00000   0.00000
   3        2PX        -0.13361   0.00000   0.00000  -0.15286   0.00000
   4        2PY         0.00000   0.02964   0.00000   0.00000   0.20487
   5        2PZ         0.00000   0.00000   0.01410   0.00000   0.00000
   6        3S          0.00000   0.00000   2.77248   0.00000   0.00000
   7        3PX        -0.23687   0.00000   0.00000  -0.72730   0.00000
   8        3PY         0.00000   2.30397   0.00000   0.00000  -0.15893
   9        3PZ         0.00000   0.00000  -1.15552   0.00000   0.00000
  10        4S          0.00000   0.00000   0.61578   0.00000   0.00000
  11        4PX         0.00285   0.00000   0.00000   0.33744   0.00000
  12        4PY         0.00000  -0.22992   0.00000   0.00000  -0.48682
  13        4PZ         0.00000   0.00000   0.19148   0.00000   0.00000
  14        5XX         0.00000   0.00000  -1.00787   0.00000   0.00000
  15        5YY         0.00000   0.00000   0.41047   0.00000   0.00000
  16        5ZZ         0.00000   0.00000   0.26879   0.00000   0.00000
  17        5XY         0.00000   0.00000   0.00000   0.00000   0.00000
  18        5XZ        -0.31891   0.00000   0.00000   0.74810   0.00000
  19        5YZ         0.00000  -0.42656   0.00000   0.00000   1.12561
  20 2   O  1S          0.00000   0.03022   0.01277   0.00000   0.00045
  21        2S          0.00000   0.04920  -0.14549   0.00000   0.54106
  22        2PX        -0.07249   0.00000   0.00000  -0.09113   0.00000
  23        2PY         0.00000   0.29075   0.22463   0.00000  -0.32491
  24        2PZ         0.00000   0.08155  -0.18384   0.00000   0.12272
  25        3S          0.00000  -1.55037  -0.76305   0.00000  -0.66789
  26        3PX         0.12526   0.00000   0.00000   0.50983   0.00000
  27        3PY         0.00000   0.30054   0.44792   0.00000   0.16084
  28        3PZ         0.00000  -0.55987   0.24705   0.00000  -0.37579
  29        4S          0.00000  -0.24626  -0.57014   0.00000   1.08775
  30        4PX         0.03186   0.00000   0.00000  -0.19211   0.00000
  31        4PY         0.00000   0.24695   0.19732   0.00000  -0.28881
  32        4PZ         0.00000  -0.05229  -0.22607   0.00000   0.24451
  33        5XX         0.00000  -0.19101   0.13231   0.00000   0.20903
  34        5YY         0.00000   0.41067  -0.14372   0.00000   0.29898
  35        5ZZ         0.00000  -0.13361  -0.05780   0.00000  -0.34479
  36        5XY        -0.13282   0.00000   0.00000  -0.73915   0.00000
  37        5XZ         0.67562   0.00000   0.00000   0.02989   0.00000
  38        5YZ         0.00000   0.48170  -0.44734   0.00000   0.41871
  39 3   O  1S          0.00000  -0.03022   0.01277   0.00000  -0.00045
  40        2S          0.00000  -0.04920  -0.14549   0.00000  -0.54106
  41        2PX        -0.07249   0.00000   0.00000  -0.09113   0.00000
  42        2PY         0.00000   0.29075  -0.22463   0.00000  -0.32491
  43        2PZ         0.00000  -0.08155  -0.18384   0.00000  -0.12272
  44        3S          0.00000   1.55037  -0.76305   0.00000   0.66789
  45        3PX         0.12526   0.00000   0.00000   0.50983   0.00000
  46        3PY         0.00000   0.30054  -0.44792   0.00000   0.16084
  47        3PZ         0.00000   0.55987   0.24705   0.00000   0.37579
  48        4S          0.00000   0.24626  -0.57014   0.00000  -1.08775
  49        4PX         0.03186   0.00000   0.00000  -0.19211   0.00000
  50        4PY         0.00000   0.24695  -0.19732   0.00000  -0.28881
  51        4PZ         0.00000   0.05229  -0.22607   0.00000  -0.24451
  52        5XX         0.00000   0.19101   0.13231   0.00000  -0.20903
  53        5YY         0.00000  -0.41067  -0.14372   0.00000  -0.29898
  54        5ZZ         0.00000   0.13361  -0.05780   0.00000   0.34479
  55        5XY         0.13282   0.00000   0.00000   0.73915   0.00000
  56        5XZ         0.67562   0.00000   0.00000   0.02989   0.00000
  57        5YZ         0.00000   0.48170   0.44734   0.00000   0.41871
                          51        52        53        54        55
                        (A2)--V   (A1)--V   (B2)--V   (A1)--V   (A1)--V
     Eigenvalues --     2.69699   2.78004   2.82112   2.95531   3.86854
   1 1   N  1S          0.00000   0.03094   0.00000  -0.14326  -0.49117
   2        2S          0.00000   0.64765   0.00000   0.54835   0.66524
   3        2PX         0.00000   0.00000   0.00000   0.00000   0.00000
   4        2PY         0.00000   0.00000   1.15567   0.00000   0.00000
   5        2PZ         0.00000  -0.50488   0.00000  -0.28062   0.28122
   6        3S          0.00000   3.12159   0.00000   4.05018   3.08686
   7        3PX         0.00000   0.00000   0.00000   0.00000   0.00000
   8        3PY         0.00000   0.00000   2.72428   0.00000   0.00000
   9        3PZ         0.00000  -1.58539   0.00000  -0.57427  -0.18333
  10        4S          0.00000  -1.33915   0.00000   0.74029   1.00016
  11        4PX         0.00000   0.00000   0.00000   0.00000   0.00000
  12        4PY         0.00000   0.00000   0.17766   0.00000   0.00000
  13        4PZ         0.00000   0.54648   0.00000  -0.27671  -0.09995
  14        5XX         0.00000  -0.20193   0.00000  -0.91484  -1.37532
  15        5YY         0.00000   0.14604   0.00000   1.20122  -2.41019
  16        5ZZ         0.00000   0.65496   0.00000  -1.01701  -1.34824
  17        5XY         1.16673   0.00000   0.00000   0.00000   0.00000
  18        5XZ         0.00000   0.00000   0.00000   0.00000   0.00000
  19        5YZ         0.00000   0.00000  -0.80563   0.00000   0.00000
  20 2   O  1S          0.00000   0.04294   0.04360   0.05227   0.03009
  21        2S          0.00000   0.78208   0.51158   0.03706   0.07277
  22        2PX        -0.03334   0.00000   0.00000   0.00000   0.00000
  23        2PY         0.00000  -0.07369   0.08522   0.28280  -0.34396
  24        2PZ         0.00000  -0.00817   0.00228  -0.16790   0.15731
  25        3S          0.00000  -2.85804  -2.72001  -1.72835  -0.18811
  26        3PX        -0.36809   0.00000   0.00000   0.00000   0.00000
  27        3PY         0.00000   1.74131   1.57902   1.03994  -0.26787
  28        3PZ         0.00000  -0.12972  -0.78094  -0.62566   0.29726
  29        4S          0.00000   0.90245  -0.61795  -0.75615  -0.94497
  30        4PX         0.11418   0.00000   0.00000   0.00000   0.00000
  31        4PY         0.00000  -0.40007   0.01907   0.19717   0.47982
  32        4PZ         0.00000  -0.04603  -0.08848   0.05457  -0.28908
  33        5XX         0.00000   0.45584   0.51100   0.37423  -0.00605
  34        5YY         0.00000  -0.91176  -0.83293  -0.25161   0.47537
  35        5ZZ         0.00000   0.55144   0.33567  -0.05519   0.24640
  36        5XY         0.63907   0.00000   0.00000   0.00000   0.00000
  37        5XZ        -0.39978   0.00000   0.00000   0.00000   0.00000
  38        5YZ         0.00000   0.14940   0.54221   0.77798  -0.41866
  39 3   O  1S          0.00000   0.04294  -0.04360   0.05227   0.03009
  40        2S          0.00000   0.78208  -0.51158   0.03706   0.07277
  41        2PX         0.03334   0.00000   0.00000   0.00000   0.00000
  42        2PY         0.00000   0.07369   0.08522  -0.28280   0.34396
  43        2PZ         0.00000  -0.00817  -0.00228  -0.16790   0.15731
  44        3S          0.00000  -2.85804   2.72001  -1.72835  -0.18811
  45        3PX         0.36809   0.00000   0.00000   0.00000   0.00000
  46        3PY         0.00000  -1.74131   1.57902  -1.03994   0.26787
  47        3PZ         0.00000  -0.12972   0.78094  -0.62566   0.29726
  48        4S          0.00000   0.90245   0.61795  -0.75615  -0.94497
  49        4PX        -0.11418   0.00000   0.00000   0.00000   0.00000
  50        4PY         0.00000   0.40007   0.01907  -0.19717  -0.47982
  51        4PZ         0.00000  -0.04603   0.08848   0.05457  -0.28908
  52        5XX         0.00000   0.45584  -0.51100   0.37423  -0.00605
  53        5YY         0.00000  -0.91176   0.83293  -0.25161   0.47537
  54        5ZZ         0.00000   0.55144  -0.33567  -0.05519   0.24640
  55        5XY         0.63907   0.00000   0.00000   0.00000   0.00000
  56        5XZ         0.39978   0.00000   0.00000   0.00000   0.00000
  57        5YZ         0.00000  -0.14940   0.54221  -0.77798   0.41866
                          56        57
                        (A1)--V   (B2)--V
     Eigenvalues --     4.13819   4.21252
   1 1   N  1S         -0.09703   0.00000
   2        2S          0.04178   0.00000
   3        2PX         0.00000   0.00000
   4        2PY         0.00000   0.13778
   5        2PZ        -0.05185   0.00000
   6        3S         -0.85976   0.00000
   7        3PX         0.00000   0.00000
   8        3PY         0.00000  -1.09666
   9        3PZ         0.69723   0.00000
  10        4S          5.59409   0.00000
  11        4PX         0.00000   0.00000
  12        4PY         0.00000   2.97695
  13        4PZ        -1.20092   0.00000
  14        5XX        -0.24924   0.00000
  15        5YY         0.07928   0.00000
  16        5ZZ        -0.35622   0.00000
  17        5XY         0.00000   0.00000
  18        5XZ         0.00000   0.00000
  19        5YZ         0.00000  -0.22872
  20 2   O  1S         -0.42812  -0.44283
  21        2S         -0.49720  -0.59593
  22        2PX         0.00000   0.00000
  23        2PY         0.11197   0.13646
  24        2PZ        -0.03306  -0.07720
  25        3S          5.36493   5.77000
  26        3PX         0.00000   0.00000
  27        3PY        -0.67509  -0.46495
  28        3PZ         0.00023   0.43232
  29        4S         -4.34630  -5.48455
  30        4PX         0.00000   0.00000
  31        4PY         0.90342   0.85982
  32        4PZ        -0.12373  -0.69342
  33        5XX        -1.42066  -1.52319
  34        5YY        -1.29763  -1.45566
  35        5ZZ        -1.50380  -1.41862
  36        5XY         0.00000   0.00000
  37        5XZ         0.00000   0.00000
  38        5YZ         0.03268  -0.06876
  39 3   O  1S         -0.42812   0.44283
  40        2S         -0.49720   0.59593
  41        2PX         0.00000   0.00000
  42        2PY        -0.11197   0.13646
  43        2PZ        -0.03306   0.07720
  44        3S          5.36493  -5.77000
  45        3PX         0.00000   0.00000
  46        3PY         0.67509  -0.46495
  47        3PZ         0.00023  -0.43232
  48        4S         -4.34630   5.48455
  49        4PX         0.00000   0.00000
  50        4PY        -0.90342   0.85982
  51        4PZ        -0.12373   0.69342
  52        5XX        -1.42066   1.52319
  53        5YY        -1.29763   1.45566
  54        5ZZ        -1.50380   1.41862
  55        5XY         0.00000   0.00000
  56        5XZ         0.00000   0.00000
  57        5YZ        -0.03268  -0.06876
     Beta Molecular Orbital Coefficients:
                           1         2         3         4         5
                        (B2)--O   (A1)--O   (A1)--O   (A1)--O   (B2)--O
     Eigenvalues --   -19.27734 -19.27732 -14.59254  -1.27480  -1.12858
   1 1   N  1S          0.00000  -0.00001   0.99291  -0.15743   0.00000
   2        2S          0.00000   0.00040   0.03392   0.33465   0.00000
   3        2PX         0.00000   0.00000   0.00000   0.00000   0.00000
   4        2PY         0.00031   0.00000   0.00000   0.00000   0.32420
   5        2PZ         0.00000  -0.00006  -0.00159  -0.11773   0.00000
   6        3S          0.00000  -0.00066   0.00526   0.20337   0.00000
   7        3PX         0.00000   0.00000   0.00000   0.00000   0.00000
   8        3PY        -0.00078   0.00000   0.00000   0.00000   0.02428
   9        3PZ         0.00000   0.00057   0.00021  -0.00928   0.00000
  10        4S          0.00000   0.00888   0.00034   0.16488   0.00000
  11        4PX         0.00000   0.00000   0.00000   0.00000   0.00000
  12        4PY         0.00494   0.00000   0.00000   0.00000   0.07619
  13        4PZ         0.00000  -0.00178  -0.00042  -0.03302   0.00000
  14        5XX         0.00000  -0.00011  -0.00809  -0.02166   0.00000
  15        5YY         0.00000  -0.00098  -0.00712   0.02160   0.00000
  16        5ZZ         0.00000  -0.00021  -0.00809  -0.01608   0.00000
  17        5XY         0.00000   0.00000   0.00000   0.00000   0.00000
  18        5XZ         0.00000   0.00000   0.00000   0.00000   0.00000
  19        5YZ         0.00033   0.00000   0.00000   0.00000  -0.03369
  20 2   O  1S          0.70193   0.70194  -0.00005  -0.11550  -0.14484
  21        2S          0.01761   0.01768   0.00027   0.24861   0.31816
  22        2PX         0.00000   0.00000   0.00000   0.00000   0.00000
  23        2PY        -0.00098  -0.00101  -0.00005  -0.12867  -0.11329
  24        2PZ         0.00031   0.00041   0.00000   0.03858   0.05258
  25        3S          0.01105   0.01098  -0.00078   0.22621   0.32189
  26        3PX         0.00000   0.00000   0.00000   0.00000   0.00000
  27        3PY         0.00023  -0.00020   0.00064  -0.04736  -0.04171
  28        3PZ         0.00004   0.00003  -0.00034   0.01077   0.02563
  29        4S         -0.00908  -0.00720  -0.00070  -0.12375  -0.13040
  30        4PX         0.00000   0.00000   0.00000   0.00000   0.00000
  31        4PY         0.00105   0.00117   0.00017   0.03784   0.02510
  32        4PZ        -0.00099  -0.00023   0.00000  -0.00929  -0.01995
  33        5XX        -0.00595  -0.00598   0.00014  -0.00860  -0.00815
  34        5YY        -0.00581  -0.00579  -0.00042   0.01585   0.00193
[...]
  10         (A2)--O          -0.386373          2.483128
  11         (B2)--O          -0.358272          2.528077
  12         (A1)--V          -0.165099          2.467215
  13         (B1)--V          -0.091996          2.730560
  14         (A1)--V           0.035951          0.549445
  15         (B2)--V           0.075601          0.355642
  16         (A1)--V           0.087944          0.376118
  17         (B1)--V           0.088427          0.355711
  18         (A1)--V           0.158133          1.052295
  19         (B2)--V           0.175153          0.482570
  20         (A2)--V           0.188522          0.520156
  21         (A1)--V           0.206526          0.841418
  22         (B1)--V           0.227495          0.615581
  23         (B2)--V           0.252446          0.432025
  24         (A1)--V           0.252792          2.830551
  25         (A1)--V           0.314914          1.225440
  26         (B2)--V           0.359253          1.073043
  27         (B2)--V           0.443225          3.625214
  28         (B1)--V           0.783511          2.563932
  29         (A1)--V           0.787243          2.434026
  30         (B2)--V           0.820321          2.253969
  31         (A1)--V           1.032191          2.770518
  32         (A2)--V           1.101813          3.653918
  33         (A1)--V           1.117782          2.661630
  34         (B2)--V           1.149455          3.408538
  35         (A1)--V           1.157431          3.131482
  36         (B1)--V           1.174823          3.503090
  37         (B2)--V           1.195637          3.286653
  38         (A2)--V           1.371991          2.658581
  39         (B1)--V           1.406924          2.612000
  40         (A1)--V           1.424693          2.669663
  41         (A1)--V           1.593426          2.819136
  42         (B2)--V           1.629916          2.959372
  43         (B2)--V           1.723561          2.845493
  44         (A2)--V           1.728913          2.829985
  45         (A1)--V           1.829798          3.047502
  46         (B1)--V           1.843669          3.047524
  47         (B2)--V           1.851537          3.482679
  48         (A1)--V           2.251018          3.852185
  49         (B1)--V           2.339152          3.625000
  50         (B2)--V           2.701076          4.623530
  51         (A2)--V           2.719079          4.052626
  52         (A1)--V           2.807770          4.485738
  53         (B2)--V           2.842878          5.199928
  54         (A1)--V           2.985725          5.463776
  55         (A1)--V           3.898380          9.929261
  56         (A1)--V           4.154574         11.450198
  57         (B2)--V           4.226757         11.560884
 Total kinetic energy from orbitals= 2.032727492195D+02
  Exact polarizability:   9.824   0.000  28.452  -0.000  -0.000  12.468
 Approx polarizability:  12.547   0.000  63.419   0.000  -0.000  16.606
                          Isotropic Fermi Contact Couplings
        Atom                 a.u.       MegaHertz       Gauss      10(-4) cm-1
     1  N(14)              0.43037     139.05364      49.61780      46.38330
     2  O(17)              0.08821     -53.46971     -19.07932     -17.83558
     3  O(17)              0.08821     -53.46971     -19.07932     -17.83558
 --------------------------------------------------------
       Center         ----  Spin Dipole Couplings  ----
                      3XX-RR        3YY-RR        3ZZ-RR
 --------------------------------------------------------
     1   Atom       -0.441471     -0.502796      0.944268
     2   Atom       -0.712415     -0.652045      1.364460
     3   Atom       -0.712415     -0.652045      1.364460
 --------------------------------------------------------
                        XY            XZ            YZ
 --------------------------------------------------------
     1   Atom        0.000000      0.000000     -0.000000
     2   Atom        0.000000      0.000000     -0.269017
     3   Atom        0.000000      0.000000      0.269017
 --------------------------------------------------------


 ---------------------------------------------------------------------------------
              Anisotropic Spin Dipole Couplings in Principal Axis System
 ---------------------------------------------------------------------------------

       Atom             a.u.   MegaHertz   Gauss  10(-4) cm-1        Axes

              Baa    -0.5028   -19.392    -6.919    -6.468  0.0000  1.0000 -0.0000
     1 N(14)  Bbb    -0.4415   -17.027    -6.075    -5.679  1.0000 -0.0000  0.0000
              Bcc     0.9443    36.418    12.995    12.148  0.0000  0.0000  1.0000
 
              Baa    -0.7124    51.550    18.394    17.195  1.0000  0.0000  0.0000
     2 O(17)  Bbb    -0.6873    49.734    17.746    16.589 -0.0000  0.9915  0.1300
              Bcc     1.3997  -101.284   -36.141   -33.785  0.0000 -0.1300  0.9915
 
              Baa    -0.7124    51.550    18.394    17.195  1.0000 -0.0000  0.0000
     3 O(17)  Bbb    -0.6873    49.734    17.746    16.589  0.0000  0.9915 -0.1300
              Bcc     1.3997  -101.284   -36.141   -33.785  0.0000  0.1300  0.9915
 

 ---------------------------------------------------------------------------------

 No NMR shielding tensors so no spin-rotation constants.
 Leave Link  601 at Tue Aug 13 22:25:28 2024, MaxMem=   33554432 cpu:       0.3
 (Enter /programs/64bit/g09/g09-gfortran/bin/l701.exe)
 Compute integral second derivatives.
 ... and contract with generalized density number  0.
 Leave Link  701 at Tue Aug 13 22:25:29 2024, MaxMem=   33554432 cpu:       0.2
 (Enter /programs/64bit/g09/g09-gfortran/bin/l702.exe)
 L702 exits ... SP integral derivatives will be done elsewhere.
 Leave Link  702 at Tue Aug 13 22:25:29 2024, MaxMem=   33554432 cpu:       0.0
 (Enter /programs/64bit/g09/g09-gfortran/bin/l703.exe)
 Compute integral second derivatives, UseDBF=F ICtDFT=           0.
 Integral derivatives from FoFDir, PRISM(SPDF).
 Calling FoFJK, ICntrl=    100127 FMM=F ISym2X=1 I1Cent= 0 IOpClX= 1 NMat=1 NMatS=1 NMatT=0.
 FoFCou: FMM=F IPFlag=           0 FMFlag=      100000 FMFlg1=         800
         NFxFlg=           0 DoJE=F BraDBF=F KetDBF=F FulRan=T
         Omega=  0.000000  0.000000  1.000000  0.000000  0.000000 ICntrl=  100127 IOpCl=  1
         NMat0=    1 NMatS0=    1 NMatT0=    0 NMatD0=    1 NMtDS0=    0 NMtDT0=    0
         I1Cent=           0 NGrid=           0.
 Petite list used in FoFCou.
 Leave Link  703 at Tue Aug 13 22:25:33 2024, MaxMem=   33554432 cpu:       4.7
 (Enter /programs/64bit/g09/g09-gfortran/bin/l716.exe)
 Dipole        = 4.24461360D-17-1.05818132D-14 1.39937209D-01
 Polarizability= 9.82366700D+00 6.40640790D-09 2.84523606D+01
                -4.45399596D-09-3.19054054D-08 1.24680087D+01
 Full mass-weighted force constant matrix:
 Low frequencies ---  -26.8047  -12.0420    0.0007    0.0012    0.0020   10.4445
 Low frequencies ---  748.9285 1396.3816 1709.6168
 Diagonal vibrational polarizability:
        0.0000000       3.9439244       0.3091700
 Harmonic frequencies (cm**-1), IR intensities (KM/Mole), Raman scattering
 activities (A**4/AMU), depolarization ratios for plane and unpolarized
 incident light, reduced masses (AMU), force constants (mDyne/A),
 and normal coordinates:
                     1                      2                      3
                    A1                     A1                     B2
 Frequencies --   748.9285              1396.3816              1709.6168
 Red. masses --    15.1582                15.3247                14.6234
 Frc consts  --     5.0093                17.6056                25.1823
 IR Inten    --     6.4368                 0.0244               428.3443
  Atom  AN      X      Y      Z        X      Y      Z        X      Y      Z
     1   7     0.00   0.00   0.65     0.00  -0.00   0.58     0.00   0.83   0.00
     2   8    -0.00  -0.46  -0.28    -0.00   0.52  -0.25     0.00  -0.36   0.15
     3   8    -0.00   0.46  -0.28    -0.00  -0.52  -0.25    -0.00  -0.36  -0.15

 -------------------
 - Thermochemistry -
 -------------------
 Temperature   298.150 Kelvin.  Pressure   1.00000 Atm.
 Atom     1 has atomic number  7 and mass  14.00307
 Atom     2 has atomic number  8 and mass  15.99491
 Atom     3 has atomic number  8 and mass  15.99491
 Molecular mass:    45.99290 amu.
 Principal axes and moments of inertia in atomic units:
                           1         2         3
     Eigenvalues --     7.66538 139.79330 147.45868
           X            0.00000   0.00000   1.00000
           Y            1.00000   0.00000  -0.00000
           Z           -0.00000   1.00000  -0.00000
 This molecule is an asymmetric top.
 Rotational symmetry number  2.
 Rotational temperatures (Kelvin)     11.29935     0.61958     0.58738
 Rotational constants (GHZ):         235.44055    12.91007    12.23896
 Zero-point vibrational energy      23057.6 (Joules/Mol)
                                    5.51089 (Kcal/Mol)
 Vibrational temperatures:   1077.54  2009.08  2459.75
          (Kelvin)
 
 Zero-point correction=                           0.008782 (Hartree/Particle)
 Thermal correction to Energy=                    0.011719
 Thermal correction to Enthalpy=                  0.012663
 Thermal correction to Gibbs Free Energy=        -0.014598
 Sum of electronic and zero-point Energies=           -205.075105
 Sum of electronic and thermal Energies=              -205.072168
 Sum of electronic and thermal Enthalpies=            -205.071224
 Sum of electronic and thermal Free Energies=         -205.098485
 
                     E (Thermal)             CV                S
                      KCal/Mol        Cal/Mol-Kelvin    Cal/Mol-Kelvin
 Total                    7.354              6.843             57.376
 Electronic               0.000              0.000              1.377
 Translational            0.889              2.981             37.403
 Rotational               0.889              2.981             18.319
 Vibrational              5.576              0.881              0.276
                       Q            Log10(Q)             Ln(Q)
 Total Bot       0.518398D+07          6.714663         15.461083
 Total V=0       0.567770D+11         10.754172         24.762397
 Vib (Bot)       0.939680D-04         -4.027020         -9.272556
 Vib (V=0)       0.102918D+01          0.012489          0.028758
 Electronic      0.200000D+01          0.301030          0.693147
 Translational   0.122600D+08          7.088491         16.321855
 Rotational      0.224989D+04          3.352162          7.718637
 
                                                           nitrogen_dioxite
                                                             IR Spectrum
 
     1                       1                                                                                                       
     7                       3                                               7                                                       
     1                       9                                               4                                                       
     0                       6                                               9                                                       
 
     X                                                                       X                                                       
     X                                                                                                                               
     X                                                                                                                               
     X                                                                                                                               
     X                                                                                                                               
     X                                                                                                                               
     X                                                                                                                               
     X                                                                                                                               
     X                                                                                                                               
     X                                                                                                                               
     X                                                                                                                               
     X                                                                                                                               
     X                                                                                                                               
     X                                                                                                                               
     X                                                                                                                               
     X                                                                                                                               
     X                                                                                                                               
     X                                                                                                                               
     X                                                                                                                               
     X                                                                                                                               
 
 ***** Axes restored to original set *****
 -------------------------------------------------------------------
 Center     Atomic                   Forces (Hartrees/Bohr)
 Number     Number              X              Y              Z
 -------------------------------------------------------------------
      1        7          -0.000000172    0.000000000   -0.000000073
      2        8           0.000000102   -0.000000000   -0.000000001
      3        8           0.000000070   -0.000000000    0.000000074
 -------------------------------------------------------------------
 Cartesian Forces:  Max     0.000000172 RMS     0.000000078
 Force constants in Cartesian coordinates: 
                1             2             3             4             5 
      1  0.522488D+00
      2  0.000000D+00 -0.264825D-03
      3 -0.211209D+00  0.000000D+00  0.931840D+00
      4 -0.100697D+00  0.000000D+00 -0.431453D-01  0.705774D-01
      5  0.000000D+00  0.132412D-03  0.000000D+00  0.000000D+00 -0.110094D-03
      6 -0.568070D-01  0.000000D+00 -0.626467D+00 -0.258642D-01  0.000000D+00
      7 -0.421791D+00  0.000000D+00  0.254355D+00  0.301193D-01  0.000000D+00
      8  0.000000D+00  0.132412D-03  0.000000D+00  0.000000D+00 -0.223184D-04
      9  0.268016D+00  0.000000D+00 -0.305373D+00  0.690096D-01  0.000000D+00
                6             7             8             9 
      6  0.743337D+00
      7  0.826712D-01  0.391672D+00
      8  0.000000D+00  0.000000D+00 -0.110094D-03
      9 -0.116870D+00 -0.337026D+00  0.000000D+00  0.422243D+00
 Force constants in internal coordinates: 
                1             2             3 
      1  0.743283D+00
      2  0.140669D+00  0.743283D+00
      3  0.600078D-01  0.600078D-01  0.364027D+00
 Leave Link  716 at Tue Aug 13 22:25:33 2024, MaxMem=   33554432 cpu:       0.0
 (Enter /programs/64bit/g09/g09-gfortran/bin/l103.exe)

 GradGradGradGradGradGradGradGradGradGradGradGradGradGradGradGradGradGrad
 Berny optimization.
 Internal  Forces:  Max     0.000000231 RMS     0.000000133
 Search for a local minimum.
 Step number   1 out of a maximum of    2
 All quantities printed in internal units (Hartrees-Bohrs-Radians)
 Second derivative matrix not updated -- analytic derivatives used.
 The second derivative matrix:
                          R1        R2        A1
           R1           0.74328
           R2           0.14067   0.74328
           A1           0.06001   0.06001   0.36403
     Eigenvalues ---    0.35053   0.60261   0.89745
 Angle between quadratic step and forces=  90.00 degrees.
 Linear search not attempted -- first point.
 Iteration  1 RMS(Cart)=  0.00000039 RMS(Int)=  0.00000000
 ClnCor:  largest displacement from symmetrization is 5.50D-15 for atom     3.
 Variable       Old X    -DE/DX   Delta X   Delta X   Delta X     New X
                                 (Linear)    (Quad)   (Total)
    R1        2.27089  -0.00000   0.00000   0.00000   0.00000   2.27089
    R2        2.27089  -0.00000   0.00000   0.00000   0.00000   2.27089
    A1        2.33890  -0.00000   0.00000  -0.00000  -0.00000   2.33890
         Item               Value     Threshold  Converged?
 Maximum Force            0.000000     0.000450     YES
 RMS     Force            0.000000     0.000300     YES
 Maximum Displacement     0.000000     0.001800     YES
 RMS     Displacement     0.000000     0.001200     YES
 Predicted change in Energy=-7.483520D-14
 Optimization completed.
    -- Stationary point found.
                           ----------------------------
                           !   Optimized Parameters   !
                           ! (Angstroms and Degrees)  !
 --------------------------                            --------------------------
 ! Name  Definition              Value          Derivative Info.                !
 --------------------------------------------------------------------------------
 ! R1    R(1,2)                  1.2017         -DE/DX =    0.0                 !
 ! R2    R(1,3)                  1.2017         -DE/DX =    0.0                 !
 ! A1    A(2,1,3)              134.009          -DE/DX =    0.0                 !
 --------------------------------------------------------------------------------
 GradGradGradGradGradGradGradGradGradGradGradGradGradGradGradGradGradGrad

 Leave Link  103 at Tue Aug 13 22:25:33 2024, MaxMem=   33554432 cpu:       0.0
 (Enter /programs/64bit/g09/g09-gfortran/bin/l9999.exe)
 1\1\GINC-MOLMOD\Freq\UB3LYP\6-31+G(d,p)\N1O2(2)\OSPITE\13-Aug-2024\0\\
 #P Geom=AllCheck Guess=TCheck SCRF=Check GenChk UB3LYP/6-31+G(d,p) Fre
 q\\nitrogen_dioxite\\0,2\N,0.0014460982,0.,0.0006123435\O,0.0024006861
 ,0.,1.2023168773\O,0.865086036,0.,-0.8349837047\\Version=EM64L-G09RevA
 .02\State=2-A1\HF=-205.0838872\S2=0.753563\S2-1=0.\S2A=0.750009\RMSD=2
 .929e-10\RMSF=7.846e-08\ZeroPoint=0.0087822\Thermal=0.0117188\Dipole=-
 0.1288605,0.,-0.0545654\DipoleDeriv=0.4769083,0.,-0.6544202,0.,0.15775
 35,0.,-0.6544202,0.,1.7452628,-0.1474255,0.,-0.0299812,0.,-0.0788767,0
 .,0.5079755,0.,-0.9636601,-0.3294828,0.,0.6844013,0.,-0.0788767,0.,0.1
 464447,0.,-0.7816027\Polar=14.8983271,0.,9.823667,-5.7393917,0.,26.022
 0422\PG=C02V [C2(N1),SGV(O2)]\NImag=0\\0.52248750,0.,-0.00026482,-0.21
 120945,0.,0.93183989,-0.10069672,0.,-0.04314534,0.07057745,0.,0.000132
 41,0.,0.,-0.00011009,-0.05680700,0.,-0.62646697,-0.02586421,0.,0.74333
 659,-0.42179078,0.,0.25435479,0.03011927,0.,0.08267122,0.39167151,0.,0
 .00013241,0.,0.,-0.00002232,0.,0.,-0.00011009,0.26801645,0.,-0.3053729
 1,0.06900955,0.,-0.11686962,-0.33702600,0.,0.42224253\\0.00000017,0.,0
 .00000007,-0.00000010,0.,0.,-0.00000007,0.,-0.00000007\\\@


 YOU KNOW YOU'VE SPOKEN TOO LONG WHEN THE AUDIENCE STOPS LOOKING AT
 THEIR WATCHES AND STARTS SHAKING THEM.
 Job cpu time:  0 days  0 hours  0 minutes 44.9 seconds.
 File lengths (MBytes):  RWF=      6 Int=      0 D2E=      0 Chk=      1 Scr=      1
 Normal termination of Gaussian 09 at Tue Aug 13 22:25:33 2024.
