 Entering Gaussian System, Link 0=/programs/64bit/g09/g09-gfortran/bin/g09
 Input=ch3_+.com
 Output=ch3_+.log
 Initial command:
 /programs/64bit/g09/g09-gfortran/bin/l1.exe /home/ospite/Desktop/MMfP/Project6/CH3/g09/DFT/Gau-8653.inp -scrdir=/home/ospite/Desktop/MMfP/Project6/CH3/g09/DFT/
 Entering Link 1 = /programs/64bit/g09/g09-gfortran/bin/l1.exe PID=      8655.
  
 Copyright (c) 1988,1990,1992,1993,1995,1998,2003,2009, Gaussian, Inc.
                  All Rights Reserved.
  
 This is part of the Gaussian(R) 09 program.  It is based on
 the Gaussian(R) 03 system (copyright 2003, Gaussian, Inc.),
 the Gaussian(R) 98 system (copyright 1998, Gaussian, Inc.),
 the Gaussian(R) 94 system (copyright 1995, Gaussian, Inc.),
 the Gaussian 92(TM) system (copyright 1992, Gaussian, Inc.),
 the Gaussian 90(TM) system (copyright 1990, Gaussian, Inc.),
 the Gaussian 88(TM) system (copyright 1988, Gaussian, Inc.),
 the Gaussian 86(TM) system (copyright 1986, Carnegie Mellon
 University), and the Gaussian 82(TM) system (copyright 1983,
 Carnegie Mellon University). Gaussian is a federally registered
 trademark of Gaussian, Inc.
  
 This software contains proprietary and confidential information,
 including trade secrets, belonging to Gaussian, Inc.
  
 This software is provided under written license and may be
 used, copied, transmitted, or stored only in accord with that
 written license.
  
 The following legend is applicable only to US Government
 contracts under FAR:
  
                    RESTRICTED RIGHTS LEGEND
  
 Use, reproduction and disclosure by the US Government is
 subject to restrictions as set forth in subparagraphs (a)
 and (c) of the Commercial Computer Software - Restricted
 Rights clause in FAR 52.227-19.
  
 Gaussian, Inc.
 340 Quinnipiac St., Bldg. 40, Wallingford CT 06492
  
  
 ---------------------------------------------------------------
 Warning -- This program may not be used in any manner that
 competes with the business of Gaussian, Inc. or will provide
 assistance to any competitor of Gaussian, Inc.  The licensee
 of this program is prohibited from giving any competitor of
 Gaussian, Inc. access to this program.  By using this program,
 the user acknowledges that Gaussian, Inc. is engaged in the
 business of creating and licensing software in the field of
 computational chemistry and represents and warrants to the
 licensee that it is not a competitor of Gaussian, Inc. and that
 it will not use this program in any manner prohibited above.
 ---------------------------------------------------------------
  

 Cite this work as:
 Gaussian 09, Revision A.02,
 M. J. Frisch, G. W. Trucks, H. B. Schlegel, G. E. Scuseria, 
 M. A. Robb, J. R. Cheeseman, G. Scalmani, V. Barone, B. Mennucci, 
 G. A. Petersson, H. Nakatsuji, M. Caricato, X. Li, H. P. Hratchian, 
 A. F. Izmaylov, J. Bloino, G. Zheng, J. L. Sonnenberg, M. Hada, 
 M. Ehara, K. Toyota, R. Fukuda, J. Hasegawa, M. Ishida, T. Nakajima, 
 Y. Honda, O. Kitao, H. Nakai, T. Vreven, J. A. Montgomery, Jr., 
 J. E. Peralta, F. Ogliaro, M. Bearpark, J. J. Heyd, E. Brothers, 
 K. N. Kudin, V. N. Staroverov, R. Kobayashi, J. Normand, 
 K. Raghavachari, A. Rendell, J. C. Burant, S. S. Iyengar, J. Tomasi, 
 M. Cossi, N. Rega, J. M. Millam, M. Klene, J. E. Knox, J. B. Cross, 
 V. Bakken, C. Adamo, J. Jaramillo, R. Gomperts, R. E. Stratmann, 
 O. Yazyev, A. J. Austin, R. Cammi, C. Pomelli, J. W. Ochterski, 
 R. L. Martin, K. Morokuma, V. G. Zakrzewski, G. A. Voth, 
 P. Salvador, J. J. Dannenberg, S. Dapprich, A. D. Daniels, 
 O. Farkas, J. B. Foresman, J. V. Ortiz, J. Cioslowski, 
 and D. J. Fox, Gaussian, Inc., Wallingford CT, 2009.
 
 ******************************************
 Gaussian 09:  EM64L-G09RevA.02 11-Jun-2009
                17-Aug-2024 
 ******************************************
 %mem=100MB
 ------------------------------------------------------------------
 #p b3lyp/6-31+G opt freq symmetry=(follow,pg=C3v) pop=full gfinput
 ------------------------------------------------------------------
 1/14=-1,18=20,19=15,26=3,38=1/1,3;
 2/9=110,12=2,17=6,18=5,19=2314885530821997379,40=1/2;
 3/5=1,6=6,7=10,11=2,16=1,24=10,25=1,30=1,71=1,74=-5/1,2,3;
 4//1;
 5/5=2,38=5/2;
 6/7=3,28=1/1;
 7//1,2,3,16;
 1/14=-1,18=20,19=15/3(2);
 2/9=110,15=5,19=2314885530821997379/2;
 99//99;
 2/9=110,15=5,19=2314885530821997379/2;
 3/5=1,6=6,7=10,11=2,16=1,25=1,30=1,71=1,74=-5/1,2,3;
 4/5=5,16=3/1;
 5/5=2,38=5/2;
 7//1,2,3,16;
 1/14=-1,18=20,19=15/3(-5);
 2/9=110,15=5,19=2314885530821997379/2;
 6/7=3,19=2,28=1/1;
 99/9=1/99;
 Leave Link    1 at Sat Aug 17 17:54:10 2024, MaxMem=   13107200 cpu:       0.1
 (Enter /programs/64bit/g09/g09-gfortran/bin/l101.exe)
 ---------------------------------------------------------
 methyl with imposed symmetry and hf/6-31+G basis function
 ---------------------------------------------------------
 Symbolic Z-matrix:
 Charge =  0 Multiplicity = 2
 C1
 H2                   1    d
 H3                   1    d        2    a
 H4                   1    d        2    -a       3    t        0
       Variables:
  d                     1.09                     
  a                   120.                       
  t                     0.                       
 
 NAtoms=      4 NQM=      4 NQMF=      0 NMic=      0 NMicF=      0 NTot=      4.
                    Isotopes and Nuclear Properties:
 (Nuclear quadrupole moments (NQMom) in fm**2, nuclear magnetic moments (NMagM)
  in nuclear magnetons)

  Atom         1           2           3           4
 IAtWgt=          12           1           1           1
 AtmWgt=  12.0000000   1.0078250   1.0078250   1.0078250
 NucSpn=           0           1           1           1
 AtZEff=   0.0000000   0.0000000   0.0000000   0.0000000
 NQMom=    0.0000000   0.0000000   0.0000000   0.0000000
 NMagM=    0.0000000   2.7928460   2.7928460   2.7928460
 Leave Link  101 at Sat Aug 17 17:54:10 2024, MaxMem=   13107200 cpu:       0.1
 (Enter /programs/64bit/g09/g09-gfortran/bin/l103.exe)

 GradGradGradGradGradGradGradGradGradGradGradGradGradGradGradGradGradGrad
 Berny optimization.
 Initialization pass.
                           ----------------------------
                           !    Initial Parameters    !
                           ! (Angstroms and Degrees)  !
 --------------------------                            --------------------------
 ! Name  Definition              Value          Derivative Info.                !
 --------------------------------------------------------------------------------
 ! R1    R(1,2)                  1.09           estimate D2E/DX2                !
 ! R2    R(1,3)                  1.09           estimate D2E/DX2                !
 ! R3    R(1,4)                  1.09           estimate D2E/DX2                !
 ! A1    A(2,1,3)              120.0            estimate D2E/DX2                !
 ! A2    A(2,1,4)              120.0            estimate D2E/DX2                !
 ! A3    A(3,1,4)              120.0            estimate D2E/DX2                !
 ! D1    D(2,1,4,3)            180.0            estimate D2E/DX2                !
 --------------------------------------------------------------------------------
 Trust Radius=3.00D-01 FncErr=1.00D-07 GrdErr=1.00D-06
 Number of steps in this run=  20 maximum allowed number of steps= 100.
 GradGradGradGradGradGradGradGradGradGradGradGradGradGradGradGradGradGrad

 Leave Link  103 at Sat Aug 17 17:54:11 2024, MaxMem=   13107200 cpu:       0.0
 (Enter /programs/64bit/g09/g09-gfortran/bin/l202.exe)
                          Input orientation:                          
 ---------------------------------------------------------------------
 Center     Atomic      Atomic             Coordinates (Angstroms)
 Number     Number       Type             X           Y           Z
 ---------------------------------------------------------------------
      1          6           0        0.000000    0.000000    0.000000
      2          1           0        0.000000    0.000000    1.090000
      3          1           0        0.943968    0.000000   -0.545000
      4          1           0       -0.943968    0.000000   -0.545000
 ---------------------------------------------------------------------
                    Distance matrix (angstroms):
                    1          2          3          4
     1  C    0.000000
     2  H    1.090000   0.000000
     3  H    1.090000   1.887935   0.000000
     4  H    1.090000   1.887935   1.887935   0.000000
 Symm:  InNGrp=C3V  InAxis=0.
 This structure is nearly, but not quite of a higher symmetry.
 Consider Symm=Loose if the higher symmetry is desired.
 Stoichiometry    CH3(2)
 Framework group  C2[C2(CH),X(H2)]
 Deg. of freedom     3
 Full point group                 C2      NOp   2
 Largest Abelian subgroup         C2      NOp   2
 Largest concise Abelian subgroup C2      NOp   2
                         Standard orientation:                         
 ---------------------------------------------------------------------
 Center     Atomic      Atomic             Coordinates (Angstroms)
 Number     Number       Type             X           Y           Z
 ---------------------------------------------------------------------
      1          6           0        0.000000    0.000000    0.000000
      2          1           0        0.000000    0.000000    1.090000
      3          1           0        0.000000    0.943968   -0.545000
      4          1           0       -0.000000   -0.943968   -0.545000
 ---------------------------------------------------------------------
 Rotational constants (GHZ):    281.3764836    281.3764836    140.6882418
 Leave Link  202 at Sat Aug 17 17:54:11 2024, MaxMem=   13107200 cpu:       0.0
 (Enter /programs/64bit/g09/g09-gfortran/bin/l301.exe)
 Standard basis: 6-31+G (6D, 7F)
 Ernie: Thresh=  0.10000D-02 Tol=  0.10000D-05 Strict=F.
 AO basis set in the form of general basis input (Overlap normalization):
      1 0
 S   6 1.00       0.000000000000
      0.3047524880D+04  0.1834737132D-02
      0.4573695180D+03  0.1403732281D-01
      0.1039486850D+03  0.6884262226D-01
      0.2921015530D+02  0.2321844432D+00
      0.9286662960D+01  0.4679413484D+00
      0.3163926960D+01  0.3623119853D+00
 SP   3 1.00       0.000000000000
      0.7868272350D+01 -0.1193324198D+00  0.6899906659D-01
      0.1881288540D+01 -0.1608541517D+00  0.3164239610D+00
      0.5442492580D+00  0.1143456438D+01  0.7443082909D+00
 SP   1 1.00       0.000000000000
      0.1687144782D+00  0.1000000000D+01  0.1000000000D+01
 SP   1 1.00       0.000000000000
      0.4380000000D-01  0.1000000000D+01  0.1000000000D+01
 ****
      2 0
 S   3 1.00       0.000000000000
      0.1873113696D+02  0.3349460434D-01
      0.2825394365D+01  0.2347269535D+00
      0.6401216923D+00  0.8137573261D+00
 S   1 1.00       0.000000000000
      0.1612777588D+00  0.1000000000D+01
 ****
      3 0
 S   3 1.00       0.000000000000
      0.1873113696D+02  0.3349460434D-01
      0.2825394365D+01  0.2347269535D+00
      0.6401216923D+00  0.8137573261D+00
 S   1 1.00       0.000000000000
      0.1612777588D+00  0.1000000000D+01
 ****
      4 0
 S   3 1.00       0.000000000000
      0.1873113696D+02  0.3349460434D-01
      0.2825394365D+01  0.2347269535D+00
      0.6401216923D+00  0.8137573261D+00
 S   1 1.00       0.000000000000
      0.1612777588D+00  0.1000000000D+01
 ****

 There are    11 symmetry adapted basis functions of A   symmetry.
 There are     8 symmetry adapted basis functions of B   symmetry.
 Integral buffers will be    131072 words long.
 Raffenetti 2 integral format.
 Two-electron integral symmetry is turned on.
    19 basis functions,    38 primitive gaussians,    19 cartesian basis functions
     5 alpha electrons        4 beta electrons
       nuclear repulsion energy         9.5795885928 Hartrees.
 IExCor=  402 DFT=T Ex+Corr=B3LYP ExCW=0 ScaHFX=  0.200000
 ScaDFX=  0.800000  0.720000  1.000000  0.810000 ScalE2=  1.000000  1.000000
 IRadAn=      0 IRanWt=     -1 IRanGd=            0 ICorTp=0
 NAtoms=    4 NActive=    4 NUniq=    3 SFac= 1.33D+00 NAtFMM=   80 NAOKFM=F Big=F
 Leave Link  301 at Sat Aug 17 17:54:11 2024, MaxMem=   13107200 cpu:       0.1
 (Enter /programs/64bit/g09/g09-gfortran/bin/l302.exe)
 NPDir=0 NMtPBC=     1 NCelOv=     1 NCel=       1 NClECP=     1 NCelD=      1
         NCelK=      1 NCelE2=     1 NClLst=     1 CellRange=     0.0.
 One-electron integrals computed using PRISM.
 One-electron integral symmetry used in STVInt
 NBasis=    19 RedAO= T  NBF=    11     8
 NBsUse=    19 1.00D-06 NBFU=    11     8
 Precomputing XC quadrature grid using
 IXCGrd= 2 IRadAn=           0 IRanWt=          -1 IRanGd=           0 AccXCQ= 1.00D-10.
 NRdTot=     255 NPtTot=       32404 NUsed=       34254 NTot=       34286
 NSgBfM=    19    19    19    19    19 NAtAll=     4     4.
 Leave Link  302 at Sat Aug 17 17:54:11 2024, MaxMem=   13107200 cpu:       0.2
 (Enter /programs/64bit/g09/g09-gfortran/bin/l303.exe)
 DipDrv:  MaxL=1.
 Leave Link  303 at Sat Aug 17 17:54:11 2024, MaxMem=   13107200 cpu:       0.0
 (Enter /programs/64bit/g09/g09-gfortran/bin/l401.exe)
 Harris functional with IExCor=  402 diagonalized for initial guess.
 ExpMin= 4.38D-02 ExpMax= 3.05D+03 ExpMxC= 4.57D+02 IAcc=2 IRadAn=         0 AccDes= 0.00D+00
 HarFok:  IExCor=  402 AccDes= 0.00D+00 IRadAn=         0 IDoV= 1
 ScaDFX=  1.000000  1.000000  1.000000  1.000000
 FoFCou: FMM=F IPFlag=           0 FMFlag=      100000 FMFlg1=           0
         NFxFlg=           0 DoJE=T BraDBF=F KetDBF=T FulRan=T
         Omega=  0.000000  0.000000  1.000000  0.000000  0.000000 ICntrl=     500 IOpCl=  0
         NMat0=    1 NMatS0=    1 NMatT0=    0 NMatD0=    1 NMtDS0=    0 NMtDT0=    0
         I1Cent=           4 NGrid=           0.
 Petite list used in FoFCou.
 Harris En= -39.8278621528982    
 Initial guess orbital symmetries:
 Alpha Orbitals:
       Occupied  (A) (A) (A) (B) (B)
       Virtual   (A) (B) (A) (B) (B) (A) (A) (A) (B) (B) (A) (A)
                 (B) (A)
 Beta  Orbitals:
       Occupied  (A) (A) (A) (B)
       Virtual   (B) (A) (B) (A) (B) (B) (A) (A) (A) (B) (B) (A)
                 (A) (B) (A)
 The electronic state of the initial guess is 2-B.
 Initial guess <Sx>= 0.0000 <Sy>= 0.0000 <Sz>= 0.5000 <S**2>= 0.7500 S= 0.5000
 Leave Link  401 at Sat Aug 17 17:54:11 2024, MaxMem=   13107200 cpu:       0.4
 (Enter /programs/64bit/g09/g09-gfortran/bin/l502.exe)
 UHF open shell SCF:
 Requested convergence on RMS density matrix=1.00D-08 within 128 cycles.
 Requested convergence on MAX density matrix=1.00D-06.
 Requested convergence on             energy=1.00D-06.
 No special actions if energy rises.
 Using DIIS extrapolation, IDIIS=  1040.
 Integral symmetry usage will be decided dynamically.
        34205 words used for storage of precomputed grid.
 Keep R1 and R2 ints in memory in canonical form, NReq=948271.
 IEnd=       53992 IEndB=       53992 NGot=    13107200 MDV=    13033993
 LenX=    13033993 LenY=    13033111
 Symmetry not used in FoFDir.
 MinBra= 0 MaxBra= 1 Meth= 1.
 IRaf=       0 NMat=   1 IRICut=       1 DoRegI=T DoRafI=F ISym2E= 0 JSym2E=0.

 Cycle   1  Pass 1  IDiag  1:
 E= -39.7945678558143    
 DIIS: error= 3.68D-02 at cycle   1 NSaved=   1.
 NSaved= 1 IEnMin= 1 EnMin= -39.7945678558143     IErMin= 1 ErrMin= 3.68D-02
 ErrMax= 3.68D-02 EMaxC= 1.00D-01 BMatC= 1.31D-01 BMatP= 1.31D-01
 IDIUse=3 WtCom= 6.32D-01 WtEn= 3.68D-01
 Coeff-Com:  0.100D+01
 Coeff-En:   0.100D+01
 Coeff:      0.100D+01
 Gap=     0.182 Goal=   None    Shift=    0.000
 Gap=     0.372 Goal=   None    Shift=    0.000
 GapD=    0.182 DampG=1.000 DampE=0.500 DampFc=0.5000 IDamp=-1.
 Damping current iteration by 5.00D-01
 RMSDP=1.66D-02 MaxDP=1.62D-01              OVMax= 1.64D-01

 Cycle   2  Pass 1  IDiag  1:
 E= -39.8137594915777     Delta-E=       -0.019191635763 Rises=F Damp=T
 DIIS: error= 5.81D-03 at cycle   2 NSaved=   2.
 NSaved= 2 IEnMin= 2 EnMin= -39.8137594915777     IErMin= 2 ErrMin= 5.81D-03
 ErrMax= 5.81D-03 EMaxC= 1.00D-01 BMatC= 2.64D-03 BMatP= 1.31D-01
 IDIUse=3 WtCom= 9.42D-01 WtEn= 5.81D-02
 Coeff-Com:  0.361D-01 0.964D+00
 Coeff-En:   0.512D-01 0.949D+00
 Coeff:      0.370D-01 0.963D+00
 Gap=     0.249 Goal=   None    Shift=    0.000
 Gap=     0.345 Goal=   None    Shift=    0.000
 RMSDP=2.06D-03 MaxDP=1.62D-02 DE=-1.92D-02 OVMax= 9.83D-02

 Cycle   3  Pass 1  IDiag  1:
 E= -39.8353723192606     Delta-E=       -0.021612827683 Rises=F Damp=F
 DIIS: error= 1.51D-03 at cycle   3 NSaved=   3.
 NSaved= 3 IEnMin= 3 EnMin= -39.8353723192606     IErMin= 3 ErrMin= 1.51D-03
 ErrMax= 1.51D-03 EMaxC= 1.00D-01 BMatC= 1.02D-04 BMatP= 2.64D-03
 IDIUse=3 WtCom= 9.85D-01 WtEn= 1.51D-02
 Coeff-Com: -0.161D-01 0.120D-02 0.101D+01
 Coeff-En:   0.000D+00 0.000D+00 0.100D+01
 Coeff:     -0.159D-01 0.118D-02 0.101D+01
 Gap=     0.254 Goal=   None    Shift=    0.000
 Gap=     0.338 Goal=   None    Shift=    0.000
 RMSDP=4.34D-04 MaxDP=3.01D-03 DE=-2.16D-02 OVMax= 3.53D-03

 Cycle   4  Pass 1  IDiag  1:
 E= -39.8354336733276     Delta-E=       -0.000061354067 Rises=F Damp=F
 DIIS: error= 3.96D-04 at cycle   4 NSaved=   4.
 NSaved= 4 IEnMin= 4 EnMin= -39.8354336733276     IErMin= 4 ErrMin= 3.96D-04
 ErrMax= 3.96D-04 EMaxC= 1.00D-01 BMatC= 9.83D-06 BMatP= 1.02D-04
 IDIUse=3 WtCom= 9.96D-01 WtEn= 3.96D-03
 Coeff-Com:  0.293D-02-0.240D-01-0.436D+00 0.146D+01
 Coeff-En:   0.000D+00 0.000D+00 0.000D+00 0.100D+01
 Coeff:      0.291D-02-0.239D-01-0.434D+00 0.146D+01
 Gap=     0.255 Goal=   None    Shift=    0.000
 Gap=     0.339 Goal=   None    Shift=    0.000
 RMSDP=2.19D-04 MaxDP=1.42D-03 DE=-6.14D-05 OVMax= 1.77D-03

 Cycle   5  Pass 1  IDiag  1:
 E= -39.8354420538987     Delta-E=       -0.000008380571 Rises=F Damp=F
 DIIS: error= 4.20D-05 at cycle   5 NSaved=   5.
 NSaved= 5 IEnMin= 5 EnMin= -39.8354420538987     IErMin= 5 ErrMin= 4.20D-05
 ErrMax= 4.20D-05 EMaxC= 1.00D-01 BMatC= 9.69D-08 BMatP= 9.83D-06
 IDIUse=1 WtCom= 1.00D+00 WtEn= 0.00D+00
 Coeff-Com:  0.735D-03 0.198D-02 0.361D-03-0.950D-01 0.109D+01
 Coeff:      0.735D-03 0.198D-02 0.361D-03-0.950D-01 0.109D+01
 Gap=     0.255 Goal=   None    Shift=    0.000
 Gap=     0.339 Goal=   None    Shift=    0.000
 RMSDP=1.86D-05 MaxDP=1.47D-04 DE=-8.38D-06 OVMax= 1.82D-04

 Cycle   6  Pass 1  IDiag  1:
 E= -39.8354421230213     Delta-E=       -0.000000069123 Rises=F Damp=F
 DIIS: error= 5.28D-06 at cycle   6 NSaved=   6.
 NSaved= 6 IEnMin= 6 EnMin= -39.8354421230213     IErMin= 6 ErrMin= 5.28D-06
 ErrMax= 5.28D-06 EMaxC= 1.00D-01 BMatC= 7.92D-10 BMatP= 9.69D-08
 IDIUse=1 WtCom= 1.00D+00 WtEn= 0.00D+00
 Coeff-Com: -0.124D-03-0.222D-03 0.424D-02 0.175D-02-0.181D+00 0.118D+01
 Coeff:     -0.124D-03-0.222D-03 0.424D-02 0.175D-02-0.181D+00 0.118D+01
 Gap=     0.255 Goal=   None    Shift=    0.000
 Gap=     0.339 Goal=   None    Shift=    0.000
 RMSDP=2.22D-06 MaxDP=2.34D-05 DE=-6.91D-08 OVMax= 3.68D-05

 Cycle   7  Pass 1  IDiag  1:
 E= -39.8354421238325     Delta-E=       -0.000000000811 Rises=F Damp=F
 DIIS: error= 4.01D-07 at cycle   7 NSaved=   7.
 NSaved= 7 IEnMin= 7 EnMin= -39.8354421238325     IErMin= 7 ErrMin= 4.01D-07
 ErrMax= 4.01D-07 EMaxC= 1.00D-01 BMatC= 1.22D-11 BMatP= 7.92D-10
 IDIUse=1 WtCom= 1.00D+00 WtEn= 0.00D+00
 Coeff-Com:  0.191D-04 0.261D-05-0.526D-03 0.492D-03 0.130D-01-0.125D+00
 Coeff-Com:  0.111D+01
 Coeff:      0.191D-04 0.261D-05-0.526D-03 0.492D-03 0.130D-01-0.125D+00
 Coeff:      0.111D+01
 Gap=     0.255 Goal=   None    Shift=    0.000
 Gap=     0.339 Goal=   None    Shift=    0.000
 RMSDP=1.30D-07 MaxDP=1.07D-06 DE=-8.11D-10 OVMax= 1.19D-06

 Cycle   8  Pass 1  IDiag  1:
 E= -39.8354421238374     Delta-E=       -0.000000000005 Rises=F Damp=F
 DIIS: error= 2.69D-08 at cycle   8 NSaved=   8.
 NSaved= 8 IEnMin= 8 EnMin= -39.8354421238374     IErMin= 8 ErrMin= 2.69D-08
 ErrMax= 2.69D-08 EMaxC= 1.00D-01 BMatC= 3.46D-14 BMatP= 1.22D-11
 IDIUse=1 WtCom= 1.00D+00 WtEn= 0.00D+00
 Coeff-Com: -0.139D-05 0.100D-05 0.217D-04-0.541D-04-0.561D-04 0.475D-02
 Coeff-Com: -0.104D+00 0.110D+01
 Coeff:     -0.139D-05 0.100D-05 0.217D-04-0.541D-04-0.561D-04 0.475D-02
 Coeff:     -0.104D+00 0.110D+01
 Gap=     0.255 Goal=   None    Shift=    0.000
 Gap=     0.339 Goal=   None    Shift=    0.000
 RMSDP=8.46D-09 MaxDP=1.16D-07 DE=-4.85D-12 OVMax= 7.08D-08

 SCF Done:  E(UB3LYP) =  -39.8354421238     A.U. after    8 cycles
             Convg  =    0.8459D-08             -V/T =  2.0074
 <Sx>= 0.0000 <Sy>= 0.0000 <Sz>= 0.5000 <S**2>= 0.7532 S= 0.5016
 <L.S>=  0.00000000000    
 KE= 3.954448372360D+01 PE=-1.109534144068D+02 EE= 2.199389996656D+01
 Annihilation of the first spin contaminant:
 S**2 before annihilation     0.7532,   after     0.7500
 Leave Link  502 at Sat Aug 17 17:54:14 2024, MaxMem=   13107200 cpu:       2.1
 (Enter /programs/64bit/g09/g09-gfortran/bin/l601.exe)
 Copying SCF densities to generalized density rwf, IOpCl= 1 IROHF=0.

 **********************************************************************

            Population analysis using the SCF density.

 **********************************************************************

 Orbital symmetries:
 Alpha Orbitals:
       Occupied  (A) (A) (A) (B) (B)
       Virtual   (A) (B) (A) (B) (A) (B) (A) (B) (A) (B) (A) (A)
                 (B) (A)
 Beta  Orbitals:
       Occupied  (A) (A) (A) (B)
       Virtual   (B) (A) (B) (A) (B) (B) (A) (A) (B) (A) (B) (A)
                 (A) (B) (A)
 The electronic state is 2-B.
 Alpha  occ. eigenvalues --  -10.20018  -0.69159  -0.42640  -0.42640  -0.23531
 Alpha virt. eigenvalues --    0.01940   0.05870   0.05871   0.07401   0.18729
 Alpha virt. eigenvalues --    0.19111   0.19111   0.64564   0.64564   0.64832
 Alpha virt. eigenvalues --    0.86093   0.99330   1.01676   1.01676
  Beta  occ. eigenvalues --  -10.18609  -0.65011  -0.41647  -0.41647
  Beta virt. eigenvalues --   -0.07774   0.02538   0.05870   0.05870   0.09841
  Beta virt. eigenvalues --    0.19548   0.19548   0.20436   0.65652   0.65652
  Beta virt. eigenvalues --    0.71609   0.88412   1.00631   1.01682   1.01682
     Alpha Molecular Orbital Coefficients:
                           1         2         3         4         5
                           O         O         O         O         O
     Eigenvalues --   -10.20018  -0.69159  -0.42640  -0.42640  -0.23531
   1 1   C  1S          0.99498  -0.20490   0.00000   0.00000   0.00000
   2        2S          0.03484   0.40941  -0.00000   0.00000   0.00000
   3        2PX         0.00000   0.00000   0.00000   0.00000   0.59853
   4        2PY         0.00000   0.00000   0.00000   0.46395  -0.00000
   5        2PZ         0.00000  -0.00000   0.46395   0.00000   0.00000
   6        3S         -0.02196   0.39856   0.00000   0.00000   0.00000
   7        3PX         0.00000   0.00000   0.00000  -0.00000   0.46164
   8        3PY         0.00000   0.00000   0.00000   0.18926   0.00000
   9        3PZ        -0.00000   0.00000   0.18926   0.00000   0.00000
  10        4S          0.00120   0.01926   0.00000   0.00000   0.00000
  11        4PX         0.00000   0.00000   0.00000   0.00000   0.13062
  12        4PY         0.00000   0.00000   0.00000   0.02840   0.00000
  13        4PZ         0.00000   0.00000   0.02840   0.00000   0.00000
  14 2   H  1S         -0.00109   0.14732   0.28748   0.00000   0.00000
  15        2S          0.00430   0.03150   0.19978   0.00000   0.00000
  16 3   H  1S         -0.00109   0.14732  -0.14374   0.24897  -0.00000
  17        2S          0.00430   0.03150  -0.09989   0.17302  -0.00000
  18 4   H  1S         -0.00109   0.14732  -0.14374  -0.24897   0.00000
  19        2S          0.00430   0.03150  -0.09989  -0.17302   0.00000
                           6         7         8         9        10
                           V         V         V         V         V
     Eigenvalues --     0.01940   0.05870   0.05871   0.07401   0.18729
   1 1   C  1S          0.09493   0.00000  -0.00002   0.00000  -0.12315
   2        2S         -0.16418   0.00000   0.00003   0.00000   0.11961
   3        2PX         0.00000  -0.00000   0.00000  -0.25949   0.00000
   4        2PY         0.00000  -0.20233   0.00000   0.00000   0.00000
   5        2PZ        -0.00002   0.00000  -0.20234   0.00000   0.00024
   6        3S         -0.85217   0.00000   0.00023   0.00000   2.23085
   7        3PX         0.00000  -0.00000   0.00000  -0.38379   0.00000
   8        3PY         0.00000  -0.20692   0.00000   0.00000   0.00000
   9        3PZ         0.00000   0.00000  -0.20694   0.00000   0.00110
  10        4S          1.36733   0.00000  -0.00013   0.00000   1.28759
  11        4PX         0.00000   0.00000   0.00000   1.13126   0.00000
  12        4PY         0.00000   1.16562   0.00000  -0.00000   0.00000
  13        4PZ         0.00017   0.00000   1.16561   0.00000   0.00027
  14 2   H  1S          0.02278   0.00000  -0.04020   0.00000  -0.15283
  15        2S          0.02374   0.00000  -0.15784   0.00000  -1.43226
  16 3   H  1S          0.02279  -0.03481   0.02009   0.00000  -0.15266
  17        2S          0.02384  -0.13665   0.07881   0.00000  -1.43008
  18 4   H  1S          0.02279   0.03481   0.02009  -0.00000  -0.15266
  19        2S          0.02384   0.13665   0.07881  -0.00000  -1.43008
                          11        12        13        14        15
                           V         V         V         V         V
     Eigenvalues --     0.19111   0.19111   0.64564   0.64564   0.64832
   1 1   C  1S          0.00000  -0.00009   0.00000   0.00000   0.00000
   2        2S          0.00000   0.00008   0.00000   0.00001   0.00000
   3        2PX         0.00000   0.00000  -0.00000   0.00000  -1.07693
   4        2PY        -0.33044   0.00000  -1.00313   0.00000   0.00000
   5        2PZ         0.00000  -0.33043   0.00000  -1.00313   0.00000
   6        3S          0.00000   0.00156   0.00000  -0.00001   0.00000
   7        3PX         0.00000   0.00000   0.00000   0.00000   1.41420
   8        3PY        -1.52997   0.00000   1.92627   0.00000  -0.00000
   9        3PZ         0.00000  -1.52997   0.00000   1.92627   0.00000
  10        4S          0.00000   0.00094   0.00000   0.00000   0.00000
  11        4PX        -0.00000   0.00000  -0.00000   0.00000  -0.58461
  12        4PY        -0.45456   0.00000  -0.52024   0.00000   0.00000
  13        4PZ         0.00000  -0.45458   0.00000  -0.52024   0.00000
  14 2   H  1S          0.00000   0.16058   0.00000  -0.25432   0.00000
  15        2S          0.00000   2.06334   0.00000  -0.46848   0.00000
  16 3   H  1S          0.13916  -0.08046  -0.22025   0.12716   0.00000
  17        2S          1.78778  -1.03319  -0.40572   0.23425   0.00000
  18 4   H  1S         -0.13916  -0.08046   0.22025   0.12716  -0.00000
  19        2S         -1.78778  -1.03319   0.40572   0.23425  -0.00000
                          16        17        18        19
                           V         V         V         V
     Eigenvalues --     0.86093   0.99330   1.01676   1.01676
   1 1   C  1S         -0.02829   0.06077   0.00000   0.00000
   2        2S         -1.67515  -1.27918   0.00000  -0.00003
   3        2PX         0.00000   0.00000   0.00000   0.00000
   4        2PY         0.00000   0.00000   0.59026   0.00000
   5        2PZ        -0.00000  -0.00001   0.00000   0.59025
   6        3S          2.79621   2.77972   0.00000   0.00006
   7        3PX         0.00000   0.00000  -0.00000   0.00000
   8        3PY         0.00000   0.00000  -0.61026   0.00000
   9        3PZ         0.00001   0.00001   0.00000  -0.61026
  10        4S         -0.79314   0.65790   0.00000   0.00002
  11        4PX         0.00000   0.00000   0.00000   0.00000
  12        4PY         0.00000   0.00000  -0.45462   0.00000
  13        4PZ        -0.00000   0.00000   0.00000  -0.45462
  14 2   H  1S         -0.45559   0.67339   0.00000  -1.13583
  15        2S         -0.04167  -1.42979   0.00000   1.74415
  16 3   H  1S         -0.45559   0.67335  -0.98367   0.56793
  17        2S         -0.04166  -1.42974   1.51050  -0.87212
  18 4   H  1S         -0.45559   0.67335   0.98367   0.56793
  19        2S         -0.04166  -1.42974  -1.51050  -0.87212
     Beta Molecular Orbital Coefficients:
                           1         2         3         4         5
                           O         O         O         O         V
     Eigenvalues --   -10.18609  -0.65011  -0.41647  -0.41647  -0.07774
   1 1   C  1S          0.99526  -0.19650   0.00000   0.00000   0.00000
   2        2S          0.03330   0.39117  -0.00000   0.00000   0.00000
   3        2PX         0.00000   0.00000   0.00000  -0.00000   0.47167
   4        2PY         0.00000   0.00000   0.00000   0.44518   0.00000
   5        2PZ         0.00000   0.00000   0.44518   0.00000   0.00000
   6        3S         -0.02139   0.32453   0.00000   0.00000   0.00000
   7        3PX         0.00000   0.00000   0.00000   0.00000   0.43619
   8        3PY         0.00000   0.00000   0.00000   0.16928   0.00000
   9        3PZ        -0.00000   0.00000   0.16928   0.00000   0.00000
  10        4S          0.00113   0.00980   0.00000   0.00000   0.00000
  11        4PX         0.00000   0.00000   0.00000  -0.00000   0.34722
  12        4PY         0.00000   0.00000   0.00000   0.03113  -0.00000
  13        4PZ         0.00000   0.00000   0.03113   0.00000   0.00000
  14 2   H  1S         -0.00091   0.16475   0.30029   0.00000   0.00000
  15        2S          0.00418   0.06576   0.22294   0.00000   0.00000
  16 3   H  1S         -0.00091   0.16475  -0.15014   0.26006   0.00000
  17        2S          0.00418   0.06576  -0.11147   0.19307   0.00000
  18 4   H  1S         -0.00091   0.16475  -0.15014  -0.26006  -0.00000
  19        2S          0.00418   0.06576  -0.11147  -0.19307  -0.00000
                           6         7         8         9        10
                           V         V         V         V         V
     Eigenvalues --     0.02538   0.05870   0.05870   0.09841   0.19548
   1 1   C  1S          0.09491   0.00000  -0.00002   0.00000   0.00000
   2        2S         -0.14286   0.00000   0.00003   0.00000   0.00000
   3        2PX         0.00000   0.00000   0.00000  -0.32557   0.00000
   4        2PY         0.00000  -0.19301   0.00000  -0.00000  -0.33521
   5        2PZ        -0.00003   0.00000  -0.19301   0.00000   0.00000
   6        3S         -0.85500   0.00000   0.00025   0.00000   0.00000
   7        3PX         0.00000   0.00000   0.00000  -0.55025   0.00000
   8        3PY         0.00000  -0.19632   0.00000  -0.00000  -1.54925
   9        3PZ        -0.00000   0.00000  -0.19635   0.00000   0.00000
  10        4S          1.39628   0.00000  -0.00019   0.00000   0.00000
  11        4PX         0.00000  -0.00000   0.00000   1.10530  -0.00000
  12        4PY         0.00000   1.17404   0.00000   0.00000  -0.43644
  13        4PZ         0.00021   0.00000   1.17403   0.00000   0.00000
  14 2   H  1S          0.01288   0.00000  -0.04760   0.00000   0.00000
  15        2S          0.00390   0.00000  -0.18478   0.00000   0.00000
  16 3   H  1S          0.01290  -0.04122   0.02380  -0.00000   0.12842
  17        2S          0.00402  -0.16000   0.09229   0.00000   1.79216
  18 4   H  1S          0.01290   0.04122   0.02380   0.00000  -0.12842
  19        2S          0.00402   0.16000   0.09229  -0.00000  -1.79216
                          11        12        13        14        15
                           V         V         V         V         V
     Eigenvalues --     0.19548   0.20436   0.65652   0.65652   0.71609
   1 1   C  1S          0.00004  -0.13161   0.00000  -0.00000   0.00000
   2        2S         -0.00005   0.13933   0.00000   0.00000   0.00000
   3        2PX         0.00000   0.00000   0.00000   0.00000  -1.12111
   4        2PY         0.00000   0.00000  -1.00055   0.00000  -0.00000
   5        2PZ        -0.33521  -0.00010   0.00000  -1.00055   0.00000
   6        3S         -0.00075   2.26894   0.00000  -0.00000   0.00000
   7        3PX         0.00000   0.00000  -0.00000   0.00000   1.36650
   8        3PY         0.00000   0.00000   1.91016   0.00000   0.00000
   9        3PZ        -1.54925  -0.00049   0.00000   1.91016   0.00000
  10        4S         -0.00038   1.26838   0.00000   0.00000   0.00000
  11        4PX         0.00000   0.00000   0.00000   0.00000  -0.54437
  12        4PY         0.00000   0.00000  -0.52108   0.00000  -0.00000
  13        4PZ        -0.43645  -0.00019   0.00000  -0.52108   0.00000
  14 2   H  1S          0.14833  -0.13684   0.00000  -0.26858   0.00000
  15        2S          2.06988  -1.44230   0.00000  -0.44041   0.00000
  16 3   H  1S         -0.07410  -0.13692  -0.23260   0.13429  -0.00000
  17        2S         -1.03424  -1.44331  -0.38141   0.22021  -0.00000
  18 4   H  1S         -0.07410  -0.13692   0.23260   0.13429   0.00000
  19        2S         -1.03424  -1.44331   0.38141   0.22021   0.00000
                          16        17        18        19
                           V         V         V         V
     Eigenvalues --     0.88412   1.00631   1.01682   1.01682
   1 1   C  1S         -0.03724   0.06141   0.00000   0.00000
   2        2S         -1.51149  -1.47444   0.00000  -0.00010
   3        2PX         0.00000   0.00000  -0.00000   0.00000
   4        2PY         0.00000   0.00000   0.60922   0.00000
   5        2PZ        -0.00000  -0.00004   0.00000   0.60922
   6        3S          2.47019   3.05305   0.00000   0.00021
   7        3PX         0.00000   0.00000   0.00000   0.00000
   8        3PY         0.00000   0.00000  -0.62153   0.00000
   9        3PZ         0.00000   0.00004   0.00000  -0.62153
  10        4S         -0.84409   0.56460   0.00000   0.00005
  11        4PX         0.00000   0.00000  -0.00000   0.00000
  12        4PY         0.00000   0.00000  -0.44953   0.00000
  13        4PZ         0.00000   0.00003   0.00000  -0.44953
  14 2   H  1S         -0.53141   0.61497   0.00000  -1.13059
  15        2S          0.11270  -1.41274   0.00000   1.73994
  16 3   H  1S         -0.53140   0.61485  -0.97916   0.56536
  17        2S          0.11270  -1.41256   1.50692  -0.87012
  18 4   H  1S         -0.53140   0.61485   0.97916   0.56536
  19        2S          0.11270  -1.41256  -1.50692  -0.87012
     Alpha Density Matrix:
                           1         2         3         4         5
   1 1   C  1S          1.03197
   2        2S         -0.04922   0.16883
   3        2PX         0.00000   0.00000   0.35824
   4        2PY         0.00000   0.00000   0.00000   0.21525
   5        2PZ         0.00000  -0.00000   0.00000   0.00000   0.21525
   6        3S         -0.10351   0.16241   0.00000   0.00000   0.00000
   7        3PX         0.00000   0.00000   0.27630  -0.00000   0.00000
   8        3PY         0.00000   0.00000   0.00000   0.08781   0.00000
   9        3PZ        -0.00000   0.00000   0.00000   0.00000   0.08781
  10        4S         -0.00275   0.00793   0.00000   0.00000   0.00000
  11        4PX         0.00000   0.00000   0.07818   0.00000   0.00000
  12        4PY         0.00000   0.00000   0.00000   0.01318   0.00000
  13        4PZ        -0.00000   0.00000   0.00000   0.00000   0.01318
  14 2   H  1S         -0.03127   0.06028   0.00000   0.00000   0.13338
  15        2S         -0.00218   0.01304   0.00000   0.00000   0.09269
  16 3   H  1S         -0.03127   0.06028  -0.00000   0.11551  -0.06669
  17        2S         -0.00218   0.01305  -0.00000   0.08027  -0.04635
  18 4   H  1S         -0.03127   0.06028   0.00000  -0.11551  -0.06669
  19        2S         -0.00218   0.01305   0.00000  -0.08027  -0.04635
                           6         7         8         9        10
   6        3S          0.15933
   7        3PX         0.00000   0.21311
   8        3PY         0.00000   0.00000   0.03582
   9        3PZ         0.00000   0.00000   0.00000   0.03582
  10        4S          0.00765   0.00000   0.00000   0.00000   0.00037
  11        4PX         0.00000   0.06030   0.00000   0.00000   0.00000
  12        4PY         0.00000   0.00000   0.00538   0.00000   0.00000
  13        4PZ         0.00000   0.00000   0.00000   0.00537   0.00000
  14 2   H  1S          0.05874   0.00000   0.00000   0.05441   0.00284
  15        2S          0.01246   0.00000   0.00000   0.03781   0.00061
  16 3   H  1S          0.05874  -0.00000   0.04712  -0.02720   0.00283
  17        2S          0.01246  -0.00000   0.03274  -0.01891   0.00061
  18 4   H  1S          0.05874   0.00000  -0.04712  -0.02720   0.00283
  19        2S          0.01246   0.00000  -0.03274  -0.01891   0.00061
                          11        12        13        14        15
  11        4PX         0.01706
  12        4PY         0.00000   0.00081
  13        4PZ         0.00000   0.00000   0.00081
  14 2   H  1S          0.00000   0.00000   0.00816   0.10435
  15        2S          0.00000   0.00000   0.00567   0.06207   0.04092
  16 3   H  1S          0.00000   0.00707  -0.00408  -0.01962  -0.02408
  17        2S         -0.00000   0.00491  -0.00284  -0.02408  -0.01895
  18 4   H  1S         -0.00000  -0.00707  -0.00408  -0.01962  -0.02408
  19        2S          0.00000  -0.00491  -0.00284  -0.02408  -0.01895
                          16        17        18        19
  16 3   H  1S          0.10435
  17        2S          0.06207   0.04092
  18 4   H  1S         -0.01962  -0.02408   0.10435
  19        2S         -0.02408  -0.01895   0.06207   0.04092
     Beta Density Matrix:
                           1         2         3         4         5
   1 1   C  1S          1.02915
   2        2S         -0.04373   0.15412
   3        2PX         0.00000   0.00000   0.00000
   4        2PY         0.00000   0.00000  -0.00000   0.19819
   5        2PZ        -0.00000   0.00000   0.00000   0.00000   0.19819
   6        3S         -0.08506   0.12624   0.00000   0.00000   0.00000
   7        3PX         0.00000   0.00000  -0.00000   0.00000   0.00000
   8        3PY         0.00000   0.00000  -0.00000   0.07536   0.00000
   9        3PZ        -0.00000   0.00000   0.00000   0.00000   0.07536
  10        4S         -0.00080   0.00387   0.00000   0.00000   0.00000
  11        4PX         0.00000   0.00000   0.00000  -0.00000   0.00000
  12        4PY         0.00000   0.00000  -0.00000   0.01386   0.00000
  13        4PZ        -0.00000   0.00000   0.00000   0.00000   0.01386
  14 2   H  1S         -0.03328   0.06442   0.00000   0.00000   0.13368
  15        2S         -0.00876   0.02586   0.00000   0.00000   0.09925
  16 3   H  1S         -0.03328   0.06442  -0.00000   0.11577  -0.06684
  17        2S         -0.00876   0.02586  -0.00000   0.08595  -0.04963
  18 4   H  1S         -0.03328   0.06442   0.00000  -0.11577  -0.06684
  19        2S         -0.00876   0.02586   0.00000  -0.08595  -0.04963
                           6         7         8         9        10
   6        3S          0.10578
   7        3PX         0.00000   0.00000
   8        3PY         0.00000   0.00000   0.02865
   9        3PZ         0.00000   0.00000   0.00000   0.02865
  10        4S          0.00316   0.00000   0.00000   0.00000   0.00010
  11        4PX         0.00000  -0.00000  -0.00000   0.00000   0.00000
  12        4PY         0.00000   0.00000   0.00527   0.00000   0.00000
  13        4PZ         0.00000   0.00000   0.00000   0.00527   0.00000
  14 2   H  1S          0.05349   0.00000   0.00000   0.05083   0.00162
  15        2S          0.02125   0.00000   0.00000   0.03774   0.00065
  16 3   H  1S          0.05349   0.00000   0.04402  -0.02542   0.00161
  17        2S          0.02125   0.00000   0.03268  -0.01887   0.00065
  18 4   H  1S          0.05349  -0.00000  -0.04402  -0.02542   0.00161
  19        2S          0.02125  -0.00000  -0.03268  -0.01887   0.00065
                          11        12        13        14        15
  11        4PX         0.00000
  12        4PY        -0.00000   0.00097
  13        4PZ         0.00000   0.00000   0.00097
  14 2   H  1S          0.00000   0.00000   0.00935   0.11732
  15        2S          0.00000   0.00000   0.00694   0.07778   0.05404
  16 3   H  1S         -0.00000   0.00810  -0.00467  -0.01794  -0.02264
  17        2S         -0.00000   0.00601  -0.00347  -0.02264  -0.02051
  18 4   H  1S          0.00000  -0.00810  -0.00467  -0.01794  -0.02264
  19        2S          0.00000  -0.00601  -0.00347  -0.02264  -0.02051
                          16        17        18        19
  16 3   H  1S          0.11732
  17        2S          0.07778   0.05404
  18 4   H  1S         -0.01794  -0.02264   0.11732
  19        2S         -0.02264  -0.02051   0.07778   0.05404
    Full Mulliken population analysis:
                           1         2         3         4         5
   1 1   C  1S          2.06112
   2        2S         -0.02036   0.32296
   3        2PX         0.00000   0.00000   0.35824
   4        2PY         0.00000   0.00000   0.00000   0.41344
   5        2PZ         0.00000   0.00000   0.00000   0.00000   0.41344
   6        3S         -0.03475   0.23446   0.00000   0.00000   0.00000
   7        3PX         0.00000   0.00000   0.15742   0.00000   0.00000
   8        3PY         0.00000   0.00000   0.00000   0.09296   0.00000
   9        3PZ         0.00000   0.00000   0.00000   0.00000   0.09296
  10        4S         -0.00025   0.00474   0.00000   0.00000   0.00000
  11        4PX         0.00000   0.00000   0.01287   0.00000   0.00000
  12        4PY         0.00000   0.00000   0.00000   0.00445   0.00000
  13        4PZ         0.00000   0.00000   0.00000   0.00000   0.00445
  14 2   H  1S         -0.00211   0.03413   0.00000   0.00000   0.09864
  15        2S         -0.00101   0.01852   0.00000   0.00000   0.05101
  16 3   H  1S         -0.00211   0.03413   0.00000   0.07398   0.02466
  17        2S         -0.00101   0.01853  -0.00000   0.03826   0.01275
  18 4   H  1S         -0.00211   0.03413  -0.00000   0.07398   0.02466
  19        2S         -0.00101   0.01853  -0.00000   0.03826   0.01275
                           6         7         8         9        10
   6        3S          0.26511
   7        3PX         0.00000   0.21311
   8        3PY         0.00000   0.00000   0.06447
   9        3PZ         0.00000   0.00000   0.00000   0.06447
  10        4S          0.00786   0.00000   0.00000   0.00000   0.00047
  11        4PX         0.00000   0.03550   0.00000   0.00000   0.00000
  12        4PY         0.00000   0.00000   0.00627   0.00000   0.00000
  13        4PZ         0.00000   0.00000   0.00000   0.00627   0.00000
  14 2   H  1S          0.04231   0.00000   0.00000   0.05420   0.00115
  15        2S          0.02375   0.00000   0.00000   0.04402   0.00081
  16 3   H  1S          0.04231  -0.00000   0.04065   0.01355   0.00115
  17        2S          0.02375   0.00000   0.03301   0.01100   0.00081
  18 4   H  1S          0.04231   0.00000   0.04065   0.01355   0.00115
  19        2S          0.02375   0.00000   0.03301   0.01100   0.00081
                          11        12        13        14        15
  11        4PX         0.01706
  12        4PY         0.00000   0.00178
  13        4PZ         0.00000   0.00000   0.00178
  14 2   H  1S          0.00000   0.00000   0.00368   0.22167
  15        2S          0.00000   0.00000   0.00548   0.09206   0.09496
  16 3   H  1S          0.00000   0.00276   0.00092  -0.00044  -0.00579
  17        2S          0.00000   0.00411   0.00137  -0.00579  -0.01414
  18 4   H  1S         -0.00000   0.00276   0.00092  -0.00044  -0.00579
  19        2S         -0.00000   0.00411   0.00137  -0.00579  -0.01414
                          16        17        18        19
  16 3   H  1S          0.22167
  17        2S          0.09206   0.09497
  18 4   H  1S         -0.00044  -0.00579   0.22167
  19        2S         -0.00579  -0.01414   0.09206   0.09497
     Gross orbital populations:
                         Total     Alpha     Beta      Spin
   1 1   C  1S          1.99640   0.99825   0.99815   0.00009
   2        2S          0.69975   0.36128   0.33847   0.02281
   3        2PX         0.52854   0.52854   0.00000   0.52854
   4        2PY         0.73533   0.37829   0.35704   0.02126
   5        2PZ         0.73533   0.37829   0.35704   0.02125
   6        3S          0.67088   0.37052   0.30036   0.07016
   7        3PX         0.40603   0.40603  -0.00000   0.40603
   8        3PY         0.31103   0.16409   0.14694   0.01714
   9        3PZ         0.31103   0.16409   0.14694   0.01714
  10        4S          0.01871   0.01231   0.00640   0.00591
  11        4PX         0.06543   0.06543   0.00000   0.06543
  12        4PY         0.02624   0.01241   0.01382  -0.00141
  13        4PZ         0.02623   0.01241   0.01382  -0.00141
  14 2   H  1S          0.53327   0.25614   0.27713  -0.02099
  15        2S          0.28975   0.12654   0.16321  -0.03666
  16 3   H  1S          0.53327   0.25614   0.27713  -0.02099
  17        2S          0.28976   0.12655   0.16321  -0.03666
  18 4   H  1S          0.53327   0.25614   0.27713  -0.02099
  19        2S          0.28976   0.12655   0.16321  -0.03666
          Condensed to atoms (all electrons):
              1          2          3          4
     1  C    5.407182   0.374582   0.374581   0.374581
     2  H    0.374582   0.500753  -0.026157  -0.026157
     3  H    0.374581  -0.026157   0.500759  -0.026156
     4  H    0.374581  -0.026157  -0.026156   0.500759
 Mulliken atomic charges:
              1
     1  C   -0.530926
     2  H    0.176979
     3  H    0.176973
     4  H    0.176973
 Sum of Mulliken atomic charges =   0.00000
 Mulliken charges with hydrogens summed into heavy atoms:
              1
     1  C    0.000000
 Sum of Mulliken charges with hydrogens summed into heavy atoms =   0.00000
          Atomic-Atomic Spin Densities.
              1          2          3          4
     1  C    1.206720  -0.011255  -0.011255  -0.011255
     2  H   -0.011255  -0.046765   0.000184   0.000184
     3  H   -0.011255   0.000184  -0.046766   0.000184
     4  H   -0.011255   0.000184   0.000184  -0.046766
 Mulliken atomic spin densities:
              1
     1  C    1.172955
     2  H   -0.057651
     3  H   -0.057652
     4  H   -0.057652
 Sum of Mulliken atomic spin densities =   1.00000
 Electronic spatial extent (au):  <R**2>=             30.6401
 Charge=              0.0000 electrons
 Dipole moment (field-independent basis, Debye):
    X=             -0.0000    Y=              0.0000    Z=             -0.0000  Tot=              0.0000
 Quadrupole moment (field-independent basis, Debye-Ang):
   XX=             -9.4217   YY=             -7.3351   ZZ=             -7.3351
   XY=              0.0000   XZ=              0.0000   YZ=             -0.0000
 Traceless Quadrupole moment (field-independent basis, Debye-Ang):
   XX=             -1.3910   YY=              0.6955   ZZ=              0.6955
   XY=              0.0000   XZ=              0.0000   YZ=             -0.0000
 Octapole moment (field-independent basis, Debye-Ang**2):
  XXX=              0.0000  YYY=              0.0000  ZZZ=              0.8380  XYY=             -0.0000
  XXY=             -0.0000  XXZ=             -0.0000  XZZ=              0.0000  YZZ=              0.0000
  YYZ=             -0.8380  XYZ=             -0.0000
 Hexadecapole moment (field-independent basis, Debye-Ang**3):
 XXXX=            -13.9526 YYYY=            -15.9930 ZZZZ=            -15.9930 XXXY=              0.0000
 XXXZ=             -0.0000 YYYX=              0.0000 YYYZ=              0.0000 ZZZX=             -0.0000
 ZZZY=              0.0000 XXYY=             -5.3217 XXZZ=             -5.3216 YYZZ=             -5.3310
 XXYZ=             -0.0000 YYXZ=              0.0000 ZZXY=              0.0000
 N-N= 9.579588592757D+00 E-N=-1.635055783990D+02  KE= 5.871575854614D+01
 Symmetry A    KE= 5.469929768977D+01
 Symmetry B    KE= 4.016460856367D+00
 Orbital energies and kinetic energies (alpha):
                                 1                 2
   1         O               -10.200181         15.956508
   2         O                -0.691591          1.343083
   3         O                -0.426400          0.987881
   4         O                -0.426400          0.987880
   5         O                -0.235311          1.097857
   6         V                 0.019395          0.380923
   7         V                 0.058704          0.239737
   8         V                 0.058708          0.239740
   9         V                 0.074012          0.315379
  10         V                 0.187293          0.922089
  11         V                 0.191111          0.798583
  12         V                 0.191112          0.798579
  13         V                 0.645643          1.943676
  14         V                 0.645643          1.943679
  15         V                 0.648316          2.133055
  16         V                 0.860926          1.805304
  17         V                 0.993296          2.663646
  18         V                 1.016759          2.576644
  19         V                 1.016761          2.576641
 Orbital energies and kinetic energies (beta):
                                 1                 2
   1         O               -10.186095         15.969290
   2         O                -0.650109          1.271260
   3         O                -0.416467          0.965363
   4         O                -0.416467          0.965362
   5         V                -0.077742          0.775069
   6         V                 0.025379          0.369812
   7         V                 0.058695          0.235431
   8         V                 0.058700          0.235436
   9         V                 0.098406          0.478681
  10         V                 0.195483          0.803542
  11         V                 0.195485          0.803538
  12         V                 0.204360          0.961812
  13         V                 0.656524          1.945761
  14         V                 0.656525          1.945764
  15         V                 0.716093          2.292541
  16         V                 0.884120          1.775942
  17         V                 1.006312          2.723438
  18         V                 1.016821          2.596424
  19         V                 1.016822          2.596419
 Total kinetic energy from orbitals= 3.954448372360D+01
                          Isotropic Fermi Contact Couplings
        Atom                 a.u.       MegaHertz       Gauss      10(-4) cm-1
     1  C(13)              0.14351     161.32883      57.56613      53.81350
     2  H(1)              -0.01670     -74.64453     -26.63502     -24.89874
     3  H(1)              -0.01670     -74.64551     -26.63537     -24.89906
     4  H(1)              -0.01670     -74.64551     -26.63537     -24.89906
 --------------------------------------------------------
       Center         ----  Spin Dipole Couplings  ----
                      3XX-RR        3YY-RR        3ZZ-RR
 --------------------------------------------------------
     1   Atom        1.047766     -0.523883     -0.523883
     2   Atom       -0.009328     -0.069865      0.079193
     3   Atom       -0.009328      0.041929     -0.032601
     4   Atom       -0.009328      0.041929     -0.032601
 --------------------------------------------------------
                        XY            XZ            YZ
 --------------------------------------------------------
     1   Atom        0.000000      0.000000      0.000000
     2   Atom        0.000000     -0.000000      0.000000
     3   Atom        0.000000     -0.000000     -0.064544
     4   Atom        0.000000      0.000000      0.064544
 --------------------------------------------------------


 ---------------------------------------------------------------------------------
              Anisotropic Spin Dipole Couplings in Principal Axis System
 ---------------------------------------------------------------------------------

       Atom             a.u.   MegaHertz   Gauss  10(-4) cm-1        Axes

              Baa    -0.5239   -70.300   -25.085   -23.450  0.0000  0.0000  1.0000
     1 C(13)  Bbb    -0.5239   -70.300   -25.085   -23.450 -0.0000  1.0000  0.0000
              Bcc     1.0478   140.600    50.170    46.899  1.0000  0.0000 -0.0000
 
              Baa    -0.0699   -37.277   -13.301   -12.434 -0.0000  1.0000 -0.0000
     2 H(1)   Bbb    -0.0093    -4.977    -1.776    -1.660  1.0000  0.0000  0.0000
              Bcc     0.0792    42.254    15.077    14.094  0.0000  0.0000  1.0000
 
              Baa    -0.0699   -37.277   -13.301   -12.434 -0.0000  0.5000  0.8660
     3 H(1)   Bbb    -0.0093    -4.977    -1.776    -1.660  1.0000 -0.0000  0.0000
              Bcc     0.0792    42.254    15.077    14.094  0.0000  0.8660 -0.5000
 
              Baa    -0.0699   -37.277   -13.301   -12.434  0.0000 -0.5000  0.8660
     4 H(1)   Bbb    -0.0093    -4.977    -1.776    -1.660  1.0000 -0.0000 -0.0000
              Bcc     0.0792    42.254    15.077    14.094  0.0000  0.8660  0.5000
 

 ---------------------------------------------------------------------------------

 No NMR shielding tensors so no spin-rotation constants.
 Leave Link  601 at Sat Aug 17 17:54:14 2024, MaxMem=   13107200 cpu:       0.2
 (Enter /programs/64bit/g09/g09-gfortran/bin/l701.exe)
 Compute integral first derivatives.
 ... and contract with generalized density number  0.
 Leave Link  701 at Sat Aug 17 17:54:14 2024, MaxMem=   13107200 cpu:       0.1
 (Enter /programs/64bit/g09/g09-gfortran/bin/l702.exe)
 L702 exits ... SP integral derivatives will be done elsewhere.
 Leave Link  702 at Sat Aug 17 17:54:14 2024, MaxMem=   13107200 cpu:       0.0
 (Enter /programs/64bit/g09/g09-gfortran/bin/l703.exe)
 Compute integral first derivatives, UseDBF=F ICtDFT=           0.
 Integral derivatives from FoFDir, PRISM(SPDF).
 Calling FoFJK, ICntrl=      2127 FMM=F ISym2X=1 I1Cent= 0 IOpClX= 1 NMat=1 NMatS=1 NMatT=0.
 FoFCou: FMM=F IPFlag=           0 FMFlag=      100000 FMFlg1=         800
         NFxFlg=           0 DoJE=F BraDBF=F KetDBF=F FulRan=T
         Omega=  0.000000  0.000000  1.000000  0.000000  0.000000 ICntrl=    2127 IOpCl=  1
         NMat0=    1 NMatS0=    1 NMatT0=    0 NMatD0=    1 NMtDS0=    0 NMtDT0=    0
         I1Cent=           0 NGrid=           0.
 Petite list used in FoFCou.
 Leave Link  703 at Sat Aug 17 17:54:15 2024, MaxMem=   13107200 cpu:       0.5
 (Enter /programs/64bit/g09/g09-gfortran/bin/l716.exe)
 Dipole        =-2.90771123D-17 2.22044605D-16-7.26557570D-07
 ***** Axes restored to original set *****
 -------------------------------------------------------------------
 Center     Atomic                   Forces (Hartrees/Bohr)
 Number     Number              X              Y              Z
 -------------------------------------------------------------------
      1        6          -0.000000000    0.000000000   -0.000000681
      2        1          -0.000000000    0.000000000   -0.004575052
      3        1          -0.003960972   -0.000000000    0.002287866
      4        1           0.003960972    0.000000000    0.002287866
 -------------------------------------------------------------------
 Cartesian Forces:  Max     0.004575052 RMS     0.002287254
 Leave Link  716 at Sat Aug 17 17:54:15 2024, MaxMem=   13107200 cpu:       0.0
 (Enter /programs/64bit/g09/g09-gfortran/bin/l103.exe)

 GradGradGradGradGradGradGradGradGradGradGradGradGradGradGradGradGradGrad
 Berny optimization.
 Internal  Forces:  Max     0.004575052 RMS     0.002994718
 Search for a local minimum.
 Step number   1 out of a maximum of   20
 All quantities printed in internal units (Hartrees-Bohrs-Radians)
 RMS Force = .29947D-02 SwitMx=.10000D-02 MixMth= 1
 Mixed Optimization -- RFO/linear search
 Second derivative matrix not updated -- first step.
 The second derivative matrix:
                          R1        R2        R3        A1        A2
           R1           0.34813
           R2           0.00000   0.34813
           R3           0.00000   0.00000   0.34813
           A1           0.00000   0.00000   0.00000   0.16000
           A2           0.00000   0.00000   0.00000   0.00000   0.16000
           A3           0.00000   0.00000   0.00000   0.00000   0.00000
           D1           0.00000   0.00000   0.00000   0.00000   0.00000
                          A3        D1
           A3           0.16000
           D1           0.00000   0.00235
     Eigenvalues ---    0.00235   0.16000   0.16000   0.34813   0.34813
     Eigenvalues ---    0.348131000.00000
 RFO step:  Lambda=-1.80238724D-04 EMin= 2.34830060D-03
 Linear search not attempted -- first point.
 Iteration  1 RMS(Cart)=  0.00859794 RMS(Int)=  0.00000002
 Iteration  2 RMS(Cart)=  0.00000002 RMS(Int)=  0.00000000
 ClnCor:  largest displacement from symmetrization is 2.44D-11 for atom     1.
 Variable       Old X    -DE/DX   Delta X   Delta X   Delta X     New X
                                 (Linear)    (Quad)   (Total)
    R1        2.05980  -0.00458   0.00000  -0.01314  -0.01314   2.04667
    R2        2.05980  -0.00457   0.00000  -0.01313  -0.01313   2.04667
    R3        2.05980  -0.00457   0.00000  -0.01313  -0.01313   2.04667
    A1        2.09440  -0.00000   0.00000  -0.00000  -0.00000   2.09439
    A2        2.09440  -0.00000   0.00000  -0.00000  -0.00000   2.09439
    A3        2.09440   0.00000   0.00000   0.00001   0.00001   2.09440
    D1        3.14159   0.00000   0.00000   0.00000   0.00000   3.14159
         Item               Value     Threshold  Converged?
 Maximum Force            0.004575     0.000450     NO 
 RMS     Force            0.002995     0.000300     NO 
 Maximum Displacement     0.013138     0.001800     NO 
 RMS     Displacement     0.008598     0.001200     NO 
 Predicted change in Energy=-9.016602D-05
 GradGradGradGradGradGradGradGradGradGradGradGradGradGradGradGradGradGrad

 Leave Link  103 at Sat Aug 17 17:54:15 2024, MaxMem=   13107200 cpu:       0.0
 (Enter /programs/64bit/g09/g09-gfortran/bin/l202.exe)
                          Input orientation:                          
 ---------------------------------------------------------------------
 Center     Atomic      Atomic             Coordinates (Angstroms)
 Number     Number       Type             X           Y           Z
 ---------------------------------------------------------------------
      1          6           0        0.000000   -0.000000   -0.000001
      2          1           0        0.000000    0.000000    1.083048
      3          1           0        0.937951   -0.000000   -0.541523
      4          1           0       -0.937951    0.000000   -0.541523
 ---------------------------------------------------------------------
                    Distance matrix (angstroms):
                    1          2          3          4
     1  C    0.000000
     2  H    1.083049   0.000000
     3  H    1.083050   1.875895   0.000000
     4  H    1.083050   1.875895   1.875902   0.000000
 Stoichiometry    CH3(2)
 Framework group  C2[C2(CH),X(H2)]
 Deg. of freedom     3
 Prev. full point group           C2      NOp   2
 Prev. largest Abelian subgroup   C2      NOp   2
       concise Abelian subgroup   C2      NOp   2
                   Standard orientation:
 ---------------------------------------------------------------------
 Center     Atomic                     Coordinates (Angstroms)
 Number     Number                        X           Y           Z
 ---------------------------------------------------------------------
      1          6                    0.000000    0.000000   -0.000001
      2          1                    0.000000    0.000000    1.083049
      3          1                    0.000000    0.937951   -0.541522
      4          1                    0.000000   -0.937951   -0.541522
 ---------------------------------------------------------------------
 Rotational constants (GHZ):    285.0007196    284.9978455    142.4996413
 Leave Link  202 at Sat Aug 17 17:54:15 2024, MaxMem=   13107200 cpu:       0.0
 (Enter /programs/64bit/g09/g09-gfortran/bin/l301.exe)
 Standard basis: 6-31+G (6D, 7F)
 Ernie: Thresh=  0.10000D-02 Tol=  0.10000D-05 Strict=F.
 There are    11 symmetry adapted basis functions of A   symmetry.
 There are     8 symmetry adapted basis functions of B   symmetry.
 Integral buffers will be    131072 words long.
 Raffenetti 2 integral format.
 Two-electron integral symmetry is turned on.
    19 basis functions,    38 primitive gaussians,    19 cartesian basis functions
     5 alpha electrons        4 beta electrons
       nuclear repulsion energy         9.6410612631 Hartrees.
 IExCor=  402 DFT=T Ex+Corr=B3LYP ExCW=0 ScaHFX=  0.200000
 ScaDFX=  0.800000  0.720000  1.000000  0.810000 ScalE2=  1.000000  1.000000
 IRadAn=      0 IRanWt=     -1 IRanGd=            0 ICorTp=0
 NAtoms=    4 NActive=    4 NUniq=    3 SFac= 1.33D+00 NAtFMM=   80 NAOKFM=F Big=F
 Leave Link  301 at Sat Aug 17 17:54:15 2024, MaxMem=   13107200 cpu:       0.1
 (Enter /programs/64bit/g09/g09-gfortran/bin/l302.exe)
 NPDir=0 NMtPBC=     1 NCelOv=     1 NCel=       1 NClECP=     1 NCelD=      1
         NCelK=      1 NCelE2=     1 NClLst=     1 CellRange=     0.0.
 One-electron integrals computed using PRISM.
 One-electron integral symmetry used in STVInt
 NBasis=    19 RedAO= T  NBF=    11     8
 NBsUse=    19 1.00D-06 NBFU=    11     8
 Precomputing XC quadrature grid using
 IXCGrd= 2 IRadAn=           0 IRanWt=          -1 IRanGd=           0 AccXCQ= 1.00D-10.
 NRdTot=     255 NPtTot=       32404 NUsed=       34254 NTot=       34286
 NSgBfM=    19    19    19    19    19 NAtAll=     4     4.
 Leave Link  302 at Sat Aug 17 17:54:15 2024, MaxMem=   13107200 cpu:       0.2
 (Enter /programs/64bit/g09/g09-gfortran/bin/l303.exe)
 DipDrv:  MaxL=1.
 Leave Link  303 at Sat Aug 17 17:54:15 2024, MaxMem=   13107200 cpu:       0.0
 (Enter /programs/64bit/g09/g09-gfortran/bin/l401.exe)
 Initial guess read from the read-write file.
 B after Tr=     0.000000    0.000000    0.000000
         Rot=    1.000000    0.000000    0.000000    0.000000 Ang=   0.00 deg.
 Guess basis will be translated and rotated to current coordinates.
 Initial guess orbital symmetries:
 Alpha Orbitals:
       Occupied  (A) (A) (A) (B) (B)
       Virtual   (A) (B) (A) (B) (A) (B) (A) (B) (A) (B) (A) (A)
                 (B) (A)
 Beta  Orbitals:
       Occupied  (A) (A) (A) (B)
       Virtual   (B) (A) (B) (A) (B) (B) (A) (A) (B) (A) (B) (A)
                 (A) (B) (A)
 The electronic state of the initial guess is 2-B.
 Initial guess <Sx>= 0.0000 <Sy>= 0.0000 <Sz>= 0.5000 <S**2>= 0.7532 S= 0.5016
 Leave Link  401 at Sat Aug 17 17:54:15 2024, MaxMem=   13107200 cpu:       0.2
 (Enter /programs/64bit/g09/g09-gfortran/bin/l502.exe)
 UHF open shell SCF:
 Requested convergence on RMS density matrix=1.00D-08 within 128 cycles.
 Requested convergence on MAX density matrix=1.00D-06.
 Requested convergence on             energy=1.00D-06.
 No special actions if energy rises.
 Using DIIS extrapolation, IDIIS=  1040.
 Integral symmetry usage will be decided dynamically.
        34205 words used for storage of precomputed grid.
 Keep R1 and R2 ints in memory in canonical form, NReq=948271.
 IEnd=       53992 IEndB=       53992 NGot=    13107200 MDV=    13033993
 LenX=    13033993 LenY=    13033111
 Symmetry not used in FoFDir.
 MinBra= 0 MaxBra= 1 Meth= 1.
 IRaf=       0 NMat=   1 IRICut=       1 DoRegI=T DoRafI=F ISym2E= 0 JSym2E=0.

 Cycle   1  Pass 1  IDiag  1:
 E= -39.8355070705811    
 DIIS: error= 7.46D-04 at cycle   1 NSaved=   1.
 NSaved= 1 IEnMin= 1 EnMin= -39.8355070705811     IErMin= 1 ErrMin= 7.46D-04
 ErrMax= 7.46D-04 EMaxC= 1.00D-01 BMatC= 6.08D-05 BMatP= 6.08D-05
 IDIUse=3 WtCom= 9.93D-01 WtEn= 7.46D-03
 Coeff-Com:  0.100D+01
 Coeff-En:   0.100D+01
 Coeff:      0.100D+01
 Gap=     0.256 Goal=   None    Shift=    0.000
 Gap=     0.340 Goal=   None    Shift=    0.000
 RMSDP=2.98D-04 MaxDP=2.08D-03              OVMax= 2.69D-03

 Cycle   2  Pass 1  IDiag  1:
 E= -39.8355183889473     Delta-E=       -0.000011318366 Rises=F Damp=F
 DIIS: error= 6.61D-04 at cycle   2 NSaved=   2.
 NSaved= 2 IEnMin= 2 EnMin= -39.8355183889473     IErMin= 2 ErrMin= 6.61D-04
 ErrMax= 6.61D-04 EMaxC= 1.00D-01 BMatC= 3.25D-05 BMatP= 6.08D-05
 IDIUse=3 WtCom= 9.93D-01 WtEn= 6.61D-03
 Coeff-Com:  0.408D+00 0.592D+00
 Coeff-En:   0.203D+00 0.797D+00
 Coeff:      0.407D+00 0.593D+00
 Gap=     0.255 Goal=   None    Shift=    0.000
 Gap=     0.340 Goal=   None    Shift=    0.000
 RMSDP=1.51D-04 MaxDP=1.76D-03 DE=-1.13D-05 OVMax= 1.64D-03

 Cycle   3  Pass 1  IDiag  1:
 E= -39.8355276109314     Delta-E=       -0.000009221984 Rises=F Damp=F
 DIIS: error= 1.44D-04 at cycle   3 NSaved=   3.
 NSaved= 3 IEnMin= 3 EnMin= -39.8355276109314     IErMin= 3 ErrMin= 1.44D-04
 ErrMax= 1.44D-04 EMaxC= 1.00D-01 BMatC= 1.85D-06 BMatP= 3.25D-05
 IDIUse=3 WtCom= 9.99D-01 WtEn= 1.44D-03
 Coeff-Com:  0.192D-01 0.200D+00 0.781D+00
 Coeff-En:   0.000D+00 0.000D+00 0.100D+01
 Coeff:      0.192D-01 0.200D+00 0.781D+00
 Gap=     0.255 Goal=   None    Shift=    0.000
 Gap=     0.340 Goal=   None    Shift=    0.000
 RMSDP=2.61D-05 MaxDP=2.27D-04 DE=-9.22D-06 OVMax= 2.41D-04

 Cycle   4  Pass 1  IDiag  1:
 E= -39.8355281274654     Delta-E=       -0.000000516534 Rises=F Damp=F
 DIIS: error= 8.06D-06 at cycle   4 NSaved=   4.
 NSaved= 4 IEnMin= 4 EnMin= -39.8355281274654     IErMin= 4 ErrMin= 8.06D-06
 ErrMax= 8.06D-06 EMaxC= 1.00D-01 BMatC= 4.28D-09 BMatP= 1.85D-06
 IDIUse=1 WtCom= 1.00D+00 WtEn= 0.00D+00
 Coeff-Com: -0.690D-02-0.218D-01-0.996D-01 0.113D+01
 Coeff:     -0.690D-02-0.218D-01-0.996D-01 0.113D+01
 Gap=     0.255 Goal=   None    Shift=    0.000
 Gap=     0.340 Goal=   None    Shift=    0.000
 RMSDP=3.09D-06 MaxDP=4.35D-05 DE=-5.17D-07 OVMax= 4.21D-05

 Cycle   5  Pass 1  IDiag  1:
 E= -39.8355281302810     Delta-E=       -0.000000002816 Rises=F Damp=F
 DIIS: error= 1.23D-06 at cycle   5 NSaved=   5.
 NSaved= 5 IEnMin= 5 EnMin= -39.8355281302810     IErMin= 5 ErrMin= 1.23D-06
 ErrMax= 1.23D-06 EMaxC= 1.00D-01 BMatC= 1.09D-10 BMatP= 4.28D-09
 IDIUse=1 WtCom= 1.00D+00 WtEn= 0.00D+00
 Coeff-Com:  0.137D-02 0.168D-02 0.940D-02-0.277D+00 0.126D+01
 Coeff:      0.137D-02 0.168D-02 0.940D-02-0.277D+00 0.126D+01
 Gap=     0.255 Goal=   None    Shift=    0.000
 Gap=     0.340 Goal=   None    Shift=    0.000
 RMSDP=6.61D-07 MaxDP=7.37D-06 DE=-2.82D-09 OVMax= 8.13D-06

 Cycle   6  Pass 1  IDiag  1:
 E= -39.8355281303786     Delta-E=       -0.000000000098 Rises=F Damp=F
 DIIS: error= 2.44D-07 at cycle   6 NSaved=   6.
 NSaved= 6 IEnMin= 6 EnMin= -39.8355281303786     IErMin= 6 ErrMin= 2.44D-07
 ErrMax= 2.44D-07 EMaxC= 1.00D-01 BMatC= 3.99D-12 BMatP= 1.09D-10
 IDIUse=1 WtCom= 1.00D+00 WtEn= 0.00D+00
 Coeff-Com: -0.338D-03 0.506D-05-0.786D-03 0.765D-01-0.495D+00 0.142D+01
 Coeff:     -0.338D-03 0.506D-05-0.786D-03 0.765D-01-0.495D+00 0.142D+01
 Gap=     0.255 Goal=   None    Shift=    0.000
 Gap=     0.340 Goal=   None    Shift=    0.000
 RMSDP=1.50D-07 MaxDP=9.37D-07 DE=-9.76D-11 OVMax= 1.15D-06

 Cycle   7  Pass 1  IDiag  1:
 E= -39.8355281303821     Delta-E=       -0.000000000003 Rises=F Damp=F
 DIIS: error= 1.63D-08 at cycle   7 NSaved=   7.
 NSaved= 7 IEnMin= 7 EnMin= -39.8355281303821     IErMin= 7 ErrMin= 1.63D-08
 ErrMax= 1.63D-08 EMaxC= 1.00D-01 BMatC= 1.63D-14 BMatP= 3.99D-12
 IDIUse=1 WtCom= 1.00D+00 WtEn= 0.00D+00
 Coeff-Com:  0.334D-04-0.287D-04 0.365D-04-0.766D-02 0.559D-01-0.192D+00
 Coeff-Com:  0.114D+01
 Coeff:      0.334D-04-0.287D-04 0.365D-04-0.766D-02 0.559D-01-0.192D+00
 Coeff:      0.114D+01
 Gap=     0.255 Goal=   None    Shift=    0.000
 Gap=     0.340 Goal=   None    Shift=    0.000
 RMSDP=7.04D-09 MaxDP=3.54D-08 DE=-3.46D-12 OVMax= 5.55D-08

 SCF Done:  E(UB3LYP) =  -39.8355281304     A.U. after    7 cycles
             Convg  =    0.7044D-08             -V/T =  2.0067
 <Sx>= 0.0000 <Sy>= 0.0000 <Sz>= 0.5000 <S**2>= 0.7532 S= 0.5016
 <L.S>=  0.00000000000    
 KE= 3.957228077643D+01 PE=-1.110947031718D+02 EE= 2.204583300194D+01
 Annihilation of the first spin contaminant:
 S**2 before annihilation     0.7532,   after     0.7500
 Leave Link  502 at Sat Aug 17 17:54:17 2024, MaxMem=   13107200 cpu:       1.7
 (Enter /programs/64bit/g09/g09-gfortran/bin/l701.exe)
 Compute integral first derivatives.
 ... and contract with generalized density number  0.
 Leave Link  701 at Sat Aug 17 17:54:17 2024, MaxMem=   13107200 cpu:       0.1
 (Enter /programs/64bit/g09/g09-gfortran/bin/l702.exe)
 L702 exits ... SP integral derivatives will be done elsewhere.
 Leave Link  702 at Sat Aug 17 17:54:17 2024, MaxMem=   13107200 cpu:       0.0
 (Enter /programs/64bit/g09/g09-gfortran/bin/l703.exe)
 Compute integral first derivatives, UseDBF=F ICtDFT=           0.
 Integral derivatives from FoFDir, PRISM(SPDF).
 Calling FoFJK, ICntrl=      2127 FMM=F ISym2X=1 I1Cent= 0 IOpClX= 1 NMat=1 NMatS=1 NMatT=0.
 FoFCou: FMM=F IPFlag=           0 FMFlag=      100000 FMFlg1=         800
         NFxFlg=           0 DoJE=F BraDBF=F KetDBF=F FulRan=T
         Omega=  0.000000  0.000000  1.000000  0.000000  0.000000 ICntrl=    2127 IOpCl=  1
         NMat0=    1 NMatS0=    1 NMatT0=    0 NMatD0=    1 NMtDS0=    0 NMtDT0=    0
         I1Cent=           0 NGrid=           0.
 Petite list used in FoFCou.
 Leave Link  703 at Sat Aug 17 17:54:18 2024, MaxMem=   13107200 cpu:       0.5
 (Enter /programs/64bit/g09/g09-gfortran/bin/l716.exe)
 Dipole        = 3.15544362D-30 1.57895919D-12 3.28604085D-07
 ***** Axes restored to original set *****
 -------------------------------------------------------------------
 Center     Atomic                   Forces (Hartrees/Bohr)
 Number     Number              X              Y              Z
 -------------------------------------------------------------------
      1        6           0.000000000   -0.000000000   -0.000001035
      2        1           0.000000000    0.000000000    0.000241153
      3        1           0.000208731   -0.000000000   -0.000120059
      4        1          -0.000208731    0.000000000   -0.000120059
 -------------------------------------------------------------------
 Cartesian Forces:  Max     0.000241153 RMS     0.000120458
 Leave Link  716 at Sat Aug 17 17:54:18 2024, MaxMem=   13107200 cpu:       0.0
 (Enter /programs/64bit/g09/g09-gfortran/bin/l103.exe)

 GradGradGradGradGradGradGradGradGradGradGradGradGradGradGradGradGradGrad
 Berny optimization.
 Using GEDIIS/GDIIS optimizer.
 Internal  Forces:  Max     0.000241153 RMS     0.000157716
 Search for a local minimum.
 Step number   2 out of a maximum of   20
 All quantities printed in internal units (Hartrees-Bohrs-Radians)
 RMS Force = .15772D-03 SwitMx=.10000D-02 MixMth= 2
 Mixed Optimization -- En-DIIS/RFO-DIIS
 Update second derivatives using D2CorX and points    1    2
 DE= -8.60D-05 DEPred=-9.02D-05 R= 9.54D-01
 SS=  1.41D+00  RLast= 2.27D-02 DXNew= 5.0454D-01 6.8244D-02
 Trust test= 9.54D-01 RLast= 2.27D-02 DXMaxT set to 3.00D-01
 The second derivative matrix:
                          R1        R2        R3        A1        A2
           R1           0.35431
           R2           0.00618   0.35429
           R3           0.00618   0.00617   0.35429
           A1          -0.00001  -0.00001  -0.00001   0.16000
           A2          -0.00001  -0.00001  -0.00001  -0.00000   0.16000
           A3           0.00001   0.00001   0.00001   0.00000   0.00000
           D1          -0.00000  -0.00000  -0.00000  -0.00000  -0.00000
                          A3        D1
           A3           0.16000
           D1           0.00000   0.00235
 Use linear search instead of GDIIS.
     Eigenvalues ---    0.00235   0.16000   0.16000   0.34813   0.34813
     Eigenvalues ---    0.366651000.00000
 RFO step:  Lambda= 0.00000000D+00 EMin= 2.34830060D-03
 Quartic linear search produced a step of -0.04909.
 Iteration  1 RMS(Cart)=  0.00042209 RMS(Int)=  0.00000000
 Iteration  2 RMS(Cart)=  0.00000000 RMS(Int)=  0.00000000
 ClnCor:  largest displacement from symmetrization is 4.98D-11 for atom     4.
 Variable       Old X    -DE/DX   Delta X   Delta X   Delta X     New X
                                 (Linear)    (Quad)   (Total)
    R1        2.04667   0.00024   0.00064   0.00000   0.00065   2.04731
    R2        2.04667   0.00024   0.00064  -0.00000   0.00064   2.04731
    R3        2.04667   0.00024   0.00064  -0.00000   0.00064   2.04731
    A1        2.09439  -0.00000   0.00000  -0.00000  -0.00000   2.09439
    A2        2.09439  -0.00000   0.00000  -0.00000  -0.00000   2.09439
    A3        2.09440   0.00000  -0.00000   0.00000   0.00000   2.09441
    D1        3.14159  -0.00000   0.00000  -0.00000   0.00000   3.14159
         Item               Value     Threshold  Converged?
 Maximum Force            0.000241     0.000450     YES
 RMS     Force            0.000158     0.000300     YES
 Maximum Displacement     0.000644     0.001800     YES
 RMS     Displacement     0.000422     0.001200     YES
 Predicted change in Energy=-2.373650D-07
 Optimization completed.
    -- Stationary point found.
                           ----------------------------
                           !   Optimized Parameters   !
                           ! (Angstroms and Degrees)  !
 --------------------------                            --------------------------
 ! Name  Definition              Value          Derivative Info.                !
 --------------------------------------------------------------------------------
 ! R1    R(1,2)                  1.083          -DE/DX =    0.0002              !
 ! R2    R(1,3)                  1.0831         -DE/DX =    0.0002              !
 ! R3    R(1,4)                  1.0831         -DE/DX =    0.0002              !
 ! A1    A(2,1,3)              119.9998         -DE/DX =    0.0                 !
 ! A2    A(2,1,4)              119.9998         -DE/DX =    0.0                 !
 ! A3    A(3,1,4)              120.0004         -DE/DX =    0.0                 !
 ! D1    D(2,1,4,3)            180.0            -DE/DX =    0.0                 !
 --------------------------------------------------------------------------------
 GradGradGradGradGradGradGradGradGradGradGradGradGradGradGradGradGradGrad

 Largest change from initial coordinates is atom    2       0.007 Angstoms.
 Leave Link  103 at Sat Aug 17 17:54:18 2024, MaxMem=   13107200 cpu:       0.0
 (Enter /programs/64bit/g09/g09-gfortran/bin/l202.exe)
                          Input orientation:                          
 ---------------------------------------------------------------------
 Center     Atomic      Atomic             Coordinates (Angstroms)
 Number     Number       Type             X           Y           Z
 ---------------------------------------------------------------------
      1          6           0        0.000000    0.000000   -0.000001
      2          1           0        0.000000    0.000000    1.083048
      3          1           0        0.937951    0.000000   -0.541523
      4          1           0       -0.937951    0.000000   -0.541523
 ---------------------------------------------------------------------
                    Distance matrix (angstroms):
                    1          2          3          4
     1  C    0.000000
     2  H    1.083049   0.000000
     3  H    1.083050   1.875895   0.000000
     4  H    1.083050   1.875895   1.875902   0.000000
 Stoichiometry    CH3(2)
 Framework group  C2[C2(CH),X(H2)]
 Deg. of freedom     3
 Prev. full point group           C2      NOp   2
 Prev. largest Abelian subgroup   C2      NOp   2
       concise Abelian subgroup   C2      NOp   2
                   Standard orientation:
 ---------------------------------------------------------------------
 Center     Atomic                     Coordinates (Angstroms)
 Number     Number                        X           Y           Z
 ---------------------------------------------------------------------
      1          6                    0.000000    0.000000   -0.000001
      2          1                    0.000000   -0.000000    1.083049
      3          1                    0.000000    0.937951   -0.541522
      4          1                    0.000000   -0.937951   -0.541523
 ---------------------------------------------------------------------
 TstSym:  Max error for IOp=  2 IAt=    2 Err= 1.24D-06
 TstSym:  IOp=  3 I=    5 IP=    3 Err= 1.24D-06
  CI=  0.000000000000D+00  0.000000000000D+00  0.000000000000D+00
   T=  7.594695852586D-23  6.201539789165D-07  2.046665158853D+00
 CIP=  0.000000000000D+00  1.772471191045D+00 -1.023328445055D+00
 Unable to use previous symmetry information.  Redetermining point group.
 No symmetry information on checkpoint file.  Reassigning symmetry.
 Symm:  InNGrp=C3V  InAxis=0.
 Stoichiometry    CH3(2)
 Framework group  C1[X(CH3)]
 Deg. of freedom     6
 Full point group                 C1      NOp   1
 Omega: Change in point group or standard orientation.

 Old FWG=C02  [C2(C1H1),X(H2)]
 New FWG=C01  [X(C1H3)]
 Largest Abelian subgroup         C1      NOp   1
 Largest concise Abelian subgroup C1      NOp   1
                         Standard orientation:                         
 ---------------------------------------------------------------------
 Center     Atomic      Atomic             Coordinates (Angstroms)
 Number     Number       Type             X           Y           Z
 ---------------------------------------------------------------------
      1          6           0        0.000000    0.000001    0.000000
      2          1           0       -0.000000   -1.083049   -0.000000
      3          1           0       -0.937951    0.541523    0.000000
      4          1           0        0.937951    0.541522   -0.000000
 ---------------------------------------------------------------------
 Rotational constants (GHZ):    285.0007196    284.9978455    142.4996413
 Leave Link  202 at Sat Aug 17 17:54:18 2024, MaxMem=   13107200 cpu:       0.0
 (Enter /programs/64bit/g09/g09-gfortran/bin/l601.exe)
 Copying SCF densities to generalized density rwf, IOpCl= 1 IROHF=0.

 **********************************************************************

            Population analysis using the SCF density.

 **********************************************************************

 Orbital symmetries:
 Alpha Orbitals:
       Occupied  (A) (A) (A) (A) (A)
       Virtual   (A) (A) (A) (A) (A) (A) (A) (A) (A) (A) (A) (A)
                 (A) (A)
 Beta  Orbitals:
       Occupied  (A) (A) (A) (A)
       Virtual   (A) (A) (A) (A) (A) (A) (A) (A) (A) (A) (A) (A)
                 (A) (A) (A)
 The electronic state is 2-A.
 Alpha  occ. eigenvalues --  -10.19818  -0.69341  -0.42785  -0.42784  -0.23525
 Alpha virt. eigenvalues --    0.01980   0.05874   0.05874   0.07408   0.19033
 Alpha virt. eigenvalues --    0.19330   0.19330   0.64416   0.64416   0.64870
 Alpha virt. eigenvalues --    0.85866   1.00011   1.02145   1.02146
  Beta  occ. eigenvalues --  -10.18413  -0.65203  -0.41785  -0.41785
  Beta virt. eigenvalues --   -0.07776   0.02568   0.05870   0.05870   0.09844
  Beta virt. eigenvalues --    0.19761   0.19761   0.20749   0.65489   0.65489
  Beta virt. eigenvalues --    0.71645   0.88188   1.01347   1.02175   1.02175
     Alpha Molecular Orbital Coefficients:
                           1         2         3         4         5
                           O         O         O         O         O
     Eigenvalues --   -10.19818  -0.69341  -0.42785  -0.42784  -0.23525
   1 1   C  1S          0.99497  -0.20509   0.00000   0.00000   0.00000
   2        2S          0.03493   0.40952   0.00000  -0.00000   0.00000
   3        2PX         0.00000   0.00000   0.00000   0.00000   0.59826
   4        2PY         0.00000   0.00000   0.46512   0.00000  -0.00000
   5        2PZ         0.00000   0.00000   0.00000   0.46512   0.00000
   6        3S         -0.02215   0.39660   0.00000   0.00000   0.00000
[...]
              Anisotropic Spin Dipole Couplings in Principal Axis System
 ---------------------------------------------------------------------------------

       Atom             a.u.   MegaHertz   Gauss  10(-4) cm-1        Axes

              Baa    -0.5238   -70.290   -25.081   -23.446  0.0000  1.0000 -0.0000
     1 C(13)  Bbb    -0.5238   -70.290   -25.081   -23.446  1.0000 -0.0000  0.0000
              Bcc     1.0476   140.580    50.162    46.892  0.0000  0.0000  1.0000
 
              Baa    -0.0706   -37.694   -13.450   -12.573  1.0000 -0.0000  0.0000
     2 H(1)   Bbb    -0.0088    -4.717    -1.683    -1.574  0.0000  0.0000  1.0000
              Bcc     0.0795    42.411    15.133    14.147  0.0000  1.0000 -0.0000
 
              Baa    -0.0706   -37.694   -13.450   -12.573 -0.5000  0.8660  0.0000
     3 H(1)   Bbb    -0.0088    -4.718    -1.683    -1.574  0.0000  0.0000  1.0000
              Bcc     0.0795    42.411    15.133    14.147  0.8660  0.5000 -0.0000
 
              Baa    -0.0706   -37.694   -13.450   -12.573  0.5000  0.8660  0.0000
     4 H(1)   Bbb    -0.0088    -4.718    -1.683    -1.574  0.0000  0.0000  1.0000
              Bcc     0.0795    42.411    15.133    14.147  0.8660 -0.5000  0.0000
 

 ---------------------------------------------------------------------------------

 No NMR shielding tensors so no spin-rotation constants.
 Leave Link  601 at Sat Aug 17 17:54:27 2024, MaxMem=   13107200 cpu:       0.2
 (Enter /programs/64bit/g09/g09-gfortran/bin/l701.exe)
 Compute integral second derivatives.
 ... and contract with generalized density number  0.
 Leave Link  701 at Sat Aug 17 17:54:27 2024, MaxMem=   13107200 cpu:       0.1
 (Enter /programs/64bit/g09/g09-gfortran/bin/l702.exe)
 L702 exits ... SP integral derivatives will be done elsewhere.
 Leave Link  702 at Sat Aug 17 17:54:27 2024, MaxMem=   13107200 cpu:       0.0
 (Enter /programs/64bit/g09/g09-gfortran/bin/l703.exe)
 Compute integral second derivatives, UseDBF=F ICtDFT=           0.
 Integral derivatives from FoFDir, PRISM(SPDF).
 Calling FoFJK, ICntrl=    100127 FMM=F ISym2X=1 I1Cent= 0 IOpClX= 1 NMat=1 NMatS=1 NMatT=0.
 FoFCou: FMM=F IPFlag=           0 FMFlag=      100000 FMFlg1=         800
         NFxFlg=           0 DoJE=F BraDBF=F KetDBF=F FulRan=T
         Omega=  0.000000  0.000000  1.000000  0.000000  0.000000 ICntrl=  100127 IOpCl=  1
         NMat0=    1 NMatS0=    1 NMatT0=    0 NMatD0=    1 NMtDS0=    0 NMtDT0=    0
         I1Cent=           0 NGrid=           0.
 Petite list used in FoFCou.
 Leave Link  703 at Sat Aug 17 17:54:29 2024, MaxMem=   13107200 cpu:       1.9
 (Enter /programs/64bit/g09/g09-gfortran/bin/l716.exe)
 Dipole        =-1.26204602D-12-3.25043625D-07-4.59676421D-33
 Polarizability= 1.22757805D+01 7.51450812D-10 1.22759522D+01
                 1.06471648D-10 1.12323233D-10 1.08068465D+01
 Full mass-weighted force constant matrix:
 Low frequencies ---  -66.9298  -54.7459  -49.9836    0.0013    0.0014    0.0014
 Low frequencies ---  587.8202 1430.3543 1430.4184
 Diagonal vibrational polarizability:
        0.1159013       0.1159250      10.1282073
 Harmonic frequencies (cm**-1), IR intensities (KM/Mole), Raman scattering
 activities (A**4/AMU), depolarization ratios for plane and unpolarized
 incident light, reduced masses (AMU), force constants (mDyne/A),
 and normal coordinates:
                     1                      2                      3
                    A"                     A'                     A'
 Frequencies --   587.8195              1430.3543              1430.4184
 Red. masses --     1.2356                 1.1033                 1.1033
 Frc consts  --     0.2515                 1.3299                 1.3300
 IR Inten    --   130.0432                 7.4195                 7.4221
  Atom  AN      X      Y      Z        X      Y      Z        X      Y      Z
     1   6    -0.00   0.00   0.14    -0.09  -0.00  -0.00    -0.00   0.09  -0.00
     2   1     0.00  -0.00  -0.57     0.81  -0.00   0.00     0.00   0.07   0.00
     3   1     0.00  -0.00  -0.57     0.15  -0.38   0.00     0.38  -0.59   0.00
     4   1    -0.00   0.00  -0.57     0.15   0.38   0.00    -0.38  -0.59   0.00
                     4                      5                      6
                    A'                     A'                     A'
 Frequencies --  3131.6068              3319.6166              3319.6651
 Red. masses --     1.0078                 1.1171                 1.1171
 Frc consts  --     5.8233                 7.2531                 7.2533
 IR Inten    --     0.0000                 7.4970                 7.4966
  Atom  AN      X      Y      Z        X      Y      Z        X      Y      Z
     1   6     0.00  -0.00  -0.00     0.10  -0.00  -0.00     0.00   0.10   0.00
     2   1    -0.00  -0.58   0.00     0.02   0.00   0.00     0.00  -0.81  -0.00
     3   1     0.50   0.29   0.00    -0.60  -0.36   0.00    -0.36  -0.19  -0.00
     4   1    -0.50   0.29   0.00    -0.60   0.36   0.00     0.36  -0.19  -0.00

 -------------------
 - Thermochemistry -
 -------------------
 Temperature   298.150 Kelvin.  Pressure   1.00000 Atm.
 Atom     1 has atomic number  6 and mass  12.00000
 Atom     2 has atomic number  1 and mass   1.00783
 Atom     3 has atomic number  1 and mass   1.00783
 Atom     4 has atomic number  1 and mass   1.00783
 Molecular mass:    15.02348 amu.
 Principal axes and moments of inertia in atomic units:
                           1         2         3
     Eigenvalues --     6.33241   6.33247  12.66488
           X            1.00000   0.00000   0.00000
           Y           -0.00000   1.00000   0.00000
           Z            0.00000  -0.00000   1.00000
 This molecule is an asymmetric top.
 Rotational symmetry number  1.
 Rotational temperatures (Kelvin)     13.67786    13.67772     6.83890
 Rotational constants (GHZ):         285.00072   284.99785   142.49964
 Zero-point vibrational energy      79070.1 (Joules/Mol)
                                   18.89820 (Kcal/Mol)
 Warning -- explicit consideration of   1 degrees of freedom as
           vibrations may cause significant error
 Vibrational temperatures:    845.74  2057.96  2058.05  4505.68  4776.18
          (Kelvin)           4776.25
 
 Zero-point correction=                           0.030116 (Hartree/Particle)
 Thermal correction to Energy=                    0.033129
 Thermal correction to Enthalpy=                  0.034073
 Thermal correction to Gibbs Free Energy=         0.010344
 Sum of electronic and zero-point Energies=            -39.805412
 Sum of electronic and thermal Energies=               -39.802399
 Sum of electronic and thermal Enthalpies=             -39.801455
 Sum of electronic and thermal Free Energies=          -39.825184
 
                     E (Thermal)             CV                S
                      KCal/Mol        Cal/Mol-Kelvin    Cal/Mol-Kelvin
 Total                   20.789              7.210             49.941
 Electronic               0.000              0.000              1.377
 Translational            0.889              2.981             34.068
 Rotational               0.889              2.981             13.993
 Vibrational             19.011              1.249              0.503
 Vibration     1          0.945              1.058              0.471
                       Q            Log10(Q)             Ln(Q)
 Total Bot       0.174587D-04         -4.757988        -10.955673
 Total V=0       0.124299D+10          9.094469         20.940789
 Vib (Bot)       0.149504D-13        -13.825347        -31.834039
 Vib (Bot)    1  0.257200D+00         -0.589729         -1.357901
 Vib (V=0)       0.106441D+01          0.027110          0.062424
 Vib (V=0)    1  0.106227D+01          0.026236          0.060412
 Electronic      0.200000D+01          0.301030          0.693147
 Translational   0.228882D+07          6.359611         14.643545
 Rotational      0.255105D+03          2.406718          5.541673
 
                                      methyl with imposed symmetry and hf/6-31+G 
 basis function
                                                             IR Spectrum
 
      3      3                                                                1                                                      
      3      1                                                                4                               5                      
      2      3                                                                3                               8                      
      0      2                                                                0                               8                      
 
      X                                                                       X                               X                      
      X                                                                       X                               X                      
                                                                                                              X                      
                                                                                                              X                      
                                                                                                              X                      
                                                                                                              X                      
                                                                                                              X                      
                                                                                                              X                      
                                                                                                              X                      
                                                                                                              X                      
                                                                                                              X                      
                                                                                                              X                      
                                                                                                              X                      
                                                                                                              X                      
                                                                                                              X                      
                                                                                                              X                      
                                                                                                              X                      
                                                                                                              X                      
                                                                                                              X                      
                                                                                                              X                      
 
 ***** Axes restored to original set *****
 -------------------------------------------------------------------
 Center     Atomic                   Forces (Hartrees/Bohr)
 Number     Number              X              Y              Z
 -------------------------------------------------------------------
      1        6           0.000000000    0.000000000   -0.000001036
      2        1           0.000000000   -0.000000000    0.000241153
      3        1           0.000208731    0.000000000   -0.000120059
      4        1          -0.000208731   -0.000000000   -0.000120059
 -------------------------------------------------------------------
 Cartesian Forces:  Max     0.000241153 RMS     0.000120458
 Force constants in Cartesian coordinates: 
                1             2             3             4             5 
      1  0.622224D+00
      2  0.000000D+00  0.315789D-01
      3  0.000000D+00  0.000000D+00  0.622235D+00
      4 -0.547488D-01  0.000000D+00  0.000000D+00  0.468778D-01
      5  0.000000D+00 -0.105521D-01  0.000000D+00  0.000000D+00  0.346246D-02
      6  0.000000D+00  0.000000D+00 -0.360077D+00  0.000000D+00  0.000000D+00
      7 -0.283738D+00  0.000000D+00  0.132201D+00  0.393549D-02  0.000000D+00
      8  0.000000D+00 -0.105134D-01  0.000000D+00  0.000000D+00  0.354482D-02
      9  0.132202D+00  0.000000D+00 -0.131079D+00  0.248602D-01  0.000000D+00
     10 -0.283738D+00  0.000000D+00 -0.132201D+00  0.393549D-02  0.000000D+00
     11  0.000000D+00 -0.105134D-01  0.000000D+00  0.000000D+00  0.354482D-02
     12 -0.132202D+00  0.000000D+00 -0.131079D+00 -0.248602D-01  0.000000D+00
                6             7             8             9            10 
      6  0.375152D+00
      7 -0.499162D-02  0.293076D+00
      8  0.000000D+00  0.000000D+00  0.339886D-02
      9 -0.753737D-02 -0.142136D+00  0.000000D+00  0.128944D+00
     10  0.499162D-02 -0.132739D-01  0.000000D+00 -0.149264D-01  0.293076D+00
     11  0.000000D+00  0.000000D+00  0.356971D-02  0.000000D+00  0.000000D+00
     12 -0.753737D-02  0.149264D-01  0.000000D+00  0.967230D-02  0.142136D+00
               11            12 
     11  0.339886D-02
     12  0.000000D+00  0.128944D+00
 Force constants in internal coordinates: 
                1             2             3             4             5 
      1  0.375152D+00
      2 -0.554219D-03  0.375136D+00
      3 -0.554219D-03 -0.553055D-03  0.375136D+00
      4  0.615595D-02  0.615353D-02 -0.123104D-01  0.656213D-01
      5  0.615595D-02 -0.123104D-01  0.615353D-02 -0.328084D-01  0.656213D-01
      6 -0.123119D-01  0.615690D-02  0.615690D-02 -0.328129D-01 -0.328129D-01
      7  0.000000D+00  0.000000D+00  0.000000D+00  0.000000D+00  0.000000D+00
                6             7 
      6  0.656258D-01
      7  0.000000D+00  0.111465D-01
 Leave Link  716 at Sat Aug 17 17:54:29 2024, MaxMem=   13107200 cpu:       0.0
 (Enter /programs/64bit/g09/g09-gfortran/bin/l103.exe)

 GradGradGradGradGradGradGradGradGradGradGradGradGradGradGradGradGradGrad
 Berny optimization.
 Internal  Forces:  Max     0.000241153 RMS     0.000157716
 Search for a local minimum.
 Step number   1 out of a maximum of    2
 All quantities printed in internal units (Hartrees-Bohrs-Radians)
 Second derivative matrix not updated -- analytic derivatives used.
 The second derivative matrix:
                          R1        R2        R3        A1        A2
           R1           0.37515
           R2          -0.00055   0.37514
           R3          -0.00055  -0.00055   0.37514
           A1           0.00616   0.00615  -0.01231   0.06562
           A2           0.00616  -0.01231   0.00615  -0.03281   0.06562
           A3          -0.01231   0.00616   0.00616  -0.03281  -0.03281
           D1          -0.00000  -0.00000  -0.00000   0.00000  -0.00000
                          A3        D1
           A3           0.06563
           D1          -0.00000   0.01115
     Eigenvalues ---    0.01115   0.09721   0.09721   0.37403   0.37691
     Eigenvalues ---    0.376931000.00000
 Angle between quadratic step and forces=   0.26 degrees.
 Linear search not attempted -- first point.
 Iteration  1 RMS(Cart)=  0.00042167 RMS(Int)=  0.00000000
 Iteration  2 RMS(Cart)=  0.00000000 RMS(Int)=  0.00000000
 ClnCor:  largest displacement from symmetrization is 7.70D-11 for atom     1.
 Variable       Old X    -DE/DX   Delta X   Delta X   Delta X     New X
                                 (Linear)    (Quad)   (Total)
    R1        2.04667   0.00024   0.00000   0.00064   0.00064   2.04731
    R2        2.04667   0.00024   0.00000   0.00064   0.00064   2.04731
    R3        2.04667   0.00024   0.00000   0.00064   0.00064   2.04731
    A1        2.09439  -0.00000   0.00000  -0.00000  -0.00000   2.09439
    A2        2.09439  -0.00000   0.00000  -0.00000  -0.00000   2.09439
    A3        2.09440   0.00000   0.00000   0.00001   0.00001   2.09441
    D1        3.14159  -0.00000   0.00000   0.00000   0.00000   3.14159
         Item               Value     Threshold  Converged?
 Maximum Force            0.000241     0.000450     YES
 RMS     Force            0.000158     0.000300     YES
 Maximum Displacement     0.000642     0.001800     YES
 RMS     Displacement     0.000422     0.001200     YES
 Predicted change in Energy=-2.327618D-07
 Optimization completed.
    -- Stationary point found.
                           ----------------------------
                           !   Optimized Parameters   !
                           ! (Angstroms and Degrees)  !
 --------------------------                            --------------------------
 ! Name  Definition              Value          Derivative Info.                !
 --------------------------------------------------------------------------------
 ! R1    R(1,2)                  1.083          -DE/DX =    0.0002              !
 ! R2    R(1,3)                  1.0831         -DE/DX =    0.0002              !
 ! R3    R(1,4)                  1.0831         -DE/DX =    0.0002              !
 ! A1    A(2,1,3)              119.9998         -DE/DX =    0.0                 !
 ! A2    A(2,1,4)              119.9998         -DE/DX =    0.0                 !
 ! A3    A(3,1,4)              120.0004         -DE/DX =    0.0                 !
 ! D1    D(2,1,4,3)            180.0            -DE/DX =    0.0                 !
 --------------------------------------------------------------------------------
 GradGradGradGradGradGradGradGradGradGradGradGradGradGradGradGradGradGrad

 Leave Link  103 at Sat Aug 17 17:54:29 2024, MaxMem=   13107200 cpu:       0.0
 (Enter /programs/64bit/g09/g09-gfortran/bin/l9999.exe)
 1\1\GINC-MOLMOD\Freq\UB3LYP\6-31+G\C1H3(2)\OSPITE\17-Aug-2024\0\\#P Ge
 om=AllCheck Guess=TCheck SCRF=Check GenChk UB3LYP/6-31+G Freq\\methyl 
 with imposed symmetry and hf/6-31+G basis function\\0,2\C,0.,0.,-0.000
 0014277\H,0.,0.,1.0830477625\H,0.9379511931,0.,-0.5415231674\H,-0.9379
 511931,0.,-0.5415231674\\Version=EM64L-G09RevA.02\State=2-A"\HF=-39.83
 55281\S2=0.753154\S2-1=0.\S2A=0.750006\RMSD=2.288e-10\RMSF=1.205e-04\Z
 eroPoint=0.0301162\Thermal=0.0331287\Dipole=0.,0.,0.0000003\DipoleDeri
 v=0.0064011,0.,0.,0.,-0.5675796,0.,0.,0.,0.00638,0.0695263,0.,0.,0.,0.
 1893084,0.,0.,0.,-0.0737909,-0.0379637,0.,0.0620573,0.,0.1891356,0.,0.
 0620512,0.,0.0337055,-0.0379637,0.,-0.0620573,0.,0.1891356,0.,-0.06205
 12,0.,0.0337055\Polar=12.2757805,0.,10.8068465,0.,0.,12.2759522\PG=CS 
 [SG(C1H3)]\NImag=0\\0.62222420,0.,0.03157888,0.,0.,0.62223493,-0.05474
 879,0.,0.,0.04687780,0.,-0.01055209,0.,0.,0.00346246,0.,0.,-0.36007732
 ,0.,0.,0.37515206,-0.28373770,0.,0.13220122,0.00393549,0.,-0.00499162,
 0.29307612,0.,-0.01051339,0.,0.,0.00354482,0.,0.,0.00339886,0.13220217
 ,0.,-0.13107881,0.02486019,0.,-0.00753737,-0.14213598,0.,0.12894388,-0
 .28373770,0.,-0.13220122,0.00393549,0.,0.00499162,-0.01327391,0.,-0.01
 492638,0.29307612,0.,-0.01051339,0.,0.,0.00354482,0.,0.,0.00356971,0.,
 0.,0.00339886,-0.13220217,0.,-0.13107881,-0.02486019,0.,-0.00753737,0.
 01492638,0.,0.00967230,0.14213598,0.,0.12894388\\0.,0.,0.00000104,0.,0
 .,-0.00024115,-0.00020873,0.,0.00012006,0.00020873,0.,0.00012006\\\@


 ADVERTISING--  HE WHO HAS SOMETHING TO SELL AND GOES AND WHISPERS
                IN A WELL, IS NOT SO APT TO GET THE DOLLARS AS HE
                WHO CLIMBS A TREE AND HOLLERS.

                   -- FROM THE BACK OF A SUGAR PACKET
 Job cpu time:  0 days  0 hours  0 minutes 10.5 seconds.
 File lengths (MBytes):  RWF=      5 Int=      0 D2E=      0 Chk=      1 Scr=      1
 Normal termination of Gaussian 09 at Sat Aug 17 17:54:29 2024.
