 Entering Gaussian System, Link 0=/programs/64bit/g09/g09-gfortran/bin/g09
 Input=ch3_++.com
 Output=ch3_++.log
 Initial command:
 /programs/64bit/g09/g09-gfortran/bin/l1.exe /home/ospite/Desktop/MMfP/Project6/CH3/g09/DFT/Gau-8621.inp -scrdir=/home/ospite/Desktop/MMfP/Project6/CH3/g09/DFT/
 Entering Link 1 = /programs/64bit/g09/g09-gfortran/bin/l1.exe PID=      8623.
  
 Copyright (c) 1988,1990,1992,1993,1995,1998,2003,2009, Gaussian, Inc.
                  All Rights Reserved.
  
 This is part of the Gaussian(R) 09 program.  It is based on
 the Gaussian(R) 03 system (copyright 2003, Gaussian, Inc.),
 the Gaussian(R) 98 system (copyright 1998, Gaussian, Inc.),
 the Gaussian(R) 94 system (copyright 1995, Gaussian, Inc.),
 the Gaussian 92(TM) system (copyright 1992, Gaussian, Inc.),
 the Gaussian 90(TM) system (copyright 1990, Gaussian, Inc.),
 the Gaussian 88(TM) system (copyright 1988, Gaussian, Inc.),
 the Gaussian 86(TM) system (copyright 1986, Carnegie Mellon
 University), and the Gaussian 82(TM) system (copyright 1983,
 Carnegie Mellon University). Gaussian is a federally registered
 trademark of Gaussian, Inc.
  
 This software contains proprietary and confidential information,
 including trade secrets, belonging to Gaussian, Inc.
  
 This software is provided under written license and may be
 used, copied, transmitted, or stored only in accord with that
 written license.
  
 The following legend is applicable only to US Government
 contracts under FAR:
  
                    RESTRICTED RIGHTS LEGEND
  
 Use, reproduction and disclosure by the US Government is
 subject to restrictions as set forth in subparagraphs (a)
 and (c) of the Commercial Computer Software - Restricted
 Rights clause in FAR 52.227-19.
  
 Gaussian, Inc.
 340 Quinnipiac St., Bldg. 40, Wallingford CT 06492
  
  
 ---------------------------------------------------------------
 Warning -- This program may not be used in any manner that
 competes with the business of Gaussian, Inc. or will provide
 assistance to any competitor of Gaussian, Inc.  The licensee
 of this program is prohibited from giving any competitor of
 Gaussian, Inc. access to this program.  By using this program,
 the user acknowledges that Gaussian, Inc. is engaged in the
 business of creating and licensing software in the field of
 computational chemistry and represents and warrants to the
 licensee that it is not a competitor of Gaussian, Inc. and that
 it will not use this program in any manner prohibited above.
 ---------------------------------------------------------------
  

 Cite this work as:
 Gaussian 09, Revision A.02,
 M. J. Frisch, G. W. Trucks, H. B. Schlegel, G. E. Scuseria, 
 M. A. Robb, J. R. Cheeseman, G. Scalmani, V. Barone, B. Mennucci, 
 G. A. Petersson, H. Nakatsuji, M. Caricato, X. Li, H. P. Hratchian, 
 A. F. Izmaylov, J. Bloino, G. Zheng, J. L. Sonnenberg, M. Hada, 
 M. Ehara, K. Toyota, R. Fukuda, J. Hasegawa, M. Ishida, T. Nakajima, 
 Y. Honda, O. Kitao, H. Nakai, T. Vreven, J. A. Montgomery, Jr., 
 J. E. Peralta, F. Ogliaro, M. Bearpark, J. J. Heyd, E. Brothers, 
 K. N. Kudin, V. N. Staroverov, R. Kobayashi, J. Normand, 
 K. Raghavachari, A. Rendell, J. C. Burant, S. S. Iyengar, J. Tomasi, 
 M. Cossi, N. Rega, J. M. Millam, M. Klene, J. E. Knox, J. B. Cross, 
 V. Bakken, C. Adamo, J. Jaramillo, R. Gomperts, R. E. Stratmann, 
 O. Yazyev, A. J. Austin, R. Cammi, C. Pomelli, J. W. Ochterski, 
 R. L. Martin, K. Morokuma, V. G. Zakrzewski, G. A. Voth, 
 P. Salvador, J. J. Dannenberg, S. Dapprich, A. D. Daniels, 
 O. Farkas, J. B. Foresman, J. V. Ortiz, J. Cioslowski, 
 and D. J. Fox, Gaussian, Inc., Wallingford CT, 2009.
 
 ******************************************
 Gaussian 09:  EM64L-G09RevA.02 11-Jun-2009
                17-Aug-2024 
 ******************************************
 %mem=100MB
 -------------------------------------------------------------------
 #p b3lyp/6-31++G opt freq symmetry=(follow,pg=C3v) pop=full gfinput
 -------------------------------------------------------------------
 1/14=-1,18=20,19=15,26=3,38=1/1,3;
 2/9=110,12=2,17=6,18=5,19=2314885530821997379,40=1/2;
 3/5=1,6=6,7=1010,11=2,16=1,24=10,25=1,30=1,71=1,74=-5/1,2,3;
 4//1;
 5/5=2,38=5/2;
 6/7=3,28=1/1;
 7//1,2,3,16;
 1/14=-1,18=20,19=15/3(2);
 2/9=110,15=5,19=2314885530821997379/2;
 99//99;
 2/9=110,15=5,19=2314885530821997379/2;
 3/5=1,6=6,7=1010,11=2,16=1,25=1,30=1,71=1,74=-5/1,2,3;
 4/5=5,16=3/1;
 5/5=2,38=5/2;
 7//1,2,3,16;
 1/14=-1,18=20,19=15/3(-5);
 2/9=110,15=5,19=2314885530821997379/2;
 6/7=3,19=2,28=1/1;
 99/9=1/99;
 Leave Link    1 at Sat Aug 17 17:53:16 2024, MaxMem=   13107200 cpu:       0.1
 (Enter /programs/64bit/g09/g09-gfortran/bin/l101.exe)
 ----------------------------------------------------------
 methyl with imposed symmetry and hf/6-31++G basis function
 ----------------------------------------------------------
 Symbolic Z-matrix:
 Charge =  0 Multiplicity = 2
 C1
 H2                   1    d
 H3                   1    d        2    a
 H4                   1    d        2    -a       3    t        0
       Variables:
  d                     1.09                     
  a                   120.                       
  t                     0.                       
 
 NAtoms=      4 NQM=      4 NQMF=      0 NMic=      0 NMicF=      0 NTot=      4.
                    Isotopes and Nuclear Properties:
 (Nuclear quadrupole moments (NQMom) in fm**2, nuclear magnetic moments (NMagM)
  in nuclear magnetons)

  Atom         1           2           3           4
 IAtWgt=          12           1           1           1
 AtmWgt=  12.0000000   1.0078250   1.0078250   1.0078250
 NucSpn=           0           1           1           1
 AtZEff=   0.0000000   0.0000000   0.0000000   0.0000000
 NQMom=    0.0000000   0.0000000   0.0000000   0.0000000
 NMagM=    0.0000000   2.7928460   2.7928460   2.7928460
 Leave Link  101 at Sat Aug 17 17:53:16 2024, MaxMem=   13107200 cpu:       0.1
 (Enter /programs/64bit/g09/g09-gfortran/bin/l103.exe)

 GradGradGradGradGradGradGradGradGradGradGradGradGradGradGradGradGradGrad
 Berny optimization.
 Initialization pass.
                           ----------------------------
                           !    Initial Parameters    !
                           ! (Angstroms and Degrees)  !
 --------------------------                            --------------------------
 ! Name  Definition              Value          Derivative Info.                !
 --------------------------------------------------------------------------------
 ! R1    R(1,2)                  1.09           estimate D2E/DX2                !
 ! R2    R(1,3)                  1.09           estimate D2E/DX2                !
 ! R3    R(1,4)                  1.09           estimate D2E/DX2                !
 ! A1    A(2,1,3)              120.0            estimate D2E/DX2                !
 ! A2    A(2,1,4)              120.0            estimate D2E/DX2                !
 ! A3    A(3,1,4)              120.0            estimate D2E/DX2                !
 ! D1    D(2,1,4,3)            180.0            estimate D2E/DX2                !
 --------------------------------------------------------------------------------
 Trust Radius=3.00D-01 FncErr=1.00D-07 GrdErr=1.00D-06
 Number of steps in this run=  20 maximum allowed number of steps= 100.
 GradGradGradGradGradGradGradGradGradGradGradGradGradGradGradGradGradGrad

 Leave Link  103 at Sat Aug 17 17:53:16 2024, MaxMem=   13107200 cpu:       0.0
 (Enter /programs/64bit/g09/g09-gfortran/bin/l202.exe)
                          Input orientation:                          
 ---------------------------------------------------------------------
 Center     Atomic      Atomic             Coordinates (Angstroms)
 Number     Number       Type             X           Y           Z
 ---------------------------------------------------------------------
      1          6           0        0.000000    0.000000    0.000000
      2          1           0        0.000000    0.000000    1.090000
      3          1           0        0.943968    0.000000   -0.545000
      4          1           0       -0.943968    0.000000   -0.545000
 ---------------------------------------------------------------------
                    Distance matrix (angstroms):
                    1          2          3          4
     1  C    0.000000
     2  H    1.090000   0.000000
     3  H    1.090000   1.887935   0.000000
     4  H    1.090000   1.887935   1.887935   0.000000
 Symm:  InNGrp=C3V  InAxis=0.
 This structure is nearly, but not quite of a higher symmetry.
 Consider Symm=Loose if the higher symmetry is desired.
 Stoichiometry    CH3(2)
 Framework group  C2[C2(CH),X(H2)]
 Deg. of freedom     3
 Full point group                 C2      NOp   2
 Largest Abelian subgroup         C2      NOp   2
 Largest concise Abelian subgroup C2      NOp   2
                         Standard orientation:                         
 ---------------------------------------------------------------------
 Center     Atomic      Atomic             Coordinates (Angstroms)
 Number     Number       Type             X           Y           Z
 ---------------------------------------------------------------------
      1          6           0        0.000000    0.000000    0.000000
      2          1           0        0.000000    0.000000    1.090000
      3          1           0        0.000000    0.943968   -0.545000
      4          1           0       -0.000000   -0.943968   -0.545000
 ---------------------------------------------------------------------
 Rotational constants (GHZ):    281.3764836    281.3764836    140.6882418
 Leave Link  202 at Sat Aug 17 17:53:16 2024, MaxMem=   13107200 cpu:       0.0
 (Enter /programs/64bit/g09/g09-gfortran/bin/l301.exe)
 Standard basis: 6-31++G (6D, 7F)
 Ernie: Thresh=  0.10000D-02 Tol=  0.10000D-05 Strict=F.
 AO basis set in the form of general basis input (Overlap normalization):
      1 0
 S   6 1.00       0.000000000000
      0.3047524880D+04  0.1834737132D-02
      0.4573695180D+03  0.1403732281D-01
      0.1039486850D+03  0.6884262226D-01
      0.2921015530D+02  0.2321844432D+00
      0.9286662960D+01  0.4679413484D+00
      0.3163926960D+01  0.3623119853D+00
 SP   3 1.00       0.000000000000
      0.7868272350D+01 -0.1193324198D+00  0.6899906659D-01
      0.1881288540D+01 -0.1608541517D+00  0.3164239610D+00
      0.5442492580D+00  0.1143456438D+01  0.7443082909D+00
 SP   1 1.00       0.000000000000
      0.1687144782D+00  0.1000000000D+01  0.1000000000D+01
 SP   1 1.00       0.000000000000
      0.4380000000D-01  0.1000000000D+01  0.1000000000D+01
 ****
      2 0
 S   3 1.00       0.000000000000
      0.1873113696D+02  0.3349460434D-01
      0.2825394365D+01  0.2347269535D+00
      0.6401216923D+00  0.8137573261D+00
 S   1 1.00       0.000000000000
      0.1612777588D+00  0.1000000000D+01
 S   1 1.00       0.000000000000
      0.3600000000D-01  0.1000000000D+01
 ****
      3 0
 S   3 1.00       0.000000000000
      0.1873113696D+02  0.3349460434D-01
      0.2825394365D+01  0.2347269535D+00
      0.6401216923D+00  0.8137573261D+00
 S   1 1.00       0.000000000000
      0.1612777588D+00  0.1000000000D+01
 S   1 1.00       0.000000000000
      0.3600000000D-01  0.1000000000D+01
 ****
      4 0
 S   3 1.00       0.000000000000
      0.1873113696D+02  0.3349460434D-01
      0.2825394365D+01  0.2347269535D+00
      0.6401216923D+00  0.8137573261D+00
 S   1 1.00       0.000000000000
      0.1612777588D+00  0.1000000000D+01
 S   1 1.00       0.000000000000
      0.3600000000D-01  0.1000000000D+01
 ****

 There are    13 symmetry adapted basis functions of A   symmetry.
 There are     9 symmetry adapted basis functions of B   symmetry.
 Integral buffers will be    131072 words long.
 Raffenetti 2 integral format.
 Two-electron integral symmetry is turned on.
    22 basis functions,    41 primitive gaussians,    22 cartesian basis functions
     5 alpha electrons        4 beta electrons
       nuclear repulsion energy         9.5795885928 Hartrees.
 IExCor=  402 DFT=T Ex+Corr=B3LYP ExCW=0 ScaHFX=  0.200000
 ScaDFX=  0.800000  0.720000  1.000000  0.810000 ScalE2=  1.000000  1.000000
 IRadAn=      0 IRanWt=     -1 IRanGd=            0 ICorTp=0
 NAtoms=    4 NActive=    4 NUniq=    3 SFac= 1.33D+00 NAtFMM=   80 NAOKFM=F Big=F
 Leave Link  301 at Sat Aug 17 17:53:17 2024, MaxMem=   13107200 cpu:       0.1
 (Enter /programs/64bit/g09/g09-gfortran/bin/l302.exe)
 NPDir=0 NMtPBC=     1 NCelOv=     1 NCel=       1 NClECP=     1 NCelD=      1
         NCelK=      1 NCelE2=     1 NClLst=     1 CellRange=     0.0.
 One-electron integrals computed using PRISM.
 One-electron integral symmetry used in STVInt
 NBasis=    22 RedAO= T  NBF=    13     9
 NBsUse=    22 1.00D-06 NBFU=    13     9
 Precomputing XC quadrature grid using
 IXCGrd= 2 IRadAn=           0 IRanWt=          -1 IRanGd=           0 AccXCQ= 1.00D-10.
 NRdTot=     255 NPtTot=       32550 NUsed=       34400 NTot=       34432
 NSgBfM=    22    22    22    22    22 NAtAll=     4     4.
 Leave Link  302 at Sat Aug 17 17:53:17 2024, MaxMem=   13107200 cpu:       0.2
 (Enter /programs/64bit/g09/g09-gfortran/bin/l303.exe)
 DipDrv:  MaxL=1.
 Leave Link  303 at Sat Aug 17 17:53:17 2024, MaxMem=   13107200 cpu:       0.0
 (Enter /programs/64bit/g09/g09-gfortran/bin/l401.exe)
 Harris functional with IExCor=  402 diagonalized for initial guess.
 ExpMin= 3.60D-02 ExpMax= 3.05D+03 ExpMxC= 4.57D+02 IAcc=3 IRadAn=         0 AccDes= 0.00D+00
 HarFok:  IExCor=  402 AccDes= 0.00D+00 IRadAn=         0 IDoV= 1
 ScaDFX=  1.000000  1.000000  1.000000  1.000000
 FoFCou: FMM=F IPFlag=           0 FMFlag=      100000 FMFlg1=           0
         NFxFlg=           0 DoJE=T BraDBF=F KetDBF=T FulRan=T
         Omega=  0.000000  0.000000  1.000000  0.000000  0.000000 ICntrl=     500 IOpCl=  0
         NMat0=    1 NMatS0=    1 NMatT0=    0 NMatD0=    1 NMtDS0=    0 NMtDT0=    0
         I1Cent=           4 NGrid=           0.
 Petite list used in FoFCou.
 Harris En= -39.8279523715652    
 Initial guess orbital symmetries:
 Alpha Orbitals:
       Occupied  (A) (A) (A) (B) (B)
       Virtual   (A) (B) (A) (B) (B) (A) (A) (A) (B) (A) (B) (A)
                 (B) (A) (B) (A) (A)
 Beta  Orbitals:
       Occupied  (A) (A) (A) (B)
       Virtual   (B) (A) (B) (A) (B) (B) (A) (A) (A) (B) (A) (B)
                 (A) (B) (A) (B) (A) (A)
 The electronic state of the initial guess is 2-B.
 Initial guess <Sx>= 0.0000 <Sy>= 0.0000 <Sz>= 0.5000 <S**2>= 0.7500 S= 0.5000
 Leave Link  401 at Sat Aug 17 17:53:17 2024, MaxMem=   13107200 cpu:       0.4
 (Enter /programs/64bit/g09/g09-gfortran/bin/l502.exe)
 UHF open shell SCF:
 Requested convergence on RMS density matrix=1.00D-08 within 128 cycles.
 Requested convergence on MAX density matrix=1.00D-06.
 Requested convergence on             energy=1.00D-06.
 No special actions if energy rises.
 Using DIIS extrapolation, IDIIS=  1040.
 Integral symmetry usage will be decided dynamically.
        34351 words used for storage of precomputed grid.
 Keep R1 and R2 ints in memory in canonical form, NReq=976758.
 IEnd=       54291 IEndB=       54291 NGot=    13107200 MDV=    13005766
 LenX=    13005766 LenY=    13004841
 Symmetry not used in FoFDir.
 MinBra= 0 MaxBra= 1 Meth= 1.
 IRaf=       0 NMat=   1 IRICut=       1 DoRegI=T DoRafI=F ISym2E= 0 JSym2E=0.

 Cycle   1  Pass 1  IDiag  1:
 E= -39.7946169861118    
 DIIS: error= 3.52D-02 at cycle   1 NSaved=   1.
 NSaved= 1 IEnMin= 1 EnMin= -39.7946169861118     IErMin= 1 ErrMin= 3.52D-02
 ErrMax= 3.52D-02 EMaxC= 1.00D-01 BMatC= 1.32D-01 BMatP= 1.32D-01
 IDIUse=3 WtCom= 6.48D-01 WtEn= 3.52D-01
 Coeff-Com:  0.100D+01
 Coeff-En:   0.100D+01
 Coeff:      0.100D+01
 Gap=     0.153 Goal=   None    Shift=    0.000
 Gap=     0.352 Goal=   None    Shift=    0.000
 GapD=    0.153 DampG=1.000 DampE=0.500 DampFc=0.5000 IDamp=-1.
 Damping current iteration by 5.00D-01
 RMSDP=1.45D-02 MaxDP=1.62D-01              OVMax= 1.82D-01

 Cycle   2  Pass 1  IDiag  1:
 E= -39.8138154683280     Delta-E=       -0.019198482216 Rises=F Damp=T
 DIIS: error= 5.67D-03 at cycle   2 NSaved=   2.
 NSaved= 2 IEnMin= 2 EnMin= -39.8138154683280     IErMin= 2 ErrMin= 5.67D-03
 ErrMax= 5.67D-03 EMaxC= 1.00D-01 BMatC= 2.66D-03 BMatP= 1.32D-01
 IDIUse=3 WtCom= 9.43D-01 WtEn= 5.67D-02
 Coeff-Com:  0.357D-01 0.964D+00
 Coeff-En:   0.511D-01 0.949D+00
 Coeff:      0.366D-01 0.963D+00
 Gap=     0.226 Goal=   None    Shift=    0.000
 Gap=     0.345 Goal=   None    Shift=    0.000
 RMSDP=1.85D-03 MaxDP=1.54D-02 DE=-1.92D-02 OVMax= 1.10D-01

 Cycle   3  Pass 1  IDiag  1:
 E= -39.8354371095939     Delta-E=       -0.021621641266 Rises=F Damp=F
 DIIS: error= 1.53D-03 at cycle   3 NSaved=   3.
 NSaved= 3 IEnMin= 3 EnMin= -39.8354371095939     IErMin= 3 ErrMin= 1.53D-03
 ErrMax= 1.53D-03 EMaxC= 1.00D-01 BMatC= 1.04D-04 BMatP= 2.66D-03
 IDIUse=3 WtCom= 9.85D-01 WtEn= 1.53D-02
 Coeff-Com: -0.165D-01 0.235D-02 0.101D+01
 Coeff-En:   0.000D+00 0.000D+00 0.100D+01
 Coeff:     -0.163D-01 0.232D-02 0.101D+01
 Gap=     0.231 Goal=   None    Shift=    0.000
 Gap=     0.338 Goal=   None    Shift=    0.000
 RMSDP=3.79D-04 MaxDP=3.00D-03 DE=-2.16D-02 OVMax= 3.55D-03

 Cycle   4  Pass 1  IDiag  1:
 E= -39.8354989175839     Delta-E=       -0.000061807990 Rises=F Damp=F
 DIIS: error= 3.98D-04 at cycle   4 NSaved=   4.
 NSaved= 4 IEnMin= 4 EnMin= -39.8354989175839     IErMin= 4 ErrMin= 3.98D-04
 ErrMax= 3.98D-04 EMaxC= 1.00D-01 BMatC= 9.83D-06 BMatP= 1.04D-04
 IDIUse=3 WtCom= 9.96D-01 WtEn= 3.98D-03
 Coeff-Com:  0.314D-02-0.244D-01-0.435D+00 0.146D+01
 Coeff-En:   0.000D+00 0.000D+00 0.000D+00 0.100D+01
 Coeff:      0.313D-02-0.243D-01-0.434D+00 0.145D+01
 Gap=     0.231 Goal=   None    Shift=    0.000
 Gap=     0.339 Goal=   None    Shift=    0.000
 RMSDP=1.89D-04 MaxDP=1.42D-03 DE=-6.18D-05 OVMax= 1.77D-03

 Cycle   5  Pass 1  IDiag  1:
 E= -39.8355073013965     Delta-E=       -0.000008383813 Rises=F Damp=F
 DIIS: error= 4.20D-05 at cycle   5 NSaved=   5.
 NSaved= 5 IEnMin= 5 EnMin= -39.8355073013965     IErMin= 5 ErrMin= 4.20D-05
 ErrMax= 4.20D-05 EMaxC= 1.00D-01 BMatC= 9.76D-08 BMatP= 9.83D-06
 IDIUse=1 WtCom= 1.00D+00 WtEn= 0.00D+00
 Coeff-Com:  0.729D-03 0.199D-02 0.276D-03-0.953D-01 0.109D+01
 Coeff:      0.729D-03 0.199D-02 0.276D-03-0.953D-01 0.109D+01
 Gap=     0.231 Goal=   None    Shift=    0.000
 Gap=     0.339 Goal=   None    Shift=    0.000
 RMSDP=1.67D-05 MaxDP=1.47D-04 DE=-8.38D-06 OVMax= 1.83D-04

 Cycle   6  Pass 1  IDiag  1:
 E= -39.8355073712078     Delta-E=       -0.000000069811 Rises=F Damp=F
 DIIS: error= 5.33D-06 at cycle   6 NSaved=   6.
 NSaved= 6 IEnMin= 6 EnMin= -39.8355073712078     IErMin= 6 ErrMin= 5.33D-06
 ErrMax= 5.33D-06 EMaxC= 1.00D-01 BMatC= 7.89D-10 BMatP= 9.76D-08
 IDIUse=1 WtCom= 1.00D+00 WtEn= 0.00D+00
 Coeff-Com: -0.124D-03-0.211D-03 0.423D-02 0.154D-02-0.178D+00 0.117D+01
 Coeff:     -0.124D-03-0.211D-03 0.423D-02 0.154D-02-0.178D+00 0.117D+01
 Gap=     0.231 Goal=   None    Shift=    0.000
 Gap=     0.339 Goal=   None    Shift=    0.000
 RMSDP=1.94D-06 MaxDP=2.34D-05 DE=-6.98D-08 OVMax= 3.81D-05

 Cycle   7  Pass 1  IDiag  1:
 E= -39.8355073720184     Delta-E=       -0.000000000811 Rises=F Damp=F
 DIIS: error= 4.18D-07 at cycle   7 NSaved=   7.
 NSaved= 7 IEnMin= 7 EnMin= -39.8355073720184     IErMin= 7 ErrMin= 4.18D-07
 ErrMax= 4.18D-07 EMaxC= 1.00D-01 BMatC= 1.40D-11 BMatP= 7.89D-10
 IDIUse=1 WtCom= 1.00D+00 WtEn= 0.00D+00
 Coeff-Com:  0.191D-04-0.694D-06-0.507D-03 0.541D-03 0.116D-01-0.121D+00
 Coeff-Com:  0.111D+01
 Coeff:      0.191D-04-0.694D-06-0.507D-03 0.541D-03 0.116D-01-0.121D+00
 Coeff:      0.111D+01
 Gap=     0.231 Goal=   None    Shift=    0.000
 Gap=     0.339 Goal=   None    Shift=    0.000
 RMSDP=1.24D-07 MaxDP=1.10D-06 DE=-8.11D-10 OVMax= 1.29D-06

 Cycle   8  Pass 1  IDiag  1:
 E= -39.8355073720240     Delta-E=       -0.000000000006 Rises=F Damp=F
 DIIS: error= 2.90D-08 at cycle   8 NSaved=   8.
 NSaved= 8 IEnMin= 8 EnMin= -39.8355073720240     IErMin= 8 ErrMin= 2.90D-08
 ErrMax= 2.90D-08 EMaxC= 1.00D-01 BMatC= 3.80D-14 BMatP= 1.40D-11
 IDIUse=1 WtCom= 1.00D+00 WtEn= 0.00D+00
 Coeff-Com: -0.136D-05 0.128D-05 0.173D-04-0.527D-04 0.827D-04 0.404D-02
 Coeff-Com: -0.103D+00 0.110D+01
 Coeff:     -0.136D-05 0.128D-05 0.173D-04-0.527D-04 0.827D-04 0.404D-02
 Coeff:     -0.103D+00 0.110D+01
 Gap=     0.231 Goal=   None    Shift=    0.000
 Gap=     0.339 Goal=   None    Shift=    0.000
 RMSDP=7.76D-09 MaxDP=1.26D-07 DE=-5.56D-12 OVMax= 1.11D-07

 SCF Done:  E(UB3LYP) =  -39.8355073720     A.U. after    8 cycles
             Convg  =    0.7762D-08             -V/T =  2.0074
 <Sx>= 0.0000 <Sy>= 0.0000 <Sz>= 0.5000 <S**2>= 0.7532 S= 0.5016
 <L.S>=  0.00000000000    
 KE= 3.954426266175D+01 PE=-1.109533037398D+02 EE= 2.199394511330D+01
 Annihilation of the first spin contaminant:
 S**2 before annihilation     0.7532,   after     0.7500
 Leave Link  502 at Sat Aug 17 17:53:20 2024, MaxMem=   13107200 cpu:       2.4
 (Enter /programs/64bit/g09/g09-gfortran/bin/l601.exe)
 Copying SCF densities to generalized density rwf, IOpCl= 1 IROHF=0.

 **********************************************************************

            Population analysis using the SCF density.

 **********************************************************************

 Orbital symmetries:
 Alpha Orbitals:
       Occupied  (A) (A) (A) (B) (B)
       Virtual   (A) (B) (A) (B) (B) (A) (A) (A) (B) (A) (B) (B)
                 (A) (A) (A) (B) (A)
 Beta  Orbitals:
       Occupied  (A) (A) (A) (B)
       Virtual   (B) (A) (B) (A) (B) (B) (A) (A) (A) (B) (A) (B)
                 (A) (B) (A) (B) (A) (A)
 The electronic state is 2-B.
 Alpha  occ. eigenvalues --  -10.20022  -0.69158  -0.42639  -0.42639  -0.23531
 Alpha virt. eigenvalues --   -0.00401   0.03722   0.03722   0.07402   0.10933
 Alpha virt. eigenvalues --    0.10934   0.13910   0.18995   0.21560   0.21560
 Alpha virt. eigenvalues --    0.64831   0.71700   0.71700   0.99221   1.00983
 Alpha virt. eigenvalues --    1.01697   1.01697
  Beta  occ. eigenvalues --  -10.18614  -0.65011  -0.41646  -0.41646
  Beta virt. eigenvalues --   -0.07772  -0.00168   0.03668   0.03669   0.09841
  Beta virt. eigenvalues --    0.10882   0.10882   0.14644   0.20784   0.22059
  Beta virt. eigenvalues --    0.22059   0.71610   0.72760   0.72760   0.99588
  Beta virt. eigenvalues --    1.01709   1.01709   1.03999
     Alpha Molecular Orbital Coefficients:
                           1         2         3         4         5
                           O         O         O         O         O
     Eigenvalues --   -10.20022  -0.69158  -0.42639  -0.42639  -0.23531
   1 1   C  1S          0.99506  -0.20494   0.00000   0.00000   0.00000
   2        2S          0.03584   0.40905  -0.00000   0.00000   0.00000
   3        2PX         0.00000   0.00000   0.00000  -0.00000   0.59852
   4        2PY         0.00000   0.00000   0.00000   0.46410   0.00000
   5        2PZ         0.00000  -0.00000   0.46410   0.00000   0.00000
   6        3S         -0.02442   0.39964   0.00000   0.00000   0.00000
   7        3PX         0.00000   0.00000   0.00000  -0.00000   0.46165
   8        3PY         0.00000   0.00000   0.00000   0.18820   0.00000
   9        3PZ        -0.00000   0.00000   0.18820   0.00000   0.00000
  10        4S          0.01574   0.00977   0.00002   0.00000   0.00000
  11        4PX         0.00000   0.00000   0.00000   0.00000   0.13061
  12        4PY         0.00000   0.00000   0.00000   0.03509   0.00000
  13        4PZ         0.00000   0.00000   0.03509   0.00000   0.00000
  14 2   H  1S         -0.00084   0.14723   0.28756   0.00000   0.00000
  15        2S          0.00356   0.03199   0.20003   0.00000   0.00000
  16        3S         -0.00435   0.00292  -0.01196   0.00000   0.00000
  17 3   H  1S         -0.00084   0.14723  -0.14378   0.24903   0.00000
  18        2S          0.00356   0.03199  -0.10002   0.17323  -0.00000
  19        3S         -0.00435   0.00292   0.00597  -0.01036  -0.00000
  20 4   H  1S         -0.00084   0.14723  -0.14378  -0.24903  -0.00000
  21        2S          0.00356   0.03199  -0.10002  -0.17323   0.00000
  22        3S         -0.00435   0.00292   0.00597   0.01036   0.00000
                           6         7         8         9        10
                           V         V         V         V         V
     Eigenvalues --    -0.00401   0.03722   0.03722   0.07402   0.10933
   1 1   C  1S         -0.06823   0.00000   0.00000   0.00000   0.00000
   2        2S          0.17136   0.00000  -0.00000   0.00000   0.00000
   3        2PX         0.00000   0.00000   0.00000  -0.25949  -0.00000
   4        2PY         0.00000  -0.18332   0.00000  -0.00000   0.05041
   5        2PZ         0.00000   0.00000  -0.18332   0.00000   0.00000
   6        3S          0.48630   0.00000   0.00000   0.00000   0.00000
   7        3PX         0.00000   0.00000   0.00000  -0.38378   0.00000
   8        3PY         0.00000  -0.15180   0.00000  -0.00000  -0.23026
   9        3PZ        -0.00001   0.00000  -0.15181   0.00000   0.00000
  10        4S          2.22871   0.00000   0.00033   0.00000   0.00000
  11        4PX         0.00000  -0.00000   0.00000   1.13126   0.00000
  12        4PY         0.00000  -1.08514   0.00000   0.00000  -3.66684
  13        4PZ        -0.00010   0.00000  -1.08518   0.00000   0.00000
  14 2   H  1S         -0.01223   0.00000  -0.02028   0.00000   0.00000
  15        2S         -0.17884   0.00000   0.07004   0.00000   0.00000
  16        3S         -1.08262   0.00000   3.59312   0.00000   0.00000
  17 3   H  1S         -0.01223  -0.01756   0.01014  -0.00000   0.06970
  18        2S         -0.17888   0.06067  -0.03507  -0.00000   0.70531
  19        3S         -1.08283   3.11177  -1.79670  -0.00000   4.47608
  20 4   H  1S         -0.01223   0.01756   0.01014   0.00000  -0.06970
  21        2S         -0.17888  -0.06067  -0.03507   0.00000  -0.70531
  22        3S         -1.08283  -3.11177  -1.79670   0.00000  -4.47608
                          11        12        13        14        15
                           V         V         V         V         V
     Eigenvalues --     0.10934   0.13910   0.18995   0.21560   0.21560
   1 1   C  1S         -0.00002   0.09744  -0.10612   0.00000  -0.00000
   2        2S          0.00002  -0.14396   0.08165   0.00000   0.00000
   3        2PX         0.00000   0.00000   0.00000  -0.00000   0.00000
   4        2PY         0.00000   0.00000   0.00000   0.40458   0.00000
   5        2PZ         0.05041   0.00003   0.00001   0.00000   0.40458
   6        3S          0.00012  -1.17758   2.05450   0.00000   0.00002
   7        3PX         0.00000   0.00000   0.00000   0.00000   0.00000
   8        3PY         0.00000   0.00000   0.00000   1.50153   0.00000
   9        3PZ        -0.23026  -0.00005  -0.00004   0.00000   1.50153
  10        4S         -0.00301   7.88297   3.16291   0.00000  -0.00010
  11        4PX         0.00000   0.00000   0.00000  -0.00000   0.00000
  12        4PY         0.00000   0.00000   0.00000  -1.42579   0.00000
  13        4PZ        -3.66682  -0.00115  -0.00042   0.00000  -1.42580
  14 2   H  1S          0.08048   0.02650  -0.15421   0.00000  -0.13583
  15        2S          0.81465  -0.09843  -1.49512   0.00000  -1.89319
  16        3S          5.16934  -2.36434  -0.56462   0.00000   3.12069
  17 3   H  1S         -0.04024   0.02646  -0.15424  -0.11763   0.06791
  18        2S         -0.40698  -0.09877  -1.49528  -1.63955   0.94659
  19        3S         -2.58337  -2.36670  -0.56545   2.70254  -1.56030
  20 4   H  1S         -0.04024   0.02646  -0.15424   0.11763   0.06791
  21        2S         -0.40698  -0.09877  -1.49528   1.63955   0.94659
  22        3S         -2.58337  -2.36670  -0.56545  -2.70254  -1.56030
                          16        17        18        19        20
                           V         V         V         V         V
     Eigenvalues --     0.64831   0.71700   0.71700   0.99221   1.00983
   1 1   C  1S          0.00000   0.00000  -0.00000   0.07099   0.03117
   2        2S          0.00000   0.00000   0.00000  -0.75613   2.09054
   3        2PX        -1.07694   0.00000   0.00000   0.00000   0.00000
   4        2PY        -0.00000  -0.99997   0.00000   0.00000   0.00000
   5        2PZ         0.00000   0.00000  -0.99997  -0.00002  -0.00009
   6        3S          0.00000   0.00000  -0.00000   1.82891  -3.88363
   7        3PX         1.41420  -0.00000   0.00000   0.00000   0.00000
   8        3PY         0.00000   2.26327   0.00000   0.00000   0.00000
   9        3PZ         0.00000   0.00000   2.26327   0.00003   0.00010
  10        4S          0.00000   0.00000   0.00002   1.78649   4.43622
  11        4PX        -0.58461   0.00000   0.00000   0.00000   0.00000
  12        4PY        -0.00000  -1.99628   0.00000   0.00000   0.00000
  13        4PZ         0.00000   0.00000  -1.99629  -0.00002   0.00004
  14 2   H  1S          0.00000   0.00000  -0.29078   0.77826   0.29454
  15        2S          0.00000   0.00000  -0.63482  -1.41918   0.20854
  16        3S          0.00000   0.00000   2.58459  -0.28305  -1.15605
  17 3   H  1S         -0.00000  -0.25182   0.14538   0.77822   0.29428
  18        2S         -0.00000  -0.54977   0.31741  -1.41911   0.20893
  19        3S          0.00000   2.23832  -1.29231  -0.28312  -1.15611
  20 4   H  1S          0.00000   0.25182   0.14538   0.77822   0.29428
  21        2S          0.00000   0.54977   0.31741  -1.41911   0.20893
  22        3S         -0.00000  -2.23832  -1.29231  -0.28312  -1.15611
                          21        22
                           V         V
     Eigenvalues --     1.01697   1.01697
   1 1   C  1S          0.00000   0.00001
   2        2S          0.00000   0.00029
   3        2PX         0.00000   0.00000
   4        2PY         0.60221   0.00000
   5        2PZ         0.00000   0.60221
   6        3S          0.00000  -0.00053
   7        3PX        -0.00000   0.00000
   8        3PY        -0.64781   0.00000
   9        3PZ         0.00000  -0.64780
  10        4S          0.00000   0.00074
  11        4PX         0.00000   0.00000
  12        4PY        -0.37879   0.00000
  13        4PZ         0.00000  -0.37879
  14 2   H  1S          0.00000  -1.13174
  15        2S          0.00000   1.75714
  16        3S          0.00000  -0.12298
  17 3   H  1S         -0.98017   0.56597
  18        2S          1.52174  -0.87859
  19        3S         -0.10634   0.06121
  20 4   H  1S          0.98017   0.56597
  21        2S         -1.52174  -0.87859
  22        3S          0.10634   0.06121
     Beta Molecular Orbital Coefficients:
                           1         2         3         4         5
                           O         O         O         O         V
     Eigenvalues --   -10.18614  -0.65011  -0.41646  -0.41646  -0.07772
   1 1   C  1S          0.99533  -0.19664   0.00000   0.00000   0.00000
   2        2S          0.03425   0.38991   0.00000   0.00000   0.00000
   3        2PX         0.00000   0.00000   0.00000  -0.00000   0.47170
   4        2PY         0.00000   0.00000   0.00000   0.44542   0.00000
   5        2PZ         0.00000   0.00000   0.44542   0.00000   0.00000
   6        3S         -0.02375   0.32832   0.00000   0.00000   0.00000
   7        3PX         0.00000   0.00000   0.00000  -0.00000   0.43620
   8        3PY         0.00000   0.00000   0.00000   0.16764   0.00000
   9        3PZ        -0.00000   0.00000   0.16764   0.00000   0.00000
  10        4S          0.01508  -0.02411   0.00002   0.00000   0.00000
  11        4PX         0.00000   0.00000   0.00000   0.00000   0.34718
  12        4PY         0.00000   0.00000   0.00000   0.04166   0.00000
  13        4PZ         0.00000   0.00000   0.04165   0.00000   0.00000
  14 2   H  1S         -0.00067   0.16445   0.30040   0.00000   0.00000
  15        2S          0.00347   0.06752   0.22332   0.00000   0.00000
  16        3S         -0.00418   0.01046  -0.01882   0.00000   0.00000
  17 3   H  1S         -0.00067   0.16445  -0.15020   0.26015   0.00000
  18        2S          0.00347   0.06752  -0.11166   0.19340  -0.00000
  19        3S         -0.00418   0.01046   0.00940  -0.01630  -0.00000
  20 4   H  1S         -0.00067   0.16445  -0.15020  -0.26015  -0.00000
  21        2S          0.00347   0.06752  -0.11166  -0.19340   0.00000
  22        3S         -0.00418   0.01046   0.00940   0.01630   0.00000
                           6         7         8         9        10
                           V         V         V         V         V
     Eigenvalues --    -0.00168   0.03668   0.03669   0.09841   0.10882
   1 1   C  1S         -0.06580   0.00000   0.00000   0.00000   0.00000
   2        2S          0.15865   0.00000  -0.00000   0.00000   0.00000
   3        2PX         0.00000   0.00000   0.00000  -0.32554   0.00000
   4        2PY         0.00000  -0.17705   0.00000   0.00000   0.04511
   5        2PZ         0.00000   0.00000  -0.17705   0.00000   0.00000
   6        3S          0.44033   0.00000  -0.00001   0.00000   0.00000
   7        3PX         0.00000   0.00000   0.00000  -0.55025   0.00000
   8        3PY         0.00000  -0.14194   0.00000  -0.00000  -0.22137
   9        3PZ        -0.00000   0.00000  -0.14196   0.00000   0.00000
  10        4S          2.41862   0.00000   0.00032   0.00000   0.00000
  11        4PX         0.00000   0.00000   0.00000   1.10532  -0.00000
  12        4PY         0.00000  -1.10912   0.00000  -0.00000  -3.67138
  13        4PZ        -0.00011   0.00000  -1.10925   0.00000   0.00000
  14 2   H  1S         -0.00200   0.00000  -0.02700   0.00000   0.00000
  15        2S         -0.16170   0.00000   0.05091   0.00000   0.00000
  16        3S         -1.14581   0.00000   3.64063   0.00000   0.00000
  17 3   H  1S         -0.00201  -0.02338   0.01350   0.00000   0.06890
  18        2S         -0.16173   0.04408  -0.02550   0.00000   0.70145
  19        3S         -1.14604   3.15280  -1.82045   0.00000   4.47674
  20 4   H  1S         -0.00201   0.02338   0.01350  -0.00000  -0.06890
  21        2S         -0.16173  -0.04408  -0.02550  -0.00000  -0.70145
  22        3S         -1.14604  -3.15280  -1.82045  -0.00000  -4.47674
                          11        12        13        14        15
                           V         V         V         V         V
     Eigenvalues --     0.10882   0.14644   0.20784   0.22059   0.22059
   1 1   C  1S         -0.00001   0.10112  -0.11380   0.00000  -0.00000
   2        2S          0.00001  -0.12390   0.10386   0.00000   0.00000
   3        2PX         0.00000   0.00000   0.00000  -0.00000   0.00000
   4        2PY         0.00000   0.00000   0.00000   0.40659   0.00000
   5        2PZ         0.04512   0.00002   0.00001   0.00000   0.40658
   6        3S          0.00011  -1.24949   2.07718   0.00000   0.00002
   7        3PX         0.00000   0.00000   0.00000   0.00000   0.00000
   8        3PY         0.00000   0.00000   0.00000   1.52450   0.00000
   9        3PZ        -0.22134  -0.00004  -0.00004   0.00000   1.52450
  10        4S         -0.00258   7.84967   3.21961   0.00000  -0.00010
  11        4PX         0.00000   0.00000   0.00000  -0.00000   0.00000
  12        4PY         0.00000   0.00000   0.00000  -1.41906   0.00000
  13        4PZ        -3.67136  -0.00097  -0.00036   0.00000  -1.41902
  14 2   H  1S          0.07957   0.02038  -0.14015   0.00000  -0.12334
  15        2S          0.81013  -0.08341  -1.50809   0.00000  -1.90517
  16        3S          5.16994  -2.34001  -0.58649   0.00000   3.08660
  17 3   H  1S         -0.03978   0.02034  -0.14017  -0.10681   0.06167
  18        2S         -0.40477  -0.08369  -1.50823  -1.64991   0.95258
  19        3S         -2.58386  -2.34198  -0.58721   2.67308  -1.54325
  20 4   H  1S         -0.03978   0.02034  -0.14017   0.10681   0.06167
  21        2S         -0.40477  -0.08369  -1.50823   1.64991   0.95258
  22        3S         -2.58386  -2.34198  -0.58721  -2.67308  -1.54325
                          16        17        18        19        20
                           V         V         V         V         V
     Eigenvalues --     0.71610   0.72760   0.72760   0.99588   1.01709
   1 1   C  1S          0.00000  -0.00000   0.00000   0.08043   0.00000
   2        2S          0.00000  -0.00000   0.00000  -0.33911   0.00000
   3        2PX        -1.12111   0.00000   0.00000   0.00000   0.00000
   4        2PY        -0.00000   0.00000  -0.99609   0.00000   0.62333
   5        2PZ         0.00000  -0.99609   0.00000  -0.00004   0.00000
   6        3S          0.00000   0.00001   0.00000   0.99329   0.00000
   7        3PX         1.36650   0.00000  -0.00000   0.00000  -0.00000
   8        3PY         0.00000   0.00000   2.24585   0.00000  -0.66554
   9        3PZ         0.00000   2.24585   0.00000   0.00005   0.00000
  10        4S          0.00000   0.00002   0.00000   2.63295   0.00000
  11        4PX        -0.54435   0.00000   0.00000   0.00000   0.00000
  12        4PY        -0.00000   0.00000  -1.98254   0.00000  -0.36170
  13        4PZ         0.00000  -1.98254   0.00000  -0.00002   0.00000
  14 2   H  1S          0.00000  -0.30633   0.00000   0.82039   0.00000
  15        2S          0.00000  -0.60413   0.00000  -1.33597   0.00000
  16        3S          0.00000   2.55644   0.00000  -0.50907   0.00000
  17 3   H  1S         -0.00000   0.15316  -0.26529   0.82029  -0.97489
  18        2S         -0.00000   0.30206  -0.52319  -1.33581   1.51983
  19        3S          0.00000  -1.27823   2.21396  -0.50916  -0.12284
  20 4   H  1S          0.00000   0.15316   0.26529   0.82029   0.97489
  21        2S          0.00000   0.30206   0.52319  -1.33581  -1.51983
  22        3S         -0.00000  -1.27823  -2.21396  -0.50916   0.12284
                          21        22
                           V         V
     Eigenvalues --     1.01709   1.03999
   1 1   C  1S          0.00000  -0.01525
   2        2S         -0.00012  -2.20180
   3        2PX         0.00000   0.00000
   4        2PY         0.00000   0.00000
   5        2PZ         0.62333  -0.00003
   6        3S          0.00024   4.15537
   7        3PX         0.00000   0.00000
   8        3PY         0.00000   0.00000
   9        3PZ        -0.66554   0.00003
  10        4S          0.00002  -3.90105
  11        4PX         0.00000   0.00000
  12        4PY         0.00000   0.00000
  13        4PZ        -0.36171   0.00003
  14 2   H  1S         -1.12566  -0.13625
  15        2S          1.75484  -0.48910
  16        3S         -0.14183   1.05219
  17 3   H  1S          0.56290  -0.13633
  18        2S         -0.87758  -0.48898
  19        3S          0.07092   1.05221
  20 4   H  1S          0.56290  -0.13633
  21        2S         -0.87758  -0.48898
  22        3S          0.07092   1.05221
     Alpha Density Matrix:
                           1         2         3         4         5
   1 1   C  1S          1.03214
   2        2S         -0.04817   0.16861
   3        2PX         0.00000   0.00000   0.35823
   4        2PY         0.00000   0.00000   0.00000   0.21539
   5        2PZ         0.00000  -0.00000   0.00000   0.00000   0.21539
   6        3S         -0.10621   0.16260   0.00000   0.00000   0.00000
   7        3PX         0.00000   0.00000   0.27631  -0.00000   0.00000
   8        3PY         0.00000   0.00000   0.00000   0.08735   0.00000
   9        3PZ        -0.00000   0.00000   0.00000   0.00000   0.08735
  10        4S          0.01366   0.00456   0.00000   0.00000   0.00001
  11        4PX         0.00000   0.00000   0.07817   0.00000   0.00000
  12        4PY         0.00000   0.00000   0.00000   0.01629   0.00000
  13        4PZ        -0.00000   0.00000   0.00000   0.00000   0.01629
  14 2   H  1S         -0.03101   0.06020   0.00000   0.00000   0.13345
  15        2S         -0.00301   0.01321   0.00000   0.00000   0.09283
  16        3S         -0.00493   0.00104   0.00000   0.00000  -0.00555
  17 3   H  1S         -0.03101   0.06020   0.00000   0.11557  -0.06673
  18        2S         -0.00301   0.01321  -0.00000   0.08040  -0.04642
  19        3S         -0.00493   0.00104  -0.00000  -0.00481   0.00277
  20 4   H  1S         -0.03101   0.06020  -0.00000  -0.11557  -0.06673
  21        2S         -0.00301   0.01321   0.00000  -0.08040  -0.04642
  22        3S         -0.00493   0.00104   0.00000   0.00481   0.00277
                           6         7         8         9        10
   6        3S          0.16031
   7        3PX         0.00000   0.21312
   8        3PY         0.00000   0.00000   0.03542
   9        3PZ         0.00000   0.00000   0.00000   0.03542
  10        4S          0.00352   0.00000   0.00000   0.00000   0.00034
  11        4PX         0.00000   0.06029   0.00000   0.00000   0.00000
  12        4PY         0.00000   0.00000   0.00660   0.00000   0.00000
  13        4PZ         0.00000   0.00000   0.00000   0.00660   0.00000
  14 2   H  1S          0.05886   0.00000   0.00000   0.05412   0.00143
  15        2S          0.01270   0.00000   0.00000   0.03765   0.00037
  16        3S          0.00127   0.00000   0.00000  -0.00225  -0.00004
  17 3   H  1S          0.05886  -0.00000   0.04687  -0.02706   0.00142
  18        2S          0.01270  -0.00000   0.03260  -0.01882   0.00037
  19        3S          0.00127  -0.00000  -0.00195   0.00112  -0.00004
  20 4   H  1S          0.05886   0.00000  -0.04687  -0.02706   0.00142
  21        2S          0.01270   0.00000  -0.03260  -0.01882   0.00037
  22        3S          0.00127   0.00000   0.00195   0.00112  -0.00004
                          11        12        13        14        15
  11        4PX         0.01706
  12        4PY         0.00000   0.00123
  13        4PZ         0.00000   0.00000   0.00123
  14 2   H  1S          0.00000   0.00000   0.01009   0.10437
  15        2S          0.00000   0.00000   0.00702   0.06223   0.04105
  16        3S          0.00000   0.00000  -0.00042  -0.00301  -0.00231
  17 3   H  1S          0.00000   0.00874  -0.00504  -0.01967  -0.02405
  18        2S         -0.00000   0.00608  -0.00351  -0.02405  -0.01897
  19        3S         -0.00000  -0.00036   0.00021   0.00215   0.00127
  20 4   H  1S         -0.00000  -0.00874  -0.00504  -0.01967  -0.02405
  21        2S          0.00000  -0.00608  -0.00351  -0.02405  -0.01897
  22        3S          0.00000   0.00036   0.00021   0.00215   0.00127
                          16        17        18        19        20
  16        3S          0.00017
  17 3   H  1S          0.00215   0.10437
  18        2S          0.00127   0.06223   0.04105
  19        3S         -0.00004  -0.00300  -0.00231   0.00017
  20 4   H  1S          0.00215  -0.01967  -0.02405   0.00215   0.10437
  21        2S          0.00127  -0.02405  -0.01897   0.00127   0.06223
  22        3S         -0.00004   0.00215   0.00127  -0.00004  -0.00300
                          21        22
  21        2S          0.04105
  22        3S         -0.00231   0.00017
     Beta Density Matrix:
                           1         2         3         4         5
   1 1   C  1S          1.02936
   2        2S         -0.04258   0.15320
   3        2PX         0.00000   0.00000   0.00000
   4        2PY         0.00000   0.00000  -0.00000   0.19840
   5        2PZ         0.00000   0.00000   0.00000   0.00000   0.19840
   6        3S         -0.08820   0.12720   0.00000   0.00000   0.00000
   7        3PX         0.00000   0.00000   0.00000  -0.00000   0.00000
   8        3PY         0.00000   0.00000  -0.00000   0.07467   0.00000
   9        3PZ        -0.00000   0.00000   0.00000   0.00000   0.07467
  10        4S          0.01975  -0.00888   0.00000   0.00000   0.00001
  11        4PX         0.00000   0.00000  -0.00000   0.00000   0.00000
  12        4PY         0.00000   0.00000  -0.00000   0.01855   0.00000
  13        4PZ        -0.00000   0.00000   0.00000   0.00000   0.01855
  14 2   H  1S         -0.03301   0.06410   0.00000   0.00000   0.13380
  15        2S         -0.00982   0.02645   0.00000   0.00000   0.09947
  16        3S         -0.00621   0.00393   0.00000   0.00000  -0.00838
  17 3   H  1S         -0.03301   0.06410  -0.00000   0.11588  -0.06690
  18        2S         -0.00982   0.02645  -0.00000   0.08614  -0.04974
  19        3S         -0.00622   0.00394   0.00000  -0.00726   0.00419
  20 4   H  1S         -0.03301   0.06410   0.00000  -0.11588  -0.06690
  21        2S         -0.00982   0.02645   0.00000  -0.08614  -0.04974
  22        3S         -0.00622   0.00394  -0.00000   0.00726   0.00419
                           6         7         8         9        10
   6        3S          0.10836
   7        3PX         0.00000   0.00000
   8        3PY         0.00000  -0.00000   0.02810
   9        3PZ         0.00000   0.00000   0.00000   0.02810
  10        4S         -0.00827   0.00000   0.00000   0.00000   0.00081
  11        4PX         0.00000  -0.00000   0.00000   0.00000   0.00000
  12        4PY         0.00000  -0.00000   0.00698   0.00000   0.00000
  13        4PZ         0.00000   0.00000   0.00000   0.00698   0.00000
  14 2   H  1S          0.05401   0.00000   0.00000   0.05036  -0.00397
  15        2S          0.02209   0.00000   0.00000   0.03744  -0.00157
  16        3S          0.00353   0.00000   0.00000  -0.00315  -0.00032
  17 3   H  1S          0.05401  -0.00000   0.04361  -0.02518  -0.00398
  18        2S          0.02209  -0.00000   0.03242  -0.01872  -0.00158
  19        3S          0.00353   0.00000  -0.00273   0.00158  -0.00031
  20 4   H  1S          0.05401   0.00000  -0.04361  -0.02518  -0.00398
  21        2S          0.02209   0.00000  -0.03242  -0.01872  -0.00158
  22        3S          0.00353  -0.00000   0.00273   0.00158  -0.00031
                          11        12        13        14        15
  11        4PX         0.00000
  12        4PY         0.00000   0.00174
  13        4PZ         0.00000   0.00000   0.00173
  14 2   H  1S          0.00000   0.00000   0.01251   0.11728
  15        2S          0.00000   0.00000   0.00930   0.07819   0.05444
  16        3S          0.00000   0.00000  -0.00078  -0.00393  -0.00351
  17 3   H  1S          0.00000   0.01084  -0.00626  -0.01807  -0.02244
  18        2S          0.00000   0.00806  -0.00465  -0.02244  -0.02037
  19        3S         -0.00000  -0.00068   0.00039   0.00455   0.00279
  20 4   H  1S         -0.00000  -0.01084  -0.00626  -0.01807  -0.02244
  21        2S         -0.00000  -0.00806  -0.00465  -0.02244  -0.02037
  22        3S          0.00000   0.00068   0.00039   0.00455   0.00279
                          16        17        18        19        20
  16        3S          0.00048
  17 3   H  1S          0.00455   0.11728
  18        2S          0.00279   0.07819   0.05444
  19        3S         -0.00005  -0.00393  -0.00351   0.00048
  20 4   H  1S          0.00455  -0.01807  -0.02244   0.00455   0.11728
  21        2S          0.00279  -0.02244  -0.02036   0.00279   0.07819
  22        3S         -0.00005   0.00455   0.00279  -0.00005  -0.00393
                          21        22
  21        2S          0.05444
  22        3S         -0.00351   0.00048
    Full Mulliken population analysis:
                           1         2         3         4         5
   1 1   C  1S          2.06150
   2        2S         -0.01988   0.32181
   3        2PX         0.00000   0.00000   0.35823
   4        2PY         0.00000   0.00000   0.00000   0.41379
   5        2PZ         0.00000   0.00000   0.00000   0.00000   0.41379
   6        3S         -0.03582   0.23539   0.00000   0.00000   0.00000
   7        3PX         0.00000   0.00000   0.15743   0.00000   0.00000
   8        3PY         0.00000   0.00000   0.00000   0.09231   0.00000
   9        3PZ         0.00000   0.00000   0.00000   0.00000   0.09231
  10        4S          0.00233  -0.00174   0.00000   0.00000   0.00000
  11        4PX         0.00000   0.00000   0.01287   0.00000   0.00000
  12        4PY         0.00000   0.00000   0.00000   0.00574   0.00000
  13        4PZ         0.00000   0.00000   0.00000   0.00000   0.00574
  14 2   H  1S         -0.00210   0.03402   0.00000   0.00000   0.09871
  15        2S         -0.00118   0.01888   0.00000   0.00000   0.05111
  16        3S         -0.00058   0.00153   0.00000   0.00000  -0.00063
  17 3   H  1S         -0.00210   0.03402  -0.00000   0.07403   0.02468
  18        2S         -0.00118   0.01888   0.00000   0.03833   0.01278
  19        3S         -0.00058   0.00153   0.00000  -0.00047  -0.00016
  20 4   H  1S         -0.00210   0.03402   0.00000   0.07403   0.02468
  21        2S         -0.00118   0.01888  -0.00000   0.03833   0.01278
  22        3S         -0.00058   0.00153  -0.00000  -0.00047  -0.00016
                           6         7         8         9        10
   6        3S          0.26867
   7        3PX         0.00000   0.21312
   8        3PY         0.00000   0.00000   0.06352
   9        3PZ         0.00000   0.00000   0.00000   0.06352
  10        4S         -0.00346   0.00000   0.00000   0.00000   0.00115
  11        4PX         0.00000   0.03549   0.00000   0.00000   0.00000
  12        4PY         0.00000   0.00000   0.00800   0.00000   0.00000
  13        4PZ         0.00000   0.00000   0.00000   0.00800   0.00000
  14 2   H  1S          0.04256   0.00000   0.00000   0.05381  -0.00066
  15        2S          0.02451   0.00000   0.00000   0.04375  -0.00077
  16        3S          0.00281   0.00000   0.00000  -0.00094  -0.00032
  17 3   H  1S          0.04256   0.00000   0.04036   0.01345  -0.00066
  18        2S          0.02451   0.00000   0.03281   0.01094  -0.00078
  19        3S          0.00282   0.00000  -0.00071  -0.00024  -0.00032
  20 4   H  1S          0.04256  -0.00000   0.04036   0.01345  -0.00066
  21        2S          0.02451  -0.00000   0.03281   0.01094  -0.00078
  22        3S          0.00282  -0.00000  -0.00071  -0.00024  -0.00032
                          11        12        13        14        15
  11        4PX         0.01706
  12        4PY         0.00000   0.00297
  13        4PZ         0.00000   0.00000   0.00297
  14 2   H  1S          0.00000   0.00000   0.00475   0.22165
  15        2S          0.00000   0.00000   0.00710   0.09243   0.09549
  16        3S          0.00000   0.00000  -0.00043  -0.00188  -0.00396
  17 3   H  1S         -0.00000   0.00356   0.00119  -0.00044  -0.00576
  18        2S          0.00000   0.00532   0.00177  -0.00576  -0.01409
  19        3S          0.00000  -0.00032  -0.00011   0.00117   0.00190
  20 4   H  1S          0.00000   0.00356   0.00119  -0.00044  -0.00576
  21        2S         -0.00000   0.00532   0.00177  -0.00576  -0.01409
  22        3S         -0.00000  -0.00032  -0.00011   0.00117   0.00190
                          16        17        18        19        20
  16        3S          0.00065
  17 3   H  1S          0.00117   0.22165
  18        2S          0.00190   0.09243   0.09549
  19        3S         -0.00007  -0.00187  -0.00395   0.00065
  20 4   H  1S          0.00117  -0.00044  -0.00576   0.00117   0.22165
  21        2S          0.00190  -0.00576  -0.01409   0.00190   0.09243
  22        3S         -0.00007   0.00117   0.00190  -0.00007  -0.00187
                          21        22
  21        2S          0.09549
  22        3S         -0.00395   0.00065
     Gross orbital populations:
                         Total     Alpha     Beta      Spin
   1 1   C  1S          1.99655   0.99832   0.99823   0.00010
   2        2S          0.69887   0.36122   0.33766   0.02356
   3        2PX         0.52853   0.52853   0.00000   0.52853
   4        2PY         0.73562   0.37840   0.35721   0.02119
   5        2PZ         0.73562   0.37840   0.35721   0.02119
   6        3S          0.67442   0.37103   0.30338   0.06765
   7        3PX         0.40604   0.40604   0.00000   0.40604
   8        3PY         0.30875   0.16320   0.14555   0.01764
   9        3PZ         0.30875   0.16320   0.14555   0.01764
  10        4S         -0.00699   0.00740  -0.01438   0.02178
  11        4PX         0.06543   0.06543  -0.00000   0.06543
  12        4PY         0.03382   0.01533   0.01849  -0.00316
  13        4PZ         0.03382   0.01533   0.01849  -0.00316
  14 2   H  1S          0.53323   0.25615   0.27707  -0.02092
  15        2S          0.29143   0.12692   0.16451  -0.03759
  16        3S          0.00226  -0.00036   0.00262  -0.00298
  17 3   H  1S          0.53323   0.25615   0.27707  -0.02092
  18        2S          0.29144   0.12693   0.16451  -0.03759
  19        3S          0.00226  -0.00036   0.00262  -0.00298
  20 4   H  1S          0.53323   0.25615   0.27707  -0.02092
  21        2S          0.29144   0.12693   0.16451  -0.03759
  22        3S          0.00226  -0.00036   0.00262  -0.00298
          Condensed to atoms (all electrons):
              1          2          3          4
     1  C    5.391502   0.375912   0.375907   0.375907
     2  H    0.375912   0.490990  -0.019993  -0.019993
     3  H    0.375907  -0.019993   0.491003  -0.019988
     4  H    0.375907  -0.019993  -0.019988   0.491003
 Mulliken atomic charges:
              1
     1  C   -0.519227
     2  H    0.173084
     3  H    0.173072
     4  H    0.173072
 Sum of Mulliken atomic charges =   0.00000
 Mulliken charges with hydrogens summed into heavy atoms:
              1
     1  C    0.000000
 Sum of Mulliken charges with hydrogens summed into heavy atoms =   0.00000
          Atomic-Atomic Spin Densities.
              1          2          3          4
     1  C    1.219338  -0.011632  -0.011632  -0.011632
     2  H   -0.011632  -0.045509  -0.002170  -0.002170
     3  H   -0.011632  -0.002170  -0.045510  -0.002170
     4  H   -0.011632  -0.002170  -0.002170  -0.045510
 Mulliken atomic spin densities:
              1
     1  C    1.184443
     2  H   -0.061481
     3  H   -0.061481
     4  H   -0.061481
 Sum of Mulliken atomic spin densities =   1.00000
 Electronic spatial extent (au):  <R**2>=             30.6363
 Charge=              0.0000 electrons
 Dipole moment (field-independent basis, Debye):
    X=             -0.0000    Y=             -0.0000    Z=             -0.0000  Tot=              0.0000
 Quadrupole moment (field-independent basis, Debye-Ang):
   XX=             -9.4172   YY=             -7.3348   ZZ=             -7.3348
   XY=             -0.0000   XZ=              0.0000   YZ=             -0.0000
 Traceless Quadrupole moment (field-independent basis, Debye-Ang):
   XX=             -1.3883   YY=              0.6941   ZZ=              0.6942
   XY=             -0.0000   XZ=              0.0000   YZ=             -0.0000
 Octapole moment (field-independent basis, Debye-Ang**2):
  XXX=              0.0000  YYY=             -0.0000  ZZZ=              0.8492  XYY=             -0.0000
  XXY=             -0.0000  XXZ=             -0.0000  XZZ=              0.0000  YZZ=              0.0000
  YYZ=             -0.8492  XYZ=             -0.0000
 Hexadecapole moment (field-independent basis, Debye-Ang**3):
 XXXX=            -13.9340 YYYY=            -15.9589 ZZZZ=            -15.9588 XXXY=              0.0000
 XXXZ=             -0.0000 YYYX=              0.0000 YYYZ=              0.0000 ZZZX=             -0.0000
 ZZZY=              0.0000 XXYY=             -5.3142 XXZZ=             -5.3142 YYZZ=             -5.3196
 XXYZ=              0.0000 YYXZ=              0.0000 ZZXY=              0.0000
 N-N= 9.579588592757D+00 E-N=-1.635056054561D+02  KE= 5.871553050275D+01
 Symmetry A    KE= 5.469873910301D+01
 Symmetry B    KE= 4.016791399735D+00
 Orbital energies and kinetic energies (alpha):
                                 1                 2
   1         O               -10.200222         15.956094
   2         O                -0.691582          1.343125
   3         O                -0.426387          0.987964
   4         O                -0.426387          0.987964
   5         O                -0.235313          1.097847
   6         V                -0.004013          0.225757
   7         V                 0.037216          0.170031
   8         V                 0.037218          0.170033
   9         V                 0.074021          0.315375
  10         V                 0.109334          0.233275
  11         V                 0.109339          0.233277
  12         V                 0.139098          0.476180
  13         V                 0.189952          0.825748
  14         V                 0.215602          0.875491
  15         V                 0.215603          0.875490
  16         V                 0.648313          2.133070
  17         V                 0.717000          1.959635
  18         V                 0.717001          1.959637
  19         V                 0.992207          2.552472
  20         V                 1.009834          2.046477
  21         V                 1.016965          2.586691
  22         V                 1.016967          2.586688
 Orbital energies and kinetic energies (beta):
                                 1                 2
   1         O               -10.186139         15.968896
   2         O                -0.650114          1.271390
   3         O                -0.416461          0.965491
   4         O                -0.416461          0.965490
   5         V                -0.077720          0.775133
   6         V                -0.001678          0.208595
   7         V                 0.036684          0.166454
   8         V                 0.036687          0.166454
   9         V                 0.098412          0.478622
  10         V                 0.108817          0.231568
  11         V                 0.108820          0.231569
  12         V                 0.146444          0.487082
  13         V                 0.207843          0.854671
  14         V                 0.220586          0.881416
  15         V                 0.220587          0.881414
  16         V                 0.716103          2.292537
  17         V                 0.727596          1.959476
  18         V                 0.727596          1.959472
  19         V                 0.995876          2.442993
  20         V                 1.017092          2.608689
  21         V                 1.017094          2.608684
  22         V                 1.039989          2.192228
 Total kinetic energy from orbitals= 3.954426266175D+01
                          Isotropic Fermi Contact Couplings
        Atom                 a.u.       MegaHertz       Gauss      10(-4) cm-1
     1  C(13)              0.14255     160.25705      57.18370      53.45600
     2  H(1)              -0.01666     -74.47943     -26.57611     -24.84366
     3  H(1)              -0.01666     -74.48039     -26.57645     -24.84398
     4  H(1)              -0.01666     -74.48039     -26.57645     -24.84398
 --------------------------------------------------------
       Center         ----  Spin Dipole Couplings  ----
                      3XX-RR        3YY-RR        3ZZ-RR
 --------------------------------------------------------
     1   Atom        1.047892     -0.523946     -0.523946
     2   Atom       -0.009310     -0.069890      0.079200
     3   Atom       -0.009310      0.041928     -0.032617
     4   Atom       -0.009310      0.041928     -0.032617
 --------------------------------------------------------
                        XY            XZ            YZ
 --------------------------------------------------------
     1   Atom        0.000000      0.000000     -0.000000
     2   Atom        0.000000     -0.000000      0.000000
     3   Atom        0.000000      0.000000     -0.064558
     4   Atom        0.000000     -0.000000      0.064558
 --------------------------------------------------------


 ---------------------------------------------------------------------------------
              Anisotropic Spin Dipole Couplings in Principal Axis System
 ---------------------------------------------------------------------------------

       Atom             a.u.   MegaHertz   Gauss  10(-4) cm-1        Axes

              Baa    -0.5239   -70.309   -25.088   -23.452  0.0000  0.0000  1.0000
     1 C(13)  Bbb    -0.5239   -70.309   -25.088   -23.452 -0.0000  1.0000 -0.0000
              Bcc     1.0479   140.617    50.176    46.905  1.0000  0.0000  0.0000
 
              Baa    -0.0699   -37.290   -13.306   -12.439 -0.0000  1.0000 -0.0000
     2 H(1)   Bbb    -0.0093    -4.967    -1.772    -1.657  1.0000  0.0000  0.0000
              Bcc     0.0792    42.257    15.078    14.095  0.0000  0.0000  1.0000
 
              Baa    -0.0699   -37.290   -13.306   -12.439 -0.0000  0.5000  0.8660
     3 H(1)   Bbb    -0.0093    -4.967    -1.773    -1.657  1.0000  0.0000  0.0000
              Bcc     0.0792    42.257    15.078    14.096  0.0000  0.8660 -0.5000
 
              Baa    -0.0699   -37.290   -13.306   -12.439  0.0000 -0.5000  0.8660
     4 H(1)   Bbb    -0.0093    -4.967    -1.773    -1.657  1.0000  0.0000 -0.0000
              Bcc     0.0792    42.257    15.078    14.096  0.0000  0.8660  0.5000
 

 ---------------------------------------------------------------------------------

 No NMR shielding tensors so no spin-rotation constants.
 Leave Link  601 at Sat Aug 17 17:53:20 2024, MaxMem=   13107200 cpu:       0.2
 (Enter /programs/64bit/g09/g09-gfortran/bin/l701.exe)
 Compute integral first derivatives.
 ... and contract with generalized density number  0.
 Leave Link  701 at Sat Aug 17 17:53:21 2024, MaxMem=   13107200 cpu:       0.1
 (Enter /programs/64bit/g09/g09-gfortran/bin/l702.exe)
 L702 exits ... SP integral derivatives will be done elsewhere.
 Leave Link  702 at Sat Aug 17 17:53:21 2024, MaxMem=   13107200 cpu:       0.0
 (Enter /programs/64bit/g09/g09-gfortran/bin/l703.exe)
 Compute integral first derivatives, UseDBF=F ICtDFT=           0.
 Integral derivatives from FoFDir, PRISM(SPDF).
 Calling FoFJK, ICntrl=      2127 FMM=F ISym2X=1 I1Cent= 0 IOpClX= 1 NMat=1 NMatS=1 NMatT=0.
 FoFCou: FMM=F IPFlag=           0 FMFlag=      100000 FMFlg1=         800
         NFxFlg=           0 DoJE=F BraDBF=F KetDBF=F FulRan=T
         Omega=  0.000000  0.000000  1.000000  0.000000  0.000000 ICntrl=    2127 IOpCl=  1
         NMat0=    1 NMatS0=    1 NMatT0=    0 NMatD0=    1 NMtDS0=    0 NMtDT0=    0
         I1Cent=           0 NGrid=           0.
 Petite list used in FoFCou.
 Leave Link  703 at Sat Aug 17 17:53:21 2024, MaxMem=   13107200 cpu:       0.6
 (Enter /programs/64bit/g09/g09-gfortran/bin/l716.exe)
 Dipole        =-2.87044442D-17 0.00000000D+00-3.12427756D-07
 ***** Axes restored to original set *****
 -------------------------------------------------------------------
 Center     Atomic                   Forces (Hartrees/Bohr)
 Number     Number              X              Y              Z
 -------------------------------------------------------------------
      1        6           0.000000000    0.000000000   -0.000000654
      2        1          -0.000000000    0.000000000   -0.004567078
      3        1          -0.003954049   -0.000000000    0.002283866
      4        1           0.003954049    0.000000000    0.002283866
 -------------------------------------------------------------------
 Cartesian Forces:  Max     0.004567078 RMS     0.002283260
 Leave Link  716 at Sat Aug 17 17:53:21 2024, MaxMem=   13107200 cpu:       0.0
 (Enter /programs/64bit/g09/g09-gfortran/bin/l103.exe)

 GradGradGradGradGradGradGradGradGradGradGradGradGradGradGradGradGradGrad
 Berny optimization.
 Internal  Forces:  Max     0.004567078 RMS     0.002989489
 Search for a local minimum.
 Step number   1 out of a maximum of   20
 All quantities printed in internal units (Hartrees-Bohrs-Radians)
 RMS Force = .29895D-02 SwitMx=.10000D-02 MixMth= 1
 Mixed Optimization -- RFO/linear search
 Second derivative matrix not updated -- first step.
 The second derivative matrix:
                          R1        R2        R3        A1        A2
           R1           0.34813
           R2           0.00000   0.34813
           R3           0.00000   0.00000   0.34813
           A1           0.00000   0.00000   0.00000   0.16000
           A2           0.00000   0.00000   0.00000   0.00000   0.16000
           A3           0.00000   0.00000   0.00000   0.00000   0.00000
           D1           0.00000   0.00000   0.00000   0.00000   0.00000
                          A3        D1
           A3           0.16000
           D1           0.00000   0.00235
     Eigenvalues ---    0.00235   0.16000   0.16000   0.34813   0.34813
     Eigenvalues ---    0.348131000.00000
 RFO step:  Lambda=-1.79610131D-04 EMin= 2.34830060D-03
 Linear search not attempted -- first point.
 Iteration  1 RMS(Cart)=  0.00858294 RMS(Int)=  0.00000002
 Iteration  2 RMS(Cart)=  0.00000002 RMS(Int)=  0.00000000
 ClnCor:  largest displacement from symmetrization is 2.39D-11 for atom     1.
 Variable       Old X    -DE/DX   Delta X   Delta X   Delta X     New X
                                 (Linear)    (Quad)   (Total)
    R1        2.05980  -0.00457   0.00000  -0.01311  -0.01311   2.04669
    R2        2.05980  -0.00457   0.00000  -0.01311  -0.01311   2.04669
    R3        2.05980  -0.00457   0.00000  -0.01311  -0.01311   2.04669
    A1        2.09440  -0.00000   0.00000  -0.00000  -0.00000   2.09439
    A2        2.09440  -0.00000   0.00000  -0.00000  -0.00000   2.09439
    A3        2.09440   0.00000   0.00000   0.00001   0.00001   2.09440
    D1        3.14159   0.00000   0.00000   0.00000   0.00000   3.14159
         Item               Value     Threshold  Converged?
 Maximum Force            0.004567     0.000450     NO 
 RMS     Force            0.002989     0.000300     NO 
 Maximum Displacement     0.013115     0.001800     NO 
 RMS     Displacement     0.008583     0.001200     NO 
 Predicted change in Energy=-8.985140D-05
 GradGradGradGradGradGradGradGradGradGradGradGradGradGradGradGradGradGrad

 Leave Link  103 at Sat Aug 17 17:53:21 2024, MaxMem=   13107200 cpu:       0.0
 (Enter /programs/64bit/g09/g09-gfortran/bin/l202.exe)
                          Input orientation:                          
 ---------------------------------------------------------------------
 Center     Atomic      Atomic             Coordinates (Angstroms)
 Number     Number       Type             X           Y           Z
 ---------------------------------------------------------------------
      1          6           0        0.000000   -0.000000   -0.000001
      2          1           0        0.000000    0.000000    1.083060
      3          1           0        0.937962   -0.000000   -0.541529
      4          1           0       -0.937962    0.000000   -0.541529
 ---------------------------------------------------------------------
                    Distance matrix (angstroms):
                    1          2          3          4
     1  C    0.000000
     2  H    1.083061   0.000000
     3  H    1.083063   1.875916   0.000000
     4  H    1.083063   1.875916   1.875923   0.000000
 Stoichiometry    CH3(2)
 Framework group  C2[C2(CH),X(H2)]
 Deg. of freedom     3
 Prev. full point group           C2      NOp   2
 Prev. largest Abelian subgroup   C2      NOp   2
       concise Abelian subgroup   C2      NOp   2
                   Standard orientation:
 ---------------------------------------------------------------------
 Center     Atomic                     Coordinates (Angstroms)
 Number     Number                        X           Y           Z
 ---------------------------------------------------------------------
      1          6                    0.000000    0.000000   -0.000001
      2          1                    0.000000    0.000000    1.083061
      3          1                    0.000000    0.937962   -0.541528
      4          1                    0.000000   -0.937962   -0.541528
 ---------------------------------------------------------------------
 Rotational constants (GHZ):    284.9943407    284.9914635    142.4964511
 Leave Link  202 at Sat Aug 17 17:53:21 2024, MaxMem=   13107200 cpu:       0.0
 (Enter /programs/64bit/g09/g09-gfortran/bin/l301.exe)
 Standard basis: 6-31++G (6D, 7F)
 Ernie: Thresh=  0.10000D-02 Tol=  0.10000D-05 Strict=F.
 There are    13 symmetry adapted basis functions of A   symmetry.
 There are     9 symmetry adapted basis functions of B   symmetry.
 Integral buffers will be    131072 words long.
 Raffenetti 2 integral format.
 Two-electron integral symmetry is turned on.
    22 basis functions,    41 primitive gaussians,    22 cartesian basis functions
     5 alpha electrons        4 beta electrons
       nuclear repulsion energy         9.6409533430 Hartrees.
 IExCor=  402 DFT=T Ex+Corr=B3LYP ExCW=0 ScaHFX=  0.200000
 ScaDFX=  0.800000  0.720000  1.000000  0.810000 ScalE2=  1.000000  1.000000
 IRadAn=      0 IRanWt=     -1 IRanGd=            0 ICorTp=0
 NAtoms=    4 NActive=    4 NUniq=    3 SFac= 1.33D+00 NAtFMM=   80 NAOKFM=F Big=F
 Leave Link  301 at Sat Aug 17 17:53:22 2024, MaxMem=   13107200 cpu:       0.1
 (Enter /programs/64bit/g09/g09-gfortran/bin/l302.exe)
 NPDir=0 NMtPBC=     1 NCelOv=     1 NCel=       1 NClECP=     1 NCelD=      1
         NCelK=      1 NCelE2=     1 NClLst=     1 CellRange=     0.0.
 One-electron integrals computed using PRISM.
 One-electron integral symmetry used in STVInt
 NBasis=    22 RedAO= T  NBF=    13     9
 NBsUse=    22 1.00D-06 NBFU=    13     9
 Precomputing XC quadrature grid using
 IXCGrd= 2 IRadAn=           0 IRanWt=          -1 IRanGd=           0 AccXCQ= 1.00D-10.
 NRdTot=     255 NPtTot=       32550 NUsed=       34400 NTot=       34432
 NSgBfM=    22    22    22    22    22 NAtAll=     4     4.
 Leave Link  302 at Sat Aug 17 17:53:22 2024, MaxMem=   13107200 cpu:       0.2
 (Enter /programs/64bit/g09/g09-gfortran/bin/l303.exe)
 DipDrv:  MaxL=1.
 Leave Link  303 at Sat Aug 17 17:53:22 2024, MaxMem=   13107200 cpu:       0.1
 (Enter /programs/64bit/g09/g09-gfortran/bin/l401.exe)
 Initial guess read from the read-write file.
 B after Tr=     0.000000    0.000000    0.000000
         Rot=    1.000000    0.000000    0.000000    0.000000 Ang=   0.00 deg.
 Guess basis will be translated and rotated to current coordinates.
 Initial guess orbital symmetries:
 Alpha Orbitals:
       Occupied  (A) (A) (A) (B) (B)
       Virtual   (A) (B) (A) (B) (B) (A) (A) (A) (B) (A) (B) (B)
                 (A) (A) (A) (B) (A)
 Beta  Orbitals:
       Occupied  (A) (A) (A) (B)
       Virtual   (B) (A) (B) (A) (B) (B) (A) (A) (A) (B) (A) (B)
                 (A) (B) (A) (B) (A) (A)
 The electronic state of the initial guess is 2-B.
 Initial guess <Sx>= 0.0000 <Sy>= 0.0000 <Sz>= 0.5000 <S**2>= 0.7532 S= 0.5016
 Leave Link  401 at Sat Aug 17 17:53:22 2024, MaxMem=   13107200 cpu:       0.1
 (Enter /programs/64bit/g09/g09-gfortran/bin/l502.exe)
 UHF open shell SCF:
 Requested convergence on RMS density matrix=1.00D-08 within 128 cycles.
 Requested convergence on MAX density matrix=1.00D-06.
 Requested convergence on             energy=1.00D-06.
 No special actions if energy rises.
 Using DIIS extrapolation, IDIIS=  1040.
 Integral symmetry usage will be decided dynamically.
        34351 words used for storage of precomputed grid.
 Keep R1 and R2 ints in memory in canonical form, NReq=976758.
 IEnd=       54291 IEndB=       54291 NGot=    13107200 MDV=    13005766
 LenX=    13005766 LenY=    13004841
 Symmetry not used in FoFDir.
 MinBra= 0 MaxBra= 1 Meth= 1.
 IRaf=       0 NMat=   1 IRICut=       1 DoRegI=T DoRafI=F ISym2E= 0 JSym2E=0.

 Cycle   1  Pass 1  IDiag  1:
 E= -39.8355717620151    
 DIIS: error= 7.93D-04 at cycle   1 NSaved=   1.
 NSaved= 1 IEnMin= 1 EnMin= -39.8355717620151     IErMin= 1 ErrMin= 7.93D-04
 ErrMax= 7.93D-04 EMaxC= 1.00D-01 BMatC= 6.27D-05 BMatP= 6.27D-05
 IDIUse=3 WtCom= 9.92D-01 WtEn= 7.93D-03
 Coeff-Com:  0.100D+01
 Coeff-En:   0.100D+01
 Coeff:      0.100D+01
 Gap=     0.233 Goal=   None    Shift=    0.000
 Gap=     0.340 Goal=   None    Shift=    0.000
 RMSDP=2.76D-04 MaxDP=2.11D-03              OVMax= 2.72D-03

 Cycle   2  Pass 1  IDiag  1:
 E= -39.8355832483639     Delta-E=       -0.000011486349 Rises=F Damp=F
 DIIS: error= 6.66D-04 at cycle   2 NSaved=   2.
 NSaved= 2 IEnMin= 2 EnMin= -39.8355832483639     IErMin= 2 ErrMin= 6.66D-04
 ErrMax= 6.66D-04 EMaxC= 1.00D-01 BMatC= 3.31D-05 BMatP= 6.27D-05
 IDIUse=3 WtCom= 9.93D-01 WtEn= 6.66D-03
 Coeff-Com:  0.406D+00 0.594D+00
 Coeff-En:   0.204D+00 0.796D+00
 Coeff:      0.405D+00 0.595D+00
 Gap=     0.231 Goal=   None    Shift=    0.000
 Gap=     0.340 Goal=   None    Shift=    0.000
 RMSDP=1.33D-04 MaxDP=1.78D-03 DE=-1.15D-05 OVMax= 1.92D-03

 Cycle   3  Pass 1  IDiag  1:
 E= -39.8355926065733     Delta-E=       -0.000009358209 Rises=F Damp=F
 DIIS: error= 1.50D-04 at cycle   3 NSaved=   3.
 NSaved= 3 IEnMin= 3 EnMin= -39.8355926065733     IErMin= 3 ErrMin= 1.50D-04
 ErrMax= 1.50D-04 EMaxC= 1.00D-01 BMatC= 1.94D-06 BMatP= 3.31D-05
 IDIUse=3 WtCom= 9.99D-01 WtEn= 1.50D-03
 Coeff-Com:  0.189D-01 0.202D+00 0.779D+00
 Coeff-En:   0.000D+00 0.000D+00 0.100D+01
 Coeff:      0.189D-01 0.202D+00 0.780D+00
 Gap=     0.232 Goal=   None    Shift=    0.000
 Gap=     0.340 Goal=   None    Shift=    0.000
 RMSDP=2.33D-05 MaxDP=2.32D-04 DE=-9.36D-06 OVMax= 2.47D-04

 Cycle   4  Pass 1  IDiag  1:
 E= -39.8355931458242     Delta-E=       -0.000000539251 Rises=F Damp=F
 DIIS: error= 7.88D-06 at cycle   4 NSaved=   4.
 NSaved= 4 IEnMin= 4 EnMin= -39.8355931458242     IErMin= 4 ErrMin= 7.88D-06
 ErrMax= 7.88D-06 EMaxC= 1.00D-01 BMatC= 4.40D-09 BMatP= 1.94D-06
 IDIUse=1 WtCom= 1.00D+00 WtEn= 0.00D+00
 Coeff-Com: -0.687D-02-0.219D-01-0.990D-01 0.113D+01
 Coeff:     -0.687D-02-0.219D-01-0.990D-01 0.113D+01
 Gap=     0.232 Goal=   None    Shift=    0.000
 Gap=     0.340 Goal=   None    Shift=    0.000
 RMSDP=2.75D-06 MaxDP=4.37D-05 DE=-5.39D-07 OVMax= 4.86D-05

 Cycle   5  Pass 1  IDiag  1:
 E= -39.8355931487072     Delta-E=       -0.000000002883 Rises=F Damp=F
 DIIS: error= 1.29D-06 at cycle   5 NSaved=   5.
 NSaved= 5 IEnMin= 5 EnMin= -39.8355931487072     IErMin= 5 ErrMin= 1.29D-06
 ErrMax= 1.29D-06 EMaxC= 1.00D-01 BMatC= 1.10D-10 BMatP= 4.40D-09
 IDIUse=1 WtCom= 1.00D+00 WtEn= 0.00D+00
 Coeff-Com:  0.133D-02 0.148D-02 0.882D-02-0.272D+00 0.126D+01
 Coeff:      0.133D-02 0.148D-02 0.882D-02-0.272D+00 0.126D+01
 Gap=     0.232 Goal=   None    Shift=    0.000
 Gap=     0.340 Goal=   None    Shift=    0.000
 RMSDP=5.80D-07 MaxDP=7.58D-06 DE=-2.88D-09 OVMax= 9.20D-06

 Cycle   6  Pass 1  IDiag  1:
 E= -39.8355931488067     Delta-E=       -0.000000000099 Rises=F Damp=F
 DIIS: error= 2.45D-07 at cycle   6 NSaved=   6.
 NSaved= 6 IEnMin= 6 EnMin= -39.8355931488067     IErMin= 6 ErrMin= 2.45D-07
 ErrMax= 2.45D-07 EMaxC= 1.00D-01 BMatC= 4.16D-12 BMatP= 1.10D-10
 IDIUse=1 WtCom= 1.00D+00 WtEn= 0.00D+00
 Coeff-Com: -0.322D-03 0.112D-03-0.579D-03 0.746D-01-0.493D+00 0.142D+01
 Coeff:     -0.322D-03 0.112D-03-0.579D-03 0.746D-01-0.493D+00 0.142D+01
 Gap=     0.232 Goal=   None    Shift=    0.000
 Gap=     0.340 Goal=   None    Shift=    0.000
 RMSDP=1.32D-07 MaxDP=9.33D-07 DE=-9.95D-11 OVMax= 1.14D-06

 Cycle   7  Pass 1  IDiag  1:
 E= -39.8355931488103     Delta-E=       -0.000000000004 Rises=F Damp=F
 DIIS: error= 1.78D-08 at cycle   7 NSaved=   7.
 NSaved= 7 IEnMin= 7 EnMin= -39.8355931488103     IErMin= 7 ErrMin= 1.78D-08
 ErrMax= 1.78D-08 EMaxC= 1.00D-01 BMatC= 2.36D-14 BMatP= 4.16D-12
 IDIUse=1 WtCom= 1.00D+00 WtEn= 0.00D+00
 Coeff-Com:  0.320D-04-0.452D-04 0.232D-04-0.750D-02 0.559D-01-0.194D+00
 Coeff-Com:  0.115D+01
 Coeff:      0.320D-04-0.452D-04 0.232D-04-0.750D-02 0.559D-01-0.194D+00
 Coeff:      0.115D+01
 Gap=     0.232 Goal=   None    Shift=    0.000
 Gap=     0.340 Goal=   None    Shift=    0.000
 RMSDP=6.66D-09 MaxDP=3.83D-08 DE=-3.58D-12 OVMax= 5.06D-08

 SCF Done:  E(UB3LYP) =  -39.8355931488     A.U. after    7 cycles
             Convg  =    0.6660D-08             -V/T =  2.0067
 <Sx>= 0.0000 <Sy>= 0.0000 <Sz>= 0.5000 <S**2>= 0.7532 S= 0.5016
 <L.S>=  0.00000000000    
 KE= 3.957205396197D+01 PE=-1.110943689125D+02 EE= 2.204576845869D+01
 Annihilation of the first spin contaminant:
 S**2 before annihilation     0.7532,   after     0.7500
 Leave Link  502 at Sat Aug 17 17:53:27 2024, MaxMem=   13107200 cpu:       2.2
 (Enter /programs/64bit/g09/g09-gfortran/bin/l701.exe)
 Compute integral first derivatives.
 ... and contract with generalized density number  0.
 Leave Link  701 at Sat Aug 17 17:53:27 2024, MaxMem=   13107200 cpu:       0.1
 (Enter /programs/64bit/g09/g09-gfortran/bin/l702.exe)
 L702 exits ... SP integral derivatives will be done elsewhere.
 Leave Link  702 at Sat Aug 17 17:53:28 2024, MaxMem=   13107200 cpu:       0.0
 (Enter /programs/64bit/g09/g09-gfortran/bin/l703.exe)
 Compute integral first derivatives, UseDBF=F ICtDFT=           0.
 Integral derivatives from FoFDir, PRISM(SPDF).
 Calling FoFJK, ICntrl=      2127 FMM=F ISym2X=1 I1Cent= 0 IOpClX= 1 NMat=1 NMatS=1 NMatT=0.
 FoFCou: FMM=F IPFlag=           0 FMFlag=      100000 FMFlg1=         800
         NFxFlg=           0 DoJE=F BraDBF=F KetDBF=F FulRan=T
         Omega=  0.000000  0.000000  1.000000  0.000000  0.000000 ICntrl=    2127 IOpCl=  1
         NMat0=    1 NMatS0=    1 NMatT0=    0 NMatD0=    1 NMtDS0=    0 NMtDT0=    0
         I1Cent=           0 NGrid=           0.
 Petite list used in FoFCou.
 Leave Link  703 at Sat Aug 17 17:53:28 2024, MaxMem=   13107200 cpu:       0.7
 (Enter /programs/64bit/g09/g09-gfortran/bin/l716.exe)
 Dipole        = 4.06756404D-31 1.51278989D-12 7.56673479D-07
 ***** Axes restored to original set *****
 -------------------------------------------------------------------
 Center     Atomic                   Forces (Hartrees/Bohr)
 Number     Number              X              Y              Z
 -------------------------------------------------------------------
      1        6           0.000000000   -0.000000000   -0.000001031
      2        1           0.000000000   -0.000000000    0.000237065
      3        1           0.000205192   -0.000000000   -0.000118017
      4        1          -0.000205192    0.000000000   -0.000118017
 -------------------------------------------------------------------
 Cartesian Forces:  Max     0.000237065 RMS     0.000118415
 Leave Link  716 at Sat Aug 17 17:53:29 2024, MaxMem=   13107200 cpu:       0.0
 (Enter /programs/64bit/g09/g09-gfortran/bin/l103.exe)

 GradGradGradGradGradGradGradGradGradGradGradGradGradGradGradGradGradGrad
 Berny optimization.
 Using GEDIIS/GDIIS optimizer.
 Internal  Forces:  Max     0.000237065 RMS     0.000155041
 Search for a local minimum.
 Step number   2 out of a maximum of   20
 All quantities printed in internal units (Hartrees-Bohrs-Radians)
 RMS Force = .15504D-03 SwitMx=.10000D-02 MixMth= 2
 Mixed Optimization -- En-DIIS/RFO-DIIS
 Update second derivatives using D2CorX and points    1    2
 DE= -8.58D-05 DEPred=-8.99D-05 R= 9.55D-01
 SS=  1.41D+00  RLast= 2.27D-02 DXNew= 5.0454D-01 6.8125D-02
 Trust test= 9.55D-01 RLast= 2.27D-02 DXMaxT set to 3.00D-01
 The second derivative matrix:
                          R1        R2        R3        A1        A2
           R1           0.35422
           R2           0.00608   0.35420
           R3           0.00608   0.00608   0.35420
           A1          -0.00001  -0.00001  -0.00001   0.16000
           A2          -0.00001  -0.00001  -0.00001  -0.00000   0.16000
           A3           0.00001   0.00001   0.00001   0.00000   0.00000
           D1          -0.00000  -0.00000  -0.00000  -0.00000  -0.00000
                          A3        D1
           A3           0.16000
           D1           0.00000   0.00235
 Use linear search instead of GDIIS.
     Eigenvalues ---    0.00235   0.16000   0.16000   0.34813   0.34813
     Eigenvalues ---    0.366371000.00000
[...]
 --------------------------------------------------------


 ---------------------------------------------------------------------------------
              Anisotropic Spin Dipole Couplings in Principal Axis System
 ---------------------------------------------------------------------------------

       Atom             a.u.   MegaHertz   Gauss  10(-4) cm-1        Axes

              Baa    -0.5239   -70.299   -25.084   -23.449  0.0000  1.0000 -0.0000
     1 C(13)  Bbb    -0.5239   -70.299   -25.084   -23.449  1.0000 -0.0000  0.0000
              Bcc     1.0477   140.597    50.169    46.898  0.0000  0.0000  1.0000
 
              Baa    -0.0707   -37.706   -13.455   -12.577  1.0000 -0.0000  0.0000
     2 H(1)   Bbb    -0.0088    -4.708    -1.680    -1.571  0.0000  0.0000  1.0000
              Bcc     0.0795    42.415    15.135    14.148  0.0000  1.0000 -0.0000
 
              Baa    -0.0707   -37.706   -13.455   -12.577 -0.5000  0.8660  0.0000
     3 H(1)   Bbb    -0.0088    -4.709    -1.680    -1.571  0.0000  0.0000  1.0000
              Bcc     0.0795    42.415    15.135    14.148  0.8660  0.5000 -0.0000
 
              Baa    -0.0707   -37.706   -13.455   -12.577  0.5000  0.8660  0.0000
     4 H(1)   Bbb    -0.0088    -4.709    -1.680    -1.571  0.0000  0.0000  1.0000
              Bcc     0.0795    42.415    15.135    14.148  0.8660 -0.5000  0.0000
 

 ---------------------------------------------------------------------------------

 No NMR shielding tensors so no spin-rotation constants.
 Leave Link  601 at Sat Aug 17 17:53:42 2024, MaxMem=   13107200 cpu:       0.2
 (Enter /programs/64bit/g09/g09-gfortran/bin/l701.exe)
 Compute integral second derivatives.
 ... and contract with generalized density number  0.
 Leave Link  701 at Sat Aug 17 17:53:42 2024, MaxMem=   13107200 cpu:       0.1
 (Enter /programs/64bit/g09/g09-gfortran/bin/l702.exe)
 L702 exits ... SP integral derivatives will be done elsewhere.
 Leave Link  702 at Sat Aug 17 17:53:42 2024, MaxMem=   13107200 cpu:       0.0
 (Enter /programs/64bit/g09/g09-gfortran/bin/l703.exe)
 Compute integral second derivatives, UseDBF=F ICtDFT=           0.
 Integral derivatives from FoFDir, PRISM(SPDF).
 Calling FoFJK, ICntrl=    100127 FMM=F ISym2X=1 I1Cent= 0 IOpClX= 1 NMat=1 NMatS=1 NMatT=0.
 FoFCou: FMM=F IPFlag=           0 FMFlag=      100000 FMFlg1=         800
         NFxFlg=           0 DoJE=F BraDBF=F KetDBF=F FulRan=T
         Omega=  0.000000  0.000000  1.000000  0.000000  0.000000 ICntrl=  100127 IOpCl=  1
         NMat0=    1 NMatS0=    1 NMatT0=    0 NMatD0=    1 NMtDS0=    0 NMtDT0=    0
         I1Cent=           0 NGrid=           0.
 Petite list used in FoFCou.
 Leave Link  703 at Sat Aug 17 17:53:44 2024, MaxMem=   13107200 cpu:       2.4
 (Enter /programs/64bit/g09/g09-gfortran/bin/l716.exe)
 Dipole        =-5.26831183D-14-7.52956450D-07 1.73350480D-33
 Polarizability= 1.27537179D+01 1.50318375D-09 1.27539113D+01
                 1.13328093D-10-1.08395274D-10 1.11027232D+01
 Full mass-weighted force constant matrix:
 Low frequencies ---  -66.5363  -54.2649  -49.4820   -0.0014   -0.0010   -0.0008
 Low frequencies ---  589.2620 1430.3460 1430.4098
 Diagonal vibrational polarizability:
        0.1175342       0.1175586      10.1880115
 Harmonic frequencies (cm**-1), IR intensities (KM/Mole), Raman scattering
 activities (A**4/AMU), depolarization ratios for plane and unpolarized
 incident light, reduced masses (AMU), force constants (mDyne/A),
 and normal coordinates:
                     1                      2                      3
                    A"                     A'                     A'
 Frequencies --   589.2613              1430.3460              1430.4098
 Red. masses --     1.2356                 1.1033                 1.1033
 Frc consts  --     0.2528                 1.3299                 1.3300
 IR Inten    --   131.4535                 7.2646                 7.2673
  Atom  AN      X      Y      Z        X      Y      Z        X      Y      Z
     1   6    -0.00   0.00   0.14    -0.09  -0.00  -0.00    -0.00   0.09  -0.00
     2   1     0.00   0.00  -0.57     0.81  -0.00   0.00     0.00   0.07   0.00
     3   1    -0.00  -0.00  -0.57     0.15  -0.38   0.00     0.38  -0.59   0.00
     4   1     0.00  -0.00  -0.57     0.15   0.38   0.00    -0.38  -0.59   0.00
                     4                      5                      6
                    A'                     A'                     A'
 Frequencies --  3130.3404              3317.9291              3317.9768
 Red. masses --     1.0078                 1.1171                 1.1171
 Frc consts  --     5.8186                 7.2456                 7.2457
 IR Inten    --     0.0000                 8.9901                 8.9897
  Atom  AN      X      Y      Z        X      Y      Z        X      Y      Z
     1   6     0.00  -0.00   0.00     0.10  -0.00  -0.00     0.00   0.10  -0.00
     2   1    -0.00  -0.58  -0.00     0.02   0.00   0.00     0.00  -0.81   0.00
     3   1     0.50   0.29  -0.00    -0.60  -0.36   0.00    -0.36  -0.19   0.00
     4   1    -0.50   0.29  -0.00    -0.60   0.36   0.00     0.36  -0.19   0.00

 -------------------
 - Thermochemistry -
 -------------------
 Temperature   298.150 Kelvin.  Pressure   1.00000 Atm.
 Atom     1 has atomic number  6 and mass  12.00000
 Atom     2 has atomic number  1 and mass   1.00783
 Atom     3 has atomic number  1 and mass   1.00783
 Atom     4 has atomic number  1 and mass   1.00783
 Molecular mass:    15.02348 amu.
 Principal axes and moments of inertia in atomic units:
                           1         2         3
     Eigenvalues --     6.33255   6.33261  12.66517
           X            1.00000   0.00000   0.00000
           Y           -0.00000   1.00000   0.00000
           Z            0.00000  -0.00000   1.00000
 This molecule is an asymmetric top.
 Rotational symmetry number  1.
 Rotational temperatures (Kelvin)     13.67755    13.67742     6.83874
 Rotational constants (GHZ):         284.99434   284.99146   142.49645
 Zero-point vibrational energy      79050.8 (Joules/Mol)
                                   18.89360 (Kcal/Mol)
 Warning -- explicit consideration of   1 degrees of freedom as
           vibrations may cause significant error
 Vibrational temperatures:    847.81  2057.95  2058.04  4503.86  4773.75
          (Kelvin)           4773.82
 
 Zero-point correction=                           0.030109 (Hartree/Particle)
 Thermal correction to Energy=                    0.033121
 Thermal correction to Enthalpy=                  0.034065
 Thermal correction to Gibbs Free Energy=         0.010337
 Sum of electronic and zero-point Energies=            -39.805484
 Sum of electronic and thermal Energies=               -39.802473
 Sum of electronic and thermal Enthalpies=             -39.801528
 Sum of electronic and thermal Free Energies=          -39.825256
 
                     E (Thermal)             CV                S
                      KCal/Mol        Cal/Mol-Kelvin    Cal/Mol-Kelvin
 Total                   20.783              7.207             49.939
 Electronic               0.000              0.000              1.377
 Translational            0.889              2.981             34.068
 Rotational               0.889              2.981             13.993
 Vibrational             19.006              1.246              0.500
 Vibration     1          0.947              1.055              0.468
                       Q            Log10(Q)             Ln(Q)
 Total Bot       0.175877D-04         -4.754790        -10.948308
 Total V=0       0.124250D+10          9.094296         20.940391
 Vib (Bot)       0.150604D-13        -13.822163        -31.826707
 Vib (Bot)    1  0.256196D+00         -0.591427         -1.361812
 Vib (V=0)       0.106395D+01          0.026923          0.061992
 Vib (V=0)    1  0.106182D+01          0.026049          0.059980
 Electronic      0.200000D+01          0.301030          0.693147
 Translational   0.228882D+07          6.359611         14.643545
 Rotational      0.255113D+03          2.406733          5.541707
 
                                      methyl with imposed symmetry and hf/6-31++G
  basis function
                                                             IR Spectrum
 
      3      3                                                                1                                                      
      3      1                                                                4                               5                      
      1      3                                                                3                               8                      
      8      0                                                                0                               9                      
 
      X                                                                       X                               X                      
      X                                                                       X                               X                      
      X                                                                                                       X                      
                                                                                                              X                      
                                                                                                              X                      
                                                                                                              X                      
                                                                                                              X                      
                                                                                                              X                      
                                                                                                              X                      
                                                                                                              X                      
                                                                                                              X                      
                                                                                                              X                      
                                                                                                              X                      
                                                                                                              X                      
                                                                                                              X                      
                                                                                                              X                      
                                                                                                              X                      
                                                                                                              X                      
                                                                                                              X                      
                                                                                                              X                      
 
 ***** Axes restored to original set *****
 -------------------------------------------------------------------
 Center     Atomic                   Forces (Hartrees/Bohr)
 Number     Number              X              Y              Z
 -------------------------------------------------------------------
      1        6           0.000000000    0.000000000   -0.000001031
      2        1           0.000000000   -0.000000000    0.000237065
      3        1           0.000205192    0.000000000   -0.000118017
      4        1          -0.000205192   -0.000000000   -0.000118017
 -------------------------------------------------------------------
 Cartesian Forces:  Max     0.000237065 RMS     0.000118415
 Force constants in Cartesian coordinates: 
                1             2             3             4             5 
      1  0.621591D+00
      2  0.000000D+00  0.317340D-01
      3  0.000000D+00  0.000000D+00  0.621601D+00
      4 -0.547257D-01  0.000000D+00  0.000000D+00  0.468789D-01
      5  0.000000D+00 -0.106038D-01  0.000000D+00  0.000000D+00  0.348096D-02
      6  0.000000D+00  0.000000D+00 -0.359678D+00  0.000000D+00  0.000000D+00
      7 -0.283433D+00  0.000000D+00  0.132038D+00  0.392343D-02  0.000000D+00
      8  0.000000D+00 -0.105651D-01  0.000000D+00  0.000000D+00  0.356141D-02
      9  0.132039D+00  0.000000D+00 -0.130962D+00  0.248666D-01  0.000000D+00
     10 -0.283433D+00  0.000000D+00 -0.132038D+00  0.392343D-02  0.000000D+00
     11  0.000000D+00 -0.105651D-01  0.000000D+00  0.000000D+00  0.356141D-02
     12 -0.132039D+00  0.000000D+00 -0.130962D+00 -0.248666D-01  0.000000D+00
                6             7             8             9            10 
      6  0.374801D+00
      7 -0.497734D-02  0.292813D+00
      8  0.000000D+00  0.000000D+00  0.341742D-02
      9 -0.756143D-02 -0.141983D+00  0.000000D+00  0.128857D+00
     10  0.497734D-02 -0.133039D-01  0.000000D+00 -0.149225D-01  0.292813D+00
     11  0.000000D+00  0.000000D+00  0.358627D-02  0.000000D+00  0.000000D+00
     12 -0.756143D-02  0.149225D-01  0.000000D+00  0.966619D-02  0.141983D+00
               11            12 
     11  0.341742D-02
     12  0.000000D+00  0.128857D+00
 Force constants in internal coordinates: 
                1             2             3             4             5 
      1  0.374801D+00
      2 -0.529817D-03  0.374785D+00
      3 -0.529817D-03 -0.528687D-03  0.374785D+00
      4  0.616536D-02  0.616289D-02 -0.123292D-01  0.656215D-01
      5  0.616536D-02 -0.123292D-01  0.616289D-02 -0.328086D-01  0.656215D-01
      6 -0.123307D-01  0.616633D-02  0.616633D-02 -0.328130D-01 -0.328130D-01
      7  0.000000D+00  0.000000D+00  0.000000D+00  0.000000D+00  0.000000D+00
                6             7 
      6  0.656260D-01
      7  0.000000D+00  0.111988D-01
 Leave Link  716 at Sat Aug 17 17:53:45 2024, MaxMem=   13107200 cpu:       0.0
 (Enter /programs/64bit/g09/g09-gfortran/bin/l103.exe)

 GradGradGradGradGradGradGradGradGradGradGradGradGradGradGradGradGradGrad
 Berny optimization.
 Internal  Forces:  Max     0.000237065 RMS     0.000155041
 Search for a local minimum.
 Step number   1 out of a maximum of    2
 All quantities printed in internal units (Hartrees-Bohrs-Radians)
 Second derivative matrix not updated -- analytic derivatives used.
 The second derivative matrix:
                          R1        R2        R3        A1        A2
           R1           0.37480
           R2          -0.00053   0.37479
           R3          -0.00053  -0.00053   0.37479
           A1           0.00617   0.00616  -0.01233   0.06562
           A2           0.00617  -0.01233   0.00616  -0.03281   0.06562
           A3          -0.01233   0.00617   0.00617  -0.03281  -0.03281
           D1           0.00000   0.00000   0.00000   0.00000  -0.00000
                          A3        D1
           A3           0.06563
           D1          -0.00000   0.01120
     Eigenvalues ---    0.01120   0.09720   0.09721   0.37373   0.37654
     Eigenvalues ---    0.376561000.00000
 Angle between quadratic step and forces=   0.26 degrees.
 Linear search not attempted -- first point.
 Iteration  1 RMS(Cart)=  0.00041485 RMS(Int)=  0.00000000
 Iteration  2 RMS(Cart)=  0.00000000 RMS(Int)=  0.00000000
 ClnCor:  largest displacement from symmetrization is 8.04D-11 for atom     1.
 Variable       Old X    -DE/DX   Delta X   Delta X   Delta X     New X
                                 (Linear)    (Quad)   (Total)
    R1        2.04669   0.00024   0.00000   0.00063   0.00063   2.04732
    R2        2.04669   0.00024   0.00000   0.00063   0.00063   2.04732
    R3        2.04669   0.00024   0.00000   0.00063   0.00063   2.04732
    A1        2.09439  -0.00000   0.00000  -0.00000  -0.00000   2.09439
    A2        2.09439  -0.00000   0.00000  -0.00000  -0.00000   2.09439
    A3        2.09440   0.00000   0.00000   0.00001   0.00001   2.09441
    D1        3.14159   0.00000   0.00000  -0.00000   0.00000   3.14159
         Item               Value     Threshold  Converged?
 Maximum Force            0.000237     0.000450     YES
 RMS     Force            0.000155     0.000300     YES
 Maximum Displacement     0.000632     0.001800     YES
 RMS     Displacement     0.000415     0.001200     YES
 Predicted change in Energy=-2.251142D-07
 Optimization completed.
    -- Stationary point found.
                           ----------------------------
                           !   Optimized Parameters   !
                           ! (Angstroms and Degrees)  !
 --------------------------                            --------------------------
 ! Name  Definition              Value          Derivative Info.                !
 --------------------------------------------------------------------------------
 ! R1    R(1,2)                  1.0831         -DE/DX =    0.0002              !
 ! R2    R(1,3)                  1.0831         -DE/DX =    0.0002              !
 ! R3    R(1,4)                  1.0831         -DE/DX =    0.0002              !
 ! A1    A(2,1,3)              119.9998         -DE/DX =    0.0                 !
 ! A2    A(2,1,4)              119.9998         -DE/DX =    0.0                 !
 ! A3    A(3,1,4)              120.0004         -DE/DX =    0.0                 !
 ! D1    D(2,1,4,3)            180.0            -DE/DX =    0.0                 !
 --------------------------------------------------------------------------------
 GradGradGradGradGradGradGradGradGradGradGradGradGradGradGradGradGradGrad

 Leave Link  103 at Sat Aug 17 17:53:45 2024, MaxMem=   13107200 cpu:       0.0
 (Enter /programs/64bit/g09/g09-gfortran/bin/l9999.exe)
 1\1\GINC-MOLMOD\Freq\UB3LYP\6-31++G\C1H3(2)\OSPITE\17-Aug-2024\0\\#P G
 eom=AllCheck Guess=TCheck SCRF=Check GenChk UB3LYP/6-31++G Freq\\methy
 l with imposed symmetry and hf/6-31++G basis function\\0,2\C,0.,0.,-0.
 0000014136\H,0.,0.,1.0830598784\H,0.937961695,0.,-0.5415292324\H,-0.93
 7961695,0.,-0.5415292324\\Version=EM64L-G09RevA.02\State=2-A"\HF=-39.8
 355931\S2=0.753167\S2-1=0.\S2A=0.750006\RMSD=2.321e-10\RMSF=1.184e-04\
 ZeroPoint=0.0301089\Thermal=0.0331205\Dipole=0.,0.,0.0000008\DipoleDer
 iv=0.0167915,0.,0.,0.,-0.570649,0.,0.,0.,0.0167693,0.0689866,0.,0.,0.,
 0.1903468,0.,0.,0.,-0.0801788,-0.042889,0.,0.0645899,0.,0.1901511,0.,0
 .0645844,0.,0.0317048,-0.042889,0.,-0.0645899,0.,0.1901511,0.,-0.06458
 44,0.,0.0317048\Polar=12.7537179,0.,11.1027232,0.,0.,12.7539113\PG=CS 
 [SG(C1H3)]\NImag=0\\0.62159087,0.,0.03173398,0.,0.,0.62160107,-0.05472
 575,0.,0.,0.04687888,0.,-0.01060378,0.,0.,0.00348096,0.,0.,-0.35967781
 ,0.,0.,0.37480068,-0.28343256,0.,0.13203830,0.00392343,0.,-0.00497734,
 0.29281303,0.,-0.01056510,0.,0.,0.00356141,0.,0.,0.00341742,0.13203924
 ,0.,-0.13096163,0.02486664,0.,-0.00756143,-0.14198342,0.,0.12885687,-0
 .28343256,0.,-0.13203830,0.00392343,0.,0.00497734,-0.01330390,0.,-0.01
 492246,0.29281303,0.,-0.01056510,0.,0.,0.00356141,0.,0.,0.00358627,0.,
 0.,0.00341742,-0.13203924,0.,-0.13096163,-0.02486664,0.,-0.00756143,0.
 01492246,0.,0.00966619,0.14198342,0.,0.12885687\\0.,0.,0.00000103,0.,0
 .,-0.00023707,-0.00020519,0.,0.00011802,0.00020519,0.,0.00011802\\\@


 Change starts when someone sees the next step.
                            -- William Drayton
 Job cpu time:  0 days  0 hours  0 minutes 13.5 seconds.
 File lengths (MBytes):  RWF=      5 Int=      0 D2E=      0 Chk=      1 Scr=      1
 Normal termination of Gaussian 09 at Sat Aug 17 17:53:45 2024.
