 Entering Gaussian System, Link 0=/g100_work/pMI24_ChiCa/g09d1/g09d01/d01/build-node-6-2-59348/src/main/g09
 Input=geom.com
 Output=geom.log
 Initial command:
 /g100_work/pMI24_ChiCa/g09d1/g09d01/d01/build-node-6-2-59348/src/main/l1.exe "/g100_scratch/userexternal/ecabiati/g16_14399719/Gau-17436.inp" -scrdir="/g100_scratch/userexternal/ecabiati/g16_14399719/"
 Entering Link 1 = /g100_work/pMI24_ChiCa/g09d1/g09d01/d01/build-node-6-2-59348/src/main/l1.exe PID=     17437.
  
 Copyright (c) 1988,1990,1992,1993,1995,1998,2003,2009,2013,
            Gaussian, Inc.  All Rights Reserved.
  
 This is part of the Gaussian(R) 09 program.  It is based on
 the Gaussian(R) 03 system (copyright 2003, Gaussian, Inc.),
 the Gaussian(R) 98 system (copyright 1998, Gaussian, Inc.),
 the Gaussian(R) 94 system (copyright 1995, Gaussian, Inc.),
 the Gaussian 92(TM) system (copyright 1992, Gaussian, Inc.),
 the Gaussian 90(TM) system (copyright 1990, Gaussian, Inc.),
 the Gaussian 88(TM) system (copyright 1988, Gaussian, Inc.),
 the Gaussian 86(TM) system (copyright 1986, Carnegie Mellon
 University), and the Gaussian 82(TM) system (copyright 1983,
 Carnegie Mellon University). Gaussian is a federally registered
 trademark of Gaussian, Inc.
  
 This software contains proprietary and confidential information,
 including trade secrets, belonging to Gaussian, Inc.
  
 This software is provided under written license and may be
 used, copied, transmitted, or stored only in accord with that
 written license.
  
 The following legend is applicable only to US Government
 contracts under FAR:
  
                    RESTRICTED RIGHTS LEGEND
  
 Use, reproduction and disclosure by the US Government is
 subject to restrictions as set forth in subparagraphs (a)
 and (c) of the Commercial Computer Software - Restricted
 Rights clause in FAR 52.227-19.
  
 Gaussian, Inc.
 340 Quinnipiac St., Bldg. 40, Wallingford CT 06492
  
  
 ---------------------------------------------------------------
 Warning -- This program may not be used in any manner that
 competes with the business of Gaussian, Inc. or will provide
 assistance to any competitor of Gaussian, Inc.  The licensee
 of this program is prohibited from giving any competitor of
 Gaussian, Inc. access to this program.  By using this program,
 the user acknowledges that Gaussian, Inc. is engaged in the
 business of creating and licensing software in the field of
 computational chemistry and represents and warrants to the
 licensee that it is not a competitor of Gaussian, Inc. and that
 it will not use this program in any manner prohibited above.
 ---------------------------------------------------------------
  

 Cite this work as:
 Gaussian 09, Revision D.01,
 M. J. Frisch, G. W. Trucks, H. B. Schlegel, G. E. Scuseria, 
 M. A. Robb, J. R. Cheeseman, G. Scalmani, V. Barone, B. Mennucci, 
 G. A. Petersson, H. Nakatsuji, M. Caricato, X. Li, H. P. Hratchian, 
 A. F. Izmaylov, J. Bloino, G. Zheng, J. L. Sonnenberg, M. Hada, 
 M. Ehara, K. Toyota, R. Fukuda, J. Hasegawa, M. Ishida, T. Nakajima, 
 Y. Honda, O. Kitao, H. Nakai, T. Vreven, J. A. Montgomery, Jr., 
 J. E. Peralta, F. Ogliaro, M. Bearpark, J. J. Heyd, E. Brothers, 
 K. N. Kudin, V. N. Staroverov, T. Keith, R. Kobayashi, J. Normand, 
 K. Raghavachari, A. Rendell, J. C. Burant, S. S. Iyengar, J. Tomasi, 
 M. Cossi, N. Rega, J. M. Millam, M. Klene, J. E. Knox, J. B. Cross, 
 V. Bakken, C. Adamo, J. Jaramillo, R. Gomperts, R. E. Stratmann, 
 O. Yazyev, A. J. Austin, R. Cammi, C. Pomelli, J. W. Ochterski, 
 R. L. Martin, K. Morokuma, V. G. Zakrzewski, G. A. Voth, 
 P. Salvador, J. J. Dannenberg, S. Dapprich, A. D. Daniels, 
 O. Farkas, J. B. Foresman, J. V. Ortiz, J. Cioslowski, 
 and D. J. Fox, Gaussian, Inc., Wallingford CT, 2013.
 
 ******************************************
 Gaussian 09:  EM64L-G09RevD.01 24-Apr-2013
                14-Sep-2024 
 ******************************************
 %nproc=24
 Will use up to   24 processors via shared memory.
 %mem=2Gb
 %chk=nh3+h_to_nh2+h2.chk
 ----------------------------------------------------------------------
 #p B3LYP/6-31g(d,p) opt=Z-Matrix nosym temperature=300 pop=full gfinpu
 t
 ----------------------------------------------------------------------
 1/10=7,14=-1,18=40,26=3,38=1,112=300000/1,3;
 2/12=2,15=1,17=6,18=5,29=3,40=1/2;
 3/5=1,6=6,7=101,11=2,16=1,24=10,25=1,30=1,71=1,74=-5/1,2,3;
 4//1;
 5/5=2,38=5/2;
 6/7=3,28=1/1;
 7/29=1,30=1/1,2,3,16;
 1/10=7,14=-1,18=40,26=3/3(2);
 2/15=1,29=3/2;
 99//99;
 2/15=1,29=3/2;
 3/5=1,6=6,7=101,11=2,16=1,25=1,30=1,71=1,74=-5/1,2,3;
 4/5=5,16=3,69=1/1;
 5/5=2,38=5/2;
 7/30=1/1,2,3,16;
 1/14=-1,18=40,26=3/3(-5);
 2/15=1,29=3/2;
 6/7=3,19=2,28=1/1;
 99/9=1/99;
 Leave Link    1 at Sat Sep 14 01:26:44 2024, MaxMem=   268435456 cpu:         0.2
 (Enter /g100_work/pMI24_ChiCa/g09d1/g09d01/d01/build-node-6-2-59348/src/main/l101.exe)
 ---------------------------
 nh3+h to nh2+h2 pulling hh7
 ---------------------------
 Symbolic Z-matrix:
 Charge =  0 Multiplicity = 2
 n
 h                    1    hn2
 h                    1    hn3      2    hnh3
 h                    1    hn4      3    hnh4     2    dih4     0
 xx                   3    xxh5     1    xxhn5    4    dih5     0
 h                    3    hh6      5    hhxx6    1    dih6     0
       Variables:
  hn2                   1.0013                   
  hn3                   1.0018                   
  hnh3                120.0077                   
  hn4                   1.0013                   
  hnh4                120.0077                   
  dih4                180.                       
  xxh5                  1.0215  -1        0.     
  xxhn5                76.9226  -1        0.     
  dih5                 77.3649  -1        0.     
  hh6                   2.4653 Scan 20   -0.08   
  hhxx6               103.0774                   
  dih6                180.                       
 
 NAtoms=      5 NQM=        5 NQMF=       0 NMMI=      0 NMMIF=      0
                NMic=       0 NMicF=      0.
                    Isotopes and Nuclear Properties:
 (Nuclear quadrupole moments (NQMom) in fm**2, nuclear magnetic moments (NMagM)
  in nuclear magnetons)

  Atom         1           2           3           4           5
 IAtWgt=          14           1           1           1           1
 AtmWgt=  14.0030740   1.0078250   1.0078250   1.0078250   1.0078250
 NucSpn=           2           1           1           1           1
 AtZEff=   0.0000000   0.0000000   0.0000000   0.0000000   0.0000000
 NQMom=    2.0440000   0.0000000   0.0000000   0.0000000   0.0000000
 NMagM=    0.4037610   2.7928460   2.7928460   2.7928460   2.7928460
 AtZNuc=   7.0000000   1.0000000   1.0000000   1.0000000   1.0000000
 Leave Link  101 at Sat Sep 14 01:26:44 2024, MaxMem=   268435456 cpu:         0.2
 (Enter /g100_work/pMI24_ChiCa/g09d1/g09d01/d01/build-node-6-2-59348/src/main/l103.exe)

 GradGradGradGradGradGradGradGradGradGradGradGradGradGradGradGradGradGrad
 Berny optimization.
 Initialization pass.
                       ----------------------------
                       !    Initial Parameters    !
                       ! (Angstroms and Degrees)  !
 ----------------------                            ----------------------
 !      Name          Value   Derivative information (Atomic Units)     !
 ------------------------------------------------------------------------
 !       hn2         1.0013   estimate D2E/DX2                          !
 !       hn3         1.0018   estimate D2E/DX2                          !
 !      hnh3       120.0077   estimate D2E/DX2                          !
 !       hn4         1.0013   estimate D2E/DX2                          !
 !      hnh4       120.0077   estimate D2E/DX2                          !
 !      dih4       180.0      estimate D2E/DX2                          !
 !      xxh5         1.0215   Frozen                                    !
 !      xxhn5       76.9226   Frozen                                    !
 !      dih5        77.3649   Frozen                                    !
 !       hh6         2.4653   Scan                                      !
 !      hhxx6      103.0774   estimate D2E/DX2                          !
 !      dih6       180.0      estimate D2E/DX2                          !
 ------------------------------------------------------------------------
 Trust Radius=3.00D-01 FncErr=1.00D-07 GrdErr=1.00D-06
 Number of optimizations in scan=  21
 Number of steps in this run=     22 maximum allowed number of steps=    100.
 GradGradGradGradGradGradGradGradGradGradGradGradGradGradGradGradGradGrad

 Leave Link  103 at Sat Sep 14 01:26:44 2024, MaxMem=   268435456 cpu:         0.1
 (Enter /g100_work/pMI24_ChiCa/g09d1/g09d01/d01/build-node-6-2-59348/src/main/l202.exe)
 ---------------------------------------------------------------------------------------------------
                            Z-MATRIX (ANGSTROMS AND DEGREES)
   CD    Cent   Atom    N1       Length/X        N2       Alpha/Y        N3        Beta/Z          J
 ---------------------------------------------------------------------------------------------------
      1      1  N 
      2      2  H        1   1.001300(     1)
      3      3  H        1   1.001800(     2)      2  120.008(     6)
      4      4  H        1   1.001300(     3)      3  120.008(     7)      2  180.000(    10)      0
      5         X        3   1.021500(     4)      1   76.923(     8)      4   77.365(    11)      0
      6      5  H        3   2.465300(     5)      5  103.077(     9)      1  180.000(    12)      0
 ---------------------------------------------------------------------------------------------------
                         Z-Matrix orientation:                         
 ---------------------------------------------------------------------
 Center     Atomic      Atomic             Coordinates (Angstroms)
 Number     Number       Type             X           Y           Z
 ---------------------------------------------------------------------
      1          7           0        0.000000    0.000000    0.000000
      2          1           0        0.000000    0.000000    1.001300
      3          1           0        0.867517    0.000000   -0.501017
      4          1           0       -0.867286    0.000000   -0.500417
      5         -1           0        0.558517    0.970912   -0.573899
      6          1           0        3.002364    0.000000   -1.733954
 ---------------------------------------------------------------------
                    Distance matrix (angstroms):
                    1          2          3          4          5
     1  N    0.000000
     2  H    1.001300   0.000000
     3  H    1.001800   1.734803   0.000000
     4  H    1.001300   1.734168   1.734803   0.000000
     5  X    1.258559   1.932838   1.021500   1.726552   0.000000
     6  H    3.467100   4.061502   2.465300   4.061502   2.874158
                    6
     6  H    0.000000
 Symmetry turned off by external request.
 Stoichiometry    H4N(2)
 Framework group  C2V[C2(HHN),SGV(H2)]
 Deg. of freedom     4
 Full point group                 C2V     NOp   4
 Rotational constants (GHZ):    333.4876582     39.0114407     34.9258134
 Leave Link  202 at Sat Sep 14 01:26:44 2024, MaxMem=   268435456 cpu:         0.2
 (Enter /g100_work/pMI24_ChiCa/g09d1/g09d01/d01/build-node-6-2-59348/src/main/l301.exe)
 Standard basis: 6-31G(d,p) (6D, 7F)
 Ernie: Thresh=  0.10000D-02 Tol=  0.10000D-05 Strict=F.
 AO basis set in the form of general basis input (Overlap normalization):
      1 0
 S   6 1.00       0.000000000000
      0.4173511460D+04  0.1834772160D-02
      0.6274579110D+03  0.1399462700D-01
      0.1429020930D+03  0.6858655181D-01
      0.4023432930D+02  0.2322408730D+00
      0.1282021290D+02  0.4690699481D+00
      0.4390437010D+01  0.3604551991D+00
 SP   3 1.00       0.000000000000
      0.1162636186D+02 -0.1149611817D+00  0.6757974388D-01
      0.2716279807D+01 -0.1691174786D+00  0.3239072959D+00
      0.7722183966D+00  0.1145851947D+01  0.7408951398D+00
 SP   1 1.00       0.000000000000
      0.2120314975D+00  0.1000000000D+01  0.1000000000D+01
 D   1 1.00       0.000000000000
      0.8000000000D+00  0.1000000000D+01
 ****
      2 0
 S   3 1.00       0.000000000000
      0.1873113696D+02  0.3349460434D-01
      0.2825394365D+01  0.2347269535D+00
      0.6401216923D+00  0.8137573261D+00
 S   1 1.00       0.000000000000
      0.1612777588D+00  0.1000000000D+01
 P   1 1.00       0.000000000000
      0.1100000000D+01  0.1000000000D+01
 ****
      3 0
 S   3 1.00       0.000000000000
      0.1873113696D+02  0.3349460434D-01
      0.2825394365D+01  0.2347269535D+00
      0.6401216923D+00  0.8137573261D+00
 S   1 1.00       0.000000000000
      0.1612777588D+00  0.1000000000D+01
 P   1 1.00       0.000000000000
      0.1100000000D+01  0.1000000000D+01
 ****
      4 0
 S   3 1.00       0.000000000000
      0.1873113696D+02  0.3349460434D-01
      0.2825394365D+01  0.2347269535D+00
      0.6401216923D+00  0.8137573261D+00
 S   1 1.00       0.000000000000
      0.1612777588D+00  0.1000000000D+01
 P   1 1.00       0.000000000000
      0.1100000000D+01  0.1000000000D+01
 ****
      5 0
 S   3 1.00       0.000000000000
      0.1873113696D+02  0.3349460434D-01
      0.2825394365D+01  0.2347269535D+00
      0.6401216923D+00  0.8137573261D+00
 S   1 1.00       0.000000000000
      0.1612777588D+00  0.1000000000D+01
 P   1 1.00       0.000000000000
      0.1100000000D+01  0.1000000000D+01
 ****

    35 basis functions,    56 primitive gaussians,    35 cartesian basis functions
     6 alpha electrons        5 beta electrons
       nuclear repulsion energy        13.5552963145 Hartrees.
 IExCor=  402 DFT=T Ex+Corr=B3LYP ExCW=0 ScaHFX=  0.200000
 ScaDFX=  0.800000  0.720000  1.000000  0.810000 ScalE2=  1.000000  1.000000
 IRadAn=      0 IRanWt=     -1 IRanGd=            0 ICorTp=0 IEmpDi=  4
 NAtoms=    5 NActive=    5 NUniq=    5 SFac= 1.00D+00 NAtFMM=   60 NAOKFM=F Big=F
 Integral buffers will be    131072 words long.
 Raffenetti 2 integral format.
 Two-electron integral symmetry is turned off.
 Leave Link  301 at Sat Sep 14 01:26:44 2024, MaxMem=   268435456 cpu:         0.1
 (Enter /g100_work/pMI24_ChiCa/g09d1/g09d01/d01/build-node-6-2-59348/src/main/l302.exe)
 NPDir=0 NMtPBC=     1 NCelOv=     1 NCel=       1 NClECP=     1 NCelD=      1
         NCelK=      1 NCelE2=     1 NClLst=     1 CellRange=     0.0.
 One-electron integrals computed using PRISM.
 NBasis=    35 RedAO= T EigKep=  2.33D-02  NBF=    35
 NBsUse=    35 1.00D-06 EigRej= -1.00D+00 NBFU=    35
 Precomputing XC quadrature grid using
 IXCGrd= 4 IRadAn=           0 IRanWt=          -1 IRanGd=           0 AccXCQ= 0.00D+00.
 Generated NRdTot=       0 NPtTot=           0 NUsed=           0 NTot=          32
 NSgBfM=    35    35    35    35    35 MxSgAt=     5 MxSgA2=     5.
 Leave Link  302 at Sat Sep 14 01:26:45 2024, MaxMem=   268435456 cpu:         1.2
 (Enter /g100_work/pMI24_ChiCa/g09d1/g09d01/d01/build-node-6-2-59348/src/main/l303.exe)
 DipDrv:  MaxL=1.
 Leave Link  303 at Sat Sep 14 01:26:45 2024, MaxMem=   268435456 cpu:         0.2
 (Enter /g100_work/pMI24_ChiCa/g09d1/g09d01/d01/build-node-6-2-59348/src/main/l401.exe)
 ExpMin= 1.61D-01 ExpMax= 4.17D+03 ExpMxC= 6.27D+02 IAcc=1 IRadAn=         1 AccDes= 0.00D+00
 Harris functional with IExCor=  402 and IRadAn=       1 diagonalized for initial guess.
 HarFok:  IExCor=  402 AccDes= 0.00D+00 IRadAn=         1 IDoV= 1 UseB2=F ITyADJ=14
 ICtDFT=  3500011 ScaDFX=  1.000000  1.000000  1.000000  1.000000
 FoFCou: FMM=F IPFlag=           0 FMFlag=      100000 FMFlg1=           0
         NFxFlg=           0 DoJE=T BraDBF=F KetDBF=T FulRan=T
         wScrn=  0.000000 ICntrl=     500 IOpCl=  0 I1Cent=   200000004 NGrid=           0
         NMat0=    1 NMatS0=      1 NMatT0=    0 NMatD0=    1 NMtDS0=    0 NMtDT0=    0
 Symmetry not used in FoFCou.
 Harris En= -57.0445763132109    
 JPrj=0 DoOrth=F DoCkMO=F.
 Initial guess <Sx>= 0.0000 <Sy>= 0.0000 <Sz>= 0.5000 <S**2>= 0.7500 S= 0.5000
 Leave Link  401 at Sat Sep 14 01:26:45 2024, MaxMem=   268435456 cpu:         1.2
 (Enter /g100_work/pMI24_ChiCa/g09d1/g09d01/d01/build-node-6-2-59348/src/main/l502.exe)
 UHF open shell SCF:
 Using DIIS extrapolation, IDIIS=  1040.
 Two-electron integral symmetry not used.
 Keep R1 and R2 ints in memory in canonical form, NReq=1281121.
 IVT=       23285 IEndB=       23285 NGot=   268435456 MDV=   268014642
 LenX=   268014642 LenY=   268012976
 Requested convergence on RMS density matrix=1.00D-08 within 128 cycles.
 Requested convergence on MAX density matrix=1.00D-06.
 Requested convergence on             energy=1.00D-06.
 No special actions if energy rises.
 FoFCou: FMM=F IPFlag=           0 FMFlag=           0 FMFlg1=           0
         NFxFlg=           0 DoJE=F BraDBF=F KetDBF=F FulRan=T
         wScrn=  0.000000 ICntrl=     600 IOpCl=  0 I1Cent=           0 NGrid=           0
         NMat0=    1 NMatS0=    630 NMatT0=    0 NMatD0=    1 NMtDS0=    0 NMtDT0=    0
 Symmetry not used in FoFCou.
 Integral accuracy reduced to 1.0D-05 until final iterations.

 Cycle   1  Pass 0  IDiag  1:
 E= -56.9539504059319    
 DIIS: error= 6.67D-02 at cycle   1 NSaved=   1.
 NSaved= 1 IEnMin= 1 EnMin= -56.9539504059319     IErMin= 1 ErrMin= 6.67D-02
 ErrMax= 6.67D-02  0.00D+00 EMaxC= 1.00D-01 BMatC= 4.44D-01 BMatP= 4.44D-01
 IDIUse=3 WtCom= 3.33D-01 WtEn= 6.67D-01
 Coeff-Com:  0.100D+01
 Coeff-En:   0.100D+01
 Coeff:      0.100D+01
 Gap=     0.483 Goal=   None    Shift=    0.000
 Gap=    -0.027 Goal=   None    Shift=    0.000
 GapD=   -0.027 DampG=0.250 DampE=0.500 DampFc=0.2500 IDamp=-1.
 Damping current iteration by 2.50D-01
 RMSDP=2.49D-02 MaxDP=5.96D-01              OVMax= 9.98D-01

 Cycle   2  Pass 0  IDiag  1:
 E= -56.9725347145187     Delta-E=       -0.018584308587 Rises=F Damp=T
 DIIS: error= 2.56D-02 at cycle   2 NSaved=   2.
 NSaved= 2 IEnMin= 2 EnMin= -56.9725347145187     IErMin= 2 ErrMin= 2.56D-02
 ErrMax= 2.56D-02  0.00D+00 EMaxC= 1.00D-01 BMatC= 3.48D-02 BMatP= 4.44D-01
 IDIUse=3 WtCom= 7.44D-01 WtEn= 2.56D-01
 Coeff-Com: -0.317D+00 0.132D+01
 Coeff-En:   0.287D+00 0.713D+00
 Coeff:     -0.163D+00 0.116D+01
 Gap=     0.334 Goal=   None    Shift=    0.000
 Gap=    -0.133 Goal=   None    Shift=    0.000
 RMSDP=6.04D-03 MaxDP=1.49D-01 DE=-1.86D-02 OVMax= 1.00D+00

 Cycle   3  Pass 0  IDiag  1:
 E= -57.0449170298319     Delta-E=       -0.072382315313 Rises=F Damp=F
 DIIS: error= 1.21D-02 at cycle   3 NSaved=   3.
 NSaved= 3 IEnMin= 3 EnMin= -57.0449170298319     IErMin= 3 ErrMin= 1.21D-02
 ErrMax= 1.21D-02  0.00D+00 EMaxC= 1.00D-01 BMatC= 8.42D-03 BMatP= 3.48D-02
 IDIUse=3 WtCom= 8.79D-01 WtEn= 1.21D-01
 Coeff-Com: -0.196D+00 0.580D+00 0.616D+00
 Coeff-En:   0.000D+00 0.000D+00 0.100D+01
 Coeff:     -0.173D+00 0.510D+00 0.663D+00
 Gap=     0.366 Goal=   None    Shift=    0.000
 Gap=     0.147 Goal=   None    Shift=    0.000
 RMSDP=1.94D-03 MaxDP=3.46D-02 DE=-7.24D-02 OVMax= 3.56D-02

 Cycle   4  Pass 0  IDiag  1:
 E= -57.0476052800006     Delta-E=       -0.002688250169 Rises=F Damp=F
 DIIS: error= 6.27D-03 at cycle   4 NSaved=   4.
 NSaved= 4 IEnMin= 4 EnMin= -57.0476052800006     IErMin= 4 ErrMin= 6.27D-03
 ErrMax= 6.27D-03  0.00D+00 EMaxC= 1.00D-01 BMatC= 4.23D-03 BMatP= 8.42D-03
 IDIUse=3 WtCom= 9.37D-01 WtEn= 6.27D-02
 Coeff-Com: -0.132D+00 0.187D+00-0.363D+00 0.131D+01
 Coeff-En:   0.000D+00 0.000D+00 0.000D+00 0.100D+01
 Coeff:     -0.124D+00 0.175D+00-0.340D+00 0.129D+01
 Gap=     0.316 Goal=   None    Shift=    0.000
 Gap=     0.156 Goal=   None    Shift=    0.000
 RMSDP=1.07D-03 MaxDP=1.79D-02 DE=-2.69D-03 OVMax= 1.85D-02

 Cycle   5  Pass 0  IDiag  1:
 E= -57.0488113596447     Delta-E=       -0.001206079644 Rises=F Damp=F
 DIIS: error= 2.20D-03 at cycle   5 NSaved=   5.
 NSaved= 5 IEnMin= 5 EnMin= -57.0488113596447     IErMin= 5 ErrMin= 2.20D-03
 ErrMax= 2.20D-03  0.00D+00 EMaxC= 1.00D-01 BMatC= 5.00D-04 BMatP= 4.23D-03
 IDIUse=3 WtCom= 9.78D-01 WtEn= 2.20D-02
 Coeff-Com: -0.469D-01 0.640D-01-0.182D+00 0.205D+00 0.960D+00
 Coeff-En:   0.000D+00 0.000D+00 0.000D+00 0.000D+00 0.100D+01
 Coeff:     -0.459D-01 0.626D-01-0.178D+00 0.200D+00 0.961D+00
 Gap=     0.312 Goal=   None    Shift=    0.000
 Gap=     0.158 Goal=   None    Shift=    0.000
 RMSDP=3.38D-04 MaxDP=5.03D-03 DE=-1.21D-03 OVMax= 5.67D-03

 Cycle   6  Pass 0  IDiag  1:
 E= -57.0489492591817     Delta-E=       -0.000137899537 Rises=F Damp=F
 DIIS: error= 9.58D-04 at cycle   6 NSaved=   6.
 NSaved= 6 IEnMin= 6 EnMin= -57.0489492591817     IErMin= 6 ErrMin= 9.58D-04
 ErrMax= 9.58D-04  0.00D+00 EMaxC= 1.00D-01 BMatC= 8.15D-05 BMatP= 5.00D-04
 IDIUse=3 WtCom= 9.90D-01 WtEn= 9.58D-03
 Coeff-Com:  0.892D-03-0.999D-03 0.227D-01-0.159D+00-0.162D+00 0.130D+01
 Coeff-En:   0.000D+00 0.000D+00 0.000D+00 0.000D+00 0.000D+00 0.100D+01
 Coeff:      0.883D-03-0.989D-03 0.225D-01-0.157D+00-0.161D+00 0.130D+01
 Gap=     0.309 Goal=   None    Shift=    0.000
 Gap=     0.158 Goal=   None    Shift=    0.000
 RMSDP=1.91D-04 MaxDP=2.59D-03 DE=-1.38D-04 OVMax= 3.08D-03

 Cycle   7  Pass 0  IDiag  1:
 E= -57.0489737895855     Delta-E=       -0.000024530404 Rises=F Damp=F
 DIIS: error= 4.70D-05 at cycle   7 NSaved=   7.
 NSaved= 7 IEnMin= 7 EnMin= -57.0489737895855     IErMin= 7 ErrMin= 4.70D-05
 ErrMax= 4.70D-05  0.00D+00 EMaxC= 1.00D-01 BMatC= 1.38D-07 BMatP= 8.15D-05
 IDIUse=1 WtCom= 1.00D+00 WtEn= 0.00D+00
 Coeff-Com:  0.903D-03-0.537D-03 0.102D-02 0.139D-01-0.146D-02-0.121D+00
 Coeff-Com:  0.111D+01
 Coeff:      0.903D-03-0.537D-03 0.102D-02 0.139D-01-0.146D-02-0.121D+00
 Coeff:      0.111D+01
 Gap=     0.309 Goal=   None    Shift=    0.000
 Gap=     0.158 Goal=   None    Shift=    0.000
 RMSDP=6.08D-06 MaxDP=9.07D-05 DE=-2.45D-05 OVMax= 9.76D-05

 Initial convergence to 1.0D-05 achieved.  Increase integral accuracy.
 Cycle   8  Pass 1  IDiag  1:
 E= -57.0489699371147     Delta-E=        0.000003852471 Rises=F Damp=F
 DIIS: error= 8.95D-06 at cycle   1 NSaved=   1.
 NSaved= 1 IEnMin= 1 EnMin= -57.0489699371147     IErMin= 1 ErrMin= 8.95D-06
 ErrMax= 8.95D-06  0.00D+00 EMaxC= 1.00D-01 BMatC= 7.47D-09 BMatP= 7.47D-09
 IDIUse=1 WtCom= 1.00D+00 WtEn= 0.00D+00
 Coeff-Com:  0.100D+01
 Coeff:      0.100D+01
 Gap=     0.309 Goal=   None    Shift=    0.000
 Gap=     0.158 Goal=   None    Shift=    0.000
 RMSDP=6.08D-06 MaxDP=9.07D-05 DE= 3.85D-06 OVMax= 3.79D-05

 Cycle   9  Pass 1  IDiag  1:
 E= -57.0489699384698     Delta-E=       -0.000000001355 Rises=F Damp=F
 DIIS: error= 9.89D-06 at cycle   2 NSaved=   2.
 NSaved= 2 IEnMin= 2 EnMin= -57.0489699384698     IErMin= 1 ErrMin= 8.95D-06
 ErrMax= 9.89D-06  0.00D+00 EMaxC= 1.00D-01 BMatC= 7.73D-09 BMatP= 7.47D-09
 IDIUse=1 WtCom= 1.00D+00 WtEn= 0.00D+00
 Coeff-Com:  0.505D+00 0.495D+00
 Coeff:      0.505D+00 0.495D+00
 Gap=     0.309 Goal=   None    Shift=    0.000
 Gap=     0.158 Goal=   None    Shift=    0.000
 RMSDP=8.96D-07 MaxDP=1.56D-05 DE=-1.36D-09 OVMax= 1.48D-05

 Cycle  10  Pass 1  IDiag  1:
 E= -57.0489699400828     Delta-E=       -0.000000001613 Rises=F Damp=F
 DIIS: error= 2.05D-06 at cycle   3 NSaved=   3.
 NSaved= 3 IEnMin= 3 EnMin= -57.0489699400828     IErMin= 3 ErrMin= 2.05D-06
 ErrMax= 2.05D-06  0.00D+00 EMaxC= 1.00D-01 BMatC= 3.26D-10 BMatP= 7.47D-09
 IDIUse=1 WtCom= 1.00D+00 WtEn= 0.00D+00
 Coeff-Com: -0.200D+00 0.220D-01 0.118D+01
 Coeff:     -0.200D+00 0.220D-01 0.118D+01
 Gap=     0.309 Goal=   None    Shift=    0.000
 Gap=     0.158 Goal=   None    Shift=    0.000
 RMSDP=3.54D-07 MaxDP=5.43D-06 DE=-1.61D-09 OVMax= 7.15D-06

 Cycle  11  Pass 1  IDiag  1:
 E= -57.0489699402379     Delta-E=       -0.000000000155 Rises=F Damp=F
 DIIS: error= 2.70D-07 at cycle   4 NSaved=   4.
 NSaved= 4 IEnMin= 4 EnMin= -57.0489699402379     IErMin= 4 ErrMin= 2.70D-07
 ErrMax= 2.70D-07  0.00D+00 EMaxC= 1.00D-01 BMatC= 7.26D-12 BMatP= 3.26D-10
 IDIUse=1 WtCom= 1.00D+00 WtEn= 0.00D+00
 Coeff-Com:  0.957D-03-0.181D-01-0.186D+00 0.120D+01
 Coeff:      0.957D-03-0.181D-01-0.186D+00 0.120D+01
 Gap=     0.309 Goal=   None    Shift=    0.000
 Gap=     0.158 Goal=   None    Shift=    0.000
 RMSDP=8.04D-08 MaxDP=1.00D-06 DE=-1.55D-10 OVMax= 1.44D-06

 Cycle  12  Pass 1  IDiag  1:
 E= -57.0489699402429     Delta-E=       -0.000000000005 Rises=F Damp=F
 DIIS: error= 5.28D-08 at cycle   5 NSaved=   5.
 NSaved= 5 IEnMin= 5 EnMin= -57.0489699402429     IErMin= 5 ErrMin= 5.28D-08
 ErrMax= 5.28D-08  0.00D+00 EMaxC= 1.00D-01 BMatC= 2.28D-13 BMatP= 7.26D-12
 IDIUse=1 WtCom= 1.00D+00 WtEn= 0.00D+00
 Coeff-Com:  0.348D-02-0.573D-02-0.610D-01 0.260D+00 0.804D+00
 Coeff:      0.348D-02-0.573D-02-0.610D-01 0.260D+00 0.804D+00
 Gap=     0.309 Goal=   None    Shift=    0.000
 Gap=     0.158 Goal=   None    Shift=    0.000
 RMSDP=6.77D-09 MaxDP=7.32D-08 DE=-4.97D-12 OVMax= 1.29D-07

 SCF Done:  E(UB3LYP) =  -57.0489699402     A.U. after   12 cycles
            NFock= 12  Conv=0.68D-08     -V/T= 2.0095
 <Sx>= 0.0000 <Sy>= 0.0000 <Sz>= 0.5000 <S**2>= 0.7500 S= 0.5000
 <L.S>=  0.00000000000    
 KE= 5.651478349740D+01 PE=-1.600371641649D+02 EE= 3.291811441268D+01
 Annihilation of the first spin contaminant:
 S**2 before annihilation     0.7500,   after     0.7500
 Leave Link  502 at Sat Sep 14 01:26:45 2024, MaxMem=   268435456 cpu:         4.9
 (Enter /g100_work/pMI24_ChiCa/g09d1/g09d01/d01/build-node-6-2-59348/src/main/l601.exe)
 Copying SCF densities to generalized density rwf, IOpCl= 1 IROHF=0.

 **********************************************************************

            Population analysis using the SCF density.

 **********************************************************************

 Alpha  occ. eigenvalues --  -14.28597  -0.81818  -0.46504  -0.46439  -0.32426
 Alpha  occ. eigenvalues --   -0.21461
 Alpha virt. eigenvalues --    0.09429   0.18231   0.19373   0.70535   0.71315
 Alpha virt. eigenvalues --    0.72138   0.73597   0.77920   0.89582   0.92951
 Alpha virt. eigenvalues --    1.11384   1.48876   1.48878   1.94084   1.94095
 Alpha virt. eigenvalues --    1.97312   2.03570   2.08671   2.08815   2.14184
 Alpha virt. eigenvalues --    2.37350   2.69335   2.69340   2.87698   2.89032
 Alpha virt. eigenvalues --    3.33798   3.49591   3.50265   4.03510
  Beta  occ. eigenvalues --  -14.28581  -0.81778  -0.46426  -0.46423  -0.21445
  Beta virt. eigenvalues --   -0.05651   0.09824   0.18241   0.20229   0.71274
  Beta virt. eigenvalues --    0.71309   0.72143   0.77668   0.88563   0.89598
  Beta virt. eigenvalues --    0.99445   1.13030   1.48885   1.48902   2.03569
  Beta virt. eigenvalues --    2.08651   2.08684   2.14072   2.18878   2.18886
  Beta virt. eigenvalues --    2.21041   2.37345   2.69332   2.69353   2.87698
  Beta virt. eigenvalues --    2.89139   3.33840   3.49603   3.50315   4.03550
     Alpha Molecular Orbital Coefficients:
                           1         2         3         4         5
                           O         O         O         O         O
     Eigenvalues --   -14.28597  -0.81818  -0.46504  -0.46439  -0.32426
   1 1   N  1S          0.99266  -0.20609   0.00014  -0.00000   0.00727
   2        2S          0.03464   0.42444  -0.00035   0.00000  -0.01220
   3        2PX        -0.00000   0.00002   0.40988   0.23750  -0.04887
   4        2PY        -0.00000  -0.00000  -0.00000  -0.00000  -0.00000
   5        2PZ         0.00000  -0.00001  -0.23664   0.41137   0.02822
   6        3S          0.00450   0.42150   0.00045   0.00000  -0.05720
   7        3PX         0.00003   0.00067   0.19484   0.11249  -0.03905
   8        3PY         0.00000  -0.00000   0.00000   0.00000  -0.00000
   9        3PZ        -0.00002  -0.00039  -0.11249   0.19485   0.02255
  10        4XX        -0.00824  -0.00361   0.00659  -0.01144   0.00065
  11        4YY        -0.00835  -0.01893  -0.00007  -0.00000   0.00141
  12        4ZZ        -0.00824  -0.00372  -0.00663   0.01143   0.00168
  13        4XY         0.00000  -0.00000   0.00000  -0.00000  -0.00000
  14        4XZ        -0.00000  -0.00012  -0.01323  -0.00762   0.00103
  15        4YZ        -0.00000  -0.00000  -0.00000  -0.00000   0.00000
  16 2   H  1S          0.00027   0.14586  -0.14366   0.24975   0.01331
  17        2S         -0.00057   0.02367  -0.09205   0.16066   0.01310
  18        3PX        -0.00000  -0.00003   0.01019   0.00589  -0.00112
  19        3PY         0.00000   0.00000  -0.00000  -0.00000  -0.00000
  20        3PZ         0.00004  -0.01813   0.00579  -0.01006  -0.00013
  21 3   H  1S          0.00028   0.14564   0.28721  -0.00004  -0.02211
  22        2S         -0.00063   0.02172   0.18323  -0.00003   0.04165
  23        3PX         0.00004  -0.01558  -0.00981   0.00590   0.00314
  24        3PY        -0.00000   0.00000  -0.00000  -0.00000   0.00000
  25        3PZ        -0.00002   0.00900   0.00567   0.01022  -0.00181
  26 4   H  1S          0.00027   0.14586  -0.14373  -0.24971   0.01331
  27        2S         -0.00057   0.02367  -0.09210  -0.16064   0.01310
  28        3PX        -0.00003   0.01569   0.00008  -0.01166  -0.00045
  29        3PY         0.00000  -0.00000   0.00000  -0.00000  -0.00000
  30        3PZ        -0.00002   0.00909  -0.01172   0.00008   0.00103
  31 5   H  1S         -0.00002   0.00053   0.02413  -0.00000   0.43114
  32        2S          0.00006   0.00405   0.03818  -0.00001   0.65353
  33        3PX        -0.00001  -0.00022  -0.00118   0.00003  -0.00087
  34        3PY        -0.00000  -0.00000  -0.00000  -0.00000   0.00000
  35        3PZ         0.00001   0.00013   0.00068   0.00005   0.00050
                           6         7         8         9        10
                           O         V         V         V         V
     Eigenvalues --    -0.21461   0.09429   0.18231   0.19373   0.70535
   1 1   N  1S          0.00000  -0.14259  -0.00000   0.01004  -0.00969
   2        2S          0.00000   0.20932   0.00000  -0.02260   0.07767
   3        2PX        -0.00000  -0.02250   0.19723  -0.34568  -0.19721
   4        2PY         0.59934  -0.00000   0.00000   0.00000   0.00000
   5        2PZ        -0.00000   0.01299   0.34145   0.19968   0.11386
   6        3S         -0.00000   1.87773   0.00002  -0.11789  -0.03062
   7        3PX         0.00000  -0.06966   0.55452  -0.95129   0.97523
   8        3PY         0.53165  -0.00000  -0.00000  -0.00000  -0.00000
   9        3PZ        -0.00000   0.04023   0.96000   0.54949  -0.56310
  10        4XX         0.00000  -0.03770   0.00349   0.00491  -0.07356
  11        4YY        -0.00000  -0.03967  -0.00000   0.00010   0.02057
  12        4ZZ         0.00000  -0.03683  -0.00349  -0.00183   0.07031
  13        4XY        -0.00000   0.00000   0.00000  -0.00000  -0.00000
  14        4XZ         0.00000   0.00087   0.00233  -0.00674   0.14399
  15        4YZ         0.00000  -0.00000   0.00000  -0.00000  -0.00000
  16 2   H  1S          0.00000  -0.07523  -0.06786  -0.03541   0.30665
  17        2S          0.00000  -0.97925  -1.49073  -0.79468   0.08075
  18        3PX        -0.00000  -0.00023   0.00508  -0.00964   0.06783
  19        3PY         0.01938   0.00000  -0.00000   0.00000   0.00000
  20        3PZ        -0.00000  -0.00934  -0.00179  -0.00083  -0.00456
  21 3   H  1S         -0.00000  -0.07292  -0.00001   0.09369  -0.73810
  22        2S         -0.00000  -0.79900  -0.00013   1.77765  -0.17248
  23        3PX         0.00000  -0.00915   0.00506   0.00502  -0.00950
  24        3PY         0.01934  -0.00000   0.00000  -0.00000   0.00000
  25        3PZ        -0.00000   0.00529   0.00876  -0.00290   0.00549
  26 4   H  1S         -0.00000  -0.07523   0.06786  -0.03540   0.30675
  27        2S          0.00000  -0.97926   1.49084  -0.79447   0.08077
  28        3PX        -0.00000   0.00798  -0.00408  -0.00410   0.03784
  29        3PY         0.01938   0.00000   0.00000   0.00000   0.00000
  30        3PZ        -0.00000   0.00487   0.00350   0.00877  -0.05647
  31 5   H  1S          0.00000   0.07177   0.00001  -0.13749  -0.60671
  32        2S          0.00000   0.06174   0.00001  -0.09693   0.56204
  33        3PX         0.00000   0.00877   0.00006  -0.02051   0.00020
  34        3PY         0.00012   0.00000   0.00000  -0.00000  -0.00000
  35        3PZ         0.00000  -0.00507   0.00010   0.01184  -0.00011
                          11        12        13        14        15
                           V         V         V         V         V
     Eigenvalues --     0.71315   0.72138   0.73597   0.77920   0.89582
   1 1   N  1S          0.00000  -0.00000   0.02442   0.08413   0.00000
   2        2S         -0.00001   0.00000  -0.15813  -0.02159  -0.00000
   3        2PX        -0.19596  -0.00000  -0.37249   0.10253  -0.43371
   4        2PY         0.00000  -1.00073  -0.00000  -0.00000  -0.00000
   5        2PZ        -0.33933  -0.00000   0.21514  -0.05921  -0.75095
   6        3S          0.00001  -0.00000   0.07358  -0.34808   0.00001
   7        3PX         0.67709   0.00000   0.72611  -0.14764   0.77311
   8        3PY        -0.00000   1.04684   0.00000   0.00000   0.00000
   9        3PZ         1.17253   0.00000  -0.41938   0.08527   1.33862
  10        4XX         0.12452   0.00000   0.00607   0.20296  -0.17632
  11        4YY        -0.00000   0.00000  -0.05414  -0.14448  -0.00000
  12        4ZZ        -0.12452  -0.00000   0.03323   0.21653   0.17632
  13        4XY        -0.00000  -0.00005  -0.00000   0.00000   0.00000
  14        4XZ         0.08295   0.00000   0.02717   0.01358  -0.11748
  15        4YZ         0.00000   0.00003  -0.00000   0.00000   0.00000
  16 2   H  1S         -0.64550  -0.00000   0.26655   0.65716   0.42505
  17        2S         -0.13102  -0.00000   0.00888  -0.39288  -1.38184
  18        3PX         0.04201   0.00000   0.02590   0.00083  -0.01801
  19        3PY         0.00000  -0.01668  -0.00000   0.00000   0.00000
  20        3PZ         0.01154   0.00000  -0.00035   0.10060   0.15706
  21 3   H  1S          0.00005  -0.00000  -0.12009   0.63550   0.00001
  22        2S          0.00001  -0.00000  -0.14575  -0.27921  -0.00002
  23        3PX         0.04199   0.00000   0.05705   0.06289  -0.01797
  24        3PY         0.00000  -0.01665   0.00000  -0.00000   0.00000
  25        3PZ         0.07270   0.00000  -0.03295  -0.03632  -0.03113
  26 4   H  1S          0.64546   0.00000   0.26652   0.65716  -0.42504
  27        2S          0.13101   0.00000   0.00888  -0.39288   1.38185
  28        3PX        -0.01101   0.00000   0.01325  -0.08672   0.14504
  29        3PY         0.00000  -0.01668  -0.00000   0.00000  -0.00000
  30        3PZ         0.04216   0.00000  -0.02226  -0.05099   0.06289
  31 5   H  1S          0.00007  -0.00000   0.99829  -0.23814  -0.00000
  32        2S         -0.00006   0.00000  -0.92822   0.25099   0.00001
  33        3PX         0.00037   0.00000  -0.00059   0.01053   0.00030
  34        3PY         0.00000   0.00060   0.00000   0.00000   0.00000
  35        3PZ         0.00064  -0.00000   0.00034  -0.00608   0.00052
                          16        17        18        19        20
                           V         V         V         V         V
     Eigenvalues --     0.92951   1.11384   1.48876   1.48878   1.94084
   1 1   N  1S         -0.00627  -0.04441   0.00000  -0.00000  -0.00000
   2        2S         -0.25275  -1.64443   0.00000   0.00000   0.00000
   3        2PX         0.69467  -0.08404   0.00000   0.00000   0.00029
   4        2PY        -0.00000   0.00000   0.00011   0.00000  -0.00000
   5        2PZ        -0.40120   0.04854  -0.00000   0.00000   0.00049
   6        3S          0.53371   4.07644  -0.00000  -0.00000  -0.00001
   7        3PX        -1.33913   0.21850  -0.00000  -0.00000   0.00203
   8        3PY         0.00000  -0.00000   0.00012  -0.00000   0.00000
   9        3PZ         0.77340  -0.12620   0.00000  -0.00000   0.00352
  10        4XX        -0.15460  -0.26700  -0.00000  -0.00000  -0.00308
  11        4YY        -0.03228  -0.20597   0.00000   0.00000  -0.00000
  12        4ZZ         0.04420  -0.29355   0.00000  -0.00000   0.00308
  13        4XY        -0.00000   0.00000   0.59792   0.34488   0.00000
  14        4XZ         0.19891  -0.02656   0.00000   0.00000  -0.00205
  15        4YZ         0.00000  -0.00000  -0.34500   0.59772  -0.00000
  16 2   H  1S          0.21365  -0.03096   0.00000  -0.00000  -0.00381
  17        2S         -0.92280  -0.80298  -0.00000   0.00000   0.00001
  18        3PX         0.02827  -0.00091   0.00000  -0.00000  -0.00189
  19        3PY         0.00000   0.00000  -0.19601   0.33976   0.00000
  20        3PZ         0.08927   0.04167  -0.00000   0.00000  -0.00086
  21 3   H  1S         -0.52813   0.08141  -0.00000   0.00000  -0.00000
  22        2S          1.64484  -1.29773   0.00000   0.00000   0.00001
  23        3PX        -0.14780   0.06481   0.00000   0.00000  -0.00131
  24        3PY        -0.00000  -0.00000   0.39202  -0.00016  -0.00000
  25        3PZ         0.08536  -0.03743   0.00000   0.00000  -0.00227
  26 4   H  1S          0.21364  -0.03095   0.00000   0.00000   0.00381
  27        2S         -0.92277  -0.80299   0.00000  -0.00000  -0.00001
  28        3PX        -0.06319  -0.03655  -0.00000   0.00000   0.00020
  29        3PY         0.00000   0.00000  -0.19628  -0.33961   0.00000
  30        3PZ        -0.06910  -0.02004   0.00000  -0.00000  -0.00206
  31 5   H  1S          0.36651  -0.23280   0.00000  -0.00000   0.00000
  32        2S         -0.48464   0.33933  -0.00000   0.00000  -0.00001
  33        3PX        -0.05894   0.06706   0.00000   0.00000   0.50013
  34        3PY        -0.00000   0.00000   0.00008  -0.00000  -0.00000
  35        3PZ         0.03404  -0.03873   0.00000  -0.00000   0.86593
                          21        22        23        24        25
                           V         V         V         V         V
     Eigenvalues --     1.94095   1.97312   2.03570   2.08671   2.08815
   1 1   N  1S          0.00000  -0.00658  -0.00000   0.00000   0.00232
   2        2S         -0.00000   0.16824  -0.00000  -0.00000  -0.01688
   3        2PX         0.00000   0.09012  -0.00005  -0.06753  -0.13169
   4        2PY         0.00078  -0.00000  -0.00000  -0.00000  -0.00000
   5        2PZ         0.00000  -0.05205  -0.00009  -0.11688   0.07608
   6        3S          0.00000  -0.32415   0.00000   0.00001   0.02346
   7        3PX         0.00000  -0.11965   0.00002   0.52802   0.94076
   8        3PY        -0.00067  -0.00000   0.00000  -0.00000  -0.00000
   9        3PZ         0.00000   0.06910   0.00002   0.91394  -0.54351
  10        4XX        -0.00000   0.02867  -0.00030  -0.46803   0.26126
  11        4YY         0.00000  -0.07267  -0.00000   0.00000   0.03575
  12        4ZZ         0.00000  -0.00352   0.00030   0.46803  -0.27936
  13        4XY        -0.00014  -0.00000   0.00000   0.00000  -0.00000
  14        4XZ        -0.00000  -0.03221  -0.00020  -0.31194  -0.54076
  15        4YZ         0.00008   0.00000   0.00000   0.00000  -0.00000
  16 2   H  1S         -0.00000   0.03401  -0.00008  -0.62408   0.36724
  17        2S         -0.00000  -0.02353  -0.00005  -0.18885   0.11582
  18        3PX        -0.00000  -0.06050   0.58290  -0.23253  -0.39629
  19        3PY        -0.00052  -0.00000  -0.00000   0.00000   0.00000
  20        3PZ        -0.00000  -0.00645   0.00010  -0.20188   0.12242
  21 3   H  1S          0.00000  -0.18626  -0.00000  -0.00011  -0.69037
  22        2S         -0.00000   0.42436  -0.00000  -0.00005  -0.28616
  23        3PX        -0.00000   0.00629  -0.29143  -0.23249  -0.20261
  24        3PY        -0.00042   0.00000  -0.00000   0.00000   0.00000
  25        3PZ        -0.00000  -0.00363  -0.50461  -0.40248   0.11710
  26 4   H  1S          0.00000   0.03401   0.00008   0.62419   0.36705
  27        2S          0.00000  -0.02353   0.00005   0.18889   0.11576
  28        3PX         0.00000  -0.02464  -0.29123  -0.05874  -0.30407
  29        3PY        -0.00052  -0.00000  -0.00000   0.00000  -0.00000
  30        3PZ        -0.00000   0.05563   0.50494  -0.30221   0.28216
  31 5   H  1S         -0.00000   0.05701  -0.00000  -0.00000  -0.02652
  32        2S          0.00000  -0.09660   0.00000   0.00001   0.04629
  33        3PX         0.00000   0.85587   0.00033  -0.00315  -0.08078
  34        3PY         1.00000   0.00000  -0.00000  -0.00000   0.00000
  35        3PZ         0.00000  -0.49432   0.00057  -0.00543   0.04666
                          26        27        28        29        30
                           V         V         V         V         V
     Eigenvalues --     2.14184   2.37350   2.69335   2.69340   2.87698
   1 1   N  1S         -0.05214  -0.00000   0.00000   0.00000   0.00000
   2        2S         -0.44460   0.00000  -0.00000  -0.00000  -0.00000
   3        2PX        -0.01411   0.00000   0.00000   0.00000  -0.20240
   4        2PY         0.00000  -0.11866   0.00031   0.00000   0.00000
   5        2PZ         0.00815   0.00000  -0.00000  -0.00000  -0.35046
   6        3S          1.22721   0.00000   0.00000  -0.00000  -0.00000
   7        3PX         0.04458  -0.00000   0.00000   0.00000  -0.34200
   8        3PY         0.00000  -0.42097   0.00020   0.00000  -0.00000
   9        3PZ        -0.02575   0.00000  -0.00000  -0.00000  -0.59218
  10        4XX         0.36631  -0.00000   0.00000   0.00000  -0.32728
  11        4YY        -1.09125  -0.00000   0.00000   0.00000   0.00000
  12        4ZZ         0.35086   0.00000   0.00000   0.00000   0.32728
  13        4XY         0.00000   0.00008  -0.75954   0.43730  -0.00000
  14        4XZ        -0.01546   0.00000   0.00000  -0.00000  -0.21805
  15        4YZ        -0.00000  -0.00004   0.43710   0.75988  -0.00000
  16 2   H  1S         -0.39622  -0.00000  -0.00000   0.00000   0.07282
  17        2S         -0.07741   0.00000  -0.00000   0.00000   0.51816
  18        3PX        -0.00633   0.00000  -0.00000   0.00000   0.38685
  19        3PY         0.00000   0.63671  -0.41097  -0.71389   0.00000
  20        3PZ        -0.15614   0.00000  -0.00000  -0.00000  -0.46877
  21 3   H  1S         -0.40880   0.00000  -0.00000  -0.00000  -0.00000
  22        2S         -0.14213  -0.00000  -0.00000  -0.00000  -0.00000
  23        3PX        -0.14843   0.00000  -0.00000   0.00000   0.38692
  24        3PY        -0.00000   0.63710   0.82318   0.00126   0.00000
  25        3PZ         0.08573  -0.00000  -0.00000   0.00000   0.66995
  26 4   H  1S         -0.39622  -0.00000  -0.00000   0.00000  -0.07282
  27        2S         -0.07741  -0.00000   0.00000  -0.00000  -0.51816
  28        3PX         0.13208  -0.00000   0.00000  -0.00000  -0.59936
  29        3PY         0.00000   0.63671  -0.41317   0.71263  -0.00000
  30        3PZ         0.08351   0.00000   0.00000   0.00000   0.10080
  31 5   H  1S         -0.02837  -0.00000  -0.00000  -0.00000  -0.00000
  32        2S          0.04396   0.00000   0.00000   0.00000   0.00000
  33        3PX        -0.04454  -0.00000   0.00000   0.00000   0.00022
  34        3PY        -0.00000   0.00088  -0.00013  -0.00000   0.00000
  35        3PZ         0.02572   0.00000   0.00000   0.00000   0.00037
                          31        32        33        34        35
                           V         V         V         V         V
     Eigenvalues --     2.89032   3.33798   3.49591   3.50265   4.03510
   1 1   N  1S          0.00717  -0.24521  -0.00000   0.00878  -0.41145
   2        2S         -0.05578   0.88098   0.00000  -0.01948   0.76715
   3        2PX         0.32949  -0.03804  -0.44714  -0.77180   0.00978
   4        2PY         0.00000   0.00000   0.00000  -0.00000   0.00000
   5        2PZ        -0.19029   0.02197  -0.77416   0.44578  -0.00565
   6        3S          0.01880   2.35467   0.00000  -0.14759   2.26197
   7        3PX         0.63705   0.02555  -0.35655  -0.65946   0.04339
   8        3PY        -0.00000   0.00000  -0.00000   0.00000  -0.00000
   9        3PZ        -0.36791  -0.01475  -0.61732   0.38089  -0.02506
  10        4XX        -0.17753  -0.14749   1.04653  -0.61929  -1.93603
  11        4YY         0.02647  -1.15458  -0.00000   0.05165  -1.02509
  12        4ZZ         0.20962  -0.08225  -1.04653   0.58518  -1.95269
  13        4XY         0.00000  -0.00000   0.00000   0.00000  -0.00000
  14        4XZ         0.38739   0.06527   0.69732   1.20511  -0.01666
  15        4YZ        -0.00000   0.00000  -0.00000   0.00000   0.00000
  16 2   H  1S          0.03909  -0.46794   0.89553  -0.48508   0.64462
  17        2S          0.31880  -0.47787   0.39580  -0.21804  -0.32045
  18        3PX        -0.67777  -0.03653  -0.19702  -0.32902  -0.00294
  19        3PY         0.00000  -0.00000   0.00000  -0.00000  -0.00000
  20        3PZ        -0.27687   0.72571  -0.96048   0.51459  -0.65172
  21 3   H  1S         -0.05866  -0.38631   0.00004   1.05956   0.62542
  22        2S         -0.68337  -0.55777   0.00002   0.55514  -0.40422
  23        3PX         0.44670   0.57697  -0.19716  -1.00703  -0.53513
  24        3PY        -0.00000   0.00000  -0.00000  -0.00000   0.00000
  25        3PZ        -0.25798  -0.33321  -0.34130   0.58161   0.30905
  26 4   H  1S          0.03909  -0.46793  -0.89557  -0.48501   0.64462
  27        2S          0.31880  -0.47787  -0.39582  -0.21801  -0.32045
  28        3PX        -0.09891  -0.64683  -0.73352  -0.61010   0.56302
  29        3PY         0.00000  -0.00000   0.00000   0.00000  -0.00000
  30        3PZ         0.72543  -0.33104  -0.65067   0.02785   0.32826
  31 5   H  1S         -0.03577  -0.03135   0.00000   0.02113  -0.02801
  32        2S          0.08632   0.07509  -0.00000  -0.05942   0.06086
  33        3PX        -0.05951  -0.03970   0.00023   0.03426  -0.02086
  34        3PY         0.00000   0.00000  -0.00000   0.00000   0.00000
  35        3PZ         0.03437   0.02293   0.00040  -0.01979   0.01205
     Beta Molecular Orbital Coefficients:
                           1         2         3         4         5
                           O         O         O         O         O
     Eigenvalues --   -14.28581  -0.81778  -0.46426  -0.46423  -0.21445
   1 1   N  1S          0.99266  -0.20600   0.00000   0.00015  -0.00000
   2        2S          0.03462   0.42429   0.00000   0.00016   0.00000
   3        2PX        -0.00001  -0.00056   0.23881   0.40955  -0.00000
   4        2PY        -0.00000  -0.00000   0.00000  -0.00000   0.59913
   5        2PZ         0.00001   0.00032   0.41047  -0.23828  -0.00000
   6        3S          0.00449   0.42032  -0.00001  -0.00348  -0.00000
   7        3PX         0.00003  -0.00005   0.11319   0.19240   0.00000
   8        3PY         0.00000  -0.00000  -0.00000  -0.00000   0.53188
   9        3PZ        -0.00002   0.00003   0.19457  -0.11195   0.00000
  10        4XX        -0.00824  -0.00369  -0.01148   0.00667   0.00000
  11        4YY        -0.00835  -0.01878   0.00000   0.00024  -0.00000
  12        4ZZ        -0.00824  -0.00364   0.01148  -0.00642   0.00000
  13        4XY         0.00000  -0.00000  -0.00000   0.00000  -0.00010
  14        4XZ         0.00000   0.00005  -0.00771  -0.01300   0.00000
  15        4YZ        -0.00000  -0.00000  -0.00000  -0.00000   0.00006
  16 2   H  1S          0.00027   0.14600   0.24924  -0.14468   0.00000
  17        2S         -0.00057   0.02364   0.16037  -0.09338   0.00000
  18        3PX        -0.00000  -0.00001   0.00595   0.01024  -0.00000
  19        3PY         0.00000   0.00000  -0.00000   0.00000   0.01937
  20        3PZ         0.00004  -0.01813  -0.01003   0.00587   0.00000
  21 3   H  1S          0.00028   0.14555   0.00092   0.28815  -0.00000
  22        2S         -0.00063   0.02347   0.00061   0.19087  -0.00000
  23        3PX         0.00004  -0.01562   0.00587  -0.01012   0.00000
  24        3PY        -0.00000   0.00000   0.00000  -0.00000   0.01934
  25        3PZ        -0.00002   0.00902   0.01024   0.00580  -0.00000
  26 4   H  1S          0.00027   0.14600  -0.25016  -0.14308  -0.00000
  27        2S         -0.00057   0.02365  -0.16097  -0.09236   0.00000
  28        3PX        -0.00004   0.01570  -0.01166   0.00011  -0.00000
  29        3PY         0.00000  -0.00000   0.00000   0.00000   0.01937
  30        3PZ        -0.00002   0.00907   0.00007  -0.01180   0.00000
  31 5   H  1S         -0.00002  -0.00036   0.00001   0.00328  -0.00000
  32        2S          0.00006   0.00309   0.00004   0.01207  -0.00000
  33        3PX        -0.00001  -0.00015   0.00002  -0.00066   0.00000
  34        3PY         0.00000   0.00000  -0.00000  -0.00000   0.00010
  35        3PZ         0.00001   0.00009   0.00004   0.00038   0.00000
                           6         7         8         9        10
                           V         V         V         V         V
     Eigenvalues --    -0.05651   0.09824   0.18241   0.20229   0.71274
   1 1   N  1S          0.02713  -0.13998  -0.00000   0.01657  -0.00039
   2        2S         -0.03159   0.20650   0.00000  -0.03473   0.00325
   3        2PX        -0.06435  -0.04546   0.19716  -0.34257  -0.33697
   4        2PY         0.00000  -0.00000   0.00000  -0.00000   0.00000
   5        2PZ         0.03716   0.02625   0.34136   0.19785   0.19362
   6        3S         -0.33778   1.84672   0.00002  -0.20576   0.00008
   7        3PX        -0.13973  -0.12945   0.55466  -0.94478   1.17485
   8        3PY         0.00000   0.00000  -0.00000  -0.00000  -0.00000
   9        3PZ         0.08070   0.07475   0.96034   0.54568  -0.67508
  10        4XX         0.00674  -0.03688   0.00338   0.00647  -0.07151
  11        4YY         0.01019  -0.03861  -0.00000   0.00113   0.00044
  12        4ZZ         0.00927  -0.03586  -0.00338  -0.00111   0.07157
  13        4XY        -0.00000   0.00000   0.00000   0.00000  -0.00000
  14        4XZ         0.00253   0.00102   0.00225  -0.00758   0.14389
  15        4YZ         0.00000   0.00000   0.00000  -0.00000  -0.00000
  16 2   H  1S          0.01551  -0.07541  -0.06778  -0.03313   0.37058
  17        2S          0.04515  -1.01747  -1.49106  -0.74536   0.07758
  18        3PX        -0.00065  -0.00066   0.00507  -0.00994   0.07278
  19        3PY        -0.00000   0.00000   0.00000  -0.00000   0.00000
  20        3PZ         0.00174  -0.00918  -0.00175  -0.00055  -0.00675
  21 3   H  1S          0.00029  -0.06891  -0.00000   0.10024  -0.74642
  22        2S          0.37102  -0.68205  -0.00005   1.81721  -0.16079
  23        3PX         0.00228  -0.00847   0.00506   0.00501   0.01170
  24        3PY        -0.00000  -0.00000  -0.00000   0.00000   0.00000
  25        3PZ        -0.00131   0.00489   0.00876  -0.00289  -0.00654
  26 4   H  1S          0.01551  -0.07540   0.06778  -0.03312   0.37341
  27        2S          0.04515  -1.01749   1.49109  -0.74528   0.07816
  28        3PX        -0.00184   0.00762  -0.00405  -0.00449   0.04217
  29        3PY        -0.00000   0.00000   0.00000   0.00000   0.00000
  30        3PZ        -0.00031   0.00516   0.00352   0.00888  -0.05949
  31 5   H  1S          0.22946   0.06807   0.00000  -0.11076  -0.07153
  32        2S          0.76563   0.18902   0.00001  -0.27796   0.04510
  33        3PX        -0.00265   0.00488   0.00005  -0.01397  -0.00146
  34        3PY        -0.00000   0.00000   0.00000   0.00000   0.00000
  35        3PZ         0.00153  -0.00282   0.00009   0.00807   0.00084
                          11        12        13        14        15
                           V         V         V         V         V
     Eigenvalues --     0.71309   0.72143   0.77668   0.88563   0.89598
   1 1   N  1S          0.00000  -0.00000   0.08766   0.00028  -0.00000
   2        2S         -0.00001  -0.00000  -0.07067   0.07386   0.00000
   3        2PX        -0.19559  -0.00000   0.00774   0.66208   0.43358
   4        2PY         0.00000  -1.00085  -0.00000   0.00000   0.00000
   5        2PZ        -0.34038  -0.00000  -0.00447  -0.38236   0.75076
   6        3S          0.00000   0.00000  -0.29832  -0.11627  -0.00001
   7        3PX         0.67532   0.00000  -0.00870  -1.13171  -0.77234
   8        3PY        -0.00000   1.04673   0.00000  -0.00000  -0.00000
   9        3PZ         1.17527   0.00000   0.00502   0.65358  -1.33734
  10        4XX         0.12440   0.00000   0.20518  -0.06883   0.17636
  11        4YY        -0.00000  -0.00000  -0.15541   0.00832   0.00000
  12        4ZZ        -0.12440  -0.00000   0.20843   0.09964  -0.17636
  13        4XY        -0.00000   0.00007  -0.00000   0.00000   0.00000
  14        4XZ         0.08246   0.00000   0.00325   0.16858   0.11750
  15        4YZ         0.00000  -0.00004  -0.00000   0.00000  -0.00000
  16 2   H  1S         -0.64606  -0.00000   0.66981   0.21044  -0.42566
  17        2S         -0.13247   0.00000  -0.36649  -0.63372   1.38143
  18        3PX         0.04180   0.00000   0.00094   0.02514   0.01806
  19        3PY         0.00000  -0.01672  -0.00000  -0.00000  -0.00000
  20        3PZ         0.01171  -0.00000   0.09557   0.07702  -0.15708
  21 3   H  1S          0.00163  -0.00000   0.65663  -0.38641   0.00000
  22        2S          0.00035  -0.00000  -0.34397   1.26283  -0.00001
  23        3PX         0.04196   0.00000   0.07955  -0.13173   0.01801
  24        3PY         0.00000  -0.01661  -0.00000  -0.00000   0.00000
  25        3PZ         0.07271   0.00000  -0.04594   0.07608   0.03118
  26 4   H  1S          0.64442   0.00000   0.66982   0.21045   0.42565
  27        2S          0.13213   0.00000  -0.36649  -0.63375  -1.38141
  28        3PX        -0.01094   0.00000  -0.08231  -0.05415  -0.14508
  29        3PY         0.00000  -0.01672   0.00000  -0.00000   0.00000
  30        3PZ         0.04232  -0.00000  -0.04858  -0.06027  -0.06286
  31 5   H  1S          0.00016  -0.00000   0.06227  -0.63283   0.00001
  32        2S         -0.00010   0.00000  -0.01173   0.38785  -0.00000
  33        3PX         0.00028   0.00000   0.00815  -0.02759  -0.00022
  34        3PY        -0.00000   0.00045   0.00000   0.00000  -0.00000
  35        3PZ         0.00049   0.00000  -0.00471   0.01594  -0.00038
                          16        17        18        19        20
                           V         V         V         V         V
     Eigenvalues --     0.99445   1.13030   1.48885   1.48902   2.03569
   1 1   N  1S         -0.01471  -0.04230   0.00000  -0.00000  -0.00000
   2        2S         -0.67917  -1.52874  -0.00000   0.00000  -0.00000
   3        2PX         0.33373  -0.12213   0.00000  -0.00000  -0.00012
   4        2PY         0.00000   0.00000   0.00000   0.00034   0.00000
   5        2PZ        -0.19273   0.07054   0.00000  -0.00000  -0.00021
   6        3S          1.50584   3.83447  -0.00000   0.00000   0.00000
   7        3PX        -0.75614   0.33075  -0.00000   0.00000   0.00038
   8        3PY        -0.00000  -0.00000  -0.00000  -0.00005   0.00000
   9        3PZ         0.43669  -0.19102  -0.00000   0.00000   0.00066
  10        4XX        -0.18215  -0.23798   0.00000   0.00000  -0.00040
  11        4YY        -0.09197  -0.18720  -0.00000   0.00000  -0.00000
  12        4ZZ        -0.07589  -0.27744   0.00000  -0.00000   0.00040
  13        4XY         0.00000   0.00000   0.34514   0.59759   0.00000
  14        4XZ         0.10633  -0.03948  -0.00000   0.00000  -0.00026
  15        4YZ        -0.00000  -0.00000   0.59754  -0.34517   0.00000
  16 2   H  1S          0.10240  -0.04272   0.00000   0.00000  -0.00039
  17        2S         -0.80841  -0.67776   0.00000  -0.00000  -0.00026
  18        3PX         0.01250  -0.00083  -0.00000   0.00000   0.58269
  19        3PY        -0.00000   0.00000   0.33970  -0.19620  -0.00000
  20        3PZ         0.05990   0.03392   0.00000  -0.00000  -0.00002
  21 3   H  1S         -0.31230   0.12527   0.00000   0.00000  -0.00000
  22        2S          0.81550  -1.44121  -0.00000  -0.00000  -0.00000
  23        3PX        -0.06659   0.07286   0.00000   0.00000  -0.29164
  24        3PY        -0.00000  -0.00000   0.00002   0.39226  -0.00000
  25        3PZ         0.03846  -0.04208  -0.00000   0.00000  -0.50497
  26 4   H  1S          0.10240  -0.04272   0.00000  -0.00000   0.00039
  27        2S         -0.80841  -0.67777  -0.00000   0.00000   0.00026
  28        3PX        -0.04563  -0.02980   0.00000  -0.00000  -0.29123
  29        3PY         0.00000   0.00000  -0.33972  -0.19617   0.00000
  30        3PZ        -0.04077  -0.01623  -0.00000   0.00000   0.50469
  31 5   H  1S          1.01941  -0.54931   0.00000  -0.00000  -0.00000
  32        2S         -0.90592   0.60064  -0.00000   0.00000   0.00000
  33        3PX        -0.02465   0.05324   0.00000   0.00000  -0.00017
  34        3PY        -0.00000   0.00000   0.00000   0.00006  -0.00000
  35        3PZ         0.01423  -0.03074   0.00000   0.00000  -0.00030
                          21        22        23        24        25
                           V         V         V         V         V
     Eigenvalues --     2.08651   2.08684   2.14072   2.18878   2.18886
   1 1   N  1S         -0.00001  -0.00000  -0.05300  -0.00000  -0.00000
   2        2S          0.00300  -0.00000  -0.41364  -0.00004   0.00000
   3        2PX        -0.11463  -0.06744   0.00612   0.00122  -0.00000
   4        2PY        -0.00000  -0.00000   0.00000   0.00000   0.00078
   5        2PZ         0.06609  -0.11696  -0.00353   0.00216  -0.00000
   6        3S         -0.00295   0.00001   1.17039   0.00007  -0.00000
   7        3PX         0.91132   0.52721  -0.01103  -0.00539   0.00000
   8        3PY         0.00000   0.00000  -0.00000  -0.00000  -0.00004
   9        3PZ        -0.52543   0.91439   0.00637  -0.00942   0.00000
  10        4XX         0.26690  -0.46810   0.35306   0.00381  -0.00000
  11        4YY         0.00406  -0.00001  -1.09062  -0.00002  -0.00000
  12        4ZZ        -0.27057   0.46811   0.35648  -0.00379   0.00000
  13        4XY         0.00000   0.00000   0.00000   0.00000  -0.00015
  14        4XZ        -0.53871  -0.31136   0.00342   0.00252  -0.00000
  15        4YZ        -0.00000  -0.00000  -0.00000  -0.00000   0.00008
  16 2   H  1S          0.36042  -0.62422  -0.40170   0.00527  -0.00000
  17        2S          0.10883  -0.18906  -0.08482   0.00243  -0.00000
  18        3PX        -0.40187  -0.23262   0.00046   0.00209  -0.00000
  19        3PY         0.00000   0.00000   0.00000  -0.00000  -0.00124
  20        3PZ         0.11642  -0.20192  -0.16097   0.00226  -0.00000
  21 3   H  1S         -0.71751   0.00052  -0.40113  -0.00001  -0.00000
  22        2S         -0.22014   0.00016  -0.07159  -0.00006   0.00000
  23        3PX        -0.19916  -0.23228  -0.13377   0.00176  -0.00000
  24        3PY         0.00000  -0.00000  -0.00000  -0.00000  -0.00110
  25        3PZ         0.11463  -0.40252   0.07726   0.00308  -0.00000
  26 4   H  1S          0.36132   0.62370  -0.40170  -0.00528   0.00000
  27        2S          0.10911   0.18890  -0.08482  -0.00243   0.00000
  28        3PX        -0.30176  -0.05821   0.13966   0.00091  -0.00000
  29        3PY         0.00000   0.00000  -0.00000  -0.00000  -0.00124
  30        3PZ         0.28946  -0.30282   0.08006   0.00294  -0.00000
  31 5   H  1S         -0.02081   0.00001  -0.02229  -0.00000   0.00000
  32        2S          0.03372  -0.00002   0.03070   0.00001  -0.00000
  33        3PX         0.07151   0.00417   0.09953   0.49997  -0.00000
  34        3PY        -0.00000   0.00000  -0.00000   0.00000   1.00000
  35        3PZ        -0.04129   0.00735  -0.05749   0.86600  -0.00000
                          26        27        28        29        30
                           V         V         V         V         V
     Eigenvalues --     2.21041   2.37345   2.69332   2.69353   2.87698
   1 1   N  1S         -0.00157   0.00000   0.00000   0.00000   0.00000
   2        2S          0.21605  -0.00000  -0.00000  -0.00000  -0.00000
   3        2PX         0.10966  -0.00000  -0.00000  -0.00000  -0.20245
   4        2PY        -0.00000  -0.11866   0.00031   0.00000  -0.00000
   5        2PZ        -0.06333   0.00000  -0.00000   0.00000  -0.35055
   6        3S         -0.41564  -0.00000   0.00000  -0.00000  -0.00000
   7        3PX        -0.23314  -0.00000   0.00000   0.00000  -0.34187
   8        3PY        -0.00000  -0.42096   0.00036   0.00000  -0.00000
   9        3PZ         0.13464   0.00000   0.00000   0.00000  -0.59196
  10        4XX        -0.08658   0.00000   0.00000   0.00000  -0.32740
  11        4YY         0.09261   0.00000   0.00000  -0.00000   0.00000
  12        4ZZ        -0.02495  -0.00000   0.00000  -0.00000   0.32740
  13        4XY        -0.00000  -0.00027  -0.75918   0.43817   0.00000
  14        4XZ         0.06167   0.00000  -0.00000  -0.00000  -0.21813
  15        4YZ         0.00000   0.00016   0.43804   0.75941   0.00000
  16 2   H  1S          0.03545  -0.00000  -0.00000  -0.00000   0.07270
  17        2S         -0.02588   0.00000  -0.00000  -0.00000   0.51809
  18        3PX        -0.00127   0.00000   0.00000   0.00000   0.38688
  19        3PY        -0.00000   0.63656  -0.41199  -0.71342  -0.00000
  20        3PZ        -0.00550   0.00000  -0.00000   0.00000  -0.46883
  21 3   H  1S          0.01149   0.00000  -0.00000   0.00000  -0.00000
  22        2S          0.38819   0.00000  -0.00000   0.00000  -0.00000
  23        3PX         0.08663  -0.00000  -0.00000  -0.00000   0.38680
  24        3PY         0.00000   0.63741   0.82283   0.00033  -0.00000
  25        3PZ        -0.05003  -0.00000   0.00000  -0.00000   0.66975
  26 4   H  1S          0.03545  -0.00000   0.00000  -0.00000  -0.07270
  27        2S         -0.02588  -0.00000  -0.00000   0.00000  -0.51809
  28        3PX         0.00413   0.00000   0.00000   0.00000  -0.59943
  29        3PY         0.00000   0.63656  -0.41258   0.71308   0.00000
  30        3PZ         0.00385  -0.00000   0.00000  -0.00000   0.10080
  31 5   H  1S          0.06120   0.00000  -0.00000  -0.00000  -0.00000
  32        2S         -0.09482  -0.00000   0.00000   0.00000   0.00000
  33        3PX         0.85271  -0.00000   0.00000  -0.00000   0.00029
  34        3PY        -0.00000   0.00198  -0.00015  -0.00000   0.00000
  35        3PZ        -0.49229   0.00000   0.00000   0.00000   0.00050
                          31        32        33        34        35
                           V         V         V         V         V
     Eigenvalues --     2.89139   3.33840   3.49603   3.50315   4.03550
   1 1   N  1S          0.00770  -0.24502  -0.00000   0.00899  -0.41149
   2        2S         -0.05919   0.88016   0.00000  -0.02036   0.76715
   3        2PX         0.32765  -0.03934  -0.44712  -0.77172   0.00999
   4        2PY         0.00000  -0.00000   0.00000  -0.00000   0.00000
   5        2PZ        -0.18922   0.02272  -0.77414   0.44573  -0.00577
   6        3S          0.01844   2.35420   0.00000  -0.15047   2.26291
   7        3PX         0.63863   0.02560  -0.35655  -0.66000   0.04405
   8        3PY        -0.00000  -0.00000   0.00000   0.00000  -0.00000
   9        3PZ        -0.36882  -0.01478  -0.61731   0.38119  -0.02544
  10        4XX        -0.17675  -0.14799   1.04659  -0.61977  -1.93583
  11        4YY         0.02859  -1.15398  -0.00000   0.05294  -1.02530
  12        4ZZ         0.21081  -0.08044  -1.04659   0.58440  -1.95282
  13        4XY         0.00000  -0.00000  -0.00000  -0.00000  -0.00000
  14        4XZ         0.38781   0.06759   0.69735   1.20482  -0.01700
  15        4YZ         0.00000   0.00000   0.00000   0.00000   0.00000
  16 2   H  1S          0.03894  -0.46891   0.89556  -0.48409   0.64466
  17        2S          0.31969  -0.47764   0.39578  -0.21764  -0.32034
  18        3PX        -0.67744  -0.03762  -0.19706  -0.32866  -0.00295
  19        3PY        -0.00000  -0.00000   0.00000  -0.00000  -0.00000
  20        3PZ        -0.27694   0.72648  -0.96046   0.51329  -0.65175
  21 3   H  1S         -0.05682  -0.38462   0.00003   1.06031   0.62504
  22        2S         -0.68658  -0.55837   0.00002   0.55652  -0.40535
  23        3PX         0.44449   0.57552  -0.19710  -1.00805  -0.53468
  24        3PY         0.00000   0.00000  -0.00000   0.00000   0.00000
  25        3PZ        -0.25671  -0.33238  -0.34121   0.58220   0.30879
  26 4   H  1S          0.03894  -0.46891  -0.89559  -0.48403   0.64466
  27        2S          0.31969  -0.47764  -0.39580  -0.21762  -0.32034
  28        3PX        -0.09868  -0.64805  -0.73348  -0.60879   0.56304
  29        3PY         0.00000  -0.00000  -0.00000  -0.00000  -0.00000
  30        3PZ         0.72518  -0.33048  -0.65069   0.02819   0.32828
  31 5   H  1S         -0.03923  -0.03354   0.00000   0.02243  -0.02957
  32        2S          0.08966   0.07708  -0.00000  -0.06077   0.06226
  33        3PX        -0.07570  -0.04575   0.00026   0.03877  -0.02265
  34        3PY         0.00000  -0.00000   0.00000   0.00000   0.00000
  35        3PZ         0.04372   0.02642   0.00045  -0.02239   0.01308
     Alpha Density Matrix:
                           1         2         3         4         5
   1 1   N  1S          1.02789
   2        2S         -0.05318   0.18150
   3        2PX        -0.00031   0.00046   0.22680
   4        2PY        -0.00000   0.00000  -0.00000   0.35921
   5        2PZ         0.00018  -0.00026  -0.00067   0.00000   0.22602
   6        3S         -0.08282   0.17976   0.00299  -0.00000  -0.00173
   7        3PX        -0.00037   0.00069   0.10848   0.00000  -0.00093
   8        3PY         0.00000   0.00000   0.00000   0.31864  -0.00000
   9        3PZ         0.00021  -0.00040  -0.00093  -0.00000   0.10741
  10        4XX        -0.00743  -0.00183  -0.00005   0.00000  -0.00625
  11        4YY        -0.00438  -0.00834  -0.00010  -0.00000   0.00006
  12        4ZZ        -0.00740  -0.00188  -0.00008   0.00000   0.00632
  13        4XY         0.00000  -0.00000   0.00000  -0.00000  -0.00000
  14        4XZ         0.00003  -0.00006  -0.00728   0.00000   0.00003
  15        4YZ        -0.00000  -0.00000  -0.00000   0.00000  -0.00000
  16 2   H  1S         -0.02971   0.06181  -0.00022   0.00000   0.13711
  17        2S         -0.00536   0.00990  -0.00021   0.00000   0.08824
  18        3PX        -0.00000  -0.00000   0.00563  -0.00000  -0.00002
  19        3PY         0.00000   0.00000  -0.00000   0.01161  -0.00000
  20        3PZ         0.00378  -0.00770  -0.00001  -0.00000  -0.00551
  21 3   H  1S         -0.02986   0.06199   0.11880  -0.00000  -0.06861
  22        2S         -0.00478   0.00862   0.07306  -0.00000  -0.04219
  23        3PX         0.00327  -0.00665  -0.00277   0.00000   0.00484
  24        3PY        -0.00000   0.00000  -0.00000   0.01159   0.00000
  25        3PZ        -0.00189   0.00384   0.00484  -0.00000   0.00281
  26 4   H  1S         -0.02971   0.06181  -0.11887  -0.00000  -0.06834
  27        2S         -0.00536   0.00990  -0.07654   0.00000  -0.04392
  28        3PX        -0.00327   0.00666  -0.00272  -0.00000  -0.00483
  29        3PY         0.00000  -0.00000   0.00000   0.01161  -0.00000
  30        3PZ        -0.00188   0.00385  -0.00484   0.00000   0.00283
  31 5   H  1S          0.00301  -0.00504  -0.01118  -0.00000   0.00646
  32        2S          0.00398  -0.00626  -0.01629  -0.00000   0.00941
  33        3PX         0.00003  -0.00008  -0.00044   0.00000   0.00027
  34        3PY         0.00000  -0.00000  -0.00000   0.00007  -0.00000
  35        3PZ        -0.00002   0.00005   0.00027   0.00000  -0.00013
                           6         7         8         9        10
   6        3S          0.18095
   7        3PX         0.00261   0.05214
   8        3PY        -0.00000   0.00000   0.28266
   9        3PZ        -0.00150  -0.00088  -0.00000   0.05113
  10        4XX        -0.00159  -0.00003   0.00000  -0.00295   0.00026
  11        4YY        -0.00810  -0.00008  -0.00000   0.00005   0.00014
  12        4ZZ        -0.00171  -0.00007   0.00000   0.00301  -0.00009
  13        4XY        -0.00000   0.00000  -0.00000  -0.00000   0.00000
  14        4XZ        -0.00011  -0.00347   0.00000   0.00003   0.00000
  15        4YZ        -0.00000  -0.00000   0.00000  -0.00000   0.00000
  16 2   H  1S          0.06066  -0.00032   0.00000   0.06507  -0.00432
  17        2S          0.00918  -0.00036   0.00000   0.04195  -0.00252
  18        3PX         0.00006   0.00269  -0.00000  -0.00002  -0.00000
  19        3PY         0.00000  -0.00000   0.01030  -0.00000   0.00000
  20        3PZ        -0.00763  -0.00001  -0.00000  -0.00261   0.00022
  21 3   H  1S          0.06278   0.05692   0.00000  -0.03287   0.00135
  22        2S          0.00685   0.03408  -0.00000  -0.01968   0.00116
  23        3PX        -0.00675  -0.00138   0.00000   0.00233  -0.00007
  24        3PY         0.00000  -0.00000   0.01028   0.00000   0.00000
  25        3PZ         0.00390   0.00233  -0.00000   0.00131  -0.00011
  26 4   H  1S          0.06066  -0.05652  -0.00000  -0.03224   0.00139
  27        2S          0.00918  -0.03651   0.00000  -0.02065   0.00116
  28        3PX         0.00664  -0.00127  -0.00000  -0.00230   0.00008
  29        3PY        -0.00000   0.00000   0.01030  -0.00000   0.00000
  30        3PZ         0.00377  -0.00231  -0.00000   0.00135  -0.00011
  31 5   H  1S         -0.02443  -0.01213   0.00000   0.00701   0.00044
  32        2S         -0.03566  -0.01808   0.00000   0.01044   0.00066
  33        3PX        -0.00005  -0.00019   0.00000   0.00012  -0.00001
  34        3PY        -0.00000  -0.00000   0.00006  -0.00000   0.00000
  35        3PZ         0.00003   0.00012   0.00000  -0.00006   0.00000
                          11        12        13        14        15
  11        4YY         0.00043
  12        4ZZ         0.00014   0.00026
  13        4XY         0.00000  -0.00000   0.00000
  14        4XZ         0.00000   0.00000  -0.00000   0.00023
  15        4YZ         0.00000  -0.00000  -0.00000   0.00000   0.00000
  16 2   H  1S         -0.00273   0.00328  -0.00000  -0.00001  -0.00000
  17        2S         -0.00042   0.00239  -0.00000   0.00000  -0.00000
  18        3PX        -0.00000  -0.00000   0.00000  -0.00018  -0.00000
  19        3PY        -0.00000  -0.00000  -0.00000   0.00000   0.00000
  20        3PZ         0.00034  -0.00009   0.00000   0.00000   0.00000
  21 3   H  1S         -0.00281  -0.00248   0.00000  -0.00384  -0.00000
  22        2S         -0.00036  -0.00122   0.00000  -0.00238  -0.00000
  23        3PX         0.00030   0.00020   0.00000   0.00009   0.00000
  24        3PY        -0.00000   0.00000  -0.00000   0.00000   0.00000
  25        3PZ        -0.00017   0.00004  -0.00000  -0.00016  -0.00000
  26 4   H  1S         -0.00273  -0.00243  -0.00000   0.00380   0.00000
  27        2S         -0.00042  -0.00129   0.00000   0.00245   0.00000
  28        3PX        -0.00030  -0.00019  -0.00000   0.00009  -0.00000
  29        3PY         0.00000  -0.00000  -0.00000  -0.00000   0.00000
  30        3PZ        -0.00017   0.00005  -0.00000   0.00015  -0.00000
  31 5   H  1S          0.00060   0.00056  -0.00000   0.00012   0.00000
  32        2S          0.00084   0.00083  -0.00000   0.00017   0.00000
  33        3PX         0.00000   0.00001  -0.00000   0.00001  -0.00000
  34        3PY         0.00000  -0.00000  -0.00000   0.00000   0.00000
  35        3PZ        -0.00000  -0.00000   0.00000  -0.00001   0.00000
                          16        17        18        19        20
  16 2   H  1S          0.10447
  17        2S          0.05698   0.03502
  18        3PX        -0.00001  -0.00001   0.00014
  19        3PY         0.00000   0.00000  -0.00000   0.00038
  20        3PZ        -0.00599  -0.00258   0.00000  -0.00000   0.00046
  21 3   H  1S         -0.02032  -0.02329   0.00295  -0.00000  -0.00098
  22        2S         -0.02261  -0.01581   0.00182  -0.00000   0.00066
  23        3PX         0.00065   0.00152  -0.00007   0.00000   0.00017
  24        3PY         0.00000   0.00000  -0.00000   0.00037  -0.00000
  25        3PZ         0.00303   0.00131   0.00012  -0.00000  -0.00023
  26 4   H  1S         -0.02026  -0.02326  -0.00296   0.00000  -0.00097
  27        2S         -0.02326  -0.01660  -0.00190   0.00000   0.00065
  28        3PX        -0.00064  -0.00152  -0.00007   0.00000  -0.00017
  29        3PY        -0.00000  -0.00000  -0.00000   0.00038   0.00000
  30        3PZ         0.00304   0.00132  -0.00012   0.00000  -0.00023
  31 5   H  1S          0.00235   0.00344  -0.00024  -0.00000   0.00007
  32        2S          0.00380   0.00514  -0.00034  -0.00000   0.00006
  33        3PX         0.00013   0.00010  -0.00001   0.00000  -0.00000
  34        3PY        -0.00000  -0.00000  -0.00000   0.00000   0.00000
  35        3PZ        -0.00006  -0.00005   0.00001   0.00000   0.00000
                          21        22        23        24        25
  21 3   H  1S          0.10419
  22        2S          0.05487   0.03578
  23        3PX        -0.00516  -0.00201   0.00038
  24        3PY        -0.00000  -0.00000   0.00000   0.00037
  25        3PZ         0.00298   0.00116  -0.00014  -0.00000   0.00022
  26 4   H  1S         -0.02032  -0.02261  -0.00229   0.00000  -0.00208
  27        2S         -0.02329  -0.01581  -0.00037   0.00000  -0.00197
  28        3PX         0.00232   0.00034  -0.00032   0.00000   0.00002
  29        3PY         0.00000   0.00000   0.00000   0.00037  -0.00000
  30        3PZ        -0.00207  -0.00191  -0.00002   0.00000   0.00001
  31 5   H  1S         -0.00252   0.02239   0.00111   0.00000  -0.00064
  32        2S         -0.00289   0.03430   0.00161   0.00000  -0.00093
  33        3PX        -0.00035  -0.00026   0.00001   0.00000  -0.00001
  34        3PY        -0.00000  -0.00000  -0.00000   0.00000  -0.00000
  35        3PZ         0.00020   0.00015  -0.00001   0.00000   0.00000
                          26        27        28        29        30
  26 4   H  1S          0.10447
  27        2S          0.05698   0.03502
  28        3PX         0.00518   0.00223   0.00038
  29        3PY        -0.00000   0.00000  -0.00000   0.00038
  30        3PZ         0.00300   0.00130   0.00014  -0.00000   0.00022
  31 5   H  1S          0.00235   0.00344  -0.00018  -0.00000   0.00017
  32        2S          0.00380   0.00514  -0.00022  -0.00000   0.00027
  33        3PX         0.00012   0.00009  -0.00000   0.00000   0.00001
  34        3PY         0.00000   0.00000   0.00000   0.00000   0.00000
  35        3PZ        -0.00008  -0.00006   0.00000   0.00000  -0.00001
                          31        32        33        34        35
  31 5   H  1S          0.18647
  32        2S          0.28269   0.42857
  33        3PX        -0.00040  -0.00062   0.00000
  34        3PY         0.00000   0.00000   0.00000   0.00000
  35        3PZ         0.00023   0.00036  -0.00000  -0.00000   0.00000
     Beta Density Matrix:
                           1         2         3         4         5
   1 1   N  1S          1.02781
   2        2S         -0.05303   0.18122
   3        2PX         0.00016  -0.00017   0.22476
   4        2PY        -0.00000   0.00000  -0.00000   0.35896
   5        2PZ        -0.00010   0.00010   0.00044  -0.00000   0.22526
   6        3S         -0.08213   0.17849  -0.00166  -0.00000   0.00096
   7        3PX         0.00007   0.00001   0.10583   0.00000   0.00062
   8        3PY         0.00000   0.00000  -0.00000   0.31866  -0.00000
   9        3PZ        -0.00004  -0.00001   0.00062   0.00000   0.10654
  10        4XX        -0.00742  -0.00185  -0.00001   0.00000  -0.00630
  11        4YY        -0.00442  -0.00826   0.00011  -0.00000  -0.00006
  12        4ZZ        -0.00743  -0.00183   0.00012   0.00000   0.00624
  13        4XY         0.00000  -0.00000  -0.00000  -0.00006  -0.00000
  14        4XZ        -0.00001   0.00002  -0.00717   0.00000  -0.00006
  15        4YZ        -0.00000  -0.00000  -0.00000   0.00004   0.00000
  16 2   H  1S         -0.02982   0.06193   0.00019   0.00000   0.13683
  17        2S         -0.00545   0.01000   0.00004   0.00000   0.08809
  18        3PX         0.00000  -0.00000   0.00561  -0.00000   0.00001
  19        3PY         0.00000   0.00000   0.00000   0.01161  -0.00000
  20        3PZ         0.00378  -0.00769   0.00002   0.00000  -0.00552
  21 3   H  1S         -0.02966   0.06181   0.11815  -0.00000  -0.06823
  22        2S         -0.00543   0.00997   0.07830  -0.00000  -0.04522
  23        3PX         0.00325  -0.00663  -0.00273   0.00000   0.00482
  24        3PY        -0.00000   0.00000  -0.00000   0.01158   0.00000
  25        3PZ        -0.00188   0.00383   0.00482  -0.00000   0.00282
  26 4   H  1S         -0.02982   0.06193  -0.11842  -0.00000  -0.06854
  27        2S         -0.00545   0.01000  -0.07628   0.00000  -0.04406
  28        3PX        -0.00327   0.00666  -0.00275  -0.00000  -0.00481
  29        3PY         0.00000  -0.00000   0.00000   0.01161  -0.00000
  30        3PZ        -0.00189   0.00385  -0.00482   0.00000   0.00284
  31 5   H  1S          0.00005  -0.00015   0.00135  -0.00000  -0.00078
  32        2S         -0.00057   0.00131   0.00495  -0.00000  -0.00286
  33        3PX         0.00002  -0.00006  -0.00027   0.00000   0.00017
  34        3PY        -0.00000   0.00000  -0.00000   0.00006  -0.00000
  35        3PZ        -0.00001   0.00004   0.00017   0.00000  -0.00008
                           6         7         8         9        10
   6        3S          0.17670
   7        3PX        -0.00069   0.04983
   8        3PY        -0.00000   0.00000   0.28289
   9        3PZ         0.00040   0.00049  -0.00000   0.05039
  10        4XX        -0.00161  -0.00002   0.00000  -0.00298   0.00026
  11        4YY        -0.00793   0.00005  -0.00000  -0.00003   0.00014
  12        4ZZ        -0.00155   0.00006   0.00000   0.00295  -0.00009
  13        4XY        -0.00000  -0.00000  -0.00005  -0.00000   0.00000
  14        4XZ         0.00007  -0.00337   0.00000  -0.00004   0.00000
  15        4YZ        -0.00000  -0.00000   0.00003   0.00000  -0.00000
  16 2   H  1S          0.06187   0.00037  -0.00000   0.06470  -0.00437
  17        2S          0.01026   0.00018   0.00000   0.04166  -0.00255
  18        3PX        -0.00004   0.00264  -0.00000   0.00001  -0.00000
  19        3PY         0.00000   0.00000   0.01030  -0.00000   0.00000
  20        3PZ        -0.00764  -0.00001   0.00000  -0.00261   0.00022
  21 3   H  1S          0.06018   0.05554  -0.00000  -0.03207   0.00137
  22        2S          0.00920   0.03679  -0.00000  -0.02125   0.00119
  23        3PX        -0.00653  -0.00128   0.00000   0.00227  -0.00008
  24        3PY         0.00000   0.00000   0.01028   0.00000   0.00000
  25        3PZ         0.00377   0.00227  -0.00000   0.00134  -0.00011
  26 4   H  1S          0.06187  -0.05585   0.00000  -0.03265   0.00138
  27        2S          0.01026  -0.03599   0.00000  -0.02098   0.00115
  28        3PX         0.00660  -0.00130   0.00000  -0.00228   0.00008
  29        3PY        -0.00000   0.00000   0.01030  -0.00000   0.00000
  30        3PZ         0.00385  -0.00226   0.00000   0.00133  -0.00011
  31 5   H  1S         -0.00016   0.00063  -0.00000  -0.00037   0.00002
  32        2S          0.00126   0.00233  -0.00000  -0.00134   0.00007
  33        3PX        -0.00006  -0.00013   0.00000   0.00008  -0.00000
  34        3PY         0.00000  -0.00000   0.00005  -0.00000   0.00000
  35        3PZ         0.00004   0.00008   0.00000  -0.00004   0.00000
                          11        12        13        14        15
  11        4YY         0.00042
  12        4ZZ         0.00014   0.00025
  13        4XY         0.00000  -0.00000   0.00000
  14        4XZ        -0.00000  -0.00001   0.00000   0.00023
  15        4YZ         0.00000   0.00000  -0.00000   0.00000   0.00000
  16 2   H  1S         -0.00278   0.00326  -0.00000  -0.00003   0.00000
[...]
  16 2   H  1S          0.00974   0.00000   0.00000   0.08594  -0.00096
  17        2S         -0.07379   0.00000   0.00000   0.06877  -0.00102
  18        3PX         0.00000   0.00199   0.00000   0.00000   0.00000
  19        3PY         0.00000   0.00000   0.00225   0.00000   0.00000
  20        3PZ         0.00406   0.00000   0.00000   0.00028  -0.00008
  21 3   H  1S         -0.00087   0.00074   0.00000  -0.00004   0.00002
  22        2S          0.00508   0.00787   0.00000   0.00222   0.00022
  23        3PX         0.00019   0.00021   0.00000   0.00006  -0.00000
  24        3PY         0.00000   0.00000   0.00002   0.00000   0.00000
  25        3PZ         0.00001   0.00003   0.00000   0.00000  -0.00000
  26 4   H  1S          0.00970   0.01177   0.07246   0.00171  -0.00048
  27        2S         -0.07383   0.00988   0.05871   0.00017   0.00021
  28        3PX         0.00064   0.00131   0.00036   0.00004   0.00002
  29        3PY         0.00369   0.00038   0.00001   0.00022  -0.00005
  30        3PZ        -0.00026   0.00006   0.00035   0.00179  -0.00001
  31 5   H  1S         -0.00017  -0.00020   0.00001  -0.00004   0.00000
  32        2S         -0.00435  -0.00389   0.00023  -0.00084   0.00006
  33        3PX        -0.00001   0.00000   0.00000  -0.00000   0.00000
  34        3PY        -0.00000  -0.00000  -0.00000  -0.00000   0.00000
  35        3PZ        -0.00000   0.00000   0.00000   0.00000   0.00000
                          11        12        13        14        15
  11        4YY         0.00298
  12        4ZZ        -0.00016   0.00307
  13        4XY         0.00000   0.00000   0.00116
  14        4XZ         0.00000   0.00000   0.00000   0.00043
  15        4YZ         0.00000   0.00000   0.00000   0.00000   0.00095
  16 2   H  1S         -0.00120   0.00987   0.00000   0.00000   0.00000
  17        2S         -0.00137   0.00780   0.00000   0.00000   0.00000
  18        3PX         0.00000   0.00000   0.00000   0.00011   0.00000
  19        3PY         0.00000   0.00000   0.00000   0.00000   0.00015
  20        3PZ        -0.00010   0.00011   0.00000   0.00000   0.00000
  21 3   H  1S          0.00000  -0.00000   0.00000   0.00000   0.00000
  22        2S         -0.00013  -0.00014   0.00000  -0.00002   0.00000
  23        3PX        -0.00000  -0.00000   0.00000  -0.00000   0.00000
  24        3PY         0.00000   0.00000  -0.00000   0.00000  -0.00000
  25        3PZ        -0.00000   0.00000   0.00000  -0.00000   0.00000
  26 4   H  1S          0.00782  -0.00174   0.00242  -0.00004  -0.00025
  27        2S          0.00716  -0.00229   0.00040  -0.00001  -0.00007
  28        3PX         0.00006  -0.00002   0.00003  -0.00001   0.00000
  29        3PY        -0.00000  -0.00013   0.00008  -0.00000   0.00004
  30        3PZ         0.00004  -0.00004   0.00002   0.00003   0.00016
  31 5   H  1S          0.00000   0.00000  -0.00000   0.00000  -0.00000
  32        2S          0.00002   0.00002  -0.00000   0.00001  -0.00000
  33        3PX         0.00000   0.00000  -0.00000   0.00000  -0.00000
  34        3PY        -0.00000   0.00000   0.00000   0.00000   0.00000
  35        3PZ         0.00000   0.00000   0.00000  -0.00000  -0.00000
                          16        17        18        19        20
  16 2   H  1S          0.21586
  17        2S          0.09171   0.11137
  18        3PX         0.00000   0.00000   0.00033
  19        3PY         0.00000   0.00000   0.00000   0.00047
  20        3PZ         0.00000   0.00000   0.00000   0.00000   0.00094
  21 3   H  1S         -0.00000   0.00014   0.00000   0.00000  -0.00000
  22        2S         -0.00040  -0.00121   0.00002   0.00000  -0.00000
  23        3PX        -0.00000  -0.00002   0.00000   0.00000   0.00000
  24        3PY         0.00000   0.00000   0.00000   0.00000   0.00000
  25        3PZ         0.00000   0.00000   0.00000   0.00000   0.00000
  26 4   H  1S         -0.00112  -0.00923   0.00003   0.00019   0.00007
  27        2S         -0.00923  -0.01410   0.00008   0.00044  -0.00025
  28        3PX         0.00000  -0.00005   0.00000   0.00000   0.00000
  29        3PY         0.00001  -0.00026   0.00000   0.00000   0.00002
  30        3PZ         0.00029   0.00057   0.00000   0.00001   0.00001
  31 5   H  1S          0.00000   0.00003  -0.00000   0.00000  -0.00000
  32        2S          0.00004   0.00090  -0.00000   0.00000  -0.00000
  33        3PX         0.00000   0.00000   0.00000   0.00000  -0.00000
  34        3PY         0.00000   0.00000  -0.00000  -0.00000  -0.00000
  35        3PZ         0.00000   0.00000   0.00000   0.00000   0.00000
                          21        22        23        24        25
  21 3   H  1S          0.18925
  22        2S          0.11255   0.16122
  23        3PX         0.00000   0.00000   0.00052
  24        3PY         0.00000   0.00000   0.00000   0.00005
  25        3PZ         0.00000   0.00000   0.00000   0.00000   0.00001
  26 4   H  1S         -0.00000  -0.00039  -0.00000   0.00000  -0.00000
  27        2S          0.00013  -0.00119  -0.00002   0.00000  -0.00000
  28        3PX         0.00000   0.00001   0.00000   0.00000   0.00000
  29        3PY        -0.00000  -0.00000   0.00000  -0.00000  -0.00000
  30        3PZ         0.00000   0.00000   0.00000  -0.00000   0.00000
  31 5   H  1S          0.06689   0.07837   0.00374   0.00031   0.00002
  32        2S          0.08944   0.13269   0.00166   0.00013   0.00001
  33        3PX         0.00339   0.00127   0.00018   0.00002   0.00000
  34        3PY         0.00022   0.00008   0.00002  -0.00001   0.00000
  35        3PZ         0.00003   0.00001   0.00000   0.00000  -0.00000
                          26        27        28        29        30
  26 4   H  1S          0.21588
  27        2S          0.09173   0.11141
  28        3PX         0.00000   0.00000   0.00038
  29        3PY         0.00000   0.00000   0.00000   0.00085
  30        3PZ         0.00000   0.00000   0.00000   0.00000   0.00050
  31 5   H  1S          0.00000   0.00003  -0.00000  -0.00000  -0.00000
  32        2S          0.00004   0.00088  -0.00000  -0.00000  -0.00000
  33        3PX         0.00000   0.00000   0.00000  -0.00000  -0.00000
  34        3PY         0.00000  -0.00000   0.00000   0.00000   0.00000
  35        3PZ        -0.00000   0.00000   0.00000  -0.00000   0.00000
                          31        32        33        34        35
  31 5   H  1S          0.19646
  32        2S          0.13296   0.21329
  33        3PX         0.00000   0.00000   0.00043
  34        3PY         0.00000   0.00000   0.00000   0.00003
  35        3PZ         0.00000   0.00000   0.00000   0.00000   0.00000
     Gross orbital populations:
                         Total     Alpha     Beta      Spin
   1 1   N  1S          1.99257   0.99618   0.99638  -0.00020
   2        2S          0.85517   0.44040   0.41477   0.02563
   3        2PX         0.63018   0.56529   0.06489   0.50040
   4        2PY         0.80984   0.45728   0.35256   0.10472
   5        2PZ         0.81943   0.41971   0.39971   0.02000
   6        3S          1.02142   0.51280   0.50861   0.00419
   7        3PX         0.41303   0.37054   0.04249   0.32805
   8        3PY         0.49626   0.27873   0.21753   0.06120
   9        3PZ         0.46297   0.23419   0.22877   0.00542
  10        4XX        -0.01459  -0.00019  -0.01440   0.01421
  11        4YY        -0.01216  -0.00854  -0.00362  -0.00492
  12        4ZZ        -0.00718  -0.00831   0.00113  -0.00943
  13        4XY         0.00411   0.00217   0.00193   0.00024
  14        4XZ         0.00050   0.00044   0.00006   0.00039
  15        4YZ         0.00098   0.00054   0.00044   0.00010
  16 2   H  1S          0.51807   0.25033   0.26774  -0.01742
  17        2S          0.21374   0.09720   0.11654  -0.01935
  18        3PX         0.00425   0.00374   0.00050   0.00324
  19        3PY         0.00568   0.00304   0.00264   0.00040
  20        3PZ         0.01329   0.00669   0.00660   0.00008
  21 3   H  1S          0.46192   0.22905   0.23287  -0.00382
  22        2S          0.50186   0.24371   0.25815  -0.01443
  23        3PX         0.00655   0.00361   0.00295   0.00066
  24        3PY         0.00052   0.00026   0.00026  -0.00000
  25        3PZ         0.00007   0.00006   0.00002   0.00004
  26 4   H  1S          0.51810   0.25034   0.26776  -0.01742
  27        2S          0.21377   0.09721   0.11656  -0.01935
  28        3PX         0.00521   0.00426   0.00095   0.00331
  29        3PY         0.01187   0.00624   0.00563   0.00061
  30        3PZ         0.00614   0.00297   0.00317  -0.00020
  31 5   H  1S          0.47843   0.24665   0.23178   0.01486
  32        2S          0.56235   0.29061   0.27173   0.01888
  33        3PX         0.00529   0.00260   0.00268  -0.00008
  34        3PY         0.00034   0.00017   0.00017   0.00000
  35        3PZ         0.00005   0.00002   0.00003  -0.00000
          Condensed to atoms (all electrons):
               1          2          3          4          5
     1  N    6.912101   0.275657   0.019220   0.275606  -0.010085
     2  H    0.275657   0.512377  -0.001477  -0.032499   0.000970
     3  H    0.019220  -0.001477   0.576156  -0.001451   0.378481
     4  H    0.275606  -0.032499  -0.001451   0.512481   0.000951
     5  H   -0.010085   0.000970   0.378481   0.000951   0.676139
          Atomic-Atomic Spin Densities.
               1          2          3          4          5
     1  N    1.064394  -0.003649  -0.002348  -0.003647  -0.004783
     2  H   -0.003649  -0.033420   0.000114   0.003938  -0.000021
     3  H   -0.002348   0.000114  -0.017266   0.000112   0.001839
     4  H   -0.003647   0.003938   0.000112  -0.033424  -0.000021
     5  H   -0.004783  -0.000021   0.001839  -0.000021   0.036646
 Mulliken charges and spin densities:
               1          2
     1  N   -0.472499   1.049968
     2  H    0.244973  -0.033038
     3  H    0.029072  -0.017549
     4  H    0.244910  -0.033041
     5  H   -0.046455   0.033660
 Sum of Mulliken charges =   0.00000   1.00000
 Mulliken charges and spin densities with hydrogens summed into heavy atoms:
               1          2
     1  N    0.000000   1.000000
 Electronic spatial extent (au):  <R**2>=             78.5261
 Charge=              0.0000 electrons
 Dipole moment (field-independent basis, Debye):
    X=             -0.9112    Y=             -1.3736    Z=              1.3030  Tot=              2.1012
 Quadrupole moment (field-independent basis, Debye-Ang):
   XX=             -9.5995   YY=             -8.4882   ZZ=             -8.2070
   XY=              0.2311   XZ=              0.4111   YZ=              0.5219
 Traceless Quadrupole moment (field-independent basis, Debye-Ang):
   XX=             -0.8346   YY=              0.2767   ZZ=              0.5579
   XY=              0.2311   XZ=              0.4111   YZ=              0.5219
 Octapole moment (field-independent basis, Debye-Ang**2):
  XXX=            -16.1838  YYY=              1.1347  ZZZ=              4.6791  XYY=             -5.7816
  XXY=              0.1105  XXZ=              1.3160  XZZ=             -5.6229  YZZ=              0.6638
  YYZ=              0.8665  XYZ=             -0.0561
 Hexadecapole moment (field-independent basis, Debye-Ang**3):
 XXXX=            -88.0019 YYYY=            -10.8277 ZZZZ=            -16.9575 XXXY=             -0.8264
 XXXZ=             10.6111 YYYX=              1.8288 YYYZ=             -0.3955 ZZZX=             11.7197
 ZZZY=             -0.6557 XXYY=            -17.7217 XXZZ=            -19.3933 YYZZ=             -5.0344
 XXYZ=              0.2100 YYXZ=              3.9244 ZZXY=              0.4375
 N-N= 1.167971207605D+01 E-N=-1.560453613285D+02  KE= 5.644930191694D+01
 Orbital energies and kinetic energies (alpha):
                                 1                 2
   1         O               -14.369452         21.952274
   2         O                -0.858810          1.921288
   3         O                -0.473116          1.354575
   4         O                -0.400446          0.610705
   5         O                -0.327913          1.665516
   6         O                -0.310250          1.669112
   7         V                 0.067219          0.960598
   8         V                 0.118864          0.794528
   9         V                 0.145722          1.109361
  10         V                 0.615939          1.854609
  11         V                 0.667608          2.537077
  12         V                 0.669058          1.624339
  13         V                 0.778398          2.151624
  14         V                 0.823029          2.534633
  15         V                 0.844347          2.853477
  16         V                 0.974772          2.220640
  17         V                 1.101811          2.130247
  18         V                 1.448050          2.496382
  19         V                 1.452918          2.470523
  20         V                 1.574361          2.609426
  21         V                 1.718450          2.450911
  22         V                 1.729559          2.478592
  23         V                 2.030217          3.232506
  24         V                 2.179432          3.075085
  25         V                 2.187190          3.030768
  26         V                 2.245685          3.492480
  27         V                 2.497226          3.283854
  28         V                 2.499218          3.398678
  29         V                 2.509256          3.309539
  30         V                 2.562745          3.449891
  31         V                 2.864205          3.849265
  32         V                 3.175769          5.747892
  33         V                 3.394993          5.212781
  34         V                 3.673758          6.636134
  35         V                 3.772298          6.688193
 Orbital energies and kinetic energies (beta):
                                 1                 2
   1         O               -14.350529         21.978905
   2         O                -0.805738          1.810396
   3         O                -0.459012          1.310070
   4         O                -0.393053          0.545844
   5         O                -0.302517          1.630618
   6         V                -0.110050          1.438554
   7         V                 0.077223          0.977415
   8         V                 0.126852          0.835835
   9         V                 0.152136          1.115023
  10         V                 0.632025          1.751954
  11         V                 0.671723          1.615805
  12         V                 0.716423          2.708186
  13         V                 0.807643          2.255022
  14         V                 0.847891          2.691363
  15         V                 0.853479          2.885963
  16         V                 0.991964          2.240175
  17         V                 1.115208          2.118764
  18         V                 1.467410          2.465263
  19         V                 1.494169          2.487395
  20         V                 1.622283          2.596139
  21         V                 1.720410          2.450974
  22         V                 1.734009          2.485936
  23         V                 2.099268          3.229579
  24         V                 2.183033          3.029886
  25         V                 2.183197          3.076731
  26         V                 2.252387          3.494650
  27         V                 2.503250          3.270913
  28         V                 2.507115          3.249420
  29         V                 2.531057          3.468106
  30         V                 2.581628          3.469903
  31         V                 2.867903          3.851478
  32         V                 3.188177          5.660428
  33         V                 3.403160          5.224024
  34         V                 3.689404          6.083864
  35         V                 3.792466          7.352923
 Total kinetic energy from orbitals= 5.644930191694D+01
                          Isotropic Fermi Contact Couplings
        Atom                 a.u.       MegaHertz       Gauss      10(-4) cm-1
     1  N(14)              0.10256      33.13748      11.82428      11.05348
     2  H(1)              -0.01412     -63.13365     -22.52766     -21.05912
     3  H(1)              -0.00290     -12.94802      -4.62018      -4.31899
     4  H(1)              -0.01412     -63.13517     -22.52820     -21.05963
     5  H(1)               0.01216      54.35323      19.39458      18.13029
 --------------------------------------------------------
       Center         ----  Spin Dipole Couplings  ----
                      3XX-RR        3YY-RR        3ZZ-RR
 --------------------------------------------------------
     1   Atom        1.596230     -0.566367     -1.029862
     2   Atom       -0.031814     -0.088890      0.120703
     3   Atom        0.033597     -0.019006     -0.014591
     4   Atom       -0.000665      0.090060     -0.089395
     5   Atom        0.009254     -0.005102     -0.004152
 --------------------------------------------------------
                        XY            XZ            YZ
 --------------------------------------------------------
     1   Atom       -1.112531      0.030111      0.003469
     2   Atom       -0.029419      0.001479      0.005110
     3   Atom        0.000116     -0.016081     -0.000867
     4   Atom        0.045244      0.020039      0.046218
     5   Atom       -0.000604     -0.003850      0.000072
 --------------------------------------------------------


 ---------------------------------------------------------------------------------
              Anisotropic Spin Dipole Couplings in Principal Axis System
 ---------------------------------------------------------------------------------

       Atom             a.u.   MegaHertz   Gauss  10(-4) cm-1        Axes

              Baa    -1.0485   -40.440   -14.430   -13.489  0.3077  0.7144 -0.6284
     1 N(14)  Bbb    -1.0180   -39.263   -14.010   -13.097  0.2385  0.5815  0.7778
              Bcc     2.0666    79.704    28.440    26.586  0.9211 -0.3892  0.0085
 
              Baa    -0.1015   -54.136   -19.317   -18.058  0.3894  0.9208 -0.0238
     2 H(1)   Bbb    -0.0194   -10.334    -3.687    -3.447  0.9210 -0.3894  0.0045
              Bcc     0.1208    64.470    23.005    21.505  0.0051  0.0236  0.9997
 
              Baa    -0.0201   -10.705    -3.820    -3.571  0.2281  0.6017  0.7655
     3 H(1)   Bbb    -0.0184    -9.822    -3.505    -3.276 -0.1794  0.7987 -0.5744
              Bcc     0.0385    20.527     7.325     6.847  0.9570  0.0063 -0.2901
 
              Baa    -0.1015   -54.140   -19.319   -18.059 -0.0984 -0.2114  0.9724
     4 H(1)   Bbb    -0.0194   -10.331    -3.686    -3.446  0.9226 -0.3855  0.0096
              Bcc     0.1208    64.471    23.005    21.505  0.3729  0.8982  0.2330
 
              Baa    -0.0052    -2.797    -0.998    -0.933  0.2299  0.5918  0.7726
     5 H(1)   Bbb    -0.0051    -2.701    -0.964    -0.901 -0.1221  0.8051 -0.5804
              Bcc     0.0103     5.498     1.962     1.834  0.9655 -0.0391 -0.2573
 

 ---------------------------------------------------------------------------------

 No NMR shielding tensors so no spin-rotation constants.
 Leave Link  601 at Sat Sep 14 01:28:33 2024, MaxMem=   268435456 cpu:         2.3
 (Enter /g100_work/pMI24_ChiCa/g09d1/g09d01/d01/build-node-6-2-59348/src/main/l9999.exe)


 The hours that make us happy make us wise.
                         -- John Masefield
 Error termination request processed by link 9999.
 Error termination via Lnk1e in /g100_work/pMI24_ChiCa/g09d1/g09d01/d01/build-node-6-2-59348/src/main/l9999.exe at Sat Sep 14 01:28:33 2024.
 Job cpu time:       0 days  0 hours 17 minutes 38.4 seconds.
 File lengths (MBytes):  RWF=      5 Int=      0 D2E=      0 Chk=      2 Scr=      1
