 Entering Gaussian System, Link 0=/g100_work/pMI24_ChiCa/g09d1/g09d01/d01/build-node-6-2-59348/src/main/g09
 Input=geom.com
 Output=geom.log
 Initial command:
 /g100_work/pMI24_ChiCa/g09d1/g09d01/d01/build-node-6-2-59348/src/main/l1.exe "/g100_scratch/userexternal/ecabiati/g16_14408022/Gau-15349.inp" -scrdir="/g100_scratch/userexternal/ecabiati/g16_14408022/"
 Entering Link 1 = /g100_work/pMI24_ChiCa/g09d1/g09d01/d01/build-node-6-2-59348/src/main/l1.exe PID=     15350.
  
 Copyright (c) 1988,1990,1992,1993,1995,1998,2003,2009,2013,
            Gaussian, Inc.  All Rights Reserved.
  
 This is part of the Gaussian(R) 09 program.  It is based on
 the Gaussian(R) 03 system (copyright 2003, Gaussian, Inc.),
 the Gaussian(R) 98 system (copyright 1998, Gaussian, Inc.),
 the Gaussian(R) 94 system (copyright 1995, Gaussian, Inc.),
 the Gaussian 92(TM) system (copyright 1992, Gaussian, Inc.),
 the Gaussian 90(TM) system (copyright 1990, Gaussian, Inc.),
 the Gaussian 88(TM) system (copyright 1988, Gaussian, Inc.),
 the Gaussian 86(TM) system (copyright 1986, Carnegie Mellon
 University), and the Gaussian 82(TM) system (copyright 1983,
 Carnegie Mellon University). Gaussian is a federally registered
 trademark of Gaussian, Inc.
  
 This software contains proprietary and confidential information,
 including trade secrets, belonging to Gaussian, Inc.
  
 This software is provided under written license and may be
 used, copied, transmitted, or stored only in accord with that
 written license.
  
 The following legend is applicable only to US Government
 contracts under FAR:
  
                    RESTRICTED RIGHTS LEGEND
  
 Use, reproduction and disclosure by the US Government is
 subject to restrictions as set forth in subparagraphs (a)
 and (c) of the Commercial Computer Software - Restricted
 Rights clause in FAR 52.227-19.
  
 Gaussian, Inc.
 340 Quinnipiac St., Bldg. 40, Wallingford CT 06492
  
  
 ---------------------------------------------------------------
 Warning -- This program may not be used in any manner that
 competes with the business of Gaussian, Inc. or will provide
 assistance to any competitor of Gaussian, Inc.  The licensee
 of this program is prohibited from giving any competitor of
 Gaussian, Inc. access to this program.  By using this program,
 the user acknowledges that Gaussian, Inc. is engaged in the
 business of creating and licensing software in the field of
 computational chemistry and represents and warrants to the
 licensee that it is not a competitor of Gaussian, Inc. and that
 it will not use this program in any manner prohibited above.
 ---------------------------------------------------------------
  

 Cite this work as:
 Gaussian 09, Revision D.01,
 M. J. Frisch, G. W. Trucks, H. B. Schlegel, G. E. Scuseria, 
 M. A. Robb, J. R. Cheeseman, G. Scalmani, V. Barone, B. Mennucci, 
 G. A. Petersson, H. Nakatsuji, M. Caricato, X. Li, H. P. Hratchian, 
 A. F. Izmaylov, J. Bloino, G. Zheng, J. L. Sonnenberg, M. Hada, 
 M. Ehara, K. Toyota, R. Fukuda, J. Hasegawa, M. Ishida, T. Nakajima, 
 Y. Honda, O. Kitao, H. Nakai, T. Vreven, J. A. Montgomery, Jr., 
 J. E. Peralta, F. Ogliaro, M. Bearpark, J. J. Heyd, E. Brothers, 
 K. N. Kudin, V. N. Staroverov, T. Keith, R. Kobayashi, J. Normand, 
 K. Raghavachari, A. Rendell, J. C. Burant, S. S. Iyengar, J. Tomasi, 
 M. Cossi, N. Rega, J. M. Millam, M. Klene, J. E. Knox, J. B. Cross, 
 V. Bakken, C. Adamo, J. Jaramillo, R. Gomperts, R. E. Stratmann, 
 O. Yazyev, A. J. Austin, R. Cammi, C. Pomelli, J. W. Ochterski, 
 R. L. Martin, K. Morokuma, V. G. Zakrzewski, G. A. Voth, 
 P. Salvador, J. J. Dannenberg, S. Dapprich, A. D. Daniels, 
 O. Farkas, J. B. Foresman, J. V. Ortiz, J. Cioslowski, 
 and D. J. Fox, Gaussian, Inc., Wallingford CT, 2013.
 
 ******************************************
 Gaussian 09:  EM64L-G09RevD.01 24-Apr-2013
                15-Sep-2024 
 ******************************************
 %nproc=24
 Will use up to   24 processors via shared memory.
 %mem=2Gb
 %chk=nh3+h_to_nh2+h2.chk
 ----------------------------------------------------------------------
 #p wb97xd/6-31g(d,p) opt=Z-Matrix nosym temperature=300 pop=full gfinp
 ut
 ----------------------------------------------------------------------
 1/10=7,14=-1,18=40,26=3,38=1,112=300000/1,3;
 2/12=2,15=1,17=6,18=5,29=3,40=1/2;
 3/5=1,6=6,7=101,11=2,16=1,24=10,25=1,30=1,71=1,74=-58/1,2,3;
 4//1;
 5/5=2,38=5/2;
 6/7=3,28=1/1;
 7/29=1,30=1/1,2,3,16;
 1/10=7,14=-1,18=40,26=3/3(2);
 2/15=1,29=3/2;
 99//99;
 2/15=1,29=3/2;
 3/5=1,6=6,7=101,11=2,16=1,25=1,30=1,71=1,74=-58/1,2,3;
 4/5=5,16=3,69=1/1;
 5/5=2,38=5/2;
 7/30=1/1,2,3,16;
 1/14=-1,18=40,26=3/3(-5);
 2/15=1,29=3/2;
 6/7=3,19=2,28=1/1;
 99/9=1/99;
 Leave Link    1 at Sun Sep 15 21:18:56 2024, MaxMem=   268435456 cpu:         0.2
 (Enter /g100_work/pMI24_ChiCa/g09d1/g09d01/d01/build-node-6-2-59348/src/main/l101.exe)
 ---------------------------
 nh3+h to nh2+h2 pulling hh6
 ---------------------------
 Symbolic Z-matrix:
 Charge =  0 Multiplicity = 2
 n
 h                    1    hn2
 h                    1    hn3      2    hnh3
 h                    1    hn4      3    hnh4     2    dih4     0
 xx                   3    xxh5     1    xxhn5    4    dih5     0
 h                    3    hh6      5    hhxx6    1    dih6     0
       Variables:
  hn2                   1.0159                   
  hn3                   1.0164                   
  hnh3                108.0326                   
  hn4                   1.0159                   
  hnh4                108.0322                   
  dih4                116.6638                   
  xxh5                  1.      -1        0.     
  xxhn5                90.      -1        0.     
  dih5                 90.      -1        0.     
  hh6                   2.4111 Scan 18   -0.1    
  hhxx6                84.2169                   
  dih6                176.4105                   
 
 NAtoms=      5 NQM=        5 NQMF=       0 NMMI=      0 NMMIF=      0
                NMic=       0 NMicF=      0.
                    Isotopes and Nuclear Properties:
 (Nuclear quadrupole moments (NQMom) in fm**2, nuclear magnetic moments (NMagM)
  in nuclear magnetons)

  Atom         1           2           3           4           5
 IAtWgt=          14           1           1           1           1
 AtmWgt=  14.0030740   1.0078250   1.0078250   1.0078250   1.0078250
 NucSpn=           2           1           1           1           1
 AtZEff=   0.0000000   0.0000000   0.0000000   0.0000000   0.0000000
 NQMom=    2.0440000   0.0000000   0.0000000   0.0000000   0.0000000
 NMagM=    0.4037610   2.7928460   2.7928460   2.7928460   2.7928460
 AtZNuc=   7.0000000   1.0000000   1.0000000   1.0000000   1.0000000
 Leave Link  101 at Sun Sep 15 21:18:56 2024, MaxMem=   268435456 cpu:         0.2
 (Enter /g100_work/pMI24_ChiCa/g09d1/g09d01/d01/build-node-6-2-59348/src/main/l103.exe)

 GradGradGradGradGradGradGradGradGradGradGradGradGradGradGradGradGradGrad
 Berny optimization.
 Initialization pass.
                       ----------------------------
                       !    Initial Parameters    !
                       ! (Angstroms and Degrees)  !
 ----------------------                            ----------------------
 !      Name          Value   Derivative information (Atomic Units)     !
 ------------------------------------------------------------------------
 !       hn2         1.0159   estimate D2E/DX2                          !
 !       hn3         1.0164   estimate D2E/DX2                          !
 !      hnh3       108.0326   estimate D2E/DX2                          !
 !       hn4         1.0159   estimate D2E/DX2                          !
 !      hnh4       108.0322   estimate D2E/DX2                          !
 !      dih4       116.6638   estimate D2E/DX2                          !
 !      xxh5         1.0      Frozen                                    !
 !      xxhn5       90.0      Frozen                                    !
 !      dih5        90.0      Frozen                                    !
 !       hh6         2.4111   Scan                                      !
 !      hhxx6       84.2169   estimate D2E/DX2                          !
 !      dih6       176.4105   estimate D2E/DX2                          !
 ------------------------------------------------------------------------
 Trust Radius=3.00D-01 FncErr=1.00D-07 GrdErr=1.00D-06
 Number of optimizations in scan=  19
 Number of steps in this run=     22 maximum allowed number of steps=    100.
 GradGradGradGradGradGradGradGradGradGradGradGradGradGradGradGradGradGrad

 Leave Link  103 at Sun Sep 15 21:18:56 2024, MaxMem=   268435456 cpu:         0.1
 (Enter /g100_work/pMI24_ChiCa/g09d1/g09d01/d01/build-node-6-2-59348/src/main/l202.exe)
 ---------------------------------------------------------------------------------------------------
                            Z-MATRIX (ANGSTROMS AND DEGREES)
   CD    Cent   Atom    N1       Length/X        N2       Alpha/Y        N3        Beta/Z          J
 ---------------------------------------------------------------------------------------------------
      1      1  N 
      2      2  H        1   1.015900(     1)
      3      3  H        1   1.016400(     2)      2  108.033(     6)
      4      4  H        1   1.015900(     3)      3  108.032(     7)      2  116.664(    10)      0
      5         X        3   1.000000(     4)      1   90.000(     8)      4   90.000(    11)      0
      6      5  H        3   2.411100(     5)      5   84.217(     9)      1  176.411(    12)      0
 ---------------------------------------------------------------------------------------------------
                         Z-Matrix orientation:                         
 ---------------------------------------------------------------------
 Center     Atomic      Atomic             Coordinates (Angstroms)
 Number     Number       Type             X           Y           Z
 ---------------------------------------------------------------------
      1          7           0        0.000000    0.000000    0.000000
      2          1           0        0.000000    0.000000    1.015900
      3          1           0        0.966475    0.000000   -0.314635
      4          1           0       -0.433219    0.863272   -0.314857
      5         -1           0        1.243113    0.448754    0.535124
      6          1           0        3.289346    0.243238   -0.913392
 ---------------------------------------------------------------------
                    Distance matrix (angstroms):
                    1          2          3          4          5
     1  N    0.000000
     2  H    1.015900   0.000000
     3  H    1.016400   1.644505   0.000000
     4  H    1.015900   1.644333   1.644501   0.000000
     5  X    1.425857   1.406363   1.000000   1.924677   0.000000
     6  H    3.422462   3.821142   2.411100   3.821018   2.515453
                    6
     6  H    0.000000
 Symmetry turned off by external request.
 Stoichiometry    H4N(2)
 Framework group  C1[X(H4N)]
 Deg. of freedom     9
 Full point group                 C1      NOp   1
 Rotational constants (GHZ):    272.3776389     39.9312044     37.3640847
 Leave Link  202 at Sun Sep 15 21:18:57 2024, MaxMem=   268435456 cpu:         0.2
 (Enter /g100_work/pMI24_ChiCa/g09d1/g09d01/d01/build-node-6-2-59348/src/main/l301.exe)
 Standard basis: 6-31G(d,p) (6D, 7F)
 Ernie: Thresh=  0.10000D-02 Tol=  0.10000D-05 Strict=F.
 AO basis set in the form of general basis input (Overlap normalization):
      1 0
 S   6 1.00       0.000000000000
      0.4173511460D+04  0.1834772160D-02
      0.6274579110D+03  0.1399462700D-01
      0.1429020930D+03  0.6858655181D-01
      0.4023432930D+02  0.2322408730D+00
      0.1282021290D+02  0.4690699481D+00
      0.4390437010D+01  0.3604551991D+00
 SP   3 1.00       0.000000000000
      0.1162636186D+02 -0.1149611817D+00  0.6757974388D-01
      0.2716279807D+01 -0.1691174786D+00  0.3239072959D+00
      0.7722183966D+00  0.1145851947D+01  0.7408951398D+00
 SP   1 1.00       0.000000000000
      0.2120314975D+00  0.1000000000D+01  0.1000000000D+01
 D   1 1.00       0.000000000000
      0.8000000000D+00  0.1000000000D+01
 ****
      2 0
 S   3 1.00       0.000000000000
      0.1873113696D+02  0.3349460434D-01
      0.2825394365D+01  0.2347269535D+00
      0.6401216923D+00  0.8137573261D+00
 S   1 1.00       0.000000000000
      0.1612777588D+00  0.1000000000D+01
 P   1 1.00       0.000000000000
      0.1100000000D+01  0.1000000000D+01
 ****
      3 0
 S   3 1.00       0.000000000000
      0.1873113696D+02  0.3349460434D-01
      0.2825394365D+01  0.2347269535D+00
      0.6401216923D+00  0.8137573261D+00
 S   1 1.00       0.000000000000
      0.1612777588D+00  0.1000000000D+01
 P   1 1.00       0.000000000000
      0.1100000000D+01  0.1000000000D+01
 ****
      4 0
 S   3 1.00       0.000000000000
      0.1873113696D+02  0.3349460434D-01
      0.2825394365D+01  0.2347269535D+00
      0.6401216923D+00  0.8137573261D+00
 S   1 1.00       0.000000000000
      0.1612777588D+00  0.1000000000D+01
 P   1 1.00       0.000000000000
      0.1100000000D+01  0.1000000000D+01
 ****
      5 0
 S   3 1.00       0.000000000000
      0.1873113696D+02  0.3349460434D-01
      0.2825394365D+01  0.2347269535D+00
      0.6401216923D+00  0.8137573261D+00
 S   1 1.00       0.000000000000
      0.1612777588D+00  0.1000000000D+01
 P   1 1.00       0.000000000000
      0.1100000000D+01  0.1000000000D+01
 ****

    35 basis functions,    56 primitive gaussians,    35 cartesian basis functions
     6 alpha electrons        5 beta electrons
       nuclear repulsion energy        13.4811759881 Hartrees.
 IExCor= 4639 DFT=T Ex+Corr=wB97XD ExCW=0 ScaHFX=  1.000000
 ScaDFX=  1.000000  1.000000  1.000000  1.000000 ScalE2=  1.000000  1.000000
 IRadAn=      0 IRanWt=     -1 IRanGd=            0 ICorTp=0 IEmpDi=121
  HFx wShort=  0.000000 wLong=  0.200000 cFull=  0.222036 cShort=  0.000000 cLong=  0.777964
  DFx wShort=  0.000000 wLong=  0.200000 cFull=  0.000000 cShort=  0.000000 cLong=  1.000000
 NAtoms=    5 NActive=    5 NUniq=    5 SFac= 1.00D+00 NAtFMM=   60 NAOKFM=F Big=F
 Integral buffers will be    131072 words long.
 Raffenetti 2 integral format.
 Two-electron integral symmetry is turned off.
 R6Disp:  Grimme-D2 Dispersion energy=       -0.0004175786 Hartrees.
 Nuclear repulsion after empirical dispersion term =       13.4807584095 Hartrees.
 Leave Link  301 at Sun Sep 15 21:18:57 2024, MaxMem=   268435456 cpu:         0.1
 (Enter /g100_work/pMI24_ChiCa/g09d1/g09d01/d01/build-node-6-2-59348/src/main/l302.exe)
 NPDir=0 NMtPBC=     1 NCelOv=     1 NCel=       1 NClECP=     1 NCelD=      1
         NCelK=      1 NCelE2=     1 NClLst=     1 CellRange=     0.0.
 One-electron integrals computed using PRISM.
 NBasis=    35 RedAO= T EigKep=  2.13D-02  NBF=    35
 NBsUse=    35 1.00D-06 EigRej= -1.00D+00 NBFU=    35
 Precomputing XC quadrature grid using
 IXCGrd= 4 IRadAn=           0 IRanWt=          -1 IRanGd=           0 AccXCQ= 0.00D+00.
 Generated NRdTot=       0 NPtTot=           0 NUsed=           0 NTot=          32
 NSgBfM=    35    35    35    35    35 MxSgAt=     5 MxSgA2=     5.
 Leave Link  302 at Sun Sep 15 21:18:57 2024, MaxMem=   268435456 cpu:         1.2
 (Enter /g100_work/pMI24_ChiCa/g09d1/g09d01/d01/build-node-6-2-59348/src/main/l303.exe)
 DipDrv:  MaxL=1.
 Leave Link  303 at Sun Sep 15 21:18:57 2024, MaxMem=   268435456 cpu:         0.2
 (Enter /g100_work/pMI24_ChiCa/g09d1/g09d01/d01/build-node-6-2-59348/src/main/l401.exe)
 ExpMin= 1.61D-01 ExpMax= 4.17D+03 ExpMxC= 6.27D+02 IAcc=1 IRadAn=         1 AccDes= 0.00D+00
 Harris functional with IExCor= 4639 and IRadAn=       1 diagonalized for initial guess.
 HarFok:  IExCor= 4639 AccDes= 0.00D+00 IRadAn=         1 IDoV= 1 UseB2=F ITyADJ=14
 ICtDFT=  3500011 ScaDFX=  1.000000  1.000000  1.000000  1.000000
 FoFCou: FMM=F IPFlag=           0 FMFlag=      100000 FMFlg1=           0
         NFxFlg=           0 DoJE=T BraDBF=F KetDBF=T FulRan=T
         wScrn=  0.000000 ICntrl=     500 IOpCl=  0 I1Cent=   200000004 NGrid=           0
         NMat0=    1 NMatS0=      1 NMatT0=    0 NMatD0=    1 NMtDS0=    0 NMtDT0=    0
 Symmetry not used in FoFCou.
 Harris En= -54.3601634107614    
 JPrj=0 DoOrth=F DoCkMO=F.
 Initial guess <Sx>= 0.0000 <Sy>= 0.0000 <Sz>= 0.5000 <S**2>= 0.7500 S= 0.5000
 Leave Link  401 at Sun Sep 15 21:18:57 2024, MaxMem=   268435456 cpu:         1.2
 (Enter /g100_work/pMI24_ChiCa/g09d1/g09d01/d01/build-node-6-2-59348/src/main/l502.exe)
 UHF open shell SCF:
 Using DIIS extrapolation, IDIIS=  1040.
 Two-electron integral symmetry not used.
 Keep R1 and R2 ints in memory in canonical form, NReq=1678651.
 IVT=       23285 IEndB=       23285 NGot=   268435456 MDV=   267617112
 LenX=   267617112 LenY=   267615446
 Requested convergence on RMS density matrix=1.00D-08 within 128 cycles.
 Requested convergence on MAX density matrix=1.00D-06.
 Requested convergence on             energy=1.00D-06.
 No special actions if energy rises.
 FoFCou: FMM=F IPFlag=           0 FMFlag=           0 FMFlg1=           0
         NFxFlg=           0 DoJE=F BraDBF=F KetDBF=F FulRan=T
         wScrn=  0.000000 ICntrl=     600 IOpCl=  0 I1Cent=           0 NGrid=           0
         NMat0=    1 NMatS0=    630 NMatT0=    0 NMatD0=    1 NMtDS0=    0 NMtDT0=    0
 Symmetry not used in FoFCou.
 Integral accuracy reduced to 1.0D-05 until final iterations.

 Cycle   1  Pass 0  IDiag  1:
 E= -57.0183358732914    
 DIIS: error= 5.86D-02 at cycle   1 NSaved=   1.
 NSaved= 1 IEnMin= 1 EnMin= -57.0183358732914     IErMin= 1 ErrMin= 5.86D-02
 ErrMax= 5.86D-02  0.00D+00 EMaxC= 1.00D-01 BMatC= 1.61D-01 BMatP= 1.61D-01
 IDIUse=3 WtCom= 4.14D-01 WtEn= 5.86D-01
 Coeff-Com:  0.100D+01
 Coeff-En:   0.100D+01
 Coeff:      0.100D+01
 Gap=     0.600 Goal=   None    Shift=    0.000
 Gap=     0.399 Goal=   None    Shift=    0.000
 GapD=    0.399 DampG=1.000 DampE=0.500 DampFc=0.5000 IDamp=-1.
 Damping current iteration by 5.00D-01
 RMSDP=4.89D-03 MaxDP=7.72D-02              OVMax= 8.96D-02

 Cycle   2  Pass 0  IDiag  1:
 E= -57.0276537033002     Delta-E=       -0.009317830009 Rises=F Damp=T
 DIIS: error= 3.11D-02 at cycle   2 NSaved=   2.
 NSaved= 2 IEnMin= 2 EnMin= -57.0276537033002     IErMin= 2 ErrMin= 3.11D-02
 ErrMax= 3.11D-02  0.00D+00 EMaxC= 1.00D-01 BMatC= 4.08D-02 BMatP= 1.61D-01
 IDIUse=3 WtCom= 6.89D-01 WtEn= 3.11D-01
 Coeff-Com: -0.727D+00 0.173D+01
 Coeff-En:   0.000D+00 0.100D+01
 Coeff:     -0.501D+00 0.150D+01
 Gap=     0.514 Goal=   None    Shift=    0.000
 Gap=     0.422 Goal=   None    Shift=    0.000
 RMSDP=2.99D-03 MaxDP=5.07D-02 DE=-9.32D-03 OVMax= 2.58D-02

 Cycle   3  Pass 0  IDiag  1:
 E= -57.0375460376695     Delta-E=       -0.009892334369 Rises=F Damp=F
 DIIS: error= 4.15D-03 at cycle   3 NSaved=   3.
 NSaved= 3 IEnMin= 3 EnMin= -57.0375460376695     IErMin= 3 ErrMin= 4.15D-03
 ErrMax= 4.15D-03  0.00D+00 EMaxC= 1.00D-01 BMatC= 3.79D-03 BMatP= 4.08D-02
 IDIUse=3 WtCom= 9.59D-01 WtEn= 4.15D-02
 Coeff-Com: -0.308D+00 0.606D+00 0.702D+00
 Coeff-En:   0.000D+00 0.000D+00 0.100D+01
 Coeff:     -0.295D+00 0.581D+00 0.714D+00
 Gap=     0.506 Goal=   None    Shift=    0.000
 Gap=     0.437 Goal=   None    Shift=    0.000
 RMSDP=7.17D-04 MaxDP=9.17D-03 DE=-9.89D-03 OVMax= 8.99D-03

 Cycle   4  Pass 0  IDiag  1:
 E= -57.0383979789851     Delta-E=       -0.000851941316 Rises=F Damp=F
 DIIS: error= 1.00D-03 at cycle   4 NSaved=   4.
 NSaved= 4 IEnMin= 4 EnMin= -57.0383979789851     IErMin= 4 ErrMin= 1.00D-03
 ErrMax= 1.00D-03  0.00D+00 EMaxC= 1.00D-01 BMatC= 6.09D-05 BMatP= 3.79D-03
 IDIUse=3 WtCom= 9.90D-01 WtEn= 1.00D-02
 Coeff-Com:  0.556D-01-0.116D+00-0.536D-01 0.111D+01
 Coeff-En:   0.000D+00 0.000D+00 0.000D+00 0.100D+01
 Coeff:      0.550D-01-0.115D+00-0.531D-01 0.111D+01
 Gap=     0.506 Goal=   None    Shift=    0.000
 Gap=     0.489 Goal=   None    Shift=    0.000
 RMSDP=2.76D-04 MaxDP=4.61D-03 DE=-8.52D-04 OVMax= 6.06D-03

 Cycle   5  Pass 0  IDiag  1:
 E= -57.0384539636929     Delta-E=       -0.000055984708 Rises=F Damp=F
 DIIS: error= 6.96D-04 at cycle   5 NSaved=   5.
 NSaved= 5 IEnMin= 5 EnMin= -57.0384539636929     IErMin= 5 ErrMin= 6.96D-04
 ErrMax= 6.96D-04  0.00D+00 EMaxC= 1.00D-01 BMatC= 1.34D-05 BMatP= 6.09D-05
 IDIUse=3 WtCom= 9.93D-01 WtEn= 6.96D-03
 Coeff-Com:  0.132D-01-0.252D-01-0.428D-01-0.119D+00 0.117D+01
 Coeff-En:   0.000D+00 0.000D+00 0.000D+00 0.000D+00 0.100D+01
 Coeff:      0.131D-01-0.251D-01-0.425D-01-0.118D+00 0.117D+01
 Gap=     0.506 Goal=   None    Shift=    0.000
 Gap=     0.513 Goal=   None    Shift=    0.000
 RMSDP=1.11D-04 MaxDP=1.75D-03 DE=-5.60D-05 OVMax= 3.55D-03

 Cycle   6  Pass 0  IDiag  1:
 E= -57.0384686861083     Delta-E=       -0.000014722415 Rises=F Damp=F
 DIIS: error= 3.56D-04 at cycle   6 NSaved=   6.
 NSaved= 6 IEnMin= 6 EnMin= -57.0384686861083     IErMin= 6 ErrMin= 3.56D-04
 ErrMax= 3.56D-04  0.00D+00 EMaxC= 1.00D-01 BMatC= 2.73D-06 BMatP= 1.34D-05
 IDIUse=3 WtCom= 9.96D-01 WtEn= 3.56D-03
 Coeff-Com: -0.231D-02 0.409D-02 0.101D-01 0.879D-02-0.494D+00 0.147D+01
 Coeff-En:   0.000D+00 0.000D+00 0.000D+00 0.000D+00 0.000D+00 0.100D+01
 Coeff:     -0.230D-02 0.407D-02 0.100D-01 0.876D-02-0.492D+00 0.147D+01
 Gap=     0.506 Goal=   None    Shift=    0.000
 Gap=     0.500 Goal=   None    Shift=    0.000
 RMSDP=4.66D-05 MaxDP=8.10D-04 DE=-1.47D-05 OVMax= 1.85D-03

 Cycle   7  Pass 0  IDiag  1:
 E= -57.0384718153199     Delta-E=       -0.000003129212 Rises=F Damp=F
 DIIS: error= 1.51D-04 at cycle   7 NSaved=   7.
 NSaved= 7 IEnMin= 7 EnMin= -57.0384718153199     IErMin= 7 ErrMin= 1.51D-04
 ErrMax= 1.51D-04  0.00D+00 EMaxC= 1.00D-01 BMatC= 4.92D-07 BMatP= 2.73D-06
 IDIUse=3 WtCom= 9.98D-01 WtEn= 1.51D-03
 Coeff-Com:  0.104D-01-0.209D-01-0.205D-01 0.705D-01 0.229D+00-0.756D+00
 Coeff-Com:  0.149D+01
 Coeff-En:   0.000D+00 0.000D+00 0.000D+00 0.000D+00 0.000D+00 0.000D+00
 Coeff-En:   0.100D+01
 Coeff:      0.104D-01-0.208D-01-0.204D-01 0.704D-01 0.228D+00-0.755D+00
 Coeff:      0.149D+01
 Gap=     0.506 Goal=   None    Shift=    0.000
 Gap=     0.498 Goal=   None    Shift=    0.000
 RMSDP=1.38D-05 MaxDP=2.07D-04 DE=-3.13D-06 OVMax= 3.94D-04

 Cycle   8  Pass 0  IDiag  1:
 E= -57.0384721467251     Delta-E=       -0.000000331405 Rises=F Damp=F
 DIIS: error= 6.94D-05 at cycle   8 NSaved=   8.
 NSaved= 8 IEnMin= 8 EnMin= -57.0384721467251     IErMin= 8 ErrMin= 6.94D-05
 ErrMax= 6.94D-05  0.00D+00 EMaxC= 1.00D-01 BMatC= 7.89D-08 BMatP= 4.92D-07
 IDIUse=1 WtCom= 1.00D+00 WtEn= 0.00D+00
 Coeff-Com: -0.370D-03 0.760D-03 0.446D-04-0.445D-02 0.269D-01-0.210D+00
 Coeff-Com: -0.217D+00 0.140D+01
 Coeff:     -0.370D-03 0.760D-03 0.446D-04-0.445D-02 0.269D-01-0.210D+00
 Coeff:     -0.217D+00 0.140D+01
 Gap=     0.506 Goal=   None    Shift=    0.000
 Gap=     0.499 Goal=   None    Shift=    0.000
 RMSDP=1.01D-05 MaxDP=1.25D-04 DE=-3.31D-07 OVMax= 3.46D-04

 Cycle   9  Pass 0  IDiag  1:
 E= -57.0384722313586     Delta-E=       -0.000000084634 Rises=F Damp=F
 DIIS: error= 4.21D-06 at cycle   9 NSaved=   9.
 NSaved= 9 IEnMin= 9 EnMin= -57.0384722313586     IErMin= 9 ErrMin= 4.21D-06
 ErrMax= 4.21D-06  0.00D+00 EMaxC= 1.00D-01 BMatC= 5.65D-10 BMatP= 7.89D-08
 IDIUse=1 WtCom= 1.00D+00 WtEn= 0.00D+00
 Coeff-Com:  0.119D-03-0.244D-03-0.180D-03 0.172D-02 0.413D-02-0.215D-01
 Coeff-Com:  0.271D-02 0.108D+00 0.905D+00
 Coeff:      0.119D-03-0.244D-03-0.180D-03 0.172D-02 0.413D-02-0.215D-01
 Coeff:      0.271D-02 0.108D+00 0.905D+00
 Gap=     0.506 Goal=   None    Shift=    0.000
 Gap=     0.499 Goal=   None    Shift=    0.000
 RMSDP=7.06D-07 MaxDP=1.07D-05 DE=-8.46D-08 OVMax= 2.70D-05

 Initial convergence to 1.0D-05 achieved.  Increase integral accuracy.
 Cycle  10  Pass 1  IDiag  1:
 E= -57.0384181618331     Delta-E=        0.000054069526 Rises=F Damp=F
 DIIS: error= 1.04D-04 at cycle   1 NSaved=   1.
 NSaved= 1 IEnMin= 1 EnMin= -57.0384181618331     IErMin= 1 ErrMin= 1.04D-04
 ErrMax= 1.04D-04  0.00D+00 EMaxC= 1.00D-01 BMatC= 1.57D-06 BMatP= 1.57D-06
 IDIUse=3 WtCom= 9.99D-01 WtEn= 1.04D-03
 Coeff-Com:  0.100D+01
 Coeff-En:   0.100D+01
 Coeff:      0.100D+01
 Gap=     0.506 Goal=   None    Shift=    0.000
 Gap=     0.499 Goal=   None    Shift=    0.000
 RMSDP=7.06D-07 MaxDP=1.07D-05 DE= 5.41D-05 OVMax= 1.86D-04

 Cycle  11  Pass 1  IDiag  1:
 E= -57.0384184581276     Delta-E=       -0.000000296294 Rises=F Damp=F
 DIIS: error= 1.37D-05 at cycle   2 NSaved=   2.
 NSaved= 2 IEnMin= 2 EnMin= -57.0384184581276     IErMin= 2 ErrMin= 1.37D-05
 ErrMax= 1.37D-05  0.00D+00 EMaxC= 1.00D-01 BMatC= 3.91D-08 BMatP= 1.57D-06
 IDIUse=1 WtCom= 1.00D+00 WtEn= 0.00D+00
 Coeff-Com: -0.295D-01 0.103D+01
 Coeff:     -0.295D-01 0.103D+01
 Gap=     0.506 Goal=   None    Shift=    0.000
 Gap=     0.499 Goal=   None    Shift=    0.000
 RMSDP=3.15D-06 MaxDP=3.51D-05 DE=-2.96D-07 OVMax= 4.19D-05

 Cycle  12  Pass 1  IDiag  1:
 E= -57.0384184631746     Delta-E=       -0.000000005047 Rises=F Damp=F
 DIIS: error= 1.01D-05 at cycle   3 NSaved=   3.
 NSaved= 3 IEnMin= 3 EnMin= -57.0384184631746     IErMin= 3 ErrMin= 1.01D-05
 ErrMax= 1.01D-05  0.00D+00 EMaxC= 1.00D-01 BMatC= 2.08D-08 BMatP= 3.91D-08
 IDIUse=1 WtCom= 1.00D+00 WtEn= 0.00D+00
 Coeff-Com: -0.339D-01 0.440D+00 0.594D+00
 Coeff:     -0.339D-01 0.440D+00 0.594D+00
 Gap=     0.506 Goal=   None    Shift=    0.000
 Gap=     0.499 Goal=   None    Shift=    0.000
 RMSDP=1.44D-06 MaxDP=1.90D-05 DE=-5.05D-09 OVMax= 2.10D-05

 Cycle  13  Pass 1  IDiag  1:
 E= -57.0384184673442     Delta-E=       -0.000000004170 Rises=F Damp=F
 DIIS: error= 1.80D-06 at cycle   4 NSaved=   4.
 NSaved= 4 IEnMin= 4 EnMin= -57.0384184673442     IErMin= 4 ErrMin= 1.80D-06
 ErrMax= 1.80D-06  0.00D+00 EMaxC= 1.00D-01 BMatC= 4.00D-10 BMatP= 2.08D-08
 IDIUse=1 WtCom= 1.00D+00 WtEn= 0.00D+00
 Coeff-Com: -0.543D-02 0.319D-01 0.127D+00 0.847D+00
 Coeff:     -0.543D-02 0.319D-01 0.127D+00 0.847D+00
 Gap=     0.506 Goal=   None    Shift=    0.000
 Gap=     0.499 Goal=   None    Shift=    0.000
 RMSDP=2.98D-07 MaxDP=3.18D-06 DE=-4.17D-09 OVMax= 4.07D-06

 Cycle  14  Pass 1  IDiag  1:
 E= -57.0384184674524     Delta-E=       -0.000000000108 Rises=F Damp=F
 DIIS: error= 3.66D-07 at cycle   5 NSaved=   5.
 NSaved= 5 IEnMin= 5 EnMin= -57.0384184674524     IErMin= 5 ErrMin= 3.66D-07
 ErrMax= 3.66D-07  0.00D+00 EMaxC= 1.00D-01 BMatC= 1.49D-11 BMatP= 4.00D-10
 IDIUse=1 WtCom= 1.00D+00 WtEn= 0.00D+00
 Coeff-Com:  0.212D-02-0.267D-01-0.355D-01-0.359D-01 0.110D+01
 Coeff:      0.212D-02-0.267D-01-0.355D-01-0.359D-01 0.110D+01
 Gap=     0.506 Goal=   None    Shift=    0.000
 Gap=     0.499 Goal=   None    Shift=    0.000
 RMSDP=1.75D-07 MaxDP=1.75D-06 DE=-1.08D-10 OVMax= 2.61D-06

 Cycle  15  Pass 1  IDiag  1:
 E= -57.0384184674648     Delta-E=       -0.000000000012 Rises=F Damp=F
 DIIS: error= 1.04D-07 at cycle   6 NSaved=   6.
 NSaved= 6 IEnMin= 6 EnMin= -57.0384184674648     IErMin= 6 ErrMin= 1.04D-07
 ErrMax= 1.04D-07  0.00D+00 EMaxC= 1.00D-01 BMatC= 1.55D-12 BMatP= 1.49D-11
 IDIUse=1 WtCom= 1.00D+00 WtEn= 0.00D+00
 Coeff-Com: -0.434D-03 0.787D-02 0.544D-02-0.446D-01-0.396D+00 0.143D+01
 Coeff:     -0.434D-03 0.787D-02 0.544D-02-0.446D-01-0.396D+00 0.143D+01
 Gap=     0.506 Goal=   None    Shift=    0.000
 Gap=     0.499 Goal=   None    Shift=    0.000
 RMSDP=7.03D-08 MaxDP=7.18D-07 DE=-1.24D-11 OVMax= 1.13D-06

 Cycle  16  Pass 1  IDiag  1:
 E= -57.0384184674663     Delta-E=       -0.000000000002 Rises=F Damp=F
 DIIS: error= 3.03D-08 at cycle   7 NSaved=   7.
 NSaved= 7 IEnMin= 7 EnMin= -57.0384184674663     IErMin= 7 ErrMin= 3.03D-08
 ErrMax= 3.03D-08  0.00D+00 EMaxC= 1.00D-01 BMatC= 6.90D-14 BMatP= 1.55D-12
 IDIUse=1 WtCom= 1.00D+00 WtEn= 0.00D+00
 Coeff-Com: -0.102D-04-0.341D-03 0.257D-03 0.132D-01 0.328D-01-0.320D+00
 Coeff-Com:  0.127D+01
 Coeff:     -0.102D-04-0.341D-03 0.257D-03 0.132D-01 0.328D-01-0.320D+00
 Coeff:      0.127D+01
 Gap=     0.506 Goal=   None    Shift=    0.000
 Gap=     0.499 Goal=   None    Shift=    0.000
 RMSDP=1.25D-08 MaxDP=1.18D-07 DE=-1.52D-12 OVMax= 1.91D-07

 Cycle  17  Pass 1  IDiag  1:
 E= -57.0384184674662     Delta-E=        0.000000000000 Rises=F Damp=F
 DIIS: error= 1.02D-08 at cycle   8 NSaved=   8.
 NSaved= 8 IEnMin= 7 EnMin= -57.0384184674663     IErMin= 8 ErrMin= 1.02D-08
 ErrMax= 1.02D-08  0.00D+00 EMaxC= 1.00D-01 BMatC= 5.33D-15 BMatP= 6.90D-14
 IDIUse=1 WtCom= 1.00D+00 WtEn= 0.00D+00
 Coeff-Com:  0.289D-04-0.527D-03-0.360D-03 0.293D-02 0.236D-01-0.776D-01
 Coeff-Com: -0.661D-01 0.112D+01
 Coeff:      0.289D-04-0.527D-03-0.360D-03 0.293D-02 0.236D-01-0.776D-01
 Coeff:     -0.661D-01 0.112D+01
 Gap=     0.506 Goal=   None    Shift=    0.000
 Gap=     0.499 Goal=   None    Shift=    0.000
 RMSDP=3.51D-09 MaxDP=4.25D-08 DE= 9.95D-14 OVMax= 6.61D-08

 SCF Done:  E(UwB97XD) =  -57.0384184675     A.U. after   17 cycles
            NFock= 17  Conv=0.35D-08     -V/T= 2.0090
 <Sx>= 0.0000 <Sy>= 0.0000 <Sz>= 0.5000 <S**2>= 0.7500 S= 0.5000
 <L.S>=  0.00000000000    
 KE= 5.653150948834D+01 PE=-1.598472166402D+02 EE= 3.279653027493D+01
 Annihilation of the first spin contaminant:
 S**2 before annihilation     0.7500,   after     0.7500
 Leave Link  502 at Sun Sep 15 21:18:57 2024, MaxMem=   268435456 cpu:         8.0
 (Enter /g100_work/pMI24_ChiCa/g09d1/g09d01/d01/build-node-6-2-59348/src/main/l601.exe)
 Copying SCF densities to generalized density rwf, IOpCl= 1 IROHF=0.

 **********************************************************************

            Population analysis using the SCF density.

 **********************************************************************

 Alpha  occ. eigenvalues --  -14.41751  -0.93712  -0.53793  -0.53694  -0.41189
 Alpha  occ. eigenvalues --   -0.33102
 Alpha virt. eigenvalues --    0.17536   0.26140   0.27043   0.76846   0.77402
 Alpha virt. eigenvalues --    0.80699   0.82621   0.96903   0.97688   1.01612
 Alpha virt. eigenvalues --    1.22111   1.51178   1.51196   1.95365   2.02836
 Alpha virt. eigenvalues --    2.02843   2.07250   2.17159   2.30992   2.31001
 Alpha virt. eigenvalues --    2.47655   2.47926   2.83405   3.06243   3.06432
 Alpha virt. eigenvalues --    3.32346   3.51788   3.53568   4.03252
  Beta  occ. eigenvalues --  -14.41739  -0.93677  -0.53684  -0.53663  -0.33116
  Beta virt. eigenvalues --    0.16761   0.24646   0.26146   0.47442   0.77394
  Beta virt. eigenvalues --    0.77571   0.80884   0.96878   0.97698   1.01516
  Beta virt. eigenvalues --    1.21859   1.51168   1.51194   1.55715   1.95881
  Beta virt. eigenvalues --    2.17136   2.30969   2.30991   2.47613   2.47651
  Beta virt. eigenvalues --    2.83268   2.84005   2.84014   2.92468   3.06220
  Beta virt. eigenvalues --    3.06649   3.32739   3.51795   3.54121   4.03446
     Alpha Molecular Orbital Coefficients:
                           1         2         3         4         5
                           O         O         O         O         O
     Eigenvalues --   -14.41751  -0.93712  -0.53793  -0.53694  -0.41189
   1 1   N  1S          0.99297  -0.20071   0.00056  -0.00000   0.01044
   2        2S          0.03374   0.41200  -0.00085   0.00000  -0.02025
   3        2PX         0.00071   0.04772   0.39473   0.12459  -0.04502
   4        2PY         0.00116   0.07729  -0.14390  -0.25026   0.03902
   5        2PZ         0.00052   0.03462  -0.22002   0.38717   0.03997
   6        3S          0.00305   0.41982  -0.00333   0.00001  -0.06281
   7        3PX        -0.00017   0.02278   0.19827   0.06290  -0.03079
   8        3PY        -0.00030   0.03591  -0.07239  -0.12635   0.02733
   9        3PZ        -0.00014   0.01588  -0.11059   0.19548   0.02776
  10        4XX        -0.00744  -0.00659   0.02710   0.00097  -0.00196
  11        4YY        -0.00753  -0.00877  -0.01377  -0.02417   0.00353
  12        4ZZ        -0.00742  -0.00608  -0.01309   0.02321   0.00237
  13        4XY        -0.00009  -0.00237   0.01282   0.00577  -0.00070
  14        4XZ        -0.00004  -0.00109  -0.00629   0.00624   0.00094
  15        4YZ        -0.00007  -0.00174  -0.00555   0.01289   0.00155
  16 2   H  1S          0.00009   0.14485  -0.13989   0.24557   0.01831
  17        2S         -0.00026   0.02062  -0.09465   0.16630   0.01891
  18        3PX        -0.00001   0.00103   0.01017   0.00380  -0.00109
  19        3PY        -0.00002   0.00169  -0.00427  -0.00579   0.00119
  20        3PZ         0.00027  -0.01798   0.00464  -0.00806  -0.00008
  21 3   H  1S          0.00009   0.14466   0.28121  -0.00087  -0.02516
  22        2S         -0.00029   0.01906   0.19337  -0.00060   0.02540
  23        3PX         0.00025  -0.01681  -0.00957   0.00335   0.00422
  24        3PY        -0.00002   0.00167  -0.00286  -0.00661   0.00143
  25        3PZ        -0.00009   0.00657   0.00133   0.01020  -0.00045
  26 4   H  1S          0.00009   0.14485  -0.14143  -0.24472   0.01830
  27        2S         -0.00026   0.02062  -0.09568  -0.16571   0.01890
  28        3PX        -0.00013   0.00902   0.00556  -0.00514  -0.00057
  29        3PY         0.00021  -0.01424   0.00489   0.00837   0.00017
  30        3PZ        -0.00009   0.00658  -0.00938   0.00410   0.00150
  31 5   H  1S         -0.00001   0.00070   0.03456  -0.00011   0.42779
  32        2S          0.00002   0.00441   0.05135  -0.00016   0.65403
  33        3PX        -0.00001  -0.00032  -0.00133   0.00003  -0.00107
  34        3PY        -0.00000  -0.00002  -0.00014  -0.00004   0.00011
  35        3PZ         0.00000   0.00009   0.00034   0.00007   0.00042
                           6         7         8         9        10
                           O         V         V         V         V
     Eigenvalues --    -0.33102   0.17536   0.26140   0.27043   0.76846
   1 1   N  1S          0.06768  -0.13021  -0.00001   0.00813  -0.00492
   2        2S         -0.14818   0.18330   0.00001  -0.01747   0.04807
   3        2PX         0.27702   0.06712  -0.10688  -0.34563  -0.26336
   4        2PY         0.44278   0.14632   0.21312   0.11645   0.05536
   5        2PZ         0.19705   0.07309  -0.32860   0.18795   0.12176
   6        3S         -0.29407   1.80081   0.00011  -0.10361  -0.00358
   7        3PX         0.23626   0.16106  -0.26966  -0.86147   0.91016
   8        3PY         0.37516   0.35993   0.53770   0.29081  -0.27334
   9        3PZ         0.16646   0.18110  -0.82904   0.46883  -0.47388
  10        4XX         0.00419  -0.03606  -0.00669  -0.00002  -0.12239
  11        4YY         0.01915  -0.03117   0.00562   0.00290   0.06337
  12        4ZZ        -0.00048  -0.03583   0.00107  -0.00073   0.08249
  13        4XY         0.01759   0.00344   0.00607  -0.00727  -0.02242
  14        4XZ         0.00782   0.00178  -0.01166  -0.00837   0.07952
  15        4YZ         0.01265   0.00345  -0.00540   0.01183  -0.04105
  16 2   H  1S          0.06011  -0.06030   0.09359  -0.05251   0.35705
  17        2S          0.05508  -0.96024   1.41894  -0.76407  -0.04918
  18        3PX         0.00871   0.00039  -0.00166  -0.00864   0.04684
  19        3PY         0.01401   0.00113   0.00608   0.00219  -0.01909
  20        3PZ         0.00142  -0.01023   0.00441  -0.00231   0.00061
  21 3   H  1S          0.06161  -0.05583  -0.00004   0.11985  -0.75417
  22        2S          0.04833  -0.82270  -0.00040   1.70080   0.02885
  23        3PX         0.00379  -0.00934  -0.00242   0.00707  -0.00221
  24        3PY         0.01394   0.00137   0.00482   0.00410  -0.01416
  25        3PZ         0.00781   0.00393  -0.00743   0.00035  -0.00852
  26 4   H  1S          0.06012  -0.06028  -0.09357  -0.05255   0.35679
  27        2S          0.05509  -0.96013  -1.41869  -0.76469  -0.04913
  28        3PX         0.01077   0.00501   0.00163  -0.00585   0.03480
  29        3PY         0.00990  -0.00808  -0.00602  -0.00338   0.00490
  30        3PZ         0.00775   0.00397  -0.00451   0.00626  -0.03639
  31 5   H  1S         -0.03231   0.07113   0.00003  -0.12699  -0.40287
  32        2S         -0.04252   0.07011   0.00003  -0.11002   0.35271
  33        3PX        -0.00069   0.01065   0.00004  -0.02318  -0.00589
  34        3PY         0.00002   0.00112  -0.00006  -0.00264  -0.00068
  35        3PZ         0.00024  -0.00274   0.00009   0.00583   0.00148
                          11        12        13        14        15
                           V         V         V         V         V
     Eigenvalues --     0.77402   0.80699   0.82621   0.96903   0.97688
   1 1   N  1S          0.00001  -0.01442   0.01109  -0.06924  -0.00004
   2        2S         -0.00002   0.17577  -0.13485   0.48172   0.00037
   3        2PX        -0.09779  -0.34562  -0.46352  -0.21275   0.23106
   4        2PY         0.19479  -0.76622  -0.14506   0.14469  -0.46080
   5        2PZ        -0.30014  -0.38459   0.05684   0.16233   0.71068
   6        3S         -0.00004   0.07755   0.18245  -0.65409  -0.00058
   7        3PX         0.30019   0.34851   0.61156   0.46598  -0.40486
   8        3PY        -0.59796   0.91056   0.10602  -0.08700   0.80758
   9        3PZ         0.92141   0.47738  -0.13046  -0.20671  -1.24536
  10        4XX         0.03544   0.07983   0.00995   0.03591   0.04215
  11        4YY         0.09405   0.05868  -0.01317   0.06231   0.14139
  12        4ZZ        -0.12950   0.07184   0.00562  -0.09450  -0.18351
  13        4XY        -0.06807  -0.01182  -0.01483   0.14693  -0.08928
  14        4XZ         0.03858  -0.01036  -0.00968   0.02538   0.04016
  15        4YZ        -0.03521  -0.00664  -0.01239   0.11129  -0.05703
  16 2   H  1S         -0.65715  -0.07174   0.11155  -0.70705  -0.40978
  17        2S          0.08476  -0.15986  -0.04466   0.75595   1.37996
  18        3PX         0.01699  -0.01060   0.00190   0.01612   0.01071
  19        3PY        -0.02857  -0.00796  -0.00774   0.04699  -0.01900
  20        3PZ         0.00585   0.04766   0.00521  -0.12120  -0.14807
  21 3   H  1S         -0.00012   0.04451  -0.04403  -0.47607  -0.00022
  22        2S          0.00004  -0.18638  -0.07529  -0.01496  -0.00024
  23        3PX         0.01549   0.02809   0.06041  -0.02498   0.01007
  24        3PY        -0.03088  -0.00753  -0.00998   0.04618  -0.02003
  25        3PZ         0.04759  -0.01403  -0.02615   0.03805   0.03094
  26 4   H  1S          0.65748  -0.07164   0.11142  -0.70750   0.40882
  27        2S         -0.08485  -0.15983  -0.04462   0.75784  -1.37868
  28        3PX        -0.00422  -0.03165  -0.00272   0.07865  -0.06701
  29        3PY         0.00314   0.03399   0.00148  -0.07762   0.13126
  30        3PZ         0.03332  -0.01701  -0.00900   0.07065  -0.02507
  31 5   H  1S          0.00005  -0.32432   1.06919   0.04357  -0.00003
  32        2S         -0.00005   0.31371  -0.99805  -0.04694   0.00004
  33        3PX         0.00022   0.00542  -0.00280  -0.00323  -0.00005
  34        3PY        -0.00043   0.00116  -0.00001   0.00007   0.00011
  35        3PZ         0.00067  -0.00101   0.00091   0.00110  -0.00016
                          16        17        18        19        20
                           V         V         V         V         V
     Eigenvalues --     1.01612   1.22111   1.51178   1.51196   1.95365
   1 1   N  1S         -0.02712  -0.07171   0.00000  -0.00014  -0.06206
   2        2S         -0.03292  -1.56719  -0.00005  -0.00453  -0.57994
   3        2PX         0.62606  -0.13648  -0.00443   0.01286   0.00698
   4        2PY        -0.23902  -0.10234   0.00901  -0.00521  -0.01004
   5        2PZ        -0.35871  -0.02195  -0.01410  -0.00728  -0.00878
   6        3S          0.17243   4.09506   0.00009   0.01276   1.74140
   7        3PX        -1.15550   0.48749  -0.03973   0.13677   0.27430
   8        3PY         0.52328   0.47931   0.08199  -0.04915   0.47881
   9        3PZ         0.71537   0.15222  -0.12834  -0.07390   0.22128
  10        4XX        -0.22276  -0.27576   0.26723  -0.17538  -0.01553
  11        4YY         0.07697  -0.19605  -0.28128   0.16708  -0.45657
  12        4ZZ         0.03779  -0.33757   0.01403   0.00694   0.11856
  13        4XY         0.01431   0.12914  -0.23199  -0.31803  -0.51298
  14        4XZ         0.12026   0.04558   0.47702  -0.27753  -0.22783
  15        4YZ        -0.00129   0.09379   0.25319   0.47837  -0.37242
  16 2   H  1S         -0.00805  -0.22916   0.06939   0.03844  -0.44673
  17        2S         -0.69840  -0.75186   0.02439   0.01379  -0.25001
  18        3PX         0.04069   0.03423   0.24410  -0.11349  -0.11515
  19        3PY         0.00891   0.05896   0.15659   0.24245  -0.18396
  20        3PZ         0.04875   0.02113   0.01106   0.00630  -0.08998
  21 3   H  1S         -0.69875  -0.14303  -0.00099  -0.07757  -0.45739
  22        2S          1.77368  -1.14038  -0.00047  -0.04029  -0.21365
  23        3PX        -0.17171   0.05383   0.06677  -0.06102  -0.11346
  24        3PY         0.00818   0.06088  -0.13790  -0.25290  -0.18260
  25        3PZ         0.06120   0.02196   0.20569  -0.14828  -0.08149
  26 4   H  1S         -0.00792  -0.22912  -0.06833   0.04021  -0.44674
  27        2S         -0.69878  -0.75192  -0.02403   0.01442  -0.25003
  28        3PX         0.01669   0.03677  -0.24955  -0.02697  -0.11169
  29        3PY         0.05672   0.05389  -0.14500   0.08650  -0.19087
  30        3PZ        -0.02490   0.02895  -0.01905   0.25303  -0.07931
  31 5   H  1S          0.40970  -0.18902  -0.00011  -0.00862  -0.02479
  32        2S         -0.55154   0.28924   0.00015   0.01198   0.04399
  33        3PX        -0.07831   0.07189  -0.00003   0.00286   0.17972
  34        3PY        -0.00843   0.00811   0.00012   0.00025   0.02673
  35        3PZ         0.02004  -0.01816  -0.00019  -0.00077  -0.04120
                          21        22        23        24        25
                           V         V         V         V         V
     Eigenvalues --     2.02836   2.02843   2.07250   2.17159   2.30992
   1 1   N  1S         -0.00000   0.00053   0.00833  -0.00000   0.00000
   2        2S         -0.00003   0.00391   0.32107   0.00000  -0.00039
   3        2PX         0.00010   0.00000   0.11717   0.00008  -0.01280
   4        2PY        -0.00020   0.00089  -0.01426  -0.00007   0.07026
   5        2PZ         0.00030   0.00058  -0.04739   0.00007  -0.13951
   6        3S          0.00010  -0.01222  -0.76378   0.00003   0.00063
   7        3PX         0.00026  -0.00171  -0.30017  -0.00041   0.05930
   8        3PY        -0.00044  -0.00487  -0.07492   0.00073  -0.33142
   9        3PZ         0.00076  -0.00260   0.04914  -0.00102   0.65870
  10        4XX        -0.00034   0.00017  -0.03617  -0.00003  -0.20862
  11        4YY        -0.00161   0.00369   0.08801   0.00058  -0.24710
  12        4ZZ         0.00192  -0.00099  -0.01404  -0.00054   0.45579
  13        4XY         0.00081   0.00406   0.09050  -0.00022   0.20855
  14        4XZ        -0.00025   0.00169   0.06106  -0.00003  -0.08385
  15        4YZ         0.00066   0.00320   0.05888  -0.00030   0.06727
  16 2   H  1S         -0.00120   0.00398   0.11190   0.00076  -0.52487
  17        2S         -0.00036   0.00179   0.01628   0.00012  -0.03045
  18        3PX        -0.00031   0.00062  -0.00436   0.49916   0.14541
  19        3PY         0.00126   0.00114   0.02838  -0.30870   0.44533
  20        3PZ        -0.00052   0.00087   0.00510   0.00036  -0.27379
  21 3   H  1S         -0.00003   0.00434  -0.00591   0.00010   0.11799
  22        2S          0.00000  -0.00043   0.53590  -0.00006   0.00626
  23        3PX        -0.00014   0.00077   0.07253  -0.15429  -0.05301
  24        3PY         0.00025   0.00139   0.04191   0.30757   0.10139
  25        3PZ        -0.00041   0.00065   0.00354  -0.47425  -0.36050
  26 4   H  1S          0.00114   0.00400   0.11191  -0.00087   0.40688
  27        2S          0.00034   0.00180   0.01628  -0.00010   0.02369
  28        3PX        -0.00031   0.00047   0.00189  -0.34423  -0.18872
  29        3PY        -0.00007   0.00142   0.01586   0.00011  -0.00570
  30        3PZ        -0.00137   0.00041   0.02440   0.47527  -0.44120
  31 5   H  1S          0.00000  -0.00044   0.07323   0.00000   0.00080
  32        2S         -0.00000   0.00021  -0.12647   0.00000  -0.00071
  33        3PX         0.26327   0.04093   0.93946   0.00017  -0.00382
  34        3PY        -0.53137   0.84001   0.10552  -0.00041   0.00126
  35        3PZ         0.80518   0.54097  -0.23753   0.00064  -0.00153
                          26        27        28        29        30
                           V         V         V         V         V
     Eigenvalues --     2.31001   2.47655   2.47926   2.83405   3.06243
   1 1   N  1S         -0.00004  -0.00000  -0.00103  -0.00500  -0.00000
   2        2S          0.00178   0.00010   0.02697   0.11723   0.00001
   3        2PX        -0.13455  -0.04695  -0.13310  -0.04996   0.00134
   4        2PY         0.06399   0.09270   0.05158  -0.08969  -0.00263
   5        2PZ         0.04384  -0.14228   0.07764  -0.04191   0.00408
   6        3S         -0.00257  -0.00017  -0.04421  -0.33234   0.00010
   7        3PX         0.64039  -0.01948  -0.08291  -0.23668   0.11056
   8        3PY        -0.30221   0.03818   0.02134  -0.37478  -0.21936
   9        3PZ        -0.20896  -0.05849   0.04119  -0.16608   0.33753
  10        4XX         0.36998  -0.01184   0.63715   0.03423   0.40744
  11        4YY        -0.22511  -0.54569  -0.31576  -0.36769  -0.22694
  12        4ZZ        -0.14513   0.55749  -0.33132   0.14084  -0.18049
  13        4XY         0.11008   0.17530   0.26848  -0.44943  -0.40239
  14        4XZ        -0.28661   0.07886  -0.19581  -0.20315   0.68921
  15        4YZ         0.17212   0.27503  -0.06667  -0.33096   0.26834
  16 2   H  1S          0.16722  -0.28296   0.17215   0.04696  -0.02089
  17        2S          0.00953   0.23998  -0.14372   0.11418  -0.18157
  18        3PX        -0.37356  -0.11581   0.36796   0.33062  -0.52556
  19        3PY         0.06000  -0.48293   0.09541   0.53919  -0.09179
  20        3PZ         0.08699  -0.22933   0.13363  -0.08038   0.00617
  21 3   H  1S         -0.53873  -0.00131  -0.34055   0.03611  -0.00006
  22        2S         -0.02883   0.00132   0.32992   0.13313  -0.00041
  23        3PX        -0.21029   0.07973  -0.33235   0.03039  -0.20973
  24        3PY         0.43881  -0.16340  -0.46550   0.53442   0.41728
  25        3PZ         0.25590   0.24818  -0.19533   0.33681  -0.64441
  26 4   H  1S          0.37132   0.28428   0.16990   0.04697   0.02090
  27        2S          0.02135  -0.24113  -0.14182   0.11417   0.18189
  28        3PX        -0.46361   0.13784   0.28514   0.46815   0.47979
  29        3PY        -0.00531   0.44566   0.25464   0.26512   0.18172
  30        3PZ        -0.00101   0.28894  -0.11952   0.34213  -0.14217
  31 5   H  1S         -0.00369   0.00003   0.00827   0.00640  -0.00002
  32        2S          0.00331  -0.00013  -0.03286  -0.01646   0.00005
  33        3PX         0.01369   0.00010   0.06632   0.01450  -0.00008
  34        3PY         0.00156   0.00036   0.00745   0.00206   0.00009
  35        3PZ        -0.00423  -0.00057  -0.01677  -0.00338  -0.00013
                          31        32        33        34        35
                           V         V         V         V         V
     Eigenvalues --     3.06432   3.32346   3.51788   3.53568   4.03252
   1 1   N  1S         -0.00420  -0.20493  -0.00001  -0.00365  -0.43373
   2        2S          0.02693   0.72074   0.00002  -0.00725   0.88420
   3        2PX         0.00901   0.13705   0.22751   0.72173  -0.16288
   4        2PY         0.00181   0.31784  -0.45296  -0.23402  -0.29435
   5        2PZ        -0.00176   0.16154   0.69800  -0.38711  -0.13794
   6        3S          0.00405   2.08032   0.00017   0.15658   2.62667
   7        3PX        -0.35484   0.16986   0.25363   0.86420   0.14549
   8        3PY         0.12683   0.29657  -0.50491  -0.27839   0.12289
   9        3PZ         0.19859   0.13700   0.77808  -0.46235   0.03234
  10        4XX        -0.02193  -0.31203  -0.20455   1.13625  -1.64569
  11        4YY         0.11155  -0.48841  -0.86135  -0.49539  -1.50903
  12        4ZZ        -0.12017  -0.12996   1.06582  -0.58406  -1.75071
  13        4XY        -0.38568  -0.32208   0.48533   0.27482   0.22330
  14        4XZ        -0.48285  -0.09894  -0.16321  -0.56244   0.08066
  15        4YZ         0.69305  -0.24659   0.36721   0.16428   0.15760
  16 2   H  1S         -0.00770  -0.45773  -0.90263   0.47664   0.45399
  17        2S         -0.11269  -0.46371  -0.55321   0.30975  -0.36827
  18        3PX         0.48123   0.00123  -0.01391  -0.02844  -0.04034
  19        3PY        -0.53355   0.02440   0.00326   0.02077  -0.05402
  20        3PZ         0.00719   0.76134   1.04180  -0.54602  -0.52349
  21 3   H  1S          0.00345  -0.35184  -0.00035  -1.06612   0.42036
  22        2S          0.23493  -0.49495  -0.00028  -0.76890  -0.48409
  23        3PX         0.07898   0.63108  -0.00681   1.20228  -0.45445
  24        3PY         0.34948   0.01393   0.01438  -0.00629  -0.05750
  25        3PZ         0.19947  -0.19632  -0.02230  -0.39541   0.11063
  26 4   H  1S         -0.00766  -0.45779   0.90293   0.47603   0.45396
  27        2S         -0.11214  -0.46377   0.55337   0.30937  -0.36828
  28        3PX         0.26523  -0.31693   0.45548   0.21379   0.17354
  29        3PY        -0.09962   0.65827  -0.88319  -0.46196  -0.48021
  30        3PZ        -0.66129  -0.21574   0.31428   0.19881   0.13353
  31 5   H  1S          0.01459  -0.02313  -0.00001  -0.03306  -0.03443
  32        2S         -0.03347   0.06339   0.00004   0.09259   0.07743
  33        3PX         0.02142  -0.04455  -0.00014  -0.05955  -0.03157
  34        3PY         0.00227  -0.00491   0.00023  -0.00647  -0.00343
  35        3PZ        -0.00550   0.01132  -0.00035   0.01520   0.00806
     Beta Molecular Orbital Coefficients:
                           1         2         3         4         5
                           O         O         O         O         O
     Eigenvalues --   -14.41739  -0.93677  -0.53684  -0.53663  -0.33116
   1 1   N  1S          0.99297  -0.20065   0.00000   0.00001   0.06849
   2        2S          0.03373   0.41181  -0.00000   0.00003  -0.14957
   3        2PX         0.00071   0.04724   0.13179   0.39408   0.27340
   4        2PY         0.00116   0.07718  -0.25280  -0.14103   0.44368
   5        2PZ         0.00052   0.03470   0.38292  -0.22876   0.19881
   6        3S          0.00304   0.41934  -0.00001  -0.00088  -0.30129
   7        3PX        -0.00017   0.02250   0.06655   0.19861   0.23246
   8        3PY        -0.00030   0.03590  -0.12768  -0.07121   0.37595
   9        3PZ        -0.00014   0.01597   0.19340  -0.11540   0.16821
  10        4XX        -0.00744  -0.00667   0.00145   0.02729   0.00427
  11        4YY        -0.00752  -0.00869  -0.02440  -0.01352   0.01936
  12        4ZZ        -0.00741  -0.00599   0.02296  -0.01364  -0.00024
  13        4XY        -0.00010  -0.00242   0.00602   0.01274   0.01747
  14        4XZ        -0.00004  -0.00106   0.00609  -0.00651   0.00778
  15        4YZ        -0.00007  -0.00173   0.01277  -0.00584   0.01271
  16 2   H  1S          0.00009   0.14495   0.24299  -0.14516   0.06087
  17        2S         -0.00026   0.02069   0.16462  -0.09848   0.05630
  18        3PX        -0.00001   0.00103   0.00400   0.01013   0.00864
  19        3PY        -0.00002   0.00169  -0.00587  -0.00422   0.01404
  20        3PZ         0.00027  -0.01798  -0.00797   0.00477   0.00145
  21 3   H  1S          0.00010   0.14474   0.00432   0.28308   0.06103
  22        2S         -0.00029   0.01983   0.00295   0.19376   0.05526
  23        3PX         0.00025  -0.01670   0.00318  -0.00946   0.00419
  24        3PY        -0.00002   0.00169  -0.00666  -0.00277   0.01403
  25        3PZ        -0.00009   0.00654   0.01023   0.00106   0.00774
  26 4   H  1S          0.00009   0.14496  -0.24732  -0.13771   0.06088
  27        2S         -0.00026   0.02068  -0.16755  -0.09341   0.05631
  28        3PX        -0.00013   0.00902  -0.00505   0.00568   0.01070
  29        3PY         0.00022  -0.01423   0.00845   0.00471   0.00992
  30        3PZ        -0.00009   0.00657   0.00393  -0.00951   0.00780
  31 5   H  1S         -0.00001  -0.00052   0.00001   0.00084  -0.00058
  32        2S          0.00003   0.00207   0.00002   0.00128   0.00596
  33        3PX        -0.00001  -0.00019   0.00001  -0.00028  -0.00053
  34        3PY        -0.00000  -0.00001  -0.00002  -0.00003   0.00001
  35        3PZ         0.00000   0.00005   0.00003   0.00007   0.00018
                           6         7         8         9        10
                           V         V         V         V         V
     Eigenvalues --     0.16761   0.24646   0.26146   0.47442   0.77394
   1 1   N  1S         -0.12679  -0.01804   0.00001  -0.02599   0.00001
   2        2S          0.17496   0.03036  -0.00001   0.12070  -0.00003
   3        2PX         0.10733  -0.30118   0.10699   0.20029  -0.09793
   4        2PY         0.13122   0.12920  -0.21314  -0.04374   0.19485
   5        2PZ         0.05020   0.18195   0.32849  -0.09357  -0.30010
   6        3S          1.75399   0.24757  -0.00011   0.21147  -0.00003
   7        3PX         0.25208  -0.74956   0.27002   0.34325   0.30059
   8        3PY         0.31775   0.33050  -0.53793  -0.06020  -0.59811
   9        3PZ         0.12410   0.45861   0.82905  -0.15081   0.92120
  10        4XX        -0.03438  -0.00832   0.00666  -0.01824   0.03537
  11        4YY        -0.03190   0.00042  -0.00561   0.02443   0.09403
  12        4ZZ        -0.03607  -0.00369  -0.00105   0.02477  -0.12941
  13        4XY         0.00436  -0.00640  -0.00604   0.00098  -0.06805
  14        4XZ         0.00193  -0.00526   0.01162   0.02082   0.03858
  15        4YZ         0.00225   0.01083   0.00538  -0.00858  -0.03521
  16 2   H  1S         -0.05456  -0.05474  -0.09350   0.03993  -0.65702
  17        2S         -0.84497  -0.87622  -1.41876   0.14959   0.08474
  18        3PX         0.00122  -0.00713   0.00166   0.01108   0.01700
  19        3PY         0.00105   0.00180  -0.00608  -0.00309  -0.02857
  20        3PZ        -0.00981  -0.00352  -0.00441   0.00436   0.00587
  21 3   H  1S         -0.05848   0.07996  -0.00000  -0.17164  -0.00043
  22        2S         -0.97272   1.36299  -0.00019  -0.78831   0.00006
  23        3PX        -0.01010   0.00370   0.00242  -0.02570   0.01552
  24        3PY         0.00078   0.00411  -0.00483  -0.00170  -0.03094
  25        3PZ         0.00380   0.00146   0.00744   0.00726   0.04766
  26 4   H  1S         -0.05455  -0.05471   0.09352   0.03992   0.65766
  27        2S         -0.84488  -0.87577   1.41911   0.14960  -0.08486
  28        3PX         0.00552  -0.00414  -0.00162   0.00682  -0.00420
  29        3PY        -0.00753  -0.00415   0.00602   0.00538   0.00313
  30        3PZ         0.00342   0.00566   0.00451  -0.00870   0.03330
  31 5   H  1S         -0.00858   0.01870  -0.00000   0.07263  -0.00001
  32        2S         -0.11641   0.23042  -0.00004   0.92150  -0.00003
  33        3PX         0.01014  -0.01855  -0.00001  -0.04778   0.00011
  34        3PY         0.00094  -0.00176   0.00002  -0.00402  -0.00021
  35        3PZ        -0.00269   0.00490  -0.00003   0.01294   0.00033
                          11        12        13        14        15
                           V         V         V         V         V
     Eigenvalues --     0.77571   0.80884   0.96878   0.97698   1.01516
   1 1   N  1S          0.00151  -0.01079  -0.07023  -0.00004  -0.02726
   2        2S         -0.02392   0.13453   0.48847   0.00037  -0.02301
   3        2PX        -0.34032  -0.47433  -0.18703   0.23109   0.67005
   4        2PY         0.12000  -0.77289   0.13828  -0.46083  -0.23877
   5        2PZ         0.18894  -0.34699   0.14981   0.71071  -0.37287
   6        3S          0.02850   0.11596  -0.66023  -0.00058   0.18217
   7        3PX         0.96987   0.54630   0.42541  -0.40484  -1.19801
   8        3PY        -0.35225   0.88973  -0.07311   0.80748   0.52053
   9        3PZ        -0.54514   0.39941  -0.18452  -1.24518   0.72744
  10        4XX        -0.12481   0.07110   0.03001   0.04209  -0.22489
  11        4YY         0.04675   0.05704   0.06570   0.14146   0.07781
  12        4ZZ         0.06803   0.07575  -0.09204  -0.18352   0.04238
  13        4XY        -0.02345  -0.01666   0.14709  -0.08924   0.01097
  14        4XZ         0.07363  -0.00726   0.02906   0.04007   0.12148
  15        4YZ        -0.04096  -0.01220   0.11105  -0.05708  -0.00473
  16 2   H  1S          0.37768  -0.01722  -0.70762  -0.40979   0.00812
  17        2S         -0.04483  -0.17307   0.73817   1.37981  -0.71532
  18        3PX         0.04607  -0.00666   0.01720   0.01069   0.03982
  19        3PY        -0.01890  -0.01088   0.04711  -0.01902   0.00737
  20        3PZ        -0.00498   0.04738  -0.11975  -0.14810   0.05192
  21 3   H  1S         -0.73136  -0.01770  -0.49670  -0.00023  -0.69370
  22        2S          0.07828  -0.17295   0.03348  -0.00020   1.74436
  23        3PX         0.01182   0.04256  -0.03095   0.01005  -0.17205
  24        3PY        -0.01504  -0.01076   0.04648  -0.02000   0.00816
  25        3PZ        -0.01368  -0.02084   0.04019   0.03090   0.06129
  26 4   H  1S          0.37684  -0.01719  -0.70806   0.40885   0.00825
  27        2S         -0.04471  -0.17303   0.74001  -1.37858  -0.71570
  28        3PX         0.03658  -0.02894   0.07900  -0.06700   0.01417
  29        3PY         0.00003   0.03354  -0.07603   0.13131   0.05848
  30        3PZ        -0.03420  -0.02109   0.06985  -0.02507  -0.02682
  31 5   H  1S         -0.02413  -0.01238  -0.01082   0.00000  -0.09497
  32        2S         -0.05941   0.01044  -0.01460   0.00002  -0.21475
  33        3PX         0.00168   0.00173  -0.00020  -0.00003  -0.00675
  34        3PY         0.00004   0.00048   0.00012   0.00006  -0.00123
  35        3PZ        -0.00052  -0.00025   0.00015  -0.00009   0.00141
                          16        17        18        19        20
                           V         V         V         V         V
     Eigenvalues --     1.21859   1.51168   1.51194   1.55715   1.95881
   1 1   N  1S         -0.07029   0.00083  -0.00000   0.00903  -0.06304
   2        2S         -1.55819   0.01791  -0.00013   0.23452  -0.63770
   3        2PX        -0.14222   0.01856  -0.00469   0.06627  -0.01703
   4        2PY        -0.10546  -0.00618   0.00902  -0.01268  -0.00690
   5        2PZ        -0.02210  -0.01021  -0.01376  -0.02979   0.00107
   6        3S          4.04177  -0.05518   0.00036  -0.70784   1.88129
   7        3PX         0.47002   0.10935  -0.04246  -0.30107   0.33785
   8        3PY         0.48452  -0.04588   0.08315   0.02697   0.48361
   9        3PZ         0.16128  -0.06695  -0.12710   0.11549   0.20371
  10        4XX        -0.27549  -0.16760   0.27077   0.02634  -0.01081
  11        4YY        -0.19387   0.16191  -0.28470  -0.00605  -0.46505
  12        4ZZ        -0.33408   0.01225   0.01389   0.05245   0.11757
  13        4XY         0.12704  -0.32481  -0.22517  -0.01242  -0.52017
  14        4XZ         0.04552  -0.26657   0.48261   0.01989  -0.23471
  15        4YZ         0.09329   0.47887   0.24309  -0.07592  -0.37555
  16 2   H  1S         -0.22811   0.04222   0.06847   0.01787  -0.46117
  17        2S         -0.75480   0.01455   0.02432  -0.00813  -0.24755
  18        3PX         0.03461  -0.10862   0.24644   0.00031  -0.11304
  19        3PY         0.05883   0.24341   0.15152  -0.03745  -0.18560
  20        3PZ         0.02135   0.00623   0.01089  -0.00495  -0.08975
  21 3   H  1S         -0.15048  -0.08592   0.00071  -0.09786  -0.44301
  22        2S         -1.06632   0.02428  -0.00014   0.71980  -0.34015
  23        3PX         0.04840  -0.06286   0.06813  -0.03194  -0.12161
  24        3PY         0.05913  -0.25677  -0.13270   0.00161  -0.18634
  25        3PZ         0.02259  -0.14353   0.20898   0.01145  -0.08127
  26 4   H  1S         -0.22808   0.04111  -0.06909   0.01786  -0.46118
  27        2S         -0.75487   0.01417  -0.02455  -0.00813  -0.24756
  28        3PX         0.03696  -0.03294  -0.24896  -0.00797  -0.11041
  29        3PY         0.05413   0.08208  -0.14676  -0.02092  -0.19083
  30        3PZ         0.02860   0.25086  -0.02438  -0.03043  -0.08167
  31 5   H  1S          0.16184   0.10982  -0.00089   1.31434  -0.08370
  32        2S          0.05407  -0.08041   0.00064  -1.03349   0.10882
  33        3PX         0.00236  -0.00978   0.00006  -0.12351   0.02397
  34        3PY         0.00092  -0.00090   0.00004  -0.01110   0.00309
  35        3PZ        -0.00018   0.00260  -0.00006   0.03302  -0.00580
                          21        22        23        24        25
                           V         V         V         V         V
     Eigenvalues --     2.17136   2.30969   2.30991   2.47613   2.47651
   1 1   N  1S         -0.00000   0.00008   0.00000   0.00008  -0.00000
   2        2S          0.00002  -0.00295  -0.00025   0.00440  -0.00013
   3        2PX         0.00005  -0.12747  -0.05269  -0.14610  -0.04228
   4        2PY        -0.00001   0.04043   0.08619   0.05551   0.09099
   5        2PZ        -0.00002   0.08474  -0.11988   0.07732  -0.14493
   6        3S          0.00001   0.00595   0.00058  -0.01104   0.00032
   7        3PX        -0.00022   0.59739   0.24846  -0.06662  -0.01718
   8        3PY         0.00031  -0.18921  -0.40670   0.02309   0.03732
   9        3PZ        -0.00037  -0.39762   0.56612   0.03412  -0.05946
  10        4XX         0.00007   0.41653  -0.08824   0.63417  -0.03273
  11        4YY         0.00049  -0.14139  -0.30289  -0.32861  -0.53532
  12        4ZZ        -0.00055  -0.27450   0.39119  -0.30623   0.56807
  13        4XY        -0.00031   0.04215   0.23166   0.26957   0.16683
  14        4XZ         0.00017  -0.24915  -0.16562  -0.19257   0.08490
  15        4YZ        -0.00021   0.14385   0.11555  -0.05790   0.27703
  16 2   H  1S          0.00052   0.31558  -0.45075   0.15631  -0.28846
  17        2S         -0.00009   0.01855  -0.02639  -0.13204   0.24447
  18        3PX         0.49911  -0.39866   0.02673   0.36648  -0.12746
  19        3PY        -0.30818  -0.07582   0.44337   0.07877  -0.48562
  20        3PZ         0.00026   0.16513  -0.23513   0.12558  -0.23370
  21 3   H  1S          0.00009  -0.54722  -0.04830  -0.32608   0.00938
  22        2S         -0.00004  -0.03852  -0.00344   0.28810  -0.00824
  23        3PX        -0.15445  -0.18738  -0.11368  -0.33753   0.09068
  24        3PY         0.30790   0.38769   0.22788  -0.46951  -0.14804
  25        3PZ        -0.47475   0.35234  -0.26743  -0.18386   0.25412
  26 4   H  1S         -0.00063   0.23178   0.49902   0.17257   0.27900
  27        2S          0.00011   0.01362   0.02923  -0.14583  -0.23653
  28        3PX        -0.34437  -0.38500  -0.31832   0.29158   0.12801
  29        3PY        -0.00002  -0.00272  -0.00715   0.26891   0.43710
  30        3PZ         0.47479   0.13050  -0.42192  -0.11167   0.29272
  31 5   H  1S          0.00001  -0.01081  -0.00096  -0.00933   0.00026
  32        2S         -0.00001   0.00926   0.00083  -0.01951   0.00056
  33        3PX        -0.00003  -0.00371   0.00005  -0.04671   0.00151
  34        3PY         0.00007  -0.00029  -0.00075  -0.00588  -0.00017
  35        3PZ        -0.00011   0.00087   0.00120   0.01143   0.00019
                          26        27        28        29        30
                           V         V         V         V         V
     Eigenvalues --     2.83268   2.84005   2.84014   2.92468   3.06220
   1 1   N  1S         -0.00213  -0.00008  -0.00135  -0.02960  -0.00000
   2        2S          0.09085   0.00133   0.02122   0.22908   0.00001
   3        2PX        -0.06206   0.00019  -0.00231   0.11145   0.00134
   4        2PY        -0.08808  -0.00142  -0.01030  -0.01246  -0.00263
   5        2PZ        -0.03693   0.00076  -0.00606  -0.04435   0.00407
   6        3S         -0.31479  -0.00286  -0.04381  -0.07720   0.00009
   7        3PX        -0.22419  -0.00231  -0.03158  -0.06591   0.11016
   8        3PY        -0.36908  -0.00253  -0.04583  -0.04780  -0.21912
   9        3PZ        -0.16644  -0.00205  -0.01937  -0.00955   0.33755
  10        4XX         0.02547   0.00079   0.00635   0.06853   0.40750
  11        4YY        -0.34687  -0.00321  -0.04810  -0.19804  -0.22689
  12        4ZZ         0.15279   0.00059   0.01290  -0.10554  -0.18059
  13        4XY        -0.45136  -0.00383  -0.05138   0.02688  -0.40285
  14        4XZ        -0.19840  -0.00100  -0.02496  -0.02390   0.68890
  15        4YZ        -0.32013  -0.00248  -0.04091  -0.12601   0.26911
  16 2   H  1S          0.03896   0.00115   0.00805   0.06003  -0.02085
  17        2S          0.11844  -0.00007   0.01195  -0.03503  -0.18160
  18        3PX         0.32810   0.00222   0.03948  -0.00578  -0.52525
  19        3PY         0.52586   0.00388   0.06606   0.13524  -0.09244
  20        3PZ        -0.08119   0.00074  -0.00895   0.01007   0.00616
  21 3   H  1S          0.05698   0.00001  -0.00084  -0.18751  -0.00004
  22        2S          0.09874   0.00152   0.02451   0.23997  -0.00019
  23        3PX         0.01782   0.00032   0.00706   0.13241  -0.20955
  24        3PY         0.53401   0.00431   0.06189  -0.01086   0.41740
  25        3PZ         0.34063   0.00219   0.03789  -0.05016  -0.64384
  26 4   H  1S          0.03898  -0.00011   0.00815   0.06003   0.02083
  27        2S          0.11843   0.00166   0.01183  -0.03502   0.18171
  28        3PX         0.46264   0.00472   0.05594   0.02817   0.48022
  29        3PY         0.25776   0.00135   0.03307   0.06765   0.18173
  30        3PZ         0.33213   0.00339   0.04199   0.11427  -0.14281
  31 5   H  1S         -0.01361   0.00013   0.00313   0.18500  -0.00003
  32        2S         -0.00383  -0.00026  -0.00463  -0.11484   0.00003
  33        3PX        -0.10663   0.26784   0.05667   0.92492  -0.00033
  34        3PY        -0.10863  -0.46334   0.87701   0.06183   0.00045
  35        3PZ        -0.03494   0.84470   0.46199  -0.26040  -0.00068
                          31        32        33        34        35
                           V         V         V         V         V
     Eigenvalues --     3.06649   3.32739   3.51795   3.54121   4.03446
   1 1   N  1S         -0.00965  -0.20172  -0.00001  -0.00388  -0.43429
   2        2S          0.05898   0.70209   0.00002  -0.01149   0.88263
   3        2PX         0.02654   0.11467   0.22745   0.71905  -0.15937
   4        2PY         0.00218   0.32469  -0.45295  -0.22444  -0.29445
   5        2PZ        -0.00723   0.17327   0.69807  -0.37992  -0.13915
   6        3S          0.01746   2.08013   0.00017   0.19696   2.64237
   7        3PX        -0.35796   0.16430   0.25355   0.87886   0.15681
   8        3PY         0.12666   0.30123  -0.50488  -0.27347   0.12190
   9        3PZ         0.19898   0.14184   0.77811  -0.46382   0.02802
  10        4XX        -0.01472  -0.33248  -0.20466   1.13896  -1.63967
  11        4YY         0.08529  -0.46486  -0.86132  -0.48950  -1.51275
  12        4ZZ        -0.13889  -0.10311   1.06589  -0.56837  -1.75357
  13        4XY        -0.38285  -0.32690   0.48530   0.26707   0.22394
  14        4XZ        -0.49091  -0.08059  -0.16314  -0.56065   0.07746
  15        4YZ         0.68429  -0.25486   0.36721   0.15560   0.15729
  16 2   H  1S         -0.00260  -0.47344  -0.90269   0.46009   0.45432
  17        2S         -0.12078  -0.46425  -0.55323   0.30612  -0.36665
  18        3PX         0.48119  -0.00302  -0.01391  -0.03129  -0.04130
  19        3PY        -0.52542   0.02630   0.00326   0.02262  -0.05364
  20        3PZ         0.01190   0.77441   1.04185  -0.52612  -0.52432
  21 3   H  1S         -0.02510  -0.31990  -0.00025  -1.06735   0.41460
  22        2S          0.25581  -0.50446  -0.00021  -0.80227  -0.50199
  23        3PX         0.10510   0.59904  -0.00694   1.21202  -0.44522
  24        3PY         0.34637   0.01196   0.01440  -0.00675  -0.05768
  25        3PZ         0.18992  -0.18717  -0.02230  -0.39888   0.10751
  26 4   H  1S         -0.00260  -0.47350   0.90288   0.45966   0.45429
  27        2S         -0.12059  -0.46432   0.55333   0.30584  -0.36666
  28        3PX         0.26449  -0.32564   0.45545   0.20345   0.17317
  29        3PY        -0.09235   0.66907  -0.88312  -0.44518  -0.48101
  30        3PZ        -0.65554  -0.21636   0.31426   0.19548   0.13452
  31 5   H  1S          0.04049  -0.04417  -0.00002  -0.05563  -0.04635
  32        2S         -0.05002   0.07719   0.00003   0.11061   0.08841
  33        3PX         0.12426  -0.11626  -0.00026  -0.12450  -0.05039
  34        3PY         0.01139  -0.01202   0.00045  -0.01298  -0.00534
  35        3PZ        -0.03305   0.03006  -0.00069   0.03212   0.01294
     Alpha Density Matrix:
                           1         2         3         4         5
   1 1   N  1S          1.03096
   2        2S         -0.05943   0.19325
   3        2PX         0.00963  -0.02079   0.25238
   4        2PY         0.01593  -0.03440   0.03661   0.28689
   5        2PZ         0.00720  -0.01554   0.01583   0.02625   0.23994
   6        3S         -0.10179   0.21792  -0.05992  -0.09973  -0.04519
   7        3PX         0.01104  -0.02517   0.15402   0.06090   0.02684
   8        3PY         0.01813  -0.04130   0.06009   0.21199   0.04327
   9        3PZ         0.00817  -0.01859   0.02632   0.04301   0.13448
  10        4XX        -0.00579  -0.00357   0.01174  -0.00288  -0.00507
  11        4YY        -0.00439  -0.00676  -0.00372   0.01596  -0.00272
  12        4ZZ        -0.00616  -0.00272  -0.00281  -0.00452   0.01165
  13        4XY         0.00157  -0.00358   0.01057   0.00429   0.00277
  14        4XZ         0.00071  -0.00162   0.00037   0.00276   0.00534
  15        4YZ         0.00115  -0.00262   0.00277   0.00310   0.00871
  16 2   H  1S         -0.02480   0.05052  -0.00188  -0.00280   0.14345
  17        2S         -0.00053   0.00002  -0.00125  -0.00128   0.09754
  18        3PX         0.00037  -0.00085   0.00700   0.00148   0.00094
  19        3PY         0.00060  -0.00140   0.00150   0.00844   0.00156
  20        3PZ         0.00397  -0.00761   0.00037   0.00059  -0.00448
  21 3   H  1S         -0.02488   0.05075   0.13600  -0.00277  -0.04607
  22        2S         -0.00047   0.00000   0.08941  -0.00381  -0.03158
  23        3PX         0.00392  -0.00756  -0.00330   0.00108   0.00373
  24        3PY         0.00060  -0.00140   0.00193   0.00842   0.00093
  25        3PZ        -0.00089   0.00155   0.00429   0.00121   0.00540
  26 4   H  1S         -0.02480   0.05052  -0.06357   0.12013  -0.04604
  27        2S         -0.00053   0.00002  -0.04302   0.08197  -0.03078
  28        3PX        -0.00121   0.00212   0.00499   0.00593  -0.00080
  29        3PY         0.00375  -0.00733   0.00503   0.00049   0.00363
  30        3PZ        -0.00088   0.00154  -0.00080   0.00432   0.00547
  31 5   H  1S          0.00215  -0.00362  -0.01455  -0.00250   0.00311
  32        2S          0.00311  -0.00517  -0.02076  -0.00031   0.00656
  33        3PX        -0.00000  -0.00001  -0.00068  -0.00019   0.00011
  34        3PY         0.00001  -0.00001  -0.00006   0.00004   0.00002
  35        3PZ         0.00000  -0.00001   0.00019   0.00006   0.00002
                           6         7         8         9        10
   6        3S          0.26670
   7        3PX        -0.05864   0.10056
   8        3PY        -0.09673   0.06631   0.16398
   9        3PZ        -0.04366   0.02920   0.04708   0.07917
  10        4XX        -0.00399   0.00633  -0.00080  -0.00227   0.00086
  11        4YY        -0.00951  -0.00003   0.01102  -0.00006  -0.00021
  12        4ZZ        -0.00254  -0.00146  -0.00232   0.00587  -0.00024
  13        4XY        -0.00617   0.00703   0.00484   0.00258   0.00044
  14        4XZ        -0.00280   0.00094   0.00259   0.00322  -0.00013
  15        4YZ        -0.00453   0.00261   0.00350   0.00525  -0.00008
  16 2   H  1S          0.04245   0.00465   0.00735   0.07629  -0.00429
  17        2S         -0.00841   0.00459   0.00776   0.05300  -0.00234
  18        3PX        -0.00210   0.00437   0.00206   0.00106   0.00031
  19        3PY        -0.00347   0.00210   0.00639   0.00173  -0.00008
  20        3PZ        -0.00798   0.00034   0.00057  -0.00214   0.00024
  21 3   H  1S          0.04326   0.07433   0.00737  -0.01941   0.00697
  22        2S         -0.00845   0.04937   0.00559  -0.01245   0.00527
  23        3PX        -0.00840  -0.00131   0.00120   0.00219  -0.00014
  24        3PY        -0.00348   0.00231   0.00637   0.00141  -0.00004
  25        3PZ         0.00048   0.00291   0.00177   0.00324   0.00004
  26 4   H  1S          0.04245  -0.02649   0.06942  -0.01938  -0.00481
  27        2S         -0.00842  -0.01649   0.04979  -0.01179  -0.00269
  28        3PX         0.00064   0.00355   0.00460   0.00030   0.00013
  29        3PY        -0.00892   0.00351   0.00180   0.00252   0.00027
  30        3PZ         0.00042   0.00033   0.00335   0.00327  -0.00026
  31 5   H  1S         -0.01719  -0.01395  -0.00289   0.00267  -0.00004
  32        2S         -0.02689  -0.01992  -0.00161   0.00544  -0.00010
  33        3PX         0.00014  -0.00040  -0.00021   0.00000  -0.00003
  34        3PY        -0.00002  -0.00003   0.00003   0.00001  -0.00000
  35        3PZ        -0.00006   0.00012   0.00007   0.00003   0.00001
                          11        12        13        14        15
  11        4YY         0.00129
  12        4ZZ        -0.00027   0.00081
  13        4XY         0.00004  -0.00003   0.00051
  14        4XZ         0.00010   0.00023   0.00009   0.00014
  15        4YZ         0.00003   0.00038   0.00023   0.00022   0.00036
  16 2   H  1S         -0.00407   0.00666   0.00033   0.00274   0.00448
  17        2S         -0.00177   0.00499   0.00065   0.00206   0.00336
  18        3PX        -0.00008  -0.00006   0.00030   0.00003   0.00010
  19        3PY         0.00046  -0.00009   0.00015   0.00010   0.00013
  20        3PZ         0.00031  -0.00014   0.00008  -0.00005  -0.00008
  21 3   H  1S         -0.00403  -0.00467   0.00436  -0.00147  -0.00108
  22        2S         -0.00180  -0.00262   0.00326  -0.00084  -0.00046
  23        3PX         0.00028   0.00031   0.00000   0.00013   0.00018
  24        3PY         0.00046  -0.00013   0.00017   0.00009   0.00011
  25        3PZ        -0.00017   0.00018   0.00020   0.00011   0.00021
  26 4   H  1S          0.00781  -0.00470  -0.00252  -0.00031  -0.00183
  27        2S          0.00627  -0.00270  -0.00128  -0.00001  -0.00091
  28        3PX         0.00017  -0.00025   0.00021   0.00001   0.00002
  29        3PY         0.00004   0.00021   0.00032   0.00011   0.00023
  30        3PZ         0.00013   0.00018   0.00002   0.00014   0.00019
  31 5   H  1S          0.00041   0.00057  -0.00043  -0.00007   0.00006
  32        2S          0.00075   0.00087  -0.00056  -0.00004   0.00018
  33        3PX         0.00000   0.00002  -0.00003   0.00000  -0.00000
  34        3PY         0.00000   0.00000  -0.00000   0.00000   0.00000
  35        3PZ        -0.00000  -0.00000   0.00001   0.00000   0.00000
                          16        17        18        19        20
  16 2   H  1S          0.10480
  17        2S          0.06072   0.04043
  18        3PX         0.00016   0.00015   0.00020
  19        3PY         0.00029   0.00027   0.00006   0.00025
  20        3PZ        -0.00515  -0.00207   0.00001   0.00002   0.00041
  21 3   H  1S         -0.01535  -0.02086   0.00357  -0.00012  -0.00120
  22        2S         -0.02107  -0.01487   0.00238  -0.00008   0.00063
  23        3PX         0.00003   0.00140  -0.00007   0.00005   0.00024
  24        3PY        -0.00012   0.00000   0.00007   0.00025   0.00003
  25        3PZ         0.00373   0.00213   0.00013   0.00006  -0.00018
  26 4   H  1S         -0.01538  -0.02067  -0.00172   0.00313  -0.00121
  27        2S         -0.02067  -0.01468  -0.00112   0.00220   0.00060
  28        3PX        -0.00010  -0.00061   0.00014   0.00017  -0.00008
  29        3PY        -0.00009   0.00118   0.00015   0.00005   0.00023
  30        3PZ         0.00377   0.00216  -0.00001   0.00014  -0.00018
  31 5   H  1S          0.00113   0.00303  -0.00040  -0.00009   0.00007
  32        2S          0.00283   0.00523  -0.00056  -0.00003   0.00005
  33        3PX         0.00009   0.00007  -0.00002  -0.00001  -0.00000
  34        3PY         0.00001   0.00001  -0.00000   0.00000   0.00000
  35        3PZ         0.00000   0.00000   0.00001   0.00000  -0.00000
                          21        22        23        24        25
  21 3   H  1S          0.10444
  22        2S          0.05947   0.04074
  23        3PX        -0.00500  -0.00188   0.00042
  24        3PY         0.00027   0.00019   0.00004   0.00025
  25        3PZ         0.00181   0.00074  -0.00006   0.00005   0.00021
  26 4   H  1S         -0.01536  -0.02107  -0.00160   0.00313  -0.00127
  27        2S         -0.02086  -0.01487   0.00030   0.00220  -0.00126
  28        3PX         0.00355   0.00176  -0.00018   0.00018   0.00010
  29        3PY        -0.00009   0.00115   0.00026   0.00005   0.00008
  30        3PZ        -0.00125  -0.00128   0.00003   0.00012   0.00013
  31 5   H  1S         -0.00293   0.01600   0.00134   0.00006  -0.00039
  32        2S         -0.00400   0.02457   0.00203   0.00020  -0.00053
  33        3PX        -0.00043  -0.00032   0.00001  -0.00001  -0.00001
  34        3PY        -0.00004  -0.00002   0.00000   0.00000  -0.00000
  35        3PZ         0.00011   0.00009  -0.00000   0.00000   0.00000
                          26        27        28        29        30
  26 4   H  1S          0.10482
  27        2S          0.06073   0.04043
  28        3PX         0.00242   0.00109   0.00026
  29        3PY        -0.00420  -0.00160  -0.00004   0.00039
  30        3PZ         0.00177   0.00081   0.00007  -0.00003   0.00021
  31 5   H  1S          0.00113   0.00303  -0.00039  -0.00009   0.00007
  32        2S          0.00283   0.00523  -0.00051  -0.00012   0.00020
  33        3PX         0.00007   0.00006  -0.00002  -0.00001   0.00000
  34        3PY         0.00003   0.00002  -0.00000  -0.00000   0.00000
  35        3PZ        -0.00003  -0.00002   0.00000   0.00000   0.00000
                          31        32        33        34        35
  31 5   H  1S          0.18524
  32        2S          0.28294   0.43221
  33        3PX        -0.00048  -0.00074   0.00000
  34        3PY         0.00004   0.00006   0.00000   0.00000
  35        3PZ         0.00018   0.00028  -0.00000  -0.00000   0.00000
     Beta Density Matrix:
                           1         2         3         4         5
   1 1   N  1S          1.03095
   2        2S         -0.05939   0.19310
   3        2PX         0.00995  -0.02140   0.24965
   4        2PY         0.01605  -0.03454   0.03606   0.28661
   5        2PZ         0.00717  -0.01544   0.01631   0.02635   0.23969
   6        3S         -0.10176   0.21785  -0.06291  -0.10118  -0.04515
   7        3PX         0.01124  -0.02550   0.15166   0.06004   0.02705
   8        3PY         0.01825  -0.04146   0.05959   0.21189   0.04339
   9        3PZ         0.00818  -0.01859   0.02676   0.04325   0.13445
  10        4XX        -0.00575  -0.00364   0.01179  -0.00284  -0.00507
  11        4YY        -0.00440  -0.00673  -0.00367   0.01599  -0.00271
  12        4ZZ        -0.00617  -0.00268  -0.00271  -0.00446   0.01165
  13        4XY         0.00159  -0.00361   0.01047   0.00424   0.00278
  14        4XZ         0.00070  -0.00160   0.00031   0.00275   0.00533
  15        4YZ         0.00115  -0.00262   0.00277   0.00310   0.00869
[...]
  19        3PY         0.00000   0.00000   0.00241   0.00000   0.00000
  20        3PZ         0.00393   0.00000   0.00000   0.00027  -0.00006
  21 3   H  1S         -0.00030  -0.00013   0.00000  -0.00003   0.00000
  22        2S          0.00467   0.00519   0.00000   0.00089   0.00010
  23        3PX         0.00004   0.00012   0.00000   0.00001  -0.00000
  24        3PY         0.00000   0.00000   0.00000   0.00000   0.00000
  25        3PZ        -0.00000   0.00000   0.00000   0.00000  -0.00000
  26 4   H  1S          0.01192   0.00214   0.08524   0.00193  -0.00088
  27        2S         -0.06134   0.00168   0.06391   0.00050  -0.00088
  28        3PX         0.00011   0.00192   0.00007   0.00001   0.00001
  29        3PY         0.00407   0.00008   0.00008   0.00028  -0.00005
  30        3PZ        -0.00025   0.00001   0.00043   0.00186  -0.00001
  31 5   H  1S         -0.00007  -0.00012   0.00000  -0.00001   0.00000
  32        2S         -0.00246  -0.00267   0.00021  -0.00025   0.00001
  33        3PX        -0.00000   0.00001   0.00000  -0.00000   0.00000
  34        3PY        -0.00000  -0.00000  -0.00000  -0.00000   0.00000
  35        3PZ         0.00000   0.00000  -0.00000   0.00000  -0.00000
                          11        12        13        14        15
  11        4YY         0.00366
  12        4ZZ        -0.00026   0.00302
  13        4XY         0.00000   0.00000   0.00071
  14        4XZ         0.00000   0.00000   0.00000   0.00039
  15        4YZ         0.00000   0.00000   0.00000   0.00000   0.00113
  16 2   H  1S         -0.00124   0.01032   0.00000   0.00000   0.00000
  17        2S         -0.00161   0.00730   0.00000   0.00000   0.00000
  18        3PX         0.00000   0.00000   0.00000   0.00012   0.00000
  19        3PY         0.00000   0.00000   0.00000   0.00000   0.00017
  20        3PZ        -0.00010   0.00015   0.00000   0.00000   0.00000
  21 3   H  1S         -0.00000  -0.00000   0.00000   0.00000   0.00000
  22        2S         -0.00009  -0.00007   0.00000  -0.00001   0.00000
  23        3PX        -0.00000  -0.00000   0.00000  -0.00000   0.00000
  24        3PY         0.00000   0.00000  -0.00000   0.00000  -0.00000
  25        3PZ        -0.00000  -0.00000   0.00000   0.00000   0.00000
  26 4   H  1S          0.01058  -0.00179   0.00052  -0.00001  -0.00030
  27        2S          0.00794  -0.00246   0.00008  -0.00000  -0.00008
  28        3PX         0.00002  -0.00000   0.00012  -0.00002   0.00000
  29        3PY         0.00008  -0.00014   0.00002  -0.00000   0.00005
  30        3PZ         0.00006  -0.00004   0.00001   0.00000   0.00019
  31 5   H  1S          0.00000   0.00000  -0.00000   0.00000  -0.00000
  32        2S          0.00002   0.00001  -0.00000   0.00000  -0.00000
  33        3PX         0.00000   0.00000   0.00000  -0.00000  -0.00000
  34        3PY         0.00000   0.00000   0.00000   0.00000   0.00000
  35        3PZ        -0.00000  -0.00000   0.00000   0.00000   0.00000
                          16        17        18        19        20
  16 2   H  1S          0.21548
  17        2S          0.08596   0.09634
  18        3PX         0.00000   0.00000   0.00033
  19        3PY         0.00000   0.00000   0.00000   0.00050
  20        3PZ         0.00000   0.00000   0.00000   0.00000   0.00087
  21 3   H  1S         -0.00000   0.00006   0.00000   0.00000  -0.00000
  22        2S         -0.00025  -0.00114   0.00001   0.00000  -0.00000
  23        3PX         0.00000  -0.00000   0.00000   0.00000   0.00000
  24        3PY         0.00000   0.00000   0.00000   0.00000   0.00000
  25        3PZ         0.00000   0.00000   0.00000   0.00000   0.00000
  26 4   H  1S         -0.00119  -0.00906   0.00001   0.00022   0.00007
  27        2S         -0.00905  -0.01416   0.00001   0.00046  -0.00022
  28        3PX        -0.00000  -0.00001   0.00000   0.00000   0.00000
  29        3PY         0.00000  -0.00027   0.00000   0.00000   0.00002
  30        3PZ         0.00029   0.00053   0.00000   0.00001   0.00001
  31 5   H  1S          0.00000   0.00002  -0.00000   0.00000  -0.00000
  32        2S          0.00004   0.00063  -0.00000   0.00000  -0.00000
  33        3PX         0.00000   0.00000   0.00000   0.00000   0.00000
  34        3PY         0.00000   0.00000   0.00000  -0.00000   0.00000
  35        3PZ         0.00000   0.00000   0.00000  -0.00000   0.00000
                          21        22        23        24        25
  21 3   H  1S          0.23159
  22        2S          0.10318   0.11493
  23        3PX         0.00000   0.00000   0.00051
  24        3PY         0.00000   0.00000   0.00000   0.00010
  25        3PZ         0.00000   0.00000   0.00000   0.00000   0.00001
  26 4   H  1S         -0.00000  -0.00027   0.00000   0.00000  -0.00000
  27        2S          0.00007  -0.00122  -0.00000   0.00000  -0.00000
  28        3PX         0.00000   0.00001   0.00000   0.00000   0.00000
  29        3PY        -0.00000   0.00000   0.00000  -0.00000  -0.00000
  30        3PZ        -0.00000   0.00000   0.00000   0.00000   0.00000
  31 5   H  1S          0.13421   0.08637   0.00520   0.00099   0.00009
  32        2S          0.09454   0.09706   0.00104   0.00019   0.00002
  33        3PX         0.00464   0.00083   0.00005   0.00005   0.00000
  34        3PY         0.00080   0.00014   0.00005  -0.00003   0.00000
  35        3PZ         0.00006   0.00001   0.00000   0.00000  -0.00000
                          26        27        28        29        30
  26 4   H  1S          0.21551
  27        2S          0.08596   0.09634
  28        3PX         0.00000   0.00000   0.00034
  29        3PY         0.00000   0.00000   0.00000   0.00087
  30        3PZ         0.00000   0.00000   0.00000   0.00000   0.00050
  31 5   H  1S         -0.00000   0.00002  -0.00000  -0.00000  -0.00000
  32        2S          0.00005   0.00069  -0.00000  -0.00000  -0.00000
  33        3PX         0.00000   0.00000   0.00000  -0.00000  -0.00000
  34        3PY         0.00000  -0.00000  -0.00000   0.00000   0.00000
  35        3PZ        -0.00000  -0.00000   0.00000   0.00000   0.00000
                          31        32        33        34        35
  31 5   H  1S          0.23459
  32        2S          0.11412   0.13333
  33        3PX         0.00000   0.00000   0.00040
  34        3PY         0.00000   0.00000   0.00000   0.00007
  35        3PZ         0.00000   0.00000   0.00000   0.00000   0.00000
     Gross orbital populations:
                         Total     Alpha     Beta      Spin
   1 1   N  1S          1.99303   0.99636   0.99668  -0.00032
   2        2S          0.84443   0.43709   0.40735   0.02974
   3        2PX         0.59731   0.58529   0.01202   0.57327
   4        2PY         0.84228   0.44055   0.40174   0.03881
   5        2PZ         0.82024   0.42225   0.39799   0.02425
   6        3S          1.01876   0.50784   0.51092  -0.00308
   7        3PX         0.40121   0.39234   0.00888   0.38346
   8        3PY         0.52965   0.26944   0.26020   0.00924
   9        3PZ         0.48161   0.24173   0.23988   0.00184
  10        4XX        -0.01188   0.00299  -0.01487   0.01785
  11        4YY        -0.00683  -0.00731   0.00048  -0.00779
  12        4ZZ        -0.00360  -0.00621   0.00261  -0.00881
  13        4XY         0.00144   0.00103   0.00042   0.00061
  14        4XZ         0.00048   0.00046   0.00001   0.00045
  15        4YZ         0.00117   0.00061   0.00056   0.00006
  16 2   H  1S          0.51789   0.25018   0.26771  -0.01754
  17        2S          0.20043   0.09038   0.11005  -0.01967
  18        3PX         0.00422   0.00412   0.00010   0.00402
  19        3PY         0.00605   0.00299   0.00306  -0.00006
  20        3PZ         0.01281   0.00648   0.00632   0.00016
  21 3   H  1S          0.56870   0.28469   0.28400   0.00069
  22        2S          0.41218   0.20307   0.20911  -0.00605
  23        3PX         0.00700   0.00370   0.00330   0.00040
  24        3PY         0.00130   0.00065   0.00065   0.00000
  25        3PZ         0.00013   0.00006   0.00006  -0.00000
  26 4   H  1S          0.51795   0.25015   0.26781  -0.01766
  27        2S          0.20042   0.09037   0.11005  -0.01969
  28        3PX         0.00436   0.00419   0.00016   0.00403
  29        3PY         0.01252   0.00637   0.00614   0.00023
  30        3PZ         0.00622   0.00303   0.00319  -0.00016
  31 5   H  1S          0.57542   0.29041   0.28501   0.00539
  32        2S          0.43601   0.22118   0.21483   0.00635
  33        3PX         0.00599   0.00298   0.00301  -0.00003
  34        3PY         0.00103   0.00052   0.00052  -0.00000
  35        3PZ         0.00008   0.00004   0.00004   0.00000
          Condensed to atoms (all electrons):
               1          2          3          4          5
     1  N    6.925131   0.288893   0.012211   0.288977  -0.005902
     2  H    0.288893   0.485442  -0.001315  -0.032324   0.000697
     3  H    0.012211  -0.001315   0.553499  -0.001413   0.426328
     4  H    0.288977  -0.032324  -0.001413   0.485470   0.000756
     5  H   -0.005902   0.000697   0.426328   0.000756   0.596641
          Atomic-Atomic Spin Densities.
               1          2          3          4          5
     1  N    1.067995  -0.003563   0.002162  -0.003580  -0.003432
     2  H   -0.003563  -0.033409   0.000091   0.003819  -0.000030
     3  H    0.002162   0.000091  -0.007125   0.000100  -0.000186
     4  H   -0.003580   0.003819   0.000100  -0.033552  -0.000033
     5  H   -0.003432  -0.000030  -0.000186  -0.000033   0.015391
 Mulliken charges and spin densities:
               1          2
     1  N   -0.509310   1.059583
     2  H    0.258607  -0.033091
     3  H    0.010690  -0.004958
     4  H    0.258534  -0.033245
     5  H   -0.018520   0.011710
 Sum of Mulliken charges =   0.00000   1.00000
 Mulliken charges and spin densities with hydrogens summed into heavy atoms:
               1          2
     1  N    0.000000   1.000000
 Electronic spatial extent (au):  <R**2>=             82.6031
 Charge=              0.0000 electrons
 Dipole moment (field-independent basis, Debye):
    X=             -0.3779    Y=              1.5554    Z=              1.2865  Tot=              2.0536
 Quadrupole moment (field-independent basis, Debye-Ang):
   XX=             -8.8366   YY=             -8.0262   ZZ=             -7.7804
   XY=             -0.0391   XZ=              0.1588   YZ=             -0.5874
 Traceless Quadrupole moment (field-independent basis, Debye-Ang):
   XX=             -0.6222   YY=              0.1882   ZZ=              0.4340
   XY=             -0.0391   XZ=              0.1588   YZ=             -0.5874
 Octapole moment (field-independent basis, Debye-Ang**2):
  XXX=            -14.1672  YYY=             -0.7606  ZZZ=              2.2087  XYY=             -5.1276
  XXY=             -0.0586  XXZ=              0.4715  XZZ=             -5.1238  YZZ=             -0.6286
  YYZ=             -0.0206  XYZ=              0.0708
 Hexadecapole moment (field-independent basis, Debye-Ang**3):
 XXXX=            -84.7526 YYYY=            -10.2576 ZZZZ=            -11.3090 XXXY=              1.0968
 XXXZ=              5.6323 YYYX=             -1.8423 YYYZ=             -0.0174 ZZZX=              5.3192
 ZZZY=              0.3294 XXYY=            -17.0663 XXZZ=            -17.9786 YYZZ=             -4.0812
 XXYZ=              0.0611 YYXZ=              1.7840 ZZXY=             -0.5860
 N-N= 1.174816148839D+01 E-N=-1.562690435402D+02  KE= 5.668228282423D+01
 Orbital energies and kinetic energies (alpha):
                                 1                 2
   1         O               -14.479456         21.963740
   2         O                -0.953881          1.910518
   3         O                -0.556840          1.361057
   4         O                -0.539567          0.647736
   5         O                -0.410993          1.675689
   6         O                -0.394870          1.741630
   7         V                 0.163738          1.015218
   8         V                 0.237617          1.095904
   9         V                 0.252021          0.615275
  10         V                 0.617450          1.549088
  11         V                 0.765489          1.625187
  12         V                 0.772855          2.579935
  13         V                 0.846090          2.310029
  14         V                 0.925914          2.475616
  15         V                 0.946440          2.854396
  16         V                 1.101858          2.112227
  17         V                 1.342451          2.388752
  18         V                 1.535005          2.496339
  19         V                 1.548324          2.482782
  20         V                 1.648656          2.602561
  21         V                 1.776460          2.488681
  22         V                 1.782635          2.504867
  23         V                 2.127730          3.237606
  24         V                 2.279534          3.034515
  25         V                 2.349491          3.499346
  26         V                 2.600840          3.471549
  27         V                 2.638823          3.466685
  28         V                 2.725793          3.527756
  29         V                 2.869623          3.497305
  30         V                 2.876358          3.530286
  31         V                 2.960162          3.857674
  32         V                 3.282056          5.748720
  33         V                 3.496252          5.238701
  34         V                 3.800135          8.566261
  35         V                 5.262239          6.881338
 Orbital energies and kinetic energies (beta):
                                 1                 2
   1         O               -14.463024         21.999148
   2         O                -0.895568          1.790661
   3         O                -0.539704          1.296744
   4         O                -0.537036          0.651000
   5         O                -0.382774          1.644362
   6         V                -0.020601          1.381912
   7         V                 0.174935          1.025143
   8         V                 0.246030          1.097344
   9         V                 0.258023          0.653891
  10         V                 0.628442          1.525363
  11         V                 0.766995          1.619864
  12         V                 0.808177          2.651819
  13         V                 0.890106          2.500122
  14         V                 0.950466          2.631393
  15         V                 0.958572          2.896708
  16         V                 1.119805          2.130627
  17         V                 1.346072          2.392999
  18         V                 1.565116          2.477415
  19         V                 1.585091          2.487554
  20         V                 1.702137          2.592473
  21         V                 1.777308          2.488679
  22         V                 1.784932          2.508694
  23         V                 2.198702          3.236520
  24         V                 2.277197          3.032406
  25         V                 2.358990          3.502529
  26         V                 2.630205          3.480372
  27         V                 2.660906          3.474695
  28         V                 2.727119          3.527799
  29         V                 2.870101          3.497318
  30         V                 2.877290          3.528345
  31         V                 2.966223          3.859581
  32         V                 3.297909          5.655399
  33         V                 3.507397          5.251726
  34         V                 3.836831          8.682760
  35         V                 5.263000          6.881599
 Total kinetic energy from orbitals= 5.668228282423D+01
                          Isotropic Fermi Contact Couplings
        Atom                 a.u.       MegaHertz       Gauss      10(-4) cm-1
     1  N(14)              0.08457      27.32641       9.75074       9.11511
     2  H(1)              -0.01438     -64.28968     -22.94016     -21.44473
     3  H(1)               0.00092       4.10411       1.46445       1.36898
     4  H(1)              -0.01448     -64.72216     -23.09447     -21.58899
     5  H(1)               0.00487      21.78287       7.77267       7.26598
 --------------------------------------------------------
       Center         ----  Spin Dipole Couplings  ----
                      3XX-RR        3YY-RR        3ZZ-RR
 --------------------------------------------------------
     1   Atom        1.970282     -0.944901     -1.025381
     2   Atom       -0.022867     -0.102227      0.125094
     3   Atom        0.025858     -0.012989     -0.012868
     4   Atom       -0.017063      0.108634     -0.091572
     5   Atom        0.011930     -0.005832     -0.006099
 --------------------------------------------------------
                        XY            XZ            YZ
 --------------------------------------------------------
     1   Atom        0.507766      0.016889     -0.010465
     2   Atom        0.013817      0.000596     -0.005371
     3   Atom        0.001615     -0.005320      0.000419
     4   Atom       -0.021236      0.009134     -0.052561
     5   Atom        0.001937     -0.001643      0.000086
 --------------------------------------------------------


 ---------------------------------------------------------------------------------
              Anisotropic Spin Dipole Couplings in Principal Axis System
 ---------------------------------------------------------------------------------

       Atom             a.u.   MegaHertz   Gauss  10(-4) cm-1        Axes

              Baa    -1.0415   -40.170   -14.334   -13.399 -0.1322  0.7632  0.6325
     1 N(14)  Bbb    -1.0147   -39.136   -13.965   -13.054  0.1018 -0.6243  0.7745
              Bcc     2.0563    79.306    28.298    26.453  0.9860  0.1668  0.0048
 
              Baa    -0.1047   -55.858   -19.931   -18.632 -0.1666  0.9857  0.0235
     2 H(1)   Bbb    -0.0205   -10.954    -3.909    -3.654  0.9860  0.1666  0.0021
              Bcc     0.1252    66.812    23.840    22.286  0.0018 -0.0235  0.9997
 
              Baa    -0.0140    -7.471    -2.666    -2.492  0.1323 -0.5511  0.8239
     3 H(1)   Bbb    -0.0126    -6.740    -2.405    -2.248  0.0412  0.8335  0.5510
              Bcc     0.0266    14.211     5.071     4.740  0.9904  0.0390 -0.1330
 
              Baa    -0.1047   -55.863   -19.933   -18.634 -0.0443  0.2348  0.9710
     4 H(1)   Bbb    -0.0206   -10.965    -3.913    -3.658  0.9864  0.1643  0.0053
              Bcc     0.1253    66.828    23.846    22.291 -0.1583  0.9581 -0.2389
 
              Baa    -0.0064    -3.426    -1.222    -1.143  0.1320 -0.5540  0.8220
     5 H(1)   Bbb    -0.0059    -3.128    -1.116    -1.043 -0.0379  0.8258  0.5627
              Bcc     0.0123     6.553     2.338     2.186  0.9905  0.1055 -0.0880
 

 ---------------------------------------------------------------------------------

 No NMR shielding tensors so no spin-rotation constants.
 Leave Link  601 at Sun Sep 15 21:22:37 2024, MaxMem=   268435456 cpu:         2.6
 (Enter /g100_work/pMI24_ChiCa/g09d1/g09d01/d01/build-node-6-2-59348/src/main/l9999.exe)

 This type of calculation cannot be archived.


 O WAD SOME POWER THE GIFTIE GIE US       
 TO SEE OURSELS AS OTHERS SEE US.....     
 IT WOULD FRAE MONIE A BLUNDER FREE US,   
                     AND FOOLISH NOTION...
 WHAT AIRS IN DRESS AND GAIT WAD LEA'E US,
                     AND EV'N DEVOTION....
                                          
              (ROBERT BURNS 'TO A LOUSE') 
 Job cpu time:       0 days  0 hours 39 minutes 44.2 seconds.
 File lengths (MBytes):  RWF=      5 Int=      0 D2E=      0 Chk=      2 Scr=      1
 Normal termination of Gaussian 09 at Sun Sep 15 21:22:37 2024.
