 Entering Gaussian System, Link 0=/g100_work/pMI24_ChiCa/g09d1/g09d01/d01/build-node-6-2-59348/src/main/g09
 Input=geom.com
 Output=geom.log
 Initial command:
 /g100_work/pMI24_ChiCa/g09d1/g09d01/d01/build-node-6-2-59348/src/main/l1.exe "/g100_scratch/userexternal/ecabiati/g16_14397373/Gau-20388.inp" -scrdir="/g100_scratch/userexternal/ecabiati/g16_14397373/"
 Entering Link 1 = /g100_work/pMI24_ChiCa/g09d1/g09d01/d01/build-node-6-2-59348/src/main/l1.exe PID=     20389.
  
 Copyright (c) 1988,1990,1992,1993,1995,1998,2003,2009,2013,
            Gaussian, Inc.  All Rights Reserved.
  
 This is part of the Gaussian(R) 09 program.  It is based on
 the Gaussian(R) 03 system (copyright 2003, Gaussian, Inc.),
 the Gaussian(R) 98 system (copyright 1998, Gaussian, Inc.),
 the Gaussian(R) 94 system (copyright 1995, Gaussian, Inc.),
 the Gaussian 92(TM) system (copyright 1992, Gaussian, Inc.),
 the Gaussian 90(TM) system (copyright 1990, Gaussian, Inc.),
 the Gaussian 88(TM) system (copyright 1988, Gaussian, Inc.),
 the Gaussian 86(TM) system (copyright 1986, Carnegie Mellon
 University), and the Gaussian 82(TM) system (copyright 1983,
 Carnegie Mellon University). Gaussian is a federally registered
 trademark of Gaussian, Inc.
  
 This software contains proprietary and confidential information,
 including trade secrets, belonging to Gaussian, Inc.
  
 This software is provided under written license and may be
 used, copied, transmitted, or stored only in accord with that
 written license.
  
 The following legend is applicable only to US Government
 contracts under FAR:
  
                    RESTRICTED RIGHTS LEGEND
  
 Use, reproduction and disclosure by the US Government is
 subject to restrictions as set forth in subparagraphs (a)
 and (c) of the Commercial Computer Software - Restricted
 Rights clause in FAR 52.227-19.
  
 Gaussian, Inc.
 340 Quinnipiac St., Bldg. 40, Wallingford CT 06492
  
  
 ---------------------------------------------------------------
 Warning -- This program may not be used in any manner that
 competes with the business of Gaussian, Inc. or will provide
 assistance to any competitor of Gaussian, Inc.  The licensee
 of this program is prohibited from giving any competitor of
 Gaussian, Inc. access to this program.  By using this program,
 the user acknowledges that Gaussian, Inc. is engaged in the
 business of creating and licensing software in the field of
 computational chemistry and represents and warrants to the
 licensee that it is not a competitor of Gaussian, Inc. and that
 it will not use this program in any manner prohibited above.
 ---------------------------------------------------------------
  

 Cite this work as:
 Gaussian 09, Revision D.01,
 M. J. Frisch, G. W. Trucks, H. B. Schlegel, G. E. Scuseria, 
 M. A. Robb, J. R. Cheeseman, G. Scalmani, V. Barone, B. Mennucci, 
 G. A. Petersson, H. Nakatsuji, M. Caricato, X. Li, H. P. Hratchian, 
 A. F. Izmaylov, J. Bloino, G. Zheng, J. L. Sonnenberg, M. Hada, 
 M. Ehara, K. Toyota, R. Fukuda, J. Hasegawa, M. Ishida, T. Nakajima, 
 Y. Honda, O. Kitao, H. Nakai, T. Vreven, J. A. Montgomery, Jr., 
 J. E. Peralta, F. Ogliaro, M. Bearpark, J. J. Heyd, E. Brothers, 
 K. N. Kudin, V. N. Staroverov, T. Keith, R. Kobayashi, J. Normand, 
 K. Raghavachari, A. Rendell, J. C. Burant, S. S. Iyengar, J. Tomasi, 
 M. Cossi, N. Rega, J. M. Millam, M. Klene, J. E. Knox, J. B. Cross, 
 V. Bakken, C. Adamo, J. Jaramillo, R. Gomperts, R. E. Stratmann, 
 O. Yazyev, A. J. Austin, R. Cammi, C. Pomelli, J. W. Ochterski, 
 R. L. Martin, K. Morokuma, V. G. Zakrzewski, G. A. Voth, 
 P. Salvador, J. J. Dannenberg, S. Dapprich, A. D. Daniels, 
 O. Farkas, J. B. Foresman, J. V. Ortiz, J. Cioslowski, 
 and D. J. Fox, Gaussian, Inc., Wallingford CT, 2013.
 
 ******************************************
 Gaussian 09:  EM64L-G09RevD.01 24-Apr-2013
                13-Sep-2024 
 ******************************************
 %nproc=24
 Will use up to   24 processors via shared memory.
 %mem=2Gb
 %chk=ch4+h.chk
 ----------------------------------------------------------------------
 #p B3LYP/6-31+g(d,p) opt=(Z-matrix,maxcycle=50,maxstep=35) temperature
 =300 pop=full gfinput
 ----------------------------------------------------------------------
 1/6=50,8=35,10=7,14=-1,18=40,26=3,38=1,112=300000/1,3;
 2/12=2,17=6,18=5,29=3,40=1/2;
 3/5=1,6=6,7=111,11=2,16=1,24=10,25=1,30=1,71=1,74=-5/1,2,3;
 4//1;
 5/5=2,38=5/2;
 6/7=3,28=1/1;
 7/29=1/1,2,3,16;
 1/6=50,8=35,10=7,14=-1,18=40,26=3/3(2);
 2/29=3/2;
 99//99;
 2/29=3/2;
 3/5=1,6=6,7=111,11=2,16=1,25=1,30=1,71=1,74=-5/1,2,3;
 4/5=5,16=3,69=1/1;
 5/5=2,38=5/2;
 7//1,2,3,16;
 1/6=50,8=35,14=-1,18=40,26=3/3(-5);
 2/29=3/2;
 6/7=3,19=2,28=1/1;
 99/9=1/99;
 Leave Link    1 at Fri Sep 13 16:05:51 2024, MaxMem=   268435456 cpu:         0.2
 (Enter /g100_work/pMI24_ChiCa/g09d1/g09d01/d01/build-node-6-2-59348/src/main/l101.exe)
 -----
 ch4+h
 -----
 Symbolic Z-matrix:
 Charge =  0 Multiplicity = 2
 c
 h                    1    hc2
 h                    1    hc3      2    hch3
 h                    1    hc4      2    hch4     3    dih4     0
 h                    1    hc5      2    hch5     3    dih5     0
 xx                   5    xxh6     1    xxhc6    4    dih6     0
 h                    5    hh7      6    hhxx7    1    dih7     0
       Variables:
  hc2                   1.089                    
  hc3                   1.089                    
  hch3                109.471                    
  hc4                   1.089                    
  hch4                109.471                    
  dih4                120.                       
  hc5                   1.089                    
  hch5                109.471                    
  dih5               -120.                       
  xxh6                  1.                       
  xxhc6                90.                       
  dih6                 90.                       
  hh7                   2.                       
  hhxx7                90.                       
  dih7                180.                       
 
     3 tetrahedral angles replaced.
 NAtoms=      6 NQM=        6 NQMF=       0 NMMI=      0 NMMIF=      0
                NMic=       0 NMicF=      0.
    3 tetrahedral angles replaced.
                    Isotopes and Nuclear Properties:
 (Nuclear quadrupole moments (NQMom) in fm**2, nuclear magnetic moments (NMagM)
  in nuclear magnetons)

  Atom         1           2           3           4           5           6
 IAtWgt=          12           1           1           1           1           1
 AtmWgt=  12.0000000   1.0078250   1.0078250   1.0078250   1.0078250   1.0078250
 NucSpn=           0           1           1           1           1           1
 AtZEff=   0.0000000   0.0000000   0.0000000   0.0000000   0.0000000   0.0000000
 NQMom=    0.0000000   0.0000000   0.0000000   0.0000000   0.0000000   0.0000000
 NMagM=    0.0000000   2.7928460   2.7928460   2.7928460   2.7928460   2.7928460
 AtZNuc=   6.0000000   1.0000000   1.0000000   1.0000000   1.0000000   1.0000000
 Leave Link  101 at Fri Sep 13 16:05:51 2024, MaxMem=   268435456 cpu:         0.2
 (Enter /g100_work/pMI24_ChiCa/g09d1/g09d01/d01/build-node-6-2-59348/src/main/l103.exe)

 GradGradGradGradGradGradGradGradGradGradGradGradGradGradGradGradGradGrad
 Berny optimization.
 Initialization pass.
                       ----------------------------
                       !    Initial Parameters    !
                       ! (Angstroms and Degrees)  !
 ----------------------                            ----------------------
 !      Name          Value   Derivative information (Atomic Units)     !
 ------------------------------------------------------------------------
 !       hc2         1.089    estimate D2E/DX2                          !
 !       hc3         1.089    estimate D2E/DX2                          !
 !      hch3       109.4712   estimate D2E/DX2                          !
 !       hc4         1.089    estimate D2E/DX2                          !
 !      hch4       109.4712   estimate D2E/DX2                          !
 !      dih4       120.0      estimate D2E/DX2                          !
 !       hc5         1.089    estimate D2E/DX2                          !
 !      hch5       109.4712   estimate D2E/DX2                          !
 !      dih5      -120.0      estimate D2E/DX2                          !
 !      xxh6         1.0      estimate D2E/DX2                          !
 !      xxhc6       90.0      estimate D2E/DX2                          !
 !      dih6        90.0      estimate D2E/DX2                          !
 !       hh7         2.0      estimate D2E/DX2                          !
 !      hhxx7       90.0      estimate D2E/DX2                          !
 !      dih7       180.0      estimate D2E/DX2                          !
 ------------------------------------------------------------------------
 Trust Radius=3.50D-01 FncErr=1.00D-07 GrdErr=1.00D-06
 Number of steps in this run=     50 maximum allowed number of steps=    100.
 GradGradGradGradGradGradGradGradGradGradGradGradGradGradGradGradGradGrad

 Leave Link  103 at Fri Sep 13 16:05:51 2024, MaxMem=   268435456 cpu:         0.1
 (Enter /g100_work/pMI24_ChiCa/g09d1/g09d01/d01/build-node-6-2-59348/src/main/l202.exe)
 ---------------------------------------------------------------------------------------------------
                            Z-MATRIX (ANGSTROMS AND DEGREES)
   CD    Cent   Atom    N1       Length/X        N2       Alpha/Y        N3        Beta/Z          J
 ---------------------------------------------------------------------------------------------------
      1      1  C 
      2      2  H        1   1.089000(     1)
      3      3  H        1   1.089000(     2)      2  109.471(     7)
      4      4  H        1   1.089000(     3)      2  109.471(     8)      3  120.000(    12)      0
      5      5  H        1   1.089000(     4)      2  109.471(     9)      3 -120.000(    13)      0
      6         X        5   1.000000(     5)      1   90.000(    10)      4   90.000(    14)      0
      7      6  H        5   2.000000(     6)      6   90.000(    11)      1  180.000(    15)      0
 ---------------------------------------------------------------------------------------------------
                         Z-Matrix orientation:                         
 ---------------------------------------------------------------------
 Center     Atomic      Atomic             Coordinates (Angstroms)
 Number     Number       Type             X           Y           Z
 ---------------------------------------------------------------------
      1          6           0        0.000000    0.000000    0.000000
      2          1           0        0.000000    0.000000    1.089000
      3          1           0        1.026719    0.000000   -0.363000
      4          1           0       -0.513360   -0.889165   -0.363000
      5          1           0       -0.513360    0.889165   -0.363000
      6         -1           0       -1.090710    0.889165    0.453497
      7          1           0       -1.456169    2.522158   -1.029667
 ---------------------------------------------------------------------
                    Distance matrix (angstroms):
                    1          2          3          4          5
     1  C    0.000000
     2  H    1.089000   0.000000
     3  H    1.089000   1.778330   0.000000
     4  H    1.089000   1.778330   1.778330   0.000000
     5  H    1.089000   1.778330   1.778330   1.778330   0.000000
     6  X    1.478486   1.544062   2.437373   2.040210   1.000000
     7  H    3.089000   3.601452   3.601452   3.601452   2.000000
                    6          7
     6  X    0.000000
     7  H    2.236068   0.000000
 Stoichiometry    CH5(2)
 Framework group  C3V[C3(HHC),3SGV(H)]
 Deg. of freedom     4
 Full point group                 C3V     NOp   6
 Largest Abelian subgroup         CS      NOp   2
 Largest concise Abelian subgroup CS      NOp   2
                         Standard orientation:                         
 ---------------------------------------------------------------------
 Center     Atomic      Atomic             Coordinates (Angstroms)
 Number     Number       Type             X           Y           Z
 ---------------------------------------------------------------------
      1          6           0        0.000000   -0.000000    0.280818
      2          1           0        0.000000    1.026719    0.643818
      3          1           0        0.889165   -0.513360    0.643818
      4          1           0       -0.889165   -0.513360    0.643818
      5          1           0       -0.000000    0.000000   -0.808182
      6          1           0       -0.000000    0.000000   -2.808182
 ---------------------------------------------------------------------
 Rotational constants (GHZ):    158.5650837     41.3060407     41.3060407
 Leave Link  202 at Fri Sep 13 16:05:51 2024, MaxMem=   268435456 cpu:         0.2
 (Enter /g100_work/pMI24_ChiCa/g09d1/g09d01/d01/build-node-6-2-59348/src/main/l301.exe)
 Standard basis: 6-31+G(d,p) (6D, 7F)
 Ernie: Thresh=  0.10000D-02 Tol=  0.10000D-05 Strict=F.
 AO basis set in the form of general basis input (Overlap normalization):
      1 0
 S   6 1.00       0.000000000000
      0.3047524880D+04  0.1834737132D-02
      0.4573695180D+03  0.1403732281D-01
      0.1039486850D+03  0.6884262226D-01
      0.2921015530D+02  0.2321844432D+00
      0.9286662960D+01  0.4679413484D+00
      0.3163926960D+01  0.3623119853D+00
 SP   3 1.00       0.000000000000
      0.7868272350D+01 -0.1193324198D+00  0.6899906659D-01
      0.1881288540D+01 -0.1608541517D+00  0.3164239610D+00
      0.5442492580D+00  0.1143456438D+01  0.7443082909D+00
 SP   1 1.00       0.000000000000
      0.1687144782D+00  0.1000000000D+01  0.1000000000D+01
 SP   1 1.00       0.000000000000
      0.4380000000D-01  0.1000000000D+01  0.1000000000D+01
 D   1 1.00       0.000000000000
      0.8000000000D+00  0.1000000000D+01
 ****
      2 0
 S   3 1.00       0.000000000000
      0.1873113696D+02  0.3349460434D-01
      0.2825394365D+01  0.2347269535D+00
      0.6401216923D+00  0.8137573261D+00
 S   1 1.00       0.000000000000
      0.1612777588D+00  0.1000000000D+01
 P   1 1.00       0.000000000000
      0.1100000000D+01  0.1000000000D+01
 ****
      3 0
 S   3 1.00       0.000000000000
      0.1873113696D+02  0.3349460434D-01
      0.2825394365D+01  0.2347269535D+00
      0.6401216923D+00  0.8137573261D+00
 S   1 1.00       0.000000000000
      0.1612777588D+00  0.1000000000D+01
 P   1 1.00       0.000000000000
      0.1100000000D+01  0.1000000000D+01
 ****
      4 0
 S   3 1.00       0.000000000000
      0.1873113696D+02  0.3349460434D-01
      0.2825394365D+01  0.2347269535D+00
      0.6401216923D+00  0.8137573261D+00
 S   1 1.00       0.000000000000
      0.1612777588D+00  0.1000000000D+01
 P   1 1.00       0.000000000000
      0.1100000000D+01  0.1000000000D+01
 ****
      5 0
 S   3 1.00       0.000000000000
      0.1873113696D+02  0.3349460434D-01
      0.2825394365D+01  0.2347269535D+00
      0.6401216923D+00  0.8137573261D+00
 S   1 1.00       0.000000000000
      0.1612777588D+00  0.1000000000D+01
 P   1 1.00       0.000000000000
      0.1100000000D+01  0.1000000000D+01
 ****
      6 0
 S   3 1.00       0.000000000000
      0.1873113696D+02  0.3349460434D-01
      0.2825394365D+01  0.2347269535D+00
      0.6401216923D+00  0.8137573261D+00
 S   1 1.00       0.000000000000
      0.1612777588D+00  0.1000000000D+01
 P   1 1.00       0.000000000000
      0.1100000000D+01  0.1000000000D+01
 ****

 There are    31 symmetry adapted cartesian basis functions of A'  symmetry.
 There are    13 symmetry adapted cartesian basis functions of A"  symmetry.
 There are    31 symmetry adapted basis functions of A'  symmetry.
 There are    13 symmetry adapted basis functions of A"  symmetry.
    44 basis functions,    67 primitive gaussians,    44 cartesian basis functions
     6 alpha electrons        5 beta electrons
       nuclear repulsion energy        15.1809795902 Hartrees.
 IExCor=  402 DFT=T Ex+Corr=B3LYP ExCW=0 ScaHFX=  0.200000
 ScaDFX=  0.800000  0.720000  1.000000  0.810000 ScalE2=  1.000000  1.000000
 IRadAn=      0 IRanWt=     -1 IRanGd=            0 ICorTp=0 IEmpDi=  4
 NAtoms=    6 NActive=    6 NUniq=    4 SFac= 2.25D+00 NAtFMM=   60 NAOKFM=F Big=F
 Integral buffers will be    131072 words long.
 Raffenetti 2 integral format.
 Two-electron integral symmetry is turned on.
 Leave Link  301 at Fri Sep 13 16:05:51 2024, MaxMem=   268435456 cpu:         0.1
 (Enter /g100_work/pMI24_ChiCa/g09d1/g09d01/d01/build-node-6-2-59348/src/main/l302.exe)
 NPDir=0 NMtPBC=     1 NCelOv=     1 NCel=       1 NClECP=     1 NCelD=      1
         NCelK=      1 NCelE2=     1 NClLst=     1 CellRange=     0.0.
 One-electron integrals computed using PRISM.
 One-electron integral symmetry used in STVInt
 NBasis=    44 RedAO= T EigKep=  1.42D-02  NBF=    31    13
 NBsUse=    44 1.00D-06 EigRej= -1.00D+00 NBFU=    31    13
 Precomputing XC quadrature grid using
 IXCGrd= 4 IRadAn=           0 IRanWt=          -1 IRanGd=           0 AccXCQ= 0.00D+00.
 Generated NRdTot=       0 NPtTot=           0 NUsed=           0 NTot=          32
 NSgBfM=    44    44    44    44    44 MxSgAt=     6 MxSgA2=     6.
 Leave Link  302 at Fri Sep 13 16:05:52 2024, MaxMem=   268435456 cpu:         1.3
 (Enter /g100_work/pMI24_ChiCa/g09d1/g09d01/d01/build-node-6-2-59348/src/main/l303.exe)
 DipDrv:  MaxL=1.
 Leave Link  303 at Fri Sep 13 16:05:52 2024, MaxMem=   268435456 cpu:         0.2
 (Enter /g100_work/pMI24_ChiCa/g09d1/g09d01/d01/build-node-6-2-59348/src/main/l401.exe)
 ExpMin= 4.38D-02 ExpMax= 3.05D+03 ExpMxC= 4.57D+02 IAcc=2 IRadAn=         4 AccDes= 0.00D+00
 Harris functional with IExCor=  402 and IRadAn=       4 diagonalized for initial guess.
 HarFok:  IExCor=  402 AccDes= 0.00D+00 IRadAn=         4 IDoV= 1 UseB2=F ITyADJ=14
 ICtDFT=  3500011 ScaDFX=  1.000000  1.000000  1.000000  1.000000
 FoFCou: FMM=F IPFlag=           0 FMFlag=      100000 FMFlg1=           0
         NFxFlg=           0 DoJE=T BraDBF=F KetDBF=T FulRan=T
         wScrn=  0.000000 ICntrl=     500 IOpCl=  0 I1Cent=   200000004 NGrid=           0
         NMat0=    1 NMatS0=      1 NMatT0=    0 NMatD0=    1 NMtDS0=    0 NMtDT0=    0
 Petite list used in FoFCou.
 Harris En= -41.0316991920444    
 JPrj=0 DoOrth=F DoCkMO=F.
 Initial guess orbital symmetries:
 Alpha Orbitals:
       Occupied  (A1) (A1) (A1) (E) (E) (A1)
       Virtual   (A1) (E) (E) (A1) (E) (E) (A1) (A1) (E) (E) (A1)
                 (E) (E) (A1) (A1) (A1) (A1) (E) (E) (E) (E) (A2)
                 (E) (E) (A1) (E) (E) (A1) (E) (E) (A1) (E) (E)
                 (A1) (E) (E) (A1) (A1)
 Beta  Orbitals:
       Occupied  (A1) (A1) (A1) (E) (E)
       Virtual   (A1) (A1) (E) (E) (A1) (E) (E) (A1) (A1) (E) (E)
                 (A1) (E) (E) (A1) (A1) (A1) (A1) (E) (E) (E) (E)
                 (A2) (E) (E) (A1) (E) (E) (A1) (E) (E) (A1) (E)
                 (E) (A1) (E) (E) (A1) (A1)
 The electronic state of the initial guess is 2-A1.
 Initial guess <Sx>= 0.0000 <Sy>= 0.0000 <Sz>= 0.5000 <S**2>= 0.7500 S= 0.5000
 Leave Link  401 at Fri Sep 13 16:05:52 2024, MaxMem=   268435456 cpu:         1.3
 (Enter /g100_work/pMI24_ChiCa/g09d1/g09d01/d01/build-node-6-2-59348/src/main/l502.exe)
 UHF open shell SCF:
 Using DIIS extrapolation, IDIIS=  1040.
 Integral symmetry usage will be decided dynamically.
 Keep R1 and R2 ints in memory in symmetry-blocked form, NReq=1401176.
 IVT=       25902 IEndB=       25902 NGot=   268435456 MDV=   267899095
 LenX=   267899095 LenY=   267896718
 Requested convergence on RMS density matrix=1.00D-08 within 128 cycles.
 Requested convergence on MAX density matrix=1.00D-06.
 Requested convergence on             energy=1.00D-06.
 No special actions if energy rises.
 FoFCou: FMM=F IPFlag=           0 FMFlag=           0 FMFlg1=           0
         NFxFlg=           0 DoJE=F BraDBF=F KetDBF=F FulRan=T
         wScrn=  0.000000 ICntrl=     600 IOpCl=  0 I1Cent=           0 NGrid=           0
         NMat0=    1 NMatS0=    990 NMatT0=    0 NMatD0=    1 NMtDS0=    0 NMtDT0=    0
 Petite list used in FoFCou.

 Cycle   1  Pass 1  IDiag  1:
 E= -40.9278680025027    
 DIIS: error= 4.16D-02 at cycle   1 NSaved=   1.
 NSaved= 1 IEnMin= 1 EnMin= -40.9278680025027     IErMin= 1 ErrMin= 4.16D-02
 ErrMax= 4.16D-02  0.00D+00 EMaxC= 1.00D-01 BMatC= 3.52D-01 BMatP= 3.52D-01
 IDIUse=3 WtCom= 5.84D-01 WtEn= 4.16D-01
 Coeff-Com:  0.100D+01
 Coeff-En:   0.100D+01
 Coeff:      0.100D+01
 Gap=     0.314 Goal=   None    Shift=    0.000
 Gap=     0.167 Goal=   None    Shift=    0.000
 GapD=    0.167 DampG=1.000 DampE=0.500 DampFc=0.5000 IDamp=-1.
 Damping current iteration by 5.00D-01
 RMSDP=1.16D-02 MaxDP=1.57D-01              OVMax= 2.41D-01

 Cycle   2  Pass 1  IDiag  1:
 E= -40.9709143925521     Delta-E=       -0.043046390049 Rises=F Damp=T
 DIIS: error= 1.14D-02 at cycle   2 NSaved=   2.
 NSaved= 2 IEnMin= 2 EnMin= -40.9709143925521     IErMin= 2 ErrMin= 1.14D-02
 ErrMax= 1.14D-02  0.00D+00 EMaxC= 1.00D-01 BMatC= 9.57D-03 BMatP= 3.52D-01
 IDIUse=3 WtCom= 8.86D-01 WtEn= 1.14D-01
 Coeff-Com:  0.888D-01 0.911D+00
 Coeff-En:   0.150D+00 0.850D+00
 Coeff:      0.958D-01 0.904D+00
 Gap=     0.380 Goal=   None    Shift=    0.000
 Gap=     0.288 Goal=   None    Shift=    0.000
 RMSDP=1.43D-03 MaxDP=1.82D-02 DE=-4.30D-02 OVMax= 1.42D-01

 Cycle   3  Pass 1  IDiag  1:
 E= -41.0261507836625     Delta-E=       -0.055236391110 Rises=F Damp=F
 DIIS: error= 6.88D-04 at cycle   3 NSaved=   3.
 NSaved= 3 IEnMin= 3 EnMin= -41.0261507836625     IErMin= 3 ErrMin= 6.88D-04
 ErrMax= 6.88D-04  0.00D+00 EMaxC= 1.00D-01 BMatC= 3.05D-05 BMatP= 9.57D-03
 IDIUse=3 WtCom= 9.93D-01 WtEn= 6.88D-03
 Coeff-Com: -0.240D-02-0.316D-01 0.103D+01
 Coeff-En:   0.000D+00 0.000D+00 0.100D+01
 Coeff:     -0.238D-02-0.314D-01 0.103D+01
 Gap=     0.335 Goal=   None    Shift=    0.000
 Gap=     0.311 Goal=   None    Shift=    0.000
 RMSDP=1.77D-04 MaxDP=3.25D-03 DE=-5.52D-02 OVMax= 6.67D-03

 Cycle   4  Pass 1  IDiag  1:
 E= -41.0261788968595     Delta-E=       -0.000028113197 Rises=F Damp=F
 DIIS: error= 1.58D-04 at cycle   4 NSaved=   4.
 NSaved= 4 IEnMin= 4 EnMin= -41.0261788968595     IErMin= 4 ErrMin= 1.58D-04
 ErrMax= 1.58D-04  0.00D+00 EMaxC= 1.00D-01 BMatC= 9.24D-07 BMatP= 3.05D-05
 IDIUse=3 WtCom= 9.98D-01 WtEn= 1.58D-03
 Coeff-Com:  0.616D-03 0.313D-02-0.160D+00 0.116D+01
 Coeff-En:   0.000D+00 0.000D+00 0.000D+00 0.100D+01
 Coeff:      0.615D-03 0.312D-02-0.160D+00 0.116D+01
 Gap=     0.335 Goal=   None    Shift=    0.000
 Gap=     0.313 Goal=   None    Shift=    0.000
 RMSDP=2.80D-05 MaxDP=4.18D-04 DE=-2.81D-05 OVMax= 1.53D-03

 Cycle   5  Pass 1  IDiag  1:
 E= -41.0261799061582     Delta-E=       -0.000001009299 Rises=F Damp=F
 DIIS: error= 2.14D-05 at cycle   5 NSaved=   5.
 NSaved= 5 IEnMin= 5 EnMin= -41.0261799061582     IErMin= 5 ErrMin= 2.14D-05
 ErrMax= 2.14D-05  0.00D+00 EMaxC= 1.00D-01 BMatC= 5.87D-08 BMatP= 9.24D-07
 IDIUse=1 WtCom= 1.00D+00 WtEn= 0.00D+00
 Coeff-Com: -0.195D-03 0.665D-03-0.255D-01 0.601D-01 0.965D+00
 Coeff:     -0.195D-03 0.665D-03-0.255D-01 0.601D-01 0.965D+00
 Gap=     0.335 Goal=   None    Shift=    0.000
 Gap=     0.313 Goal=   None    Shift=    0.000
 RMSDP=3.83D-06 MaxDP=6.31D-05 DE=-1.01D-06 OVMax= 1.57D-04

 Cycle   6  Pass 1  IDiag  1:
 E= -41.0261799308980     Delta-E=       -0.000000024740 Rises=F Damp=F
 DIIS: error= 5.38D-06 at cycle   6 NSaved=   6.
 NSaved= 6 IEnMin= 6 EnMin= -41.0261799308980     IErMin= 6 ErrMin= 5.38D-06
 ErrMax= 5.38D-06  0.00D+00 EMaxC= 1.00D-01 BMatC= 3.74D-09 BMatP= 5.87D-08
 IDIUse=1 WtCom= 1.00D+00 WtEn= 0.00D+00
 Coeff-Com: -0.858D-04-0.423D-04 0.402D-02-0.518D-01 0.173D+00 0.875D+00
 Coeff:     -0.858D-04-0.423D-04 0.402D-02-0.518D-01 0.173D+00 0.875D+00
 Gap=     0.335 Goal=   None    Shift=    0.000
 Gap=     0.313 Goal=   None    Shift=    0.000
 RMSDP=8.48D-07 MaxDP=1.52D-05 DE=-2.47D-08 OVMax= 2.44D-05

 Cycle   7  Pass 1  IDiag  1:
 E= -41.0261799322939     Delta-E=       -0.000000001396 Rises=F Damp=F
 DIIS: error= 9.78D-07 at cycle   7 NSaved=   7.
 NSaved= 7 IEnMin= 7 EnMin= -41.0261799322939     IErMin= 7 ErrMin= 9.78D-07
 ErrMax= 9.78D-07  0.00D+00 EMaxC= 1.00D-01 BMatC= 1.80D-10 BMatP= 3.74D-09
 IDIUse=1 WtCom= 1.00D+00 WtEn= 0.00D+00
 Coeff-Com:  0.281D-04-0.379D-04 0.137D-02-0.466D-03-0.671D-01-0.571D-01
 Coeff-Com:  0.112D+01
 Coeff:      0.281D-04-0.379D-04 0.137D-02-0.466D-03-0.671D-01-0.571D-01
 Coeff:      0.112D+01
 Gap=     0.335 Goal=   None    Shift=    0.000
 Gap=     0.313 Goal=   None    Shift=    0.000
 RMSDP=2.94D-07 MaxDP=3.61D-06 DE=-1.40D-09 OVMax= 6.19D-06

 Cycle   8  Pass 1  IDiag  1:
 E= -41.0261799324036     Delta-E=       -0.000000000110 Rises=F Damp=F
 DIIS: error= 2.10D-07 at cycle   8 NSaved=   8.
 NSaved= 8 IEnMin= 8 EnMin= -41.0261799324036     IErMin= 8 ErrMin= 2.10D-07
 ErrMax= 2.10D-07  0.00D+00 EMaxC= 1.00D-01 BMatC= 7.24D-12 BMatP= 1.80D-10
 IDIUse=1 WtCom= 1.00D+00 WtEn= 0.00D+00
 Coeff-Com: -0.373D-05 0.966D-05-0.481D-03 0.181D-02 0.987D-02-0.159D-01
 Coeff-Com: -0.310D+00 0.132D+01
 Coeff:     -0.373D-05 0.966D-05-0.481D-03 0.181D-02 0.987D-02-0.159D-01
 Coeff:     -0.310D+00 0.132D+01
 Gap=     0.335 Goal=   None    Shift=    0.000
 Gap=     0.313 Goal=   None    Shift=    0.000
 RMSDP=8.57D-08 MaxDP=1.07D-06 DE=-1.10D-10 OVMax= 2.22D-06

 Cycle   9  Pass 1  IDiag  1:
 E= -41.0261799324106     Delta-E=       -0.000000000007 Rises=F Damp=F
 DIIS: error= 3.32D-08 at cycle   9 NSaved=   9.
 NSaved= 9 IEnMin= 9 EnMin= -41.0261799324106     IErMin= 9 ErrMin= 3.32D-08
 ErrMax= 3.32D-08  0.00D+00 EMaxC= 1.00D-01 BMatC= 1.73D-13 BMatP= 7.24D-12
 IDIUse=1 WtCom= 1.00D+00 WtEn= 0.00D+00
 Coeff-Com: -0.578D-06 0.227D-07 0.152D-04-0.233D-03 0.833D-03 0.289D-02
 Coeff-Com:  0.273D-02-0.167D+00 0.116D+01
 Coeff:     -0.578D-06 0.227D-07 0.152D-04-0.233D-03 0.833D-03 0.289D-02
 Coeff:      0.273D-02-0.167D+00 0.116D+01
 Gap=     0.335 Goal=   None    Shift=    0.000
 Gap=     0.313 Goal=   None    Shift=    0.000
 RMSDP=1.19D-08 MaxDP=1.40D-07 DE=-7.03D-12 OVMax= 2.31D-07

 Cycle  10  Pass 1  IDiag  1:
 E= -41.0261799324107     Delta-E=       -0.000000000000 Rises=F Damp=F
 DIIS: error= 4.98D-09 at cycle  10 NSaved=  10.
 NSaved=10 IEnMin=10 EnMin= -41.0261799324107     IErMin=10 ErrMin= 4.98D-09
 ErrMax= 4.98D-09  0.00D+00 EMaxC= 1.00D-01 BMatC= 3.51D-15 BMatP= 1.73D-13
 IDIUse=1 WtCom= 1.00D+00 WtEn= 0.00D+00
 Coeff-Com:  0.115D-06-0.207D-06 0.118D-04-0.462D-04-0.253D-03 0.551D-03
 Coeff-Com:  0.792D-02-0.366D-01 0.558D-02 0.102D+01
 Coeff:      0.115D-06-0.207D-06 0.118D-04-0.462D-04-0.253D-03 0.551D-03
 Coeff:      0.792D-02-0.366D-01 0.558D-02 0.102D+01
 Gap=     0.335 Goal=   None    Shift=    0.000
 Gap=     0.313 Goal=   None    Shift=    0.000
 RMSDP=1.43D-09 MaxDP=1.98D-08 DE=-5.68D-14 OVMax= 2.45D-08

 SCF Done:  E(UB3LYP) =  -41.0261799324     A.U. after   10 cycles
            NFock= 10  Conv=0.14D-08     -V/T= 2.0105
 <Sx>= 0.0000 <Sy>= 0.0000 <Sz>= 0.5000 <S**2>= 0.7503 S= 0.5002
 <L.S>=  0.00000000000    
 KE= 4.060158270767D+01 PE=-1.243858905872D+02 EE= 2.757714835693D+01
 Annihilation of the first spin contaminant:
 S**2 before annihilation     0.7503,   after     0.7500
 Leave Link  502 at Fri Sep 13 16:05:52 2024, MaxMem=   268435456 cpu:         4.6
 (Enter /g100_work/pMI24_ChiCa/g09d1/g09d01/d01/build-node-6-2-59348/src/main/l601.exe)
 Copying SCF densities to generalized density rwf, IOpCl= 1 IROHF=0.

 **********************************************************************

            Population analysis using the SCF density.

 **********************************************************************

 Orbital symmetries:
 Alpha Orbitals:
       Occupied  (A1) (A1) (A1) (E) (E) (A1)
       Virtual   (A1) (E) (E) (A1) (E) (E) (A1) (A1) (E) (E) (A1)
                 (A1) (E) (E) (A1) (A1) (A1) (E) (E) (E) (E) (E)
                 (E) (A2) (A1) (E) (E) (A1) (E) (E) (A1) (E) (E)
                 (A1) (E) (E) (A1) (A1)
 Beta  Orbitals:
       Occupied  (A1) (A1) (A1) (E) (E)
       Virtual   (A1) (A1) (E) (E) (A1) (E) (E) (A1) (A1) (E) (E)
                 (A1) (E) (E) (A1) (A1) (A1) (A1) (E) (E) (E) (E)
                 (A2) (E) (E) (A1) (E) (E) (A1) (E) (E) (A1) (E)
                 (E) (A1) (E) (E) (A1) (A1)
 The electronic state is 2-A1.
 Alpha  occ. eigenvalues --  -10.17073  -0.69805  -0.40342  -0.39455  -0.39455
 Alpha  occ. eigenvalues --   -0.31217
 Alpha virt. eigenvalues --    0.02321   0.05982   0.05982   0.07854   0.18218
 Alpha virt. eigenvalues --    0.18218   0.20191   0.27391   0.63737   0.63737
 Alpha virt. eigenvalues --    0.64265   0.78921   0.91102   0.91102   0.92411
 Alpha virt. eigenvalues --    1.06243   1.12644   1.35651   1.35651   1.94761
 Alpha virt. eigenvalues --    1.94761   2.04369   2.04369   2.04397   2.07704
 Alpha virt. eigenvalues --    2.08979   2.08979   2.10926   2.62871   2.62871
 Alpha virt. eigenvalues --    2.64655   2.91214   2.91214   3.18181   3.42043
 Alpha virt. eigenvalues --    3.42043   3.43711   4.43829
  Beta  occ. eigenvalues --  -10.17008  -0.69632  -0.39547  -0.39413  -0.39413
  Beta virt. eigenvalues --   -0.08067   0.02712   0.05943   0.05943   0.08773
  Beta virt. eigenvalues --    0.18235   0.18235   0.21610   0.27478   0.63750
  Beta virt. eigenvalues --    0.63750   0.64552   0.91152   0.91152   0.93086
  Beta virt. eigenvalues --    0.96599   1.07520   1.13389   1.35778   1.35778
  Beta virt. eigenvalues --    2.04350   2.04350   2.04393   2.08967   2.08967
  Beta virt. eigenvalues --    2.09330   2.16179   2.16179   2.27958   2.62866
  Beta virt. eigenvalues --    2.62866   2.65070   2.91266   2.91266   3.18280
  Beta virt. eigenvalues --    3.42096   3.42096   3.43883   4.43989
     Alpha Molecular Orbital Coefficients:
                           1         2         3         4         5
                        (A1)--O   (A1)--O   (A1)--O   (E)--O    (E)--O
     Eigenvalues --   -10.17073  -0.69805  -0.40342  -0.39455  -0.39455
   1 1   C  1S          0.99285  -0.19990  -0.00426  -0.00000   0.00000
   2        2S          0.04994   0.38649   0.00659  -0.00000   0.00000
   3        2PX         0.00000   0.00000   0.00000   0.00000   0.44546
   4        2PY         0.00000  -0.00000  -0.00000   0.44546   0.00000
   5        2PZ        -0.00004  -0.00196   0.41743   0.00000   0.00000
   6        3S         -0.01601   0.35761   0.02011   0.00000   0.00000
   7        3PX         0.00000   0.00000   0.00000   0.00000   0.19687
   8        3PY        -0.00000   0.00000  -0.00000   0.19687   0.00000
   9        3PZ         0.00040  -0.00011   0.17531   0.00000   0.00000
  10        4S         -0.00052   0.01424  -0.00437   0.00000   0.00000
  11        4PX         0.00000   0.00000   0.00000   0.00000   0.03639
  12        4PY         0.00000   0.00000   0.00000   0.03639   0.00000
  13        4PZ        -0.00019   0.00078   0.03705   0.00000   0.00000
  14        5XX        -0.00914  -0.00973   0.01046  -0.01618   0.00000
  15        5YY        -0.00914  -0.00973   0.01046   0.01618   0.00000
  16        5ZZ        -0.00917  -0.00900  -0.02221  -0.00000   0.00000
  17        5XY         0.00000   0.00000   0.00000   0.00000  -0.01868
  18        5XZ         0.00000   0.00000   0.00000   0.00000   0.01309
  19        5YZ         0.00000  -0.00000  -0.00000   0.01309   0.00000
  20 2   H  1S         -0.00025   0.13829   0.09550   0.28073   0.00000
  21        2S          0.00299   0.03576   0.07495   0.22317   0.00000
  22        3PX         0.00000   0.00000   0.00000   0.00000   0.00862
  23        3PY         0.00015  -0.01225  -0.00486  -0.00521   0.00000
  24        3PZ         0.00003  -0.00433   0.00640  -0.00481   0.00000
  25 3   H  1S         -0.00025   0.13829   0.09550  -0.14036   0.24312
  26        2S          0.00299   0.03576   0.07495  -0.11159   0.19327
  27        3PX         0.00013  -0.01061  -0.00421   0.00599  -0.00176
  28        3PY        -0.00008   0.00612   0.00243   0.00516   0.00599
  29        3PZ         0.00003  -0.00433   0.00640   0.00241  -0.00417
  30 4   H  1S         -0.00025   0.13829   0.09550  -0.14036  -0.24312
  31        2S          0.00299   0.03576   0.07495  -0.11159  -0.19327
  32        3PX        -0.00013   0.01061   0.00421  -0.00599  -0.00176
  33        3PY        -0.00008   0.00612   0.00243   0.00516  -0.00599
  34        3PZ         0.00003  -0.00433   0.00640   0.00241   0.00417
  35 5   H  1S         -0.00028   0.13964  -0.28199  -0.00000   0.00000
  36        2S          0.00359   0.03716  -0.23444  -0.00000   0.00000
  37        3PX         0.00000   0.00000   0.00000   0.00000   0.00867
  38        3PY        -0.00000  -0.00000  -0.00000   0.00867   0.00000
  39        3PZ        -0.00011   0.01301  -0.00563   0.00000   0.00000
  40 6   H  1S          0.00007   0.00694  -0.11955  -0.00000   0.00000
  41        2S         -0.00050   0.00739  -0.15019  -0.00000   0.00000
  42        3PX         0.00000   0.00000   0.00000   0.00000   0.00031
  43        3PY        -0.00000  -0.00000   0.00000   0.00031   0.00000
  44        3PZ        -0.00014   0.00114  -0.00368  -0.00000   0.00000
                           6         7         8         9        10
                        (A1)--O   (A1)--V   (E)--V    (E)--V    (A1)--V
     Eigenvalues --    -0.31217   0.02321   0.05982   0.05982   0.07854
   1 1   C  1S          0.01412   0.08576   0.00000   0.00000  -0.01755
   2        2S         -0.03315  -0.17659   0.00000  -0.00000   0.03990
   3        2PX         0.00000   0.00000  -0.17805   0.00000   0.00000
   4        2PY         0.00000  -0.00000   0.00000  -0.17805   0.00000
   5        2PZ         0.17786  -0.06118   0.00000  -0.00000  -0.09893
   6        3S         -0.03896  -0.59415   0.00000  -0.00000   0.09978
   7        3PX         0.00000   0.00000  -0.17265   0.00000   0.00000
   8        3PY         0.00000  -0.00000   0.00000  -0.17265   0.00000
   9        3PZ         0.10111  -0.09840   0.00000   0.00000   0.06935
  10        4S          0.05678   1.46684   0.00000   0.00000  -0.46532
  11        4PX         0.00000   0.00000   1.17898   0.00000   0.00000
  12        4PY         0.00000  -0.00000   0.00000   1.17898   0.00000
  13        4PZ        -0.01733   0.24832   0.00000   0.00000   1.27824
  14        5XX         0.00416   0.01036   0.00000   0.00803  -0.01006
  15        5YY         0.00416   0.01036   0.00000  -0.00803  -0.01006
  16        5ZZ        -0.00602   0.01370   0.00000  -0.00000   0.01189
  17        5XY         0.00000   0.00000   0.00927   0.00000   0.00000
  18        5XZ         0.00000   0.00000  -0.00649   0.00000   0.00000
  19        5YZ         0.00000   0.00000   0.00000  -0.00649  -0.00000
  20 2   H  1S          0.02914   0.00712   0.00000  -0.05292  -0.02554
  21        2S          0.01439  -0.09276   0.00000  -0.23391  -0.13291
  22        3PX         0.00000   0.00000   0.00272   0.00000   0.00000
  23        3PY        -0.00082   0.01291   0.00000   0.00956  -0.00160
  24        3PZ         0.00333   0.00458   0.00000   0.00241   0.00496
  25 3   H  1S          0.02914   0.00712  -0.04583   0.02646  -0.02554
  26        2S          0.01439  -0.09276  -0.20258   0.11696  -0.13291
  27        3PX        -0.00071   0.01118   0.00785  -0.00296  -0.00138
  28        3PY         0.00041  -0.00645  -0.00296   0.00443   0.00080
  29        3PZ         0.00333   0.00458   0.00209  -0.00120   0.00496
  30 4   H  1S          0.02914   0.00712   0.04583   0.02646  -0.02554
  31        2S          0.01439  -0.09276   0.20258   0.11696  -0.13291
  32        3PX         0.00071  -0.01118   0.00785   0.00296   0.00138
  33        3PY         0.00041  -0.00645   0.00296   0.00443   0.00080
  34        3PZ         0.00333   0.00458  -0.00209  -0.00120   0.00496
  35 5   H  1S         -0.09074   0.02223   0.00000  -0.00000   0.07302
  36        2S         -0.07304  -0.11197   0.00000   0.00000   0.63394
  37        3PX         0.00000   0.00000   0.00271   0.00000   0.00000
  38        3PY         0.00000   0.00000   0.00000   0.00271  -0.00000
  39        3PZ        -0.00827  -0.00992   0.00000  -0.00000   0.01078
  40 6   H  1S          0.41581  -0.05654   0.00000  -0.00000   0.09257
  41        2S          0.62581  -0.11798   0.00000  -0.00000   0.36068
  42        3PX         0.00000   0.00000   0.00637   0.00000   0.00000
  43        3PY         0.00000   0.00000   0.00000   0.00637   0.00000
  44        3PZ        -0.00068   0.00459   0.00000   0.00000  -0.00259
                          11        12        13        14        15
                        (E)--V    (E)--V    (A1)--V   (A1)--V   (E)--V
     Eigenvalues --     0.18218   0.18218   0.20191   0.27391   0.63737
   1 1   C  1S          0.00000  -0.00000   0.01516  -0.15638   0.00000
   2        2S          0.00000   0.00000  -0.03426   0.19105   0.00000
   3        2PX        -0.32246   0.00000   0.00000   0.00000  -0.92512
   4        2PY         0.00000  -0.32246   0.00000   0.00000   0.00000
   5        2PZ         0.00000   0.00000   0.37616   0.00641   0.00000
   6        3S          0.00000   0.00000  -0.19402   3.20513   0.00000
   7        3PX        -1.39759   0.00000   0.00000   0.00000   1.66598
   8        3PY         0.00000  -1.39759   0.00000   0.00000   0.00000
   9        3PZ         0.00000   0.00000   1.42131   0.04927   0.00000
  10        4S          0.00000   0.00000   0.15989   1.83554   0.00000
  11        4PX        -0.30930   0.00000   0.00000   0.00000  -0.57451
  12        4PY         0.00000  -0.30930   0.00000   0.00000   0.00000
  13        4PZ         0.00000   0.00000  -0.01464   0.03676   0.00000
  14        5XX         0.00000  -0.01978  -0.01323  -0.01412   0.00000
  15        5YY         0.00000   0.01978  -0.01323  -0.01412   0.00000
  16        5ZZ         0.00000   0.00000   0.02919  -0.00867   0.00000
  17        5XY        -0.02284   0.00000   0.00000   0.00000   0.03481
  18        5XZ         0.01637   0.00000   0.00000   0.00000  -0.02450
  19        5YZ         0.00000   0.01637   0.00000  -0.00000   0.00000
  20 2   H  1S          0.00000   0.16388  -0.05544  -0.07474   0.00000
  21        2S          0.00000   1.87735  -0.60530  -1.64828   0.00000
  22        3PX        -0.01349   0.00000   0.00000   0.00000   0.01379
  23        3PY         0.00000  -0.00062  -0.00460  -0.00538   0.00000
  24        3PZ         0.00000   0.00459   0.01162  -0.00068   0.00000
  25 3   H  1S          0.14193  -0.08194  -0.05544  -0.07474  -0.26049
  26        2S          1.62583  -0.93867  -0.60530  -1.64828  -0.14722
  27        3PX        -0.00384  -0.00557  -0.00398  -0.00466   0.05132
  28        3PY        -0.00557  -0.01027   0.00230   0.00269  -0.02166
  29        3PZ         0.00397  -0.00229   0.01162  -0.00068   0.01533
  30 4   H  1S         -0.14193  -0.08194  -0.05544  -0.07474   0.26049
  31        2S         -1.62583  -0.93867  -0.60530  -1.64828   0.14722
  32        3PX        -0.00384   0.00557   0.00398   0.00466   0.05132
  33        3PY         0.00557  -0.01027   0.00230   0.00269   0.02166
  34        3PZ        -0.00397  -0.00229   0.01162  -0.00068  -0.01533
  35 5   H  1S          0.00000   0.00000   0.16735  -0.05141   0.00000
  36        2S          0.00000   0.00000   2.01211  -1.57115   0.00000
  37        3PX        -0.01360   0.00000   0.00000   0.00000   0.01378
  38        3PY         0.00000  -0.01360   0.00000   0.00000   0.00000
  39        3PZ         0.00000  -0.00000  -0.00528   0.00448   0.00000
  40 6   H  1S          0.00000  -0.00000  -0.10770  -0.02826   0.00000
  41        2S          0.00000  -0.00000  -0.31890   0.05757   0.00000
  42        3PX        -0.00409   0.00000   0.00000   0.00000  -0.00427
  43        3PY         0.00000  -0.00409   0.00000   0.00000   0.00000
  44        3PZ         0.00000   0.00000   0.03039  -0.01808   0.00000
                          16        17        18        19        20
                        (E)--V    (A1)--V   (A1)--V   (E)--V    (E)--V
     Eigenvalues --     0.63737   0.64265   0.78921   0.91102   0.91102
   1 1   C  1S         -0.00000   0.00200   0.00908   0.00000   0.00000
   2        2S          0.00000  -0.05710  -0.02319   0.00000   0.00000
   3        2PX         0.00000   0.00000   0.00000   0.56736   0.00000
   4        2PY        -0.92512  -0.00000  -0.00000   0.00000   0.56736
   5        2PZ         0.00000  -0.87808   0.05882   0.00000   0.00000
   6        3S         -0.00000   0.08944   0.18805   0.00000  -0.00000
   7        3PX         0.00000   0.00000   0.00000  -0.98477   0.00000
   8        3PY         1.66598   0.00000  -0.00000   0.00000  -0.98477
   9        3PZ        -0.00000   1.67647  -0.48904   0.00000  -0.00000
  10        4S          0.00000   0.02334  -0.21784   0.00000  -0.00000
  11        4PX         0.00000   0.00000   0.00000  -0.35980   0.00000
  12        4PY        -0.57451  -0.00000  -0.00000   0.00000  -0.35980
  13        4PZ         0.00000  -0.62907   0.34823   0.00000  -0.00000
  14        5XX         0.03015  -0.03349   0.01758   0.00000   0.19954
  15        5YY        -0.03015  -0.03349   0.01758   0.00000  -0.19954
  16        5ZZ        -0.00000   0.05684  -0.01360   0.00000   0.00000
  17        5XY         0.00000   0.00000   0.00000   0.23041   0.00000
  18        5XZ         0.00000   0.00000   0.00000  -0.16361   0.00000
  19        5YZ        -0.02450  -0.00000  -0.00000   0.00000  -0.16361
  20 2   H  1S         -0.30079  -0.12355   0.12004   0.00000  -0.89291
  21        2S         -0.17000  -0.06682   0.04586   0.00000   1.87690
  22        3PX         0.00000   0.00000   0.00000   0.06057   0.00000
  23        3PY         0.06382   0.01552   0.00885   0.00000  -0.07259
  24        3PZ         0.01770   0.02429  -0.00182   0.00000  -0.04727
  25 3   H  1S          0.15040  -0.12355   0.12004  -0.77328   0.44645
  26        2S          0.08500  -0.06682   0.04586   1.62544  -0.93845
  27        3PX        -0.02166   0.01344   0.00767  -0.03930   0.05766
  28        3PY         0.02630  -0.00776  -0.00443   0.05766   0.02728
  29        3PZ        -0.00885   0.02429  -0.00182  -0.04094   0.02363
  30 4   H  1S          0.15040  -0.12355   0.12004   0.77328   0.44645
  31        2S          0.08500  -0.06682   0.04586  -1.62544  -0.93845
  32        3PX         0.02166  -0.01344  -0.00767  -0.03930  -0.05766
  33        3PY         0.02630  -0.00776  -0.00443  -0.05766   0.02728
  34        3PZ        -0.00885   0.02429  -0.00182   0.04094   0.02363
  35 5   H  1S         -0.00000   0.37922   0.04141   0.00000   0.00000
  36        2S         -0.00000   0.13253  -0.53280   0.00000  -0.00000
  37        3PX         0.00000   0.00000   0.00000   0.06084   0.00000
  38        3PY         0.01378   0.00000   0.00000   0.00000   0.06084
  39        3PZ        -0.00000   0.06186  -0.03475   0.00000  -0.00000
  40 6   H  1S          0.00000  -0.12017  -1.26764   0.00000   0.00000
  41        2S         -0.00000  -0.02604   1.41643   0.00000   0.00000
  42        3PX         0.00000   0.00000   0.00000  -0.01243   0.00000
  43        3PY        -0.00427   0.00000  -0.00000   0.00000  -0.01243
  44        3PZ         0.00000  -0.01284  -0.03912   0.00000  -0.00000
                          21        22        23        24        25
                        (A1)--V   (A1)--V   (A1)--V   (E)--V    (E)--V
     Eigenvalues --     0.92411   1.06243   1.12644   1.35651   1.35651
   1 1   C  1S         -0.01264   0.09945  -0.08093   0.00000  -0.00000
   2        2S         -0.12666  -0.25722  -2.24841   0.00000  -0.00000
   3        2PX         0.00000   0.00000   0.00000   0.00059   0.00000
   4        2PY         0.00000  -0.00000  -0.00000   0.00000   0.00059
   5        2PZ        -0.62231  -0.06247   0.07186   0.00000   0.00000
   6        3S          0.35049   0.63639   6.20035   0.00000   0.00000
   7        3PX         0.00000   0.00000   0.00000  -0.00018   0.00000
   8        3PY        -0.00000   0.00000   0.00000   0.00000  -0.00018
   9        3PZ         1.19936   0.20611  -0.21937   0.00000  -0.00000
  10        4S          0.07039   1.00701   0.39781   0.00000   0.00000
  11        4PX         0.00000   0.00000   0.00000  -0.00022   0.00000
  12        4PY        -0.00000   0.00000   0.00000   0.00000  -0.00022
  13        4PZ         0.20987  -0.04149   0.09615   0.00000   0.00000
  14        5XX         0.12252   0.07779  -0.08639   0.00000   0.33364
  15        5YY         0.12252   0.07779  -0.08639   0.00000  -0.33364
  16        5ZZ        -0.28501   0.04566  -0.07415   0.00000   0.00000
  17        5XY         0.00000   0.00000   0.00000   0.38525   0.00000
  18        5XZ         0.00000   0.00000   0.00000   0.54521   0.00000
  19        5YZ        -0.00000  -0.00000  -0.00000   0.00000   0.54521
  20 2   H  1S          0.24117   0.72873  -0.10628   0.00000  -0.00099
  21        2S         -0.74725  -0.97167  -1.41092   0.00000   0.00099
  22        3PX         0.00000   0.00000   0.00000   0.24543   0.00000
  23        3PY         0.04340   0.06711   0.03058   0.00000  -0.08193
  24        3PZ        -0.04034   0.02076   0.00952   0.00000   0.23119
  25 3   H  1S          0.24117   0.72873  -0.10628  -0.00085   0.00049
  26        2S         -0.74725  -0.97167  -1.41092   0.00086  -0.00050
  27        3PX         0.03758   0.05812   0.02649  -0.00009   0.14175
  28        3PY        -0.02170  -0.03355  -0.01529   0.14175   0.16359
  29        3PZ        -0.04034   0.02076   0.00952   0.20022  -0.11560
  30 4   H  1S          0.24117   0.72873  -0.10628   0.00085   0.00049
  31        2S         -0.74725  -0.97167  -1.41092  -0.00086  -0.00050
  32        3PX        -0.03758  -0.05812  -0.02649  -0.00009  -0.14175
  33        3PY        -0.02170  -0.03355  -0.01529  -0.14175   0.16359
  34        3PZ        -0.04034   0.02076   0.00952  -0.20022  -0.11560
  35 5   H  1S         -0.98087   0.62165  -0.04137   0.00000   0.00000
  36        2S          2.05108  -0.57215  -1.71129   0.00000  -0.00000
  37        3PX         0.00000   0.00000   0.00000  -0.24567   0.00000
  38        3PY         0.00000   0.00000   0.00000   0.00000  -0.24567
  39        3PZ         0.09867  -0.05505  -0.04520   0.00000  -0.00000
  40 6   H  1S          0.02078   0.22182  -0.03224   0.00000  -0.00000
  41        2S         -0.25818  -0.27772   0.23666   0.00000   0.00000
  42        3PX         0.00000   0.00000   0.00000  -0.00127   0.00000
  43        3PY        -0.00000   0.00000   0.00000   0.00000  -0.00127
  44        3PZ         0.10505  -0.01215  -0.11909   0.00000   0.00000
                          26        27        28        29        30
                        (E)--V    (E)--V    (E)--V    (E)--V    (A2)--V
     Eigenvalues --     1.94761   1.94761   2.04369   2.04369   2.04397
   1 1   C  1S         -0.00000   0.00000   0.00000  -0.00000   0.00000
   2        2S         -0.00000   0.00000   0.00000  -0.00000   0.00000
   3        2PX         0.00000   0.00961  -0.00020   0.00000   0.00000
   4        2PY         0.00961   0.00000   0.00000  -0.00020   0.00000
   5        2PZ         0.00000   0.00000   0.00000   0.00000   0.00000
   6        3S          0.00000   0.00000   0.00000   0.00000   0.00000
   7        3PX         0.00000  -0.03598  -0.00029   0.00000  -0.00000
   8        3PY        -0.03598   0.00000   0.00000  -0.00029   0.00000
   9        3PZ        -0.00000   0.00000   0.00000  -0.00000   0.00000
  10        4S          0.00000   0.00000   0.00000   0.00000   0.00000
  11        4PX         0.00000  -0.04753   0.00125   0.00000  -0.00000
  12        4PY        -0.04753   0.00000   0.00000   0.00125   0.00000
  13        4PZ         0.00000   0.00000   0.00000   0.00000   0.00000
  14        5XX         0.02426   0.00000   0.00000   0.00012   0.00000
  15        5YY        -0.02426   0.00000   0.00000  -0.00012   0.00000
  16        5ZZ         0.00000   0.00000   0.00000   0.00000   0.00000
  17        5XY         0.00000   0.02801   0.00013   0.00000   0.00000
  18        5XZ         0.00000  -0.01677   0.00012   0.00000  -0.00000
  19        5YZ        -0.01677   0.00000   0.00000   0.00012   0.00000
  20 2   H  1S          0.00551   0.00000   0.00000   0.00067   0.00000
  21        2S          0.05686   0.00000   0.00000  -0.00127   0.00000
  22        3PX         0.00000   0.00400  -0.20521   0.00000   0.58157
  23        3PY         0.01205   0.00000   0.00000  -0.20561   0.00000
  24        3PZ         0.01428   0.00000   0.00000   0.58139   0.00000
  25 3   H  1S         -0.00275   0.00477   0.00058  -0.00033   0.00000
  26        2S         -0.02843   0.04925  -0.00110   0.00063   0.00000
  27        3PX        -0.00349   0.01004  -0.20551   0.00017  -0.29079
  28        3PY         0.00601  -0.00349   0.00017  -0.20531  -0.50366
  29        3PZ        -0.00714   0.01236   0.50349  -0.29069  -0.00000
  30 4   H  1S         -0.00275  -0.00477  -0.00058  -0.00033  -0.00000
  31        2S         -0.02843  -0.04925   0.00110   0.00063  -0.00000
  32        3PX         0.00349   0.01004  -0.20551  -0.00017  -0.29079
  33        3PY         0.00601   0.00349  -0.00017  -0.20531   0.50366
  34        3PZ        -0.00714  -0.01236  -0.50349  -0.29069   0.00000
  35 5   H  1S         -0.00000   0.00000   0.00000   0.00000   0.00000
  36        2S         -0.00000   0.00000   0.00000  -0.00000   0.00000
  37        3PX         0.00000   0.02226   0.61696   0.00000  -0.00000
  38        3PY         0.02226   0.00000   0.00000   0.61696   0.00000
  39        3PZ         0.00000   0.00000   0.00000   0.00000   0.00000
  40 6   H  1S         -0.00000   0.00000   0.00000  -0.00000   0.00000
  41        2S          0.00000   0.00000   0.00000   0.00000   0.00000
  42        3PX         0.00000   0.99912  -0.02120   0.00000   0.00000
  43        3PY         0.99912   0.00000   0.00000  -0.02120   0.00000
  44        3PZ         0.00000   0.00000   0.00000   0.00000   0.00000
                          31        32        33        34        35
                        (A1)--V   (E)--V    (E)--V    (A1)--V   (E)--V
     Eigenvalues --     2.07704   2.08979   2.08979   2.10926   2.62871
   1 1   C  1S         -0.00788   0.00000   0.00000   0.00522   0.00000
   2        2S         -0.40498   0.00000   0.00000   0.34986   0.00000
   3        2PX         0.00000  -0.13491   0.00000   0.00000   0.16835
   4        2PY         0.00000   0.00000   0.13491   0.00000   0.00000
   5        2PZ         0.21610   0.00000  -0.00000  -0.00223   0.00000
   6        3S          1.09805   0.00000  -0.00000  -0.93697   0.00000
   7        3PX         0.00000   0.63402   0.00000   0.00000   0.65454
   8        3PY        -0.00000   0.00000  -0.63402  -0.00000   0.00000
   9        3PZ        -0.79854   0.00000   0.00000  -0.18423   0.00000
  10        4S          0.08363   0.00000  -0.00000  -0.11489   0.00000
  11        4PX         0.00000  -0.21055   0.00000   0.00000   0.01192
  12        4PY         0.00000   0.00000   0.21055   0.00000   0.00000
  13        4PZ         0.17919   0.00000  -0.00000   0.15592   0.00000
  14        5XX        -0.23089   0.00000   0.47359  -0.24401   0.00000
  15        5YY        -0.23089   0.00000  -0.47359  -0.24401   0.00000
  16        5ZZ         0.54098   0.00000  -0.00000   0.41449   0.00000
  17        5XY         0.00000  -0.54685   0.00000   0.00000   0.39364
  18        5XZ         0.00000   0.38662   0.00000   0.00000  -0.27926
  19        5YZ        -0.00000   0.00000  -0.38662  -0.00000   0.00000
  20 2   H  1S          0.12270   0.00000   0.65507   0.19334   0.00000
  21        2S         -0.19002   0.00000  -0.24830   0.06787   0.00000
  22        3PX         0.00000  -0.24920   0.00000   0.00000  -0.64925
  23        3PY         0.04236   0.00000   0.34928   0.01130   0.00000
  24        3PZ         0.14748   0.00000   0.03505   0.22024   0.00000
  25 3   H  1S          0.12270  -0.56731  -0.32754   0.19334   0.05284
  26        2S         -0.19002   0.21503   0.12415   0.06787  -0.44670
  27        3PX         0.03668  -0.32426  -0.04334   0.00979  -0.09619
  28        3PY        -0.02118   0.04334   0.27422  -0.00565  -0.31931
  29        3PZ         0.14748  -0.03036  -0.01753   0.22024   0.22645
  30 4   H  1S          0.12270   0.56731  -0.32754   0.19334  -0.05284
  31        2S         -0.19002  -0.21503   0.12415   0.06787   0.44670
  32        3PX        -0.03668  -0.32426   0.04334  -0.00979  -0.09619
  33        3PY        -0.02118  -0.04334   0.27422  -0.00565   0.31931
  34        3PZ         0.14748   0.03036  -0.01753   0.22024  -0.22645
  35 5   H  1S         -0.31932   0.00000   0.00000  -0.65258   0.00000
  36        2S         -0.72644   0.00000   0.00000   0.96165   0.00000
  37        3PX         0.00000  -0.24773   0.00000   0.00000  -0.64985
  38        3PY        -0.00000   0.00000   0.24773   0.00000   0.00000
  39        3PZ         0.29450   0.00000  -0.00000   0.21868   0.00000
  40 6   H  1S         -0.11487   0.00000   0.00000   0.03206   0.00000
  41        2S          0.26847   0.00000  -0.00000  -0.12731   0.00000
  42        3PX         0.00000   0.04377   0.00000   0.00000  -0.00541
  43        3PY        -0.00000   0.00000  -0.04377  -0.00000   0.00000
  44        3PZ         0.69948   0.00000  -0.00000  -0.70695   0.00000
                          36        37        38        39        40
                        (E)--V    (A1)--V   (E)--V    (E)--V    (A1)--V
     Eigenvalues --     2.62871   2.64655   2.91214   2.91214   3.18181
   1 1   C  1S         -0.00000  -0.00140   0.00000   0.00000  -0.14036
   2        2S          0.00000   0.12062  -0.00000   0.00000   0.80922
   3        2PX         0.00000   0.00000   0.00000   0.00043   0.00000
   4        2PY         0.16835   0.00000   0.00043   0.00000   0.00000
   5        2PZ        -0.00000   0.12197   0.00000   0.00000   0.03570
   6        3S         -0.00000  -0.23204   0.00000   0.00000   1.82994
   7        3PX         0.00000   0.00000   0.00000   0.00042   0.00000
   8        3PY         0.65454   0.00000   0.00042   0.00000   0.00000
   9        3PZ        -0.00000   0.77772  -0.00000   0.00000  -0.03536
  10        4S         -0.00000   0.01263   0.00000   0.00000   0.38189
  11        4PX         0.00000   0.00000   0.00000   0.00013   0.00000
  12        4PY         0.01192   0.00000   0.00013   0.00000   0.00000
  13        4PZ         0.00000  -0.02454   0.00000   0.00000   0.00645
  14        5XX         0.34090  -0.26374   0.45871   0.00000  -0.02614
  15        5YY        -0.34090  -0.26374  -0.45871   0.00000  -0.02614
  16        5ZZ        -0.00000   0.47552  -0.00000   0.00000  -0.09073
  17        5XY         0.00000   0.00000   0.00000   0.52967   0.00000
  18        5XZ         0.00000   0.00000   0.00000   0.74845   0.00000
  19        5YZ        -0.27926  -0.00000   0.74845   0.00000   0.00000
  20 2   H  1S          0.06101   0.03552   0.00005   0.00000  -0.24178
  21        2S         -0.51581  -0.17564  -0.00055   0.00000  -0.63036
  22        3PX         0.00000   0.00000   0.00000  -0.50843   0.00000
  23        3PY         0.08816   0.26124   0.16964   0.00000   0.63979
  24        3PZ         0.26148  -0.55865  -0.47867   0.00000   0.23723
  25 3   H  1S         -0.03051   0.03552  -0.00002   0.00004  -0.24178
  26        2S          0.25790  -0.17564   0.00028  -0.00048  -0.63036
  27        3PX        -0.31931   0.22624  -0.29362   0.00012   0.55408
  28        3PY        -0.46490  -0.13062  -0.33892  -0.29362  -0.31990
  29        3PZ        -0.13074  -0.55865   0.23934  -0.41454   0.23723
  30 4   H  1S         -0.03051   0.03552  -0.00002  -0.00004  -0.24178
  31        2S          0.25790  -0.17564   0.00028   0.00048  -0.63036
  32        3PX         0.31931  -0.22624   0.29362   0.00012  -0.55408
  33        3PY        -0.46490  -0.13062  -0.33892   0.29362  -0.31990
  34        3PZ        -0.13074  -0.55865   0.23934   0.41454   0.23723
  35 5   H  1S          0.00000  -0.10968   0.00000   0.00000  -0.18850
  36        2S         -0.00000   0.76906  -0.00000   0.00000  -0.69785
  37        3PX         0.00000   0.00000   0.00000   0.50747   0.00000
  38        3PY        -0.64985  -0.00000   0.50747   0.00000   0.00000
  39        3PZ        -0.00000   0.14754   0.00000   0.00000  -0.63498
  40 6   H  1S          0.00000   0.01753  -0.00000   0.00000   0.02146
  41        2S          0.00000  -0.11587   0.00000   0.00000   0.01625
  42        3PX         0.00000   0.00000   0.00000  -0.00191   0.00000
  43        3PY        -0.00541   0.00000  -0.00191   0.00000  -0.00000
  44        3PZ        -0.00000  -0.13263   0.00000   0.00000   0.06987
                          41        42        43        44
                        (E)--V    (E)--V    (A1)--V   (A1)--V
     Eigenvalues --     3.42043   3.42043   3.43711   4.43829
   1 1   C  1S          0.00000   0.00000   0.00029  -0.48490
   2        2S          0.00000  -0.00000   0.07334   2.78272
   3        2PX        -0.92895   0.00000   0.00000   0.00000
   4        2PY         0.00000   0.92895   0.00000  -0.00000
   5        2PZ         0.00000  -0.00000   0.91490  -0.00557
   6        3S          0.00000  -0.00000  -0.20993   2.38278
   7        3PX        -0.53549   0.00000   0.00000   0.00000
   8        3PY         0.00000   0.53549   0.00000  -0.00000
   9        3PZ         0.00000  -0.00000   0.65443  -0.10887
  10        4S          0.00000  -0.00000   0.00081   0.04231
  11        4PX        -0.00338   0.00000   0.00000   0.00000
  12        4PY         0.00000   0.00338   0.00000  -0.00000
  13        4PZ         0.00000   0.00000  -0.03028   0.03488
  14        5XX         0.00000  -0.83773   0.56003  -2.06699
  15        5YY         0.00000   0.83773   0.56003  -2.06699
  16        5ZZ         0.00000   0.00000  -1.21562  -2.02787
  17        5XY         0.96733   0.00000   0.00000   0.00000
  18        5XZ        -0.68378   0.00000   0.00000   0.00000
  19        5YZ         0.00000   0.68378   0.00000  -0.00000
  20 2   H  1S          0.00000  -0.78217  -0.25741   0.25986
  21        2S          0.00000  -0.52324  -0.16932  -0.42774
  22        3PX        -0.01639   0.00000   0.00000   0.00000
  23        3PY         0.00000   1.08896   0.36032  -0.29408
  24        3PZ         0.00000   0.37934   0.12670  -0.09490
  25 3   H  1S          0.67738   0.39109  -0.25741   0.25986
  26        2S          0.45314   0.26162  -0.16932  -0.42774
  27        3PX        -0.82082  -0.46444   0.31205  -0.25468
  28        3PY         0.46444   0.28453  -0.18016   0.14704
  29        3PZ        -0.32852  -0.18967   0.12670  -0.09490
  30 4   H  1S         -0.67738   0.39109  -0.25741   0.25986
  31        2S         -0.45314   0.26162  -0.16932  -0.42774
  32        3PX        -0.82082   0.46444  -0.31205   0.25468
  33        3PY        -0.46444   0.28453  -0.18016   0.14704
  34        3PZ         0.32852  -0.18967   0.12670  -0.09490
  35 5   H  1S          0.00000  -0.00000   0.82559   0.25417
  36        2S          0.00000  -0.00000   0.75584  -0.59277
  37        3PX        -0.01631   0.00000   0.00000   0.00000
  38        3PY         0.00000   0.01631   0.00000   0.00000
  39        3PZ         0.00000  -0.00000   1.25816   0.27047
  40 6   H  1S          0.00000   0.00000   0.00162  -0.01916
  41        2S          0.00000   0.00000  -0.09346   0.09930
  42        3PX         0.00351   0.00000   0.00000   0.00000
  43        3PY         0.00000  -0.00351  -0.00000   0.00000
  44        3PZ         0.00000  -0.00000  -0.07947   0.05145
     Beta Molecular Orbital Coefficients:
                           1         2         3         4         5
                        (A1)--O   (A1)--O   (A1)--O   (E)--O    (E)--O
     Eigenvalues --   -10.17008  -0.69632  -0.39547  -0.39413  -0.39413
   1 1   C  1S          0.99287  -0.19957  -0.00165  -0.00000   0.00000
   2        2S          0.04982   0.38540   0.00081  -0.00000   0.00000
   3        2PX         0.00000   0.00000   0.00000   0.00000   0.44465
   4        2PY         0.00000   0.00000  -0.00000   0.44465   0.00000
   5        2PZ        -0.00000   0.00154   0.43784   0.00000   0.00000
   6        3S         -0.01602   0.35410   0.02410   0.00000   0.00000
   7        3PX         0.00000   0.00000   0.00000   0.00000   0.19683
   8        3PY         0.00000   0.00000  -0.00000   0.19683   0.00000
   9        3PZ         0.00040   0.00158   0.18203   0.00000   0.00000
  10        4S         -0.00052   0.01443  -0.00039   0.00000   0.00000
  11        4PX         0.00000   0.00000   0.00000   0.00000   0.03687
  12        4PY         0.00000   0.00000  -0.00000   0.03687   0.00000
  13        4PZ        -0.00019   0.00042   0.03831   0.00000   0.00000
  14        5XX        -0.00908  -0.00926   0.01062  -0.01619   0.00000
  15        5YY        -0.00908  -0.00926   0.01062   0.01619   0.00000
  16        5ZZ        -0.00918  -0.00987  -0.02265  -0.00000   0.00000
  17        5XY         0.00000   0.00000   0.00000   0.00000  -0.01870
  18        5XZ         0.00000   0.00000   0.00000   0.00000   0.01345
  19        5YZ         0.00000  -0.00000  -0.00000   0.01345   0.00000
  20 2   H  1S         -0.00025   0.13903   0.09852   0.28099   0.00000
  21        2S          0.00299   0.03661   0.07751   0.22338   0.00000
  22        3PX         0.00000   0.00000   0.00000   0.00000   0.00862
  23        3PY         0.00016  -0.01226  -0.00498  -0.00517   0.00000
  24        3PZ         0.00004  -0.00436   0.00694  -0.00490   0.00000
  25 3   H  1S         -0.00025   0.13903   0.09852  -0.14050   0.24335
  26        2S          0.00299   0.03661   0.07751  -0.11169   0.19346
  27        3PX         0.00013  -0.01062  -0.00431   0.00597  -0.00172
  28        3PY        -0.00008   0.00613   0.00249   0.00518   0.00597
  29        3PZ         0.00004  -0.00436   0.00694   0.00245  -0.00424
  30 4   H  1S         -0.00025   0.13903   0.09852  -0.14050  -0.24335
  31        2S          0.00299   0.03661   0.07751  -0.11169  -0.19346
  32        3PX        -0.00013   0.01062   0.00431  -0.00597  -0.00172
  33        3PY        -0.00008   0.00613   0.00249   0.00518  -0.00597
  34        3PZ         0.00004  -0.00436   0.00694   0.00245   0.00424
  35 5   H  1S         -0.00027   0.13860  -0.29636  -0.00000   0.00000
  36        2S          0.00360   0.04069  -0.26413  -0.00000   0.00000
  37        3PX         0.00000   0.00000   0.00000   0.00000   0.00862
  38        3PY        -0.00000  -0.00000  -0.00000   0.00862   0.00000
  39        3PZ        -0.00010   0.01277  -0.00634  -0.00000   0.00000
  40 6   H  1S          0.00008   0.00273  -0.02165  -0.00000   0.00000
  41        2S         -0.00050   0.00356  -0.02356  -0.00000   0.00000
  42        3PX         0.00000   0.00000   0.00000   0.00000   0.00019
  43        3PY        -0.00000  -0.00000   0.00000   0.00019   0.00000
  44        3PZ        -0.00014   0.00079  -0.00225  -0.00000   0.00000
                           6         7         8         9        10
                        (A1)--V   (A1)--V   (E)--V    (E)--V    (A1)--V
     Eigenvalues --    -0.08067   0.02712   0.05943   0.05943   0.08773
   1 1   C  1S          0.03372   0.07913   0.00000   0.00000  -0.01987
   2        2S         -0.06693  -0.16318  -0.00000   0.00000   0.04503
   3        2PX         0.00000   0.00000   0.00000  -0.17743   0.00000
   4        2PY         0.00000  -0.00000  -0.17743   0.00000   0.00000
   5        2PZ         0.13049  -0.09639  -0.00000   0.00000  -0.04555
   6        3S         -0.20959  -0.54665  -0.00000   0.00000   0.10781
   7        3PX         0.00000   0.00000   0.00000  -0.16804   0.00000
   8        3PY        -0.00000  -0.00000  -0.16804   0.00000   0.00000
   9        3PZ         0.18299  -0.15328  -0.00000   0.00000   0.21182
  10        4S          0.35551   1.38680   0.00000   0.00000  -0.57582
  11        4PX         0.00000   0.00000   0.00000   1.17992   0.00000
  12        4PY        -0.00000  -0.00000   1.17992   0.00000  -0.00000
  13        4PZ        -0.17080   0.38620   0.00000   0.00000   1.23506
  14        5XX         0.00536   0.00883   0.00804   0.00000  -0.01106
  15        5YY         0.00536   0.00883  -0.00804   0.00000  -0.01106
  16        5ZZ         0.00088   0.01423  -0.00000   0.00000   0.01248
  17        5XY         0.00000   0.00000   0.00000   0.00928   0.00000
  18        5XZ         0.00000   0.00000   0.00000  -0.00664   0.00000
  19        5YZ         0.00000   0.00000  -0.00664   0.00000   0.00000
  20 2   H  1S          0.01357   0.00396  -0.05369   0.00000  -0.02758
  21        2S         -0.04031  -0.08870  -0.24004   0.00000  -0.16698
  22        3PX         0.00000   0.00000   0.00000   0.00269   0.00000
  23        3PY         0.00255   0.01251   0.00960   0.00000  -0.00281
  24        3PZ         0.00288   0.00440   0.00244   0.00000   0.00579
  25 3   H  1S          0.01357   0.00396   0.02685  -0.04650  -0.02758
  26        2S         -0.04031  -0.08870   0.12002  -0.20788  -0.16698
  27        3PX         0.00221   0.01084  -0.00299   0.00787  -0.00243
  28        3PY        -0.00128  -0.00626   0.00442  -0.00299   0.00140
  29        3PZ         0.00288   0.00440  -0.00122   0.00211   0.00579
  30 4   H  1S          0.01357   0.00396   0.02685   0.04650  -0.02758
  31        2S         -0.04031  -0.08870   0.12002   0.20788  -0.16698
  32        3PX        -0.00221  -0.01084   0.00299   0.00787   0.00243
  33        3PY        -0.00128  -0.00626   0.00442   0.00299   0.00140
  34        3PZ         0.00288   0.00440  -0.00122  -0.00211   0.00579
  35 5   H  1S         -0.02417   0.02648  -0.00000   0.00000   0.08296
  36        2S          0.07751  -0.12053   0.00000   0.00000   0.81304
  37        3PX         0.00000   0.00000   0.00000   0.00280   0.00000
  38        3PY         0.00000   0.00000   0.00280   0.00000  -0.00000
  39        3PZ        -0.01117  -0.00717  -0.00000   0.00000   0.00887
  40 6   H  1S          0.24895  -0.06660  -0.00000   0.00000   0.09144
  41        2S          0.63467  -0.19433   0.00000   0.00000   0.51083
  42        3PX         0.00000   0.00000   0.00000   0.00361   0.00000
  43        3PY         0.00000   0.00000   0.00361   0.00000   0.00000
  44        3PZ         0.00277   0.00177   0.00000   0.00000   0.00078
                          11        12        13        14        15
                        (E)--V    (E)--V    (A1)--V   (A1)--V   (E)--V
     Eigenvalues --     0.18235   0.18235   0.21610   0.27478   0.63750
   1 1   C  1S          0.00000  -0.00000   0.01266  -0.15718   0.00000
   2        2S          0.00000   0.00000  -0.03699   0.19474   0.00000
   3        2PX        -0.32211   0.00000   0.00000   0.00000  -0.92522
   4        2PY         0.00000  -0.32211   0.00000   0.00000   0.00000
   5        2PZ         0.00000   0.00000   0.37547  -0.00577   0.00000
   6        3S          0.00000   0.00000  -0.11110   3.20619   0.00000
   7        3PX        -1.40047   0.00000   0.00000   0.00000   1.66451
   8        3PY         0.00000  -1.40047   0.00000   0.00000   0.00000
   9        3PZ         0.00000   0.00000   1.39942   0.01322   0.00000
  10        4S          0.00000   0.00000   0.30047   1.82427   0.00000
  11        4PX        -0.30546   0.00000   0.00000   0.00000  -0.57520
  12        4PY         0.00000  -0.30546   0.00000   0.00000   0.00000
  13        4PZ         0.00000  -0.00000  -0.10805   0.04293   0.00000
  14        5XX         0.00000  -0.01963  -0.01413  -0.01289   0.00000
  15        5YY         0.00000   0.01963  -0.01413  -0.01289   0.00000
  16        5ZZ         0.00000   0.00000   0.02929  -0.01040   0.00000
  17        5XY        -0.02266   0.00000   0.00000   0.00000   0.03470
  18        5XZ         0.01571   0.00000   0.00000   0.00000  -0.02472
  19        5YZ         0.00000   0.01571   0.00000  -0.00000   0.00000
  20 2   H  1S          0.00000   0.16331  -0.05797  -0.07269   0.00000
  21        2S          0.00000   1.87805  -0.64607  -1.63222   0.00000
  22        3PX        -0.01349   0.00000   0.00000   0.00000   0.01372
  23        3PY         0.00000  -0.00067  -0.00470  -0.00520   0.00000
  24        3PZ         0.00000   0.00452   0.01151  -0.00122   0.00000
  25 3   H  1S          0.14143  -0.08166  -0.05797  -0.07269  -0.26071
  26        2S          1.62643  -0.93902  -0.64607  -1.63222  -0.14538
  27        3PX        -0.00388  -0.00555  -0.00407  -0.00451   0.05135
  28        3PY        -0.00555  -0.01028   0.00235   0.00260  -0.02173
  29        3PZ         0.00392  -0.00226   0.01151  -0.00122   0.01535
  30 4   H  1S         -0.14143  -0.08166  -0.05797  -0.07269   0.26071
  31        2S         -1.62643  -0.93902  -0.64607  -1.63222   0.14538
  32        3PX        -0.00388   0.00555   0.00407   0.00451   0.05135
  33        3PY         0.00555  -0.01028   0.00235   0.00260   0.02173
  34        3PZ        -0.00392  -0.00226   0.01151  -0.00122  -0.01535
  35 5   H  1S          0.00000   0.00000   0.16251  -0.05758   0.00000
  36        2S          0.00000   0.00000   1.90298  -1.61492   0.00000
  37        3PX        -0.01354   0.00000   0.00000   0.00000   0.01394
  38        3PY         0.00000  -0.01354   0.00000   0.00000   0.00000
  39        3PZ         0.00000   0.00000  -0.00590   0.00556   0.00000
  40 6   H  1S          0.00000  -0.00000  -0.10398  -0.01128   0.00000
  41        2S          0.00000  -0.00000  -0.50556   0.06930   0.00000
  42        3PX        -0.00284   0.00000   0.00000   0.00000  -0.00270
  43        3PY         0.00000  -0.00284   0.00000   0.00000   0.00000
  44        3PZ         0.00000   0.00000   0.01780  -0.01200   0.00000
                          16        17        18        19        20
                        (E)--V    (A1)--V   (E)--V    (E)--V    (A1)--V
     Eigenvalues --     0.63750   0.64552   0.91152   0.91152   0.93086
   1 1   C  1S         -0.00000   0.00146   0.00000   0.00000  -0.01148
   2        2S          0.00000  -0.05895   0.00000   0.00000  -0.19135
   3        2PX         0.00000   0.00000   0.56807   0.00000   0.00000
   4        2PY        -0.92522  -0.00000   0.00000   0.56807   0.00000
   5        2PZ         0.00000  -0.87880   0.00000   0.00000  -0.62159
   6        3S         -0.00000   0.09063   0.00000  -0.00000   0.51590
   7        3PX         0.00000   0.00000  -0.98399   0.00000   0.00000
   8        3PY         1.66451   0.00000   0.00000  -0.98399  -0.00000
   9        3PZ        -0.00000   1.70433   0.00000  -0.00000   1.19234
  10        4S          0.00000   0.04678   0.00000  -0.00000   0.08151
  11        4PX         0.00000   0.00000  -0.35972   0.00000   0.00000
  12        4PY        -0.57520  -0.00000   0.00000  -0.35972  -0.00000
  13        4PZ         0.00000  -0.65287   0.00000  -0.00000   0.22779
  14        5XX         0.03005  -0.03398   0.00000   0.19984   0.12198
  15        5YY        -0.03005  -0.03398   0.00000  -0.19984   0.12198
  16        5ZZ        -0.00000   0.05781   0.00000   0.00000  -0.28729
  17        5XY         0.00000   0.00000   0.23076   0.00000   0.00000
  18        5XZ         0.00000   0.00000  -0.16239   0.00000   0.00000
  19        5YZ        -0.02472  -0.00000   0.00000  -0.16239  -0.00000
  20 2   H  1S         -0.30104  -0.12940   0.00000  -0.89322   0.25881
  21        2S         -0.16788  -0.07696   0.00000   1.87600  -0.79837
  22        3PX         0.00000   0.00000   0.06090   0.00000   0.00000
  23        3PY         0.06389   0.01524   0.00000  -0.07275   0.04606
  24        3PZ         0.01773   0.02452   0.00000  -0.04711  -0.03930
  25 3   H  1S          0.15052  -0.12940  -0.77355   0.44661   0.25881
  26        2S          0.08394  -0.07696   1.62466  -0.93800  -0.79837
  27        3PX        -0.02173   0.01320  -0.03934   0.05787   0.03989
  28        3PY         0.02626  -0.00762   0.05787   0.02749  -0.02303
  29        3PZ        -0.00886   0.02452  -0.04080   0.02356  -0.03930
  30 4   H  1S          0.15052  -0.12940   0.77355   0.44661   0.25881
  31        2S          0.08394  -0.07696  -1.62466  -0.93800  -0.79837
  32        3PX         0.02173  -0.01320  -0.03934  -0.05787  -0.03989
  33        3PY         0.02626  -0.00762  -0.05787   0.02749  -0.02303
  34        3PZ        -0.00886   0.02452   0.04080   0.02356  -0.03930
  35 5   H  1S         -0.00000   0.38332   0.00000   0.00000  -0.96570
  36        2S         -0.00000   0.15774   0.00000  -0.00000   1.99570
  37        3PX         0.00000   0.00000   0.06050   0.00000   0.00000
  38        3PY         0.01394   0.00000   0.00000   0.06050   0.00000
  39        3PZ        -0.00000   0.06323   0.00000  -0.00000   0.09452
  40 6   H  1S          0.00000  -0.04253   0.00000  -0.00000  -0.07370
  41        2S          0.00000  -0.12269   0.00000   0.00000  -0.17542
  42        3PX         0.00000   0.00000  -0.00901   0.00000   0.00000
  43        3PY        -0.00270   0.00000   0.00000  -0.00901  -0.00000
  44        3PZ         0.00000  -0.01002   0.00000  -0.00000   0.07174
                          21        22        23        24        25
                        (A1)--V   (A1)--V   (A1)--V   (E)--V    (E)--V
     Eigenvalues --     0.96599   1.07520   1.13389   1.35778   1.35778
   1 1   C  1S         -0.03923   0.09175  -0.08180   0.00000  -0.00000
   2        2S          0.01820  -0.27879  -2.25450   0.00000  -0.00000
   3        2PX         0.00000   0.00000   0.00000  -0.00080   0.00000
   4        2PY         0.00000  -0.00000  -0.00000   0.00000  -0.00080
   5        2PZ        -0.03906  -0.06052   0.09688   0.00000   0.00000
   6        3S         -0.15582   0.66439   6.23672   0.00000   0.00000
   7        3PX         0.00000   0.00000   0.00000   0.00080   0.00000
   8        3PY        -0.00000   0.00000   0.00000   0.00000   0.00080
   9        3PZ         0.35446   0.27420  -0.29485   0.00000  -0.00000
  10        4S         -0.10510   1.01301   0.38898   0.00000   0.00000
  11        4PX         0.00000   0.00000   0.00000   0.00032   0.00000
  12        4PY        -0.00000  -0.00000  -0.00000   0.00000   0.00032
  13        4PZ        -0.22936  -0.10430   0.10051   0.00000   0.00000
  14        5XX        -0.03157   0.06848  -0.09108   0.00000   0.33357
  15        5YY        -0.03157   0.06848  -0.09108   0.00000  -0.33357
  16        5ZZ        -0.02502   0.04611  -0.06282   0.00000   0.00000
  17        5XY         0.00000   0.00000   0.00000   0.38517   0.00000
  18        5XZ         0.00000   0.00000   0.00000   0.54449   0.00000
  19        5YZ        -0.00000   0.00000  -0.00000   0.00000   0.54449
  20 2   H  1S         -0.28781   0.67116  -0.11706   0.00000   0.00090
  21        2S          0.15660  -0.95893  -1.38331   0.00000  -0.00146
  22        3PX         0.00000   0.00000   0.00000   0.24568   0.00000
  23        3PY        -0.02412   0.06224   0.02923   0.00000  -0.08176
  24        3PZ        -0.00701   0.02042   0.01030   0.00000   0.23176
  25 3   H  1S         -0.28781   0.67116  -0.11706   0.00078  -0.00045
  26        2S          0.15660  -0.95893  -1.38331  -0.00127   0.00073
  27        3PX        -0.02089   0.05390   0.02532   0.00010   0.14179
  28        3PY         0.01206  -0.03112  -0.01462   0.14179   0.16382
  29        3PZ        -0.00701   0.02042   0.01030   0.20071  -0.11588
  30 4   H  1S         -0.28781   0.67116  -0.11706  -0.00078  -0.00045
  31        2S          0.15660  -0.95893  -1.38331   0.00127   0.00073
  32        3PX         0.02089  -0.05390  -0.02532   0.00010  -0.14179
  33        3PY         0.01206  -0.03112  -0.01462  -0.14179   0.16382
  34        3PZ        -0.00701   0.02042   0.01030  -0.20071  -0.11588
  35 5   H  1S         -0.31302   0.57334  -0.00734   0.00000   0.00000
  36        2S          0.72956  -0.45260  -1.83915   0.00000  -0.00000
  37        3PX         0.00000   0.00000   0.00000  -0.24598   0.00000
  38        3PY         0.00000   0.00000   0.00000   0.00000  -0.24598
  39        3PZ         0.05380  -0.04433  -0.04887   0.00000  -0.00000
  40 6   H  1S          1.20357   0.57741  -0.07788   0.00000  -0.00000
  41        2S         -1.18887  -0.60491   0.30288   0.00000   0.00000
  42        3PX         0.00000   0.00000   0.00000  -0.00095   0.00000
  43        3PY        -0.00000   0.00000   0.00000   0.00000  -0.00095
  44        3PZ         0.04350   0.00375  -0.09212   0.00000   0.00000
                          26        27        28        29        30
                        (E)--V    (E)--V    (A2)--V   (E)--V    (E)--V
     Eigenvalues --     2.04350   2.04350   2.04393   2.08967   2.08967
   1 1   C  1S         -0.00000   0.00000   0.00000  -0.00000   0.00000
   2        2S         -0.00000   0.00000   0.00000  -0.00000   0.00000
   3        2PX         0.00000   0.00054  -0.00000   0.00000  -0.13567
   4        2PY         0.00054   0.00000   0.00000   0.13567   0.00000
   5        2PZ         0.00000   0.00000   0.00000   0.00000   0.00000
   6        3S          0.00000   0.00000   0.00000   0.00000   0.00000
   7        3PX         0.00000  -0.00260   0.00000   0.00000   0.63383
   8        3PY        -0.00260   0.00000   0.00000  -0.63383   0.00000
   9        3PZ        -0.00000   0.00000   0.00000  -0.00000   0.00000
  10        4S          0.00000   0.00000   0.00000   0.00000   0.00000
  11        4PX         0.00000  -0.00042   0.00000   0.00000  -0.20353
  12        4PY        -0.00042   0.00000   0.00000   0.20353   0.00000
  13        4PZ         0.00000   0.00000   0.00000   0.00000   0.00000
  14        5XX         0.00119   0.00000   0.00000   0.47240   0.00000
  15        5YY        -0.00119   0.00000   0.00000  -0.47240   0.00000
  16        5ZZ         0.00000   0.00000   0.00000   0.00000   0.00000
  17        5XY         0.00000   0.00138  -0.00000   0.00000  -0.54548
  18        5XZ         0.00000  -0.00014   0.00000   0.00000   0.38533
  19        5YZ        -0.00014   0.00000   0.00000  -0.38533   0.00000
  20 2   H  1S          0.00112   0.00000   0.00000   0.65033   0.00000
  21        2S          0.00114   0.00000   0.00000  -0.23968   0.00000
  22        3PX         0.00000  -0.20472   0.58157   0.00000  -0.24886
  23        3PY        -0.20457   0.00000   0.00000   0.34970   0.00000
  24        3PZ         0.58111   0.00000   0.00000   0.03296   0.00000
  25 3   H  1S         -0.00056   0.00097  -0.00000  -0.32517  -0.56321
  26        2S         -0.00057   0.00098  -0.00000   0.11984   0.20757
  27        3PX        -0.00007  -0.20461  -0.29079  -0.04367  -0.32449
  28        3PY        -0.20468  -0.00007  -0.50366   0.27407   0.04367
  29        3PZ        -0.29056   0.50326  -0.00000  -0.01648  -0.02855
  30 4   H  1S         -0.00056  -0.00097   0.00000  -0.32517   0.56321
  31        2S         -0.00057  -0.00098   0.00000   0.11984  -0.20757
  32        3PX         0.00007  -0.20461  -0.29079   0.04367  -0.32449
  33        3PY        -0.20468   0.00007   0.50366   0.27407  -0.04367
  34        3PZ        -0.29056  -0.50326   0.00000  -0.01648   0.02855
  35 5   H  1S          0.00000   0.00000   0.00000  -0.00000   0.00000
  36        2S         -0.00000   0.00000   0.00000  -0.00000   0.00000
  37        3PX         0.00000   0.61822  -0.00000   0.00000  -0.24626
  38        3PY         0.61822   0.00000   0.00000   0.24626   0.00000
  39        3PZ         0.00000   0.00000   0.00000   0.00000   0.00000
  40 6   H  1S         -0.00000   0.00000   0.00000  -0.00000   0.00000
  41        2S          0.00000   0.00000   0.00000   0.00000   0.00000
[...]
  30 4   H  1S         -0.00552   0.00000   0.00008   0.00002  -0.00038
  31        2S         -0.01401   0.00000   0.00025  -0.00004  -0.00552
  32        3PX        -0.00000   0.00000   0.00000  -0.00000  -0.00000
  33        3PY        -0.00001  -0.00000   0.00000   0.00000   0.00007
  34        3PZ         0.00021  -0.00000   0.00000   0.00000   0.00003
  35 5   H  1S         -0.00546   0.00009   0.00000   0.00000  -0.00037
  36        2S         -0.01417   0.00030  -0.00001  -0.00007  -0.00556
  37        3PX        -0.00001   0.00000   0.00000   0.00000   0.00004
  38        3PY         0.00003   0.00000   0.00000   0.00000   0.00002
  39        3PZ         0.00019   0.00000   0.00000   0.00000   0.00003
  40 6   H  1S         -0.00000  -0.00000  -0.00000  -0.00000   0.00000
  41        2S         -0.00003  -0.00000  -0.00000  -0.00000   0.00000
  42        3PX        -0.00000   0.00000  -0.00000  -0.00000  -0.00000
  43        3PY         0.00000   0.00000   0.00000   0.00000   0.00000
  44        3PZ         0.00000   0.00000   0.00000   0.00000   0.00000
                          26        27        28        29        30
  26        2S          0.11564
  27        3PX         0.00000   0.00018
  28        3PY         0.00000   0.00000   0.00025
  29        3PZ         0.00000   0.00000   0.00000   0.00030
  30 4   H  1S         -0.00552   0.00000   0.00010  -0.00000   0.21547
  31        2S         -0.01401   0.00000   0.00027  -0.00006   0.09969
  32        3PX        -0.00000   0.00000   0.00000  -0.00000   0.00000
  33        3PY         0.00010  -0.00000   0.00001   0.00000   0.00000
  34        3PZ         0.00011  -0.00000   0.00000  -0.00000   0.00000
  35 5   H  1S         -0.00546   0.00009   0.00000   0.00000  -0.00037
  36        2S         -0.01417   0.00030  -0.00003  -0.00005  -0.00556
  37        3PX        -0.00001   0.00000   0.00000   0.00000   0.00004
  38        3PY         0.00009   0.00000  -0.00000   0.00000   0.00005
  39        3PZ         0.00013   0.00000   0.00000  -0.00000   0.00000
  40 6   H  1S         -0.00000  -0.00000  -0.00000  -0.00000   0.00000
  41        2S         -0.00003  -0.00000  -0.00000  -0.00000   0.00000
  42        3PX        -0.00000   0.00000  -0.00000  -0.00000  -0.00000
  43        3PY         0.00000   0.00000  -0.00000   0.00000   0.00000
  44        3PZ         0.00000   0.00000   0.00000  -0.00000   0.00000
                          31        32        33        34        35
  31        2S          0.11563
  32        3PX         0.00000   0.00018
  33        3PY         0.00000   0.00000   0.00039
  34        3PZ         0.00000   0.00000   0.00000   0.00015
  35 5   H  1S         -0.00546   0.00009   0.00001   0.00000   0.21497
  36        2S         -0.01417   0.00030  -0.00008  -0.00000   0.10078
  37        3PX        -0.00001   0.00000   0.00000   0.00000   0.00000
  38        3PY         0.00021   0.00000   0.00000   0.00000   0.00000
  39        3PZ         0.00001   0.00000   0.00000   0.00000   0.00000
  40 6   H  1S         -0.00000  -0.00000  -0.00000  -0.00000  -0.00000
  41        2S         -0.00003  -0.00000  -0.00000  -0.00000  -0.00012
  42        3PX        -0.00000   0.00000  -0.00000  -0.00000   0.00000
  43        3PY         0.00000   0.00000   0.00000   0.00000   0.00000
  44        3PZ         0.00000   0.00000   0.00000   0.00000   0.00000
                          36        37        38        39        40
  36        2S          0.11870
  37        3PX         0.00000   0.00044
  38        3PY         0.00000   0.00000   0.00015
  39        3PZ         0.00000   0.00000   0.00000   0.00015
  40 6   H  1S          0.00017   0.00000  -0.00000   0.00000   0.18664
  41        2S          0.00102   0.00004  -0.00000   0.00000   0.18422
  42        3PX         0.00001  -0.00000  -0.00000   0.00000   0.00000
  43        3PY         0.00000  -0.00000   0.00000  -0.00000   0.00000
  44        3PZ         0.00000   0.00000  -0.00000   0.00000   0.00000
                          41        42        43        44
  41        2S          0.41965
  42        3PX         0.00000   0.00000
  43        3PY         0.00000   0.00000   0.00000
  44        3PZ         0.00000   0.00000   0.00000   0.00000
     Gross orbital populations:
                         Total     Alpha     Beta      Spin
   1 1   C  1S          1.99178   0.99589   0.99589   0.00000
   2        2S          0.68417   0.34233   0.34184   0.00049
   3        2PX         0.71183   0.35834   0.35349   0.00485
   4        2PY         0.71093   0.35557   0.35536   0.00021
   5        2PZ         0.71093   0.35557   0.35536   0.00021
   6        3S          0.67491   0.33829   0.33662   0.00166
   7        3PX         0.33838   0.17183   0.16655   0.00528
   8        3PY         0.34131   0.17064   0.17067  -0.00003
   9        3PZ         0.34131   0.17064   0.17067  -0.00003
  10        4S          0.02484   0.01496   0.00988   0.00508
  11        4PX         0.04048   0.02296   0.01753   0.00543
  12        4PY         0.03293   0.01640   0.01653  -0.00013
  13        4PZ         0.03293   0.01640   0.01653  -0.00013
  14        5XX        -0.00884  -0.00433  -0.00451   0.00018
  15        5YY        -0.01021  -0.00516  -0.00505  -0.00011
  16        5ZZ        -0.01021  -0.00516  -0.00505  -0.00011
  17        5XY         0.00277   0.00138   0.00139  -0.00001
  18        5XZ         0.00277   0.00138   0.00139  -0.00001
  19        5YZ         0.00553   0.00276   0.00276  -0.00000
  20 2   H  1S          0.52862   0.26430   0.26432  -0.00001
  21        2S          0.30727   0.15355   0.15371  -0.00016
  22        3PX         0.00292   0.00146   0.00146   0.00001
  23        3PY         0.00289   0.00145   0.00145  -0.00000
  24        3PZ         0.00606   0.00303   0.00303  -0.00000
  25 3   H  1S          0.52863   0.26431   0.26432  -0.00001
  26        2S          0.30726   0.15355   0.15371  -0.00016
  27        3PX         0.00292   0.00146   0.00146   0.00001
  28        3PY         0.00409   0.00204   0.00204  -0.00000
  29        3PZ         0.00486   0.00243   0.00243  -0.00000
  30 4   H  1S          0.52862   0.26430   0.26432  -0.00001
  31        2S          0.30727   0.15356   0.15371  -0.00016
  32        3PX         0.00292   0.00146   0.00146   0.00001
  33        3PY         0.00645   0.00322   0.00322  -0.00000
  34        3PZ         0.00250   0.00125   0.00125  -0.00000
  35 5   H  1S          0.52789   0.26417   0.26372   0.00045
  36        2S          0.31240   0.15265   0.15975  -0.00710
  37        3PX         0.00722   0.00369   0.00353   0.00016
  38        3PY         0.00238   0.00119   0.00119   0.00000
  39        3PZ         0.00238   0.00119   0.00119   0.00000
  40 6   H  1S          0.37310   0.37294   0.00015   0.37279
  41        2S          0.61281   0.61208   0.00073   0.61135
  42        3PX         0.00002   0.00001   0.00001   0.00001
  43        3PY         0.00000   0.00000   0.00000   0.00000
  44        3PZ         0.00000   0.00000   0.00000   0.00000
          Condensed to atoms (all electrons):
               1          2          3          4          5          6
     1  C    5.044811   0.391161   0.391161   0.391162   0.390061   0.010184
     2  H    0.391161   0.531219  -0.024814  -0.024814  -0.024961  -0.000034
     3  H    0.391161  -0.024814   0.531215  -0.024812  -0.024961  -0.000034
     4  H    0.391162  -0.024814  -0.024812   0.531210  -0.024958  -0.000034
     5  H    0.390061  -0.024961  -0.024961  -0.024958   0.535967   0.001122
     6  H    0.010184  -0.000034  -0.000034  -0.000034   0.001122   0.974723
          Atomic-Atomic Spin Densities.
               1          2          3          4          5          6
     1  C    0.013672  -0.000393  -0.000393  -0.000393   0.000686   0.009669
     2  H   -0.000393  -0.000089  -0.000041  -0.000040   0.000419  -0.000025
     3  H   -0.000393  -0.000041  -0.000089  -0.000041   0.000419  -0.000025
     4  H   -0.000393  -0.000040  -0.000041  -0.000089   0.000419  -0.000025
     5  H    0.000686   0.000419   0.000419   0.000419  -0.008666   0.000230
     6  H    0.009669  -0.000025  -0.000025  -0.000025   0.000230   0.974328
 Mulliken charges and spin densities:
               1          2
     1  C   -0.618540   0.022849
     2  H    0.152244  -0.000169
     3  H    0.152245  -0.000169
     4  H    0.152246  -0.000169
     5  H    0.147731  -0.006492
     6  H    0.014074   0.984151
 Sum of Mulliken charges =   0.00000   1.00000
 Mulliken charges and spin densities with hydrogens summed into heavy atoms:
               1          2
     1  C    0.000000   1.000000
 Electronic spatial extent (au):  <R**2>=             82.9788
 Charge=              0.0000 electrons
 Dipole moment (field-independent basis, Debye):
    X=              0.0839    Y=              0.0000    Z=             -0.0000  Tot=              0.0839
 Quadrupole moment (field-independent basis, Debye-Ang):
   XX=             -9.3643   YY=             -9.8315   ZZ=             -9.8316
   XY=              0.0001   XZ=              0.0000   YZ=              0.0000
 Traceless Quadrupole moment (field-independent basis, Debye-Ang):
   XX=              0.3115   YY=             -0.1557   ZZ=             -0.1558
   XY=              0.0001   XZ=              0.0000   YZ=              0.0000
 Octapole moment (field-independent basis, Debye-Ang**2):
  XXX=             -1.5469  YYY=             -0.4950  ZZZ=             -0.2739  XYY=             -1.8815
  XXY=             -0.0001  XXZ=             -0.0000  XZZ=             -1.8814  YZZ=              0.4951
  YYZ=              0.2739  XYZ=              0.0000
 Hexadecapole moment (field-independent basis, Debye-Ang**3):
 XXXX=           -103.2810 YYYY=            -18.4286 ZZZZ=            -18.4284 XXXY=              0.0001
 XXXZ=              0.0000 YYYX=              0.4537 YYYZ=              0.0000 ZZZX=              0.2510
 ZZZY=              0.0000 XXYY=            -21.5131 XXZZ=            -21.5132 YYZZ=             -6.1428
 XXYZ=             -0.0000 YYXZ=             -0.2509 ZZXY=             -0.4536
 N-N= 1.484227792200D+01 E-N=-1.236975222996D+02  KE= 4.057437615771D+01
 Orbital energies and kinetic energies (alpha):
                                 1                 2
   1         O               -10.171853         15.880996
   2         O                -0.695452          1.276939
   3         O                -0.394514          0.940807
   4         O                -0.393263          0.958113
   5         O                -0.393259          0.958115
   6         O                -0.318606          0.533768
   7         V                 0.020182          0.363896
   8         V                 0.061032          0.231282
   9         V                 0.061045          0.231291
  10         V                 0.073680          0.254326
  11         V                 0.181696          0.809024
  12         V                 0.181699          0.809021
  13         V                 0.183756          0.855726
  14         V                 0.277102          1.103794
  15         V                 0.638521          1.865270
  16         V                 0.638521          1.865277
  17         V                 0.643314          1.876878
  18         V                 0.752474          1.798659
  19         V                 0.910469          2.282934
  20         V                 0.910474          2.282948
  21         V                 0.931171          2.295365
  22         V                 1.054103          2.499221
  23         V                 1.123548          2.086806
  24         V                 1.358157          2.345961
  25         V                 1.358161          2.345966
  26         V                 1.946327          2.751026
  27         V                 1.946327          2.751026
  28         V                 1.969838          2.785179
  29         V                 2.042997          2.833802
  30         V                 2.043227          2.833866
  31         V                 2.043236          2.833876
  32         V                 2.084781          3.187960
  33         V                 2.084807          3.187989
  34         V                 2.087101          3.191177
  35         V                 2.624187          3.516108
  36         V                 2.624227          3.516157
  37         V                 2.629541          3.515643
  38         V                 2.904327          3.893394
  39         V                 2.904338          3.893408
  40         V                 3.165384          4.740996
  41         V                 3.413594          5.067264
  42         V                 3.413612          5.067301
  43         V                 3.421110          5.065490
  44         V                 4.424266          9.903681
 Orbital energies and kinetic energies (beta):
                                 1                 2
   1         O               -10.171702         15.881186
   2         O                -0.695041          1.275762
   3         O                -0.393163          0.957803
   4         O                -0.393159          0.957809
   5         O                -0.393096          0.953078
   6         V                -0.060424          0.330471
   7         V                 0.023967          0.360980
   8         V                 0.060393          0.230702
   9         V                 0.060407          0.230710
  10         V                 0.084245          0.273974
  11         V                 0.181646          0.809257
  12         V                 0.181649          0.809255
  13         V                 0.188010          0.875540
  14         V                 0.276399          1.102372
  15         V                 0.638537          1.865400
  16         V                 0.638537          1.865401
  17         V                 0.648739          1.847192
  18         V                 0.886046          2.185680
  19         V                 0.910519          2.283420
  20         V                 0.910524          2.283434
  21         V                 1.000876          2.048458
  22         V                 1.056335          2.557336
  23         V                 1.133821          2.076135
  24         V                 1.358474          2.345895
  25         V                 1.358478          2.345900
  26         V                 2.042989          2.833802
  27         V                 2.043222          2.833869
  28         V                 2.043231          2.833880
  29         V                 2.084482          3.186482
  30         V                 2.084509          3.186510
  31         V                 2.087112          3.190595
  32         V                 2.188513          2.752429
  33         V                 2.188513          2.752430
  34         V                 2.201826          2.785980
  35         V                 2.624185          3.516196
  36         V                 2.624224          3.516245
  37         V                 2.630455          3.514693
  38         V                 2.904462          3.893460
  39         V                 2.904473          3.893473
  40         V                 3.165462          4.740759
  41         V                 3.413722          5.067285
  42         V                 3.413741          5.067321
  43         V                 3.421448          5.065547
  44         V                 4.424634          9.903614
 Total kinetic energy from orbitals= 4.057437615771D+01
                          Isotropic Fermi Contact Couplings
        Atom                 a.u.       MegaHertz       Gauss      10(-4) cm-1
     1  C(13)              0.00394       4.42639       1.57945       1.47648
     2  H(1)              -0.00001      -0.03500      -0.01249      -0.01167
     3  H(1)              -0.00001      -0.03500      -0.01249      -0.01167
     4  H(1)              -0.00001      -0.03494      -0.01247      -0.01166
     5  H(1)               0.00056       2.51661       0.89799       0.83945
     6  H(1)               0.30034    1342.47419     479.02816     447.80119
 --------------------------------------------------------
       Center         ----  Spin Dipole Couplings  ----
                      3XX-RR        3YY-RR        3ZZ-RR
 --------------------------------------------------------
     1   Atom        0.015916     -0.007958     -0.007958
     2   Atom        0.003612     -0.002394     -0.001218
     3   Atom        0.003612     -0.001950     -0.001662
     4   Atom        0.003611     -0.001074     -0.002538
     5   Atom        0.019963     -0.009982     -0.009982
     6   Atom        0.000266     -0.000133     -0.000133
 --------------------------------------------------------
                        XY            XZ            YZ
 --------------------------------------------------------
     1   Atom       -0.000001     -0.000000     -0.000000
     2   Atom       -0.000604      0.001629     -0.000506
     3   Atom       -0.001109     -0.001338      0.000762
     4   Atom        0.001713     -0.000291     -0.000256
     5   Atom        0.000000     -0.000000      0.000000
     6   Atom       -0.000000      0.000000     -0.000000
 --------------------------------------------------------


 ---------------------------------------------------------------------------------
              Anisotropic Spin Dipole Couplings in Principal Axis System
 ---------------------------------------------------------------------------------

       Atom             a.u.   MegaHertz   Gauss  10(-4) cm-1        Axes

              Baa    -0.0080    -1.068    -0.381    -0.356  0.0000  0.7773  0.6291
     1 C(13)  Bbb    -0.0080    -1.068    -0.381    -0.356 -0.0000 -0.6291  0.7773
              Bcc     0.0159     2.136     0.762     0.712  1.0000 -0.0000 -0.0000
 
              Baa    -0.0026    -1.377    -0.491    -0.459  0.0000  0.9376  0.3478
     2 H(1)   Bbb    -0.0016    -0.858    -0.306    -0.286 -0.3158 -0.3300  0.8896
              Bcc     0.0042     2.235     0.798     0.746  0.9488 -0.1098  0.2961
 
              Baa    -0.0026    -1.377    -0.491    -0.459  0.0000  0.7699 -0.6381
     3 H(1)   Bbb    -0.0016    -0.858    -0.306    -0.286  0.3158  0.6055  0.7305
              Bcc     0.0042     2.235     0.798     0.746  0.9488 -0.2015 -0.2431
 
              Baa    -0.0026    -1.377    -0.491    -0.459  0.0000  0.1676  0.9858
     4 H(1)   Bbb    -0.0016    -0.858    -0.306    -0.286 -0.3158  0.9354 -0.1591
              Bcc     0.0042     2.235     0.798     0.746  0.9488  0.3113 -0.0529
 
              Baa    -0.0100    -5.326    -1.900    -1.776 -0.0000  0.9808 -0.1949
     5 H(1)   Bbb    -0.0100    -5.326    -1.900    -1.776 -0.0000  0.1949  0.9808
              Bcc     0.0200    10.651     3.801     3.553  1.0000  0.0000 -0.0000
 
              Baa    -0.0001    -0.071    -0.025    -0.024 -0.0000  0.2478  0.9688
     6 H(1)   Bbb    -0.0001    -0.071    -0.025    -0.024  0.0000  0.9688 -0.2478
              Bcc     0.0003     0.142     0.051     0.047  1.0000 -0.0000  0.0000
 

 ---------------------------------------------------------------------------------

 No NMR shielding tensors so no spin-rotation constants.
 Leave Link  601 at Fri Sep 13 16:06:55 2024, MaxMem=   268435456 cpu:         2.4
 (Enter /g100_work/pMI24_ChiCa/g09d1/g09d01/d01/build-node-6-2-59348/src/main/l9999.exe)


 TIME IS NATURE'S WAY OF MAKING SURE EVERYTHING
 DOESN'T HAPPEN AT ONCE.
                     - WOODY ALLEN
 Error termination request processed by link 9999.
 Error termination via Lnk1e in /g100_work/pMI24_ChiCa/g09d1/g09d01/d01/build-node-6-2-59348/src/main/l9999.exe at Fri Sep 13 16:06:55 2024.
 Job cpu time:       0 days  0 hours  9 minutes 35.2 seconds.
 File lengths (MBytes):  RWF=      5 Int=      0 D2E=      0 Chk=      1 Scr=      1
