 Entering Gaussian System, Link 0=/programs/64bit/g09/g09-gfortran/bin/g09
 Input=ch3_aug-cc-pVDZ.com
 Output=ch3_aug-cc-pVDZ.log
 Initial command:
 /programs/64bit/g09/g09-gfortran/bin/l1.exe /home/ospite/Desktop/MMfP/Project6/CH3/g09/HF/Gau-8413.inp -scrdir=/home/ospite/Desktop/MMfP/Project6/CH3/g09/HF/
 Entering Link 1 = /programs/64bit/g09/g09-gfortran/bin/l1.exe PID=      8416.
  
 Copyright (c) 1988,1990,1992,1993,1995,1998,2003,2009, Gaussian, Inc.
                  All Rights Reserved.
  
 This is part of the Gaussian(R) 09 program.  It is based on
 the Gaussian(R) 03 system (copyright 2003, Gaussian, Inc.),
 the Gaussian(R) 98 system (copyright 1998, Gaussian, Inc.),
 the Gaussian(R) 94 system (copyright 1995, Gaussian, Inc.),
 the Gaussian 92(TM) system (copyright 1992, Gaussian, Inc.),
 the Gaussian 90(TM) system (copyright 1990, Gaussian, Inc.),
 the Gaussian 88(TM) system (copyright 1988, Gaussian, Inc.),
 the Gaussian 86(TM) system (copyright 1986, Carnegie Mellon
 University), and the Gaussian 82(TM) system (copyright 1983,
 Carnegie Mellon University). Gaussian is a federally registered
 trademark of Gaussian, Inc.
  
 This software contains proprietary and confidential information,
 including trade secrets, belonging to Gaussian, Inc.
  
 This software is provided under written license and may be
 used, copied, transmitted, or stored only in accord with that
 written license.
  
 The following legend is applicable only to US Government
 contracts under FAR:
  
                    RESTRICTED RIGHTS LEGEND
  
 Use, reproduction and disclosure by the US Government is
 subject to restrictions as set forth in subparagraphs (a)
 and (c) of the Commercial Computer Software - Restricted
 Rights clause in FAR 52.227-19.
  
 Gaussian, Inc.
 340 Quinnipiac St., Bldg. 40, Wallingford CT 06492
  
  
 ---------------------------------------------------------------
 Warning -- This program may not be used in any manner that
 competes with the business of Gaussian, Inc. or will provide
 assistance to any competitor of Gaussian, Inc.  The licensee
 of this program is prohibited from giving any competitor of
 Gaussian, Inc. access to this program.  By using this program,
 the user acknowledges that Gaussian, Inc. is engaged in the
 business of creating and licensing software in the field of
 computational chemistry and represents and warrants to the
 licensee that it is not a competitor of Gaussian, Inc. and that
 it will not use this program in any manner prohibited above.
 ---------------------------------------------------------------
  

 Cite this work as:
 Gaussian 09, Revision A.02,
 M. J. Frisch, G. W. Trucks, H. B. Schlegel, G. E. Scuseria, 
 M. A. Robb, J. R. Cheeseman, G. Scalmani, V. Barone, B. Mennucci, 
 G. A. Petersson, H. Nakatsuji, M. Caricato, X. Li, H. P. Hratchian, 
 A. F. Izmaylov, J. Bloino, G. Zheng, J. L. Sonnenberg, M. Hada, 
 M. Ehara, K. Toyota, R. Fukuda, J. Hasegawa, M. Ishida, T. Nakajima, 
 Y. Honda, O. Kitao, H. Nakai, T. Vreven, J. A. Montgomery, Jr., 
 J. E. Peralta, F. Ogliaro, M. Bearpark, J. J. Heyd, E. Brothers, 
 K. N. Kudin, V. N. Staroverov, R. Kobayashi, J. Normand, 
 K. Raghavachari, A. Rendell, J. C. Burant, S. S. Iyengar, J. Tomasi, 
 M. Cossi, N. Rega, J. M. Millam, M. Klene, J. E. Knox, J. B. Cross, 
 V. Bakken, C. Adamo, J. Jaramillo, R. Gomperts, R. E. Stratmann, 
 O. Yazyev, A. J. Austin, R. Cammi, C. Pomelli, J. W. Ochterski, 
 R. L. Martin, K. Morokuma, V. G. Zakrzewski, G. A. Voth, 
 P. Salvador, J. J. Dannenberg, S. Dapprich, A. D. Daniels, 
 O. Farkas, J. B. Foresman, J. V. Ortiz, J. Cioslowski, 
 and D. J. Fox, Gaussian, Inc., Wallingford CT, 2009.
 
 ******************************************
 Gaussian 09:  EM64L-G09RevA.02 11-Jun-2009
                17-Aug-2024 
 ******************************************
 %mem=100MB
 --------------------------------------------------------------------
 #p hf/aug-cc-pVDZ opt freq symmetry=(follow,pg=C3v) pop=full gfinput
 --------------------------------------------------------------------
 1/18=20,19=15,38=1/1,3;
 2/9=110,12=2,17=6,18=5,19=2314885530821997379,40=1/2;
 3/5=16,7=10,11=9,16=1,24=10,25=1,30=1,71=1/1,2,3;
 4//1;
 5/5=2,38=5/2;
 6/7=3,28=1/1;
 7//1,2,3,16;
 1/18=20,19=15/3(2);
 2/9=110,15=5,19=2314885530821997379/2;
 99//99;
 2/9=110,15=5,19=2314885530821997379/2;
 3/5=16,7=10,11=9,16=1,25=1,30=1,71=1/1,2,3;
 4/5=5,16=3/1;
 5/5=2,38=5/2;
 7//1,2,3,16;
 1/18=20,19=15/3(-5);
 2/9=110,15=5,19=2314885530821997379/2;
 6/7=3,19=2,28=1/1;
 99/9=1/99;
 Leave Link    1 at Sat Aug 17 17:48:21 2024, MaxMem=   13107200 cpu:       0.1
 (Enter /programs/64bit/g09/g09-gfortran/bin/l101.exe)
 --------------------------------------------------------------
 methyl with imposed symmetry and hf/aug-cc-pVDZ basis function
 --------------------------------------------------------------
 Symbolic Z-matrix:
 Charge =  0 Multiplicity = 2
 C1
 H2                   1    d
 H3                   1    d        2    a
 H4                   1    d        2    -a       3    t        0
       Variables:
  d                     1.09                     
  a                   120.                       
  t                     0.                       
 
 NAtoms=      4 NQM=      4 NQMF=      0 NMic=      0 NMicF=      0 NTot=      4.
                    Isotopes and Nuclear Properties:
 (Nuclear quadrupole moments (NQMom) in fm**2, nuclear magnetic moments (NMagM)
  in nuclear magnetons)

  Atom         1           2           3           4
 IAtWgt=          12           1           1           1
 AtmWgt=  12.0000000   1.0078250   1.0078250   1.0078250
 NucSpn=           0           1           1           1
 AtZEff=   0.0000000   0.0000000   0.0000000   0.0000000
 NQMom=    0.0000000   0.0000000   0.0000000   0.0000000
 NMagM=    0.0000000   2.7928460   2.7928460   2.7928460
 Leave Link  101 at Sat Aug 17 17:48:21 2024, MaxMem=   13107200 cpu:       0.1
 (Enter /programs/64bit/g09/g09-gfortran/bin/l103.exe)

 GradGradGradGradGradGradGradGradGradGradGradGradGradGradGradGradGradGrad
 Berny optimization.
 Initialization pass.
                           ----------------------------
                           !    Initial Parameters    !
                           ! (Angstroms and Degrees)  !
 --------------------------                            --------------------------
 ! Name  Definition              Value          Derivative Info.                !
 --------------------------------------------------------------------------------
 ! R1    R(1,2)                  1.09           estimate D2E/DX2                !
 ! R2    R(1,3)                  1.09           estimate D2E/DX2                !
 ! R3    R(1,4)                  1.09           estimate D2E/DX2                !
 ! A1    A(2,1,3)              120.0            estimate D2E/DX2                !
 ! A2    A(2,1,4)              120.0            estimate D2E/DX2                !
 ! A3    A(3,1,4)              120.0            estimate D2E/DX2                !
 ! D1    D(2,1,4,3)            180.0            estimate D2E/DX2                !
 --------------------------------------------------------------------------------
 Trust Radius=3.00D-01 FncErr=1.00D-07 GrdErr=1.00D-07
 Number of steps in this run=  20 maximum allowed number of steps= 100.
 GradGradGradGradGradGradGradGradGradGradGradGradGradGradGradGradGradGrad

 Leave Link  103 at Sat Aug 17 17:48:21 2024, MaxMem=   13107200 cpu:       0.0
 (Enter /programs/64bit/g09/g09-gfortran/bin/l202.exe)
                          Input orientation:                          
 ---------------------------------------------------------------------
 Center     Atomic      Atomic             Coordinates (Angstroms)
 Number     Number       Type             X           Y           Z
 ---------------------------------------------------------------------
      1          6           0        0.000000    0.000000    0.000000
      2          1           0        0.000000    0.000000    1.090000
      3          1           0        0.943968    0.000000   -0.545000
      4          1           0       -0.943968    0.000000   -0.545000
 ---------------------------------------------------------------------
                    Distance matrix (angstroms):
                    1          2          3          4
     1  C    0.000000
     2  H    1.090000   0.000000
     3  H    1.090000   1.887935   0.000000
     4  H    1.090000   1.887935   1.887935   0.000000
 Symm:  InNGrp=C3V  InAxis=0.
 This structure is nearly, but not quite of a higher symmetry.
 Consider Symm=Loose if the higher symmetry is desired.
 Stoichiometry    CH3(2)
 Framework group  C2[C2(CH),X(H2)]
 Deg. of freedom     3
 Full point group                 C2      NOp   2
 Largest Abelian subgroup         C2      NOp   2
 Largest concise Abelian subgroup C2      NOp   2
                         Standard orientation:                         
 ---------------------------------------------------------------------
 Center     Atomic      Atomic             Coordinates (Angstroms)
 Number     Number       Type             X           Y           Z
 ---------------------------------------------------------------------
      1          6           0        0.000000    0.000000    0.000000
      2          1           0        0.000000    0.000000    1.090000
      3          1           0        0.000000    0.943968   -0.545000
      4          1           0       -0.000000   -0.943968   -0.545000
 ---------------------------------------------------------------------
 Rotational constants (GHZ):    281.3764836    281.3764836    140.6882418
 Leave Link  202 at Sat Aug 17 17:48:21 2024, MaxMem=   13107200 cpu:       0.0
 (Enter /programs/64bit/g09/g09-gfortran/bin/l301.exe)
 Standard basis: Aug-CC-pVDZ (5D, 7F)
 Ernie: Thresh=  0.10000D-02 Tol=  0.10000D-05 Strict=F.
 Ernie:  2 primitive shells out of 46 were deleted.
 AO basis set in the form of general basis input (Overlap normalization):
      1 0
 S   7 1.00       0.000000000000
      0.6665000000D+04  0.6935163173D-03
      0.1000000000D+04  0.5341502433D-02
      0.2280000000D+03  0.2713667141D-01
      0.6471000000D+02  0.1019923853D+00
      0.2106000000D+02  0.2755086365D+00
      0.7495000000D+01  0.4510864331D+00
      0.2797000000D+01  0.2875657448D+00
 S   7 1.00       0.000000000000
      0.6665000000D+04  0.7733547404D-05
      0.2280000000D+03  0.2780721367D-03
      0.6471000000D+02 -0.2578756542D-02
      0.2106000000D+02 -0.8950876838D-02
      0.7495000000D+01 -0.1060588547D+00
      0.2797000000D+01 -0.1315176856D+00
      0.5215000000D+00  0.1099486598D+01
 S   1 1.00       0.000000000000
      0.1596000000D+00  0.1000000000D+01
 S   1 1.00       0.000000000000
      0.4690000000D-01  0.1000000000D+01
 P   3 1.00       0.000000000000
      0.9439000000D+01  0.5697925159D-01
      0.2002000000D+01  0.3132072115D+00
      0.5456000000D+00  0.7603767417D+00
 P   1 1.00       0.000000000000
      0.1517000000D+00  0.1000000000D+01
 P   1 1.00       0.000000000000
      0.4041000000D-01  0.1000000000D+01
 D   1 1.00       0.000000000000
      0.5500000000D+00  0.1000000000D+01
 D   1 1.00       0.000000000000
      0.1510000000D+00  0.1000000000D+01
 ****
      2 0
 S   3 1.00       0.000000000000
      0.1301000000D+02  0.3349872639D-01
      0.1962000000D+01  0.2348008012D+00
      0.4446000000D+00  0.8136829579D+00
 S   1 1.00       0.000000000000
      0.1220000000D+00  0.1000000000D+01
 S   1 1.00       0.000000000000
      0.2974000000D-01  0.1000000000D+01
 P   1 1.00       0.000000000000
      0.7270000000D+00  0.1000000000D+01
 P   1 1.00       0.000000000000
      0.1410000000D+00  0.1000000000D+01
 ****
      3 0
 S   3 1.00       0.000000000000
      0.1301000000D+02  0.3349872639D-01
      0.1962000000D+01  0.2348008012D+00
      0.4446000000D+00  0.8136829579D+00
 S   1 1.00       0.000000000000
      0.1220000000D+00  0.1000000000D+01
 S   1 1.00       0.000000000000
      0.2974000000D-01  0.1000000000D+01
 P   1 1.00       0.000000000000
      0.7270000000D+00  0.1000000000D+01
 P   1 1.00       0.000000000000
      0.1410000000D+00  0.1000000000D+01
 ****
      4 0
 S   3 1.00       0.000000000000
      0.1301000000D+02  0.3349872639D-01
      0.1962000000D+01  0.2348008012D+00
      0.4446000000D+00  0.8136829579D+00
 S   1 1.00       0.000000000000
      0.1220000000D+00  0.1000000000D+01
 S   1 1.00       0.000000000000
      0.2974000000D-01  0.1000000000D+01
 P   1 1.00       0.000000000000
      0.7270000000D+00  0.1000000000D+01
 P   1 1.00       0.000000000000
      0.1410000000D+00  0.1000000000D+01
 ****

 There are    27 symmetry adapted basis functions of A   symmetry.
 There are    23 symmetry adapted basis functions of B   symmetry.
 Integral buffers will be    131072 words long.
 Raffenetti 2 integral format.
 Two-electron integral symmetry is turned on.
    50 basis functions,    76 primitive gaussians,    52 cartesian basis functions
     5 alpha electrons        4 beta electrons
       nuclear repulsion energy         9.5795885928 Hartrees.
 IExCor=    0 DFT=F Ex=HF Corr=None ExCW=0 ScaHFX=  1.000000
 ScaDFX=  1.000000  1.000000  1.000000  1.000000 ScalE2=  1.000000  1.000000
 IRadAn=      0 IRanWt=     -1 IRanGd=            0 ICorTp=0
 NAtoms=    4 NActive=    4 NUniq=    3 SFac= 1.33D+00 NAtFMM=   80 NAOKFM=F Big=F
 Leave Link  301 at Sat Aug 17 17:48:21 2024, MaxMem=   13107200 cpu:       0.1
 (Enter /programs/64bit/g09/g09-gfortran/bin/l302.exe)
 NPDir=0 NMtPBC=     1 NCelOv=     1 NCel=       1 NClECP=     1 NCelD=      1
         NCelK=      1 NCelE2=     1 NClLst=     1 CellRange=     0.0.
 One-electron integrals computed using PRISM.
 One-electron integral symmetry used in STVInt
 NBasis=    50 RedAO= T  NBF=    27    23
 NBsUse=    50 1.00D-06 NBFU=    27    23
 Leave Link  302 at Sat Aug 17 17:48:22 2024, MaxMem=   13107200 cpu:       0.2
 (Enter /programs/64bit/g09/g09-gfortran/bin/l303.exe)
 DipDrv:  MaxL=1.
 Leave Link  303 at Sat Aug 17 17:48:22 2024, MaxMem=   13107200 cpu:       0.0
 (Enter /programs/64bit/g09/g09-gfortran/bin/l401.exe)
 Harris functional with IExCor=  205 diagonalized for initial guess.
 ExpMin= 2.97D-02 ExpMax= 6.66D+03 ExpMxC= 2.28D+02 IAcc=3 IRadAn=         0 AccDes= 0.00D+00
 HarFok:  IExCor=  205 AccDes= 0.00D+00 IRadAn=         0 IDoV= 1
 ScaDFX=  1.000000  1.000000  1.000000  1.000000
 FoFCou: FMM=F IPFlag=           0 FMFlag=      100000 FMFlg1=           0
         NFxFlg=           0 DoJE=T BraDBF=F KetDBF=T FulRan=T
         Omega=  0.000000  0.000000  1.000000  0.000000  0.000000 ICntrl=     500 IOpCl=  0
         NMat0=    1 NMatS0=    1 NMatT0=    0 NMatD0=    1 NMtDS0=    0 NMtDT0=    0
         I1Cent=           4 NGrid=           0.
 Petite list used in FoFCou.
 Harris En= -39.6296316684376    
 Initial guess orbital symmetries:
 Alpha Orbitals:
       Occupied  (A) (A) (B) (A) (B)
       Virtual   (A) (B) (A) (B) (B) (A) (A) (B) (A) (A) (A) (B)
                 (B) (A) (B) (B) (A) (A) (A) (B) (A) (B) (B) (A)
                 (A) (B) (B) (A) (A) (B) (A) (B) (A) (B) (B) (A)
                 (B) (A) (A) (B) (B) (A) (A) (B) (A)
 Beta  Orbitals:
       Occupied  (A) (A) (B) (A)
       Virtual   (B) (A) (B) (A) (B) (B) (A) (A) (B) (A) (A) (A)
                 (B) (B) (A) (B) (B) (A) (A) (A) (B) (A) (B) (B)
                 (A) (A) (B) (B) (A) (A) (B) (A) (B) (A) (B) (B)
                 (A) (B) (A) (A) (B) (B) (A) (A) (B) (A)
 The electronic state of the initial guess is 2-B.
 Initial guess <Sx>= 0.0000 <Sy>= 0.0000 <Sz>= 0.5000 <S**2>= 0.7500 S= 0.5000
 Leave Link  401 at Sat Aug 17 17:48:22 2024, MaxMem=   13107200 cpu:       0.5
 (Enter /programs/64bit/g09/g09-gfortran/bin/l502.exe)
 UHF open shell SCF:
 Requested convergence on RMS density matrix=1.00D-08 within 128 cycles.
 Requested convergence on MAX density matrix=1.00D-06.
 Requested convergence on             energy=1.00D-06.
 No special actions if energy rises.
 Using DIIS extrapolation, IDIIS=  1040.
 Integral symmetry usage will be decided dynamically.
 Keep R1 and R2 ints in memory in canonical form, NReq=2747321.
 IEnd=       27038 IEndB=       27038 NGot=    13107200 MDV=    11199269
 LenX=    11199269 LenY=    11196124
 Symmetry not used in FoFDir.
 MinBra= 0 MaxBra= 2 Meth= 1.
 IRaf=       0 NMat=   1 IRICut=       1 DoRegI=T DoRafI=F ISym2E= 0 JSym2E=0.

 Cycle   1  Pass 1  IDiag  1:
 E= -39.5039623270263    
 DIIS: error= 3.36D-02 at cycle   1 NSaved=   1.
 NSaved= 1 IEnMin= 1 EnMin= -39.5039623270263     IErMin= 1 ErrMin= 3.36D-02
 ErrMax= 3.36D-02 EMaxC= 1.00D-01 BMatC= 2.46D-01 BMatP= 2.46D-01
 IDIUse=3 WtCom= 6.64D-01 WtEn= 3.36D-01
 Coeff-Com:  0.100D+01
 Coeff-En:   0.100D+01
 Coeff:      0.100D+01
 Gap=     0.383 Goal=   None    Shift=    0.000
 Gap=     0.587 Goal=   None    Shift=    0.000
 GapD=    0.383 DampG=1.000 DampE=0.500 DampFc=0.5000 IDamp=-1.
 Damping current iteration by 5.00D-01
 RMSDP=9.75D-03 MaxDP=1.20D-01              OVMax= 1.08D-01

 Cycle   2  Pass 1  IDiag  1:
 E= -39.5364790067531     Delta-E=       -0.032516679727 Rises=F Damp=T
 DIIS: error= 1.41D-02 at cycle   2 NSaved=   2.
 NSaved= 2 IEnMin= 2 EnMin= -39.5364790067531     IErMin= 2 ErrMin= 1.41D-02
 ErrMax= 1.41D-02 EMaxC= 1.00D-01 BMatC= 4.41D-02 BMatP= 2.46D-01
 IDIUse=3 WtCom= 8.59D-01 WtEn= 1.41D-01
 Coeff-Com: -0.602D+00 0.160D+01
 Coeff-En:   0.000D+00 0.100D+01
 Coeff:     -0.517D+00 0.152D+01
 Gap=     0.411 Goal=   None    Shift=    0.000
 Gap=     0.601 Goal=   None    Shift=    0.000
 RMSDP=4.43D-03 MaxDP=4.92D-02 DE=-3.25D-02 OVMax= 3.47D-02

 Cycle   3  Pass 1  IDiag  1:
 E= -39.5650581274185     Delta-E=       -0.028579120665 Rises=F Damp=F
 DIIS: error= 2.43D-03 at cycle   3 NSaved=   3.
 NSaved= 3 IEnMin= 3 EnMin= -39.5650581274185     IErMin= 3 ErrMin= 2.43D-03
 ErrMax= 2.43D-03 EMaxC= 1.00D-01 BMatC= 6.19D-04 BMatP= 4.41D-02
 IDIUse=3 WtCom= 9.76D-01 WtEn= 2.43D-02
 Coeff-Com:  0.633D-01-0.200D+00 0.114D+01
 Coeff-En:   0.000D+00 0.000D+00 0.100D+01
 Coeff:      0.618D-01-0.195D+00 0.113D+01
 Gap=     0.417 Goal=   None    Shift=    0.000
 Gap=     0.603 Goal=   None    Shift=    0.000
 RMSDP=3.62D-04 MaxDP=6.32D-03 DE=-2.86D-02 OVMax= 6.96D-03

 Cycle   4  Pass 1  IDiag  1:
 E= -39.5654142414377     Delta-E=       -0.000356114019 Rises=F Damp=F
 DIIS: error= 9.76D-04 at cycle   4 NSaved=   4.
 NSaved= 4 IEnMin= 4 EnMin= -39.5654142414377     IErMin= 4 ErrMin= 9.76D-04
 ErrMax= 9.76D-04 EMaxC= 1.00D-01 BMatC= 1.41D-04 BMatP= 6.19D-04
 IDIUse=3 WtCom= 9.90D-01 WtEn= 9.76D-03
 Coeff-Com: -0.392D-01 0.121D+00-0.924D+00 0.184D+01
 Coeff-En:   0.000D+00 0.000D+00 0.000D+00 0.100D+01
 Coeff:     -0.388D-01 0.119D+00-0.915D+00 0.183D+01
 Gap=     0.420 Goal=   None    Shift=    0.000
 Gap=     0.602 Goal=   None    Shift=    0.000
 RMSDP=2.84D-04 MaxDP=4.96D-03 DE=-3.56D-04 OVMax= 6.44D-03

 Cycle   5  Pass 1  IDiag  1:
 E= -39.5655515105297     Delta-E=       -0.000137269092 Rises=F Damp=F
 DIIS: error= 3.71D-04 at cycle   5 NSaved=   5.
 NSaved= 5 IEnMin= 5 EnMin= -39.5655515105297     IErMin= 5 ErrMin= 3.71D-04
 ErrMax= 3.71D-04 EMaxC= 1.00D-01 BMatC= 1.87D-05 BMatP= 1.41D-04
 IDIUse=3 WtCom= 9.96D-01 WtEn= 3.71D-03
 Coeff-Com:  0.235D-01-0.730D-01 0.647D+00-0.164D+01 0.204D+01
 Coeff-En:   0.000D+00 0.000D+00 0.000D+00 0.000D+00 0.100D+01
 Coeff:      0.235D-01-0.728D-01 0.645D+00-0.163D+01 0.204D+01
 Gap=     0.421 Goal=   None    Shift=    0.000
 Gap=     0.602 Goal=   None    Shift=    0.000
 RMSDP=1.39D-04 MaxDP=2.56D-03 DE=-1.37D-04 OVMax= 3.16D-03

 Cycle   6  Pass 1  IDiag  1:
 E= -39.5655735157131     Delta-E=       -0.000022005183 Rises=F Damp=F
 DIIS: error= 7.48D-05 at cycle   6 NSaved=   6.
 NSaved= 6 IEnMin= 6 EnMin= -39.5655735157131     IErMin= 6 ErrMin= 7.48D-05
 ErrMax= 7.48D-05 EMaxC= 1.00D-01 BMatC= 4.30D-07 BMatP= 1.87D-05
 IDIUse=1 WtCom= 1.00D+00 WtEn= 0.00D+00
 Coeff-Com: -0.755D-02 0.229D-01-0.199D+00 0.535D+00-0.799D+00 0.145D+01
 Coeff:     -0.755D-02 0.229D-01-0.199D+00 0.535D+00-0.799D+00 0.145D+01
 Gap=     0.421 Goal=   None    Shift=    0.000
 Gap=     0.602 Goal=   None    Shift=    0.000
 RMSDP=2.02D-05 MaxDP=2.67D-04 DE=-2.20D-05 OVMax= 4.80D-04

 Cycle   7  Pass 1  IDiag  1:
 E= -39.5655739605913     Delta-E=       -0.000000444878 Rises=F Damp=F
 DIIS: error= 2.18D-05 at cycle   7 NSaved=   7.
 NSaved= 7 IEnMin= 7 EnMin= -39.5655739605913     IErMin= 7 ErrMin= 2.18D-05
 ErrMax= 2.18D-05 EMaxC= 1.00D-01 BMatC= 2.26D-08 BMatP= 4.30D-07
 IDIUse=1 WtCom= 1.00D+00 WtEn= 0.00D+00
 Coeff-Com:  0.362D-02-0.105D-01 0.834D-01-0.226D+00 0.350D+00-0.776D+00
 Coeff-Com:  0.158D+01
 Coeff:      0.362D-02-0.105D-01 0.834D-01-0.226D+00 0.350D+00-0.776D+00
 Coeff:      0.158D+01
 Gap=     0.421 Goal=   None    Shift=    0.000
 Gap=     0.602 Goal=   None    Shift=    0.000
 RMSDP=3.93D-06 MaxDP=9.39D-05 DE=-4.45D-07 OVMax= 1.10D-04

 Cycle   8  Pass 1  IDiag  1:
 E= -39.5655739813614     Delta-E=       -0.000000020770 Rises=F Damp=F
 DIIS: error= 5.58D-06 at cycle   8 NSaved=   8.
 NSaved= 8 IEnMin= 8 EnMin= -39.5655739813614     IErMin= 8 ErrMin= 5.58D-06
 ErrMax= 5.58D-06 EMaxC= 1.00D-01 BMatC= 5.74D-10 BMatP= 2.26D-08
 IDIUse=1 WtCom= 1.00D+00 WtEn= 0.00D+00
 Coeff-Com: -0.484D-03 0.134D-02-0.915D-02 0.259D-01-0.423D-01 0.115D+00
 Coeff-Com: -0.379D+00 0.129D+01
 Coeff:     -0.484D-03 0.134D-02-0.915D-02 0.259D-01-0.423D-01 0.115D+00
 Coeff:     -0.379D+00 0.129D+01
 Gap=     0.421 Goal=   None    Shift=    0.000
 Gap=     0.602 Goal=   None    Shift=    0.000
 RMSDP=8.97D-07 MaxDP=2.63D-05 DE=-2.08D-08 OVMax= 3.07D-05

 Cycle   9  Pass 1  IDiag  1:
 E= -39.5655739819126     Delta-E=       -0.000000000551 Rises=F Damp=F
 DIIS: error= 7.97D-07 at cycle   9 NSaved=   9.
 NSaved= 9 IEnMin= 9 EnMin= -39.5655739819126     IErMin= 9 ErrMin= 7.97D-07
 ErrMax= 7.97D-07 EMaxC= 1.00D-01 BMatC= 2.97D-11 BMatP= 5.74D-10
 IDIUse=1 WtCom= 1.00D+00 WtEn= 0.00D+00
 Coeff-Com:  0.797D-04-0.193D-03 0.746D-03-0.236D-02 0.447D-02-0.160D-01
 Coeff-Com:  0.882D-01-0.472D+00 0.140D+01
 Coeff:      0.797D-04-0.193D-03 0.746D-03-0.236D-02 0.447D-02-0.160D-01
 Coeff:      0.882D-01-0.472D+00 0.140D+01
 Gap=     0.421 Goal=   None    Shift=    0.000
 Gap=     0.602 Goal=   None    Shift=    0.000
 RMSDP=2.37D-07 MaxDP=4.34D-06 DE=-5.51D-10 OVMax= 4.65D-06

 Cycle  10  Pass 1  IDiag  1:
 E= -39.5655739819372     Delta-E=       -0.000000000025 Rises=F Damp=F
 DIIS: error= 1.99D-07 at cycle  10 NSaved=  10.
 NSaved=10 IEnMin=10 EnMin= -39.5655739819372     IErMin=10 ErrMin= 1.99D-07
 ErrMax= 1.99D-07 EMaxC= 1.00D-01 BMatC= 1.83D-12 BMatP= 2.97D-11
 IDIUse=1 WtCom= 1.00D+00 WtEn= 0.00D+00
 Coeff-Com: -0.698D-05 0.451D-05 0.299D-03-0.677D-03 0.701D-03 0.651D-03
 Coeff-Com: -0.225D-01 0.164D+00-0.715D+00 0.157D+01
 Coeff:     -0.698D-05 0.451D-05 0.299D-03-0.677D-03 0.701D-03 0.651D-03
 Coeff:     -0.225D-01 0.164D+00-0.715D+00 0.157D+01
 Gap=     0.421 Goal=   None    Shift=    0.000
 Gap=     0.602 Goal=   None    Shift=    0.000
 RMSDP=4.32D-08 MaxDP=1.10D-06 DE=-2.46D-11 OVMax= 1.40D-06

 Cycle  11  Pass 1  IDiag  1:
 E= -39.5655739819389     Delta-E=       -0.000000000002 Rises=F Damp=F
 DIIS: error= 2.38D-08 at cycle  11 NSaved=  11.
 NSaved=11 IEnMin=11 EnMin= -39.5655739819389     IErMin=11 ErrMin= 2.38D-08
 ErrMax= 2.38D-08 EMaxC= 1.00D-01 BMatC= 2.55D-14 BMatP= 1.83D-12
 IDIUse=1 WtCom= 1.00D+00 WtEn= 0.00D+00
 Coeff-Com:  0.752D-06 0.638D-06-0.661D-04 0.155D-03-0.182D-03 0.199D-04
 Coeff-Com:  0.376D-02-0.289D-01 0.144D+00-0.407D+00 0.129D+01
 Coeff:      0.752D-06 0.638D-06-0.661D-04 0.155D-03-0.182D-03 0.199D-04
 Coeff:      0.376D-02-0.289D-01 0.144D+00-0.407D+00 0.129D+01
 Gap=     0.421 Goal=   None    Shift=    0.000
 Gap=     0.602 Goal=   None    Shift=    0.000
 RMSDP=4.39D-09 MaxDP=6.09D-08 DE=-1.69D-12 OVMax= 1.04D-07

 SCF Done:  E(UHF) =  -39.5655739819     A.U. after   11 cycles
             Convg  =    0.4389D-08             -V/T =  2.0027
 <Sx>= 0.0000 <Sy>= 0.0000 <Sz>= 0.5000 <S**2>= 0.7617 S= 0.5058
 <L.S>=  0.00000000000    
 KE= 3.945958641915D+01 PE=-1.108201349296D+02 EE= 2.221538593571D+01
 Annihilation of the first spin contaminant:
 S**2 before annihilation     0.7617,   after     0.7501
 Leave Link  502 at Sat Aug 17 17:48:23 2024, MaxMem=   13107200 cpu:       0.4
 (Enter /programs/64bit/g09/g09-gfortran/bin/l601.exe)
 Copying SCF densities to generalized density rwf, IOpCl= 1 IROHF=0.

 **********************************************************************

            Population analysis using the SCF density.

 **********************************************************************

 Orbital symmetries:
 Alpha Orbitals:
       Occupied  (A) (A) (B) (A) (B)
       Virtual   (A) (A) (B) (B) (B) (A) (A) (A) (B) (A) (B) (A)
                 (B) (A) (B) (B) (A) (A) (A) (B) (A) (B) (A) (B)
                 (B) (A) (B) (A) (A) (B) (B) (A) (A) (B) (B) (B)
                 (A) (A) (B) (A) (B) (A) (A) (A) (B)
 Beta  Orbitals:
       Occupied  (A) (A) (A) (B)
       Virtual   (A) (A) (B) (B) (B) (A) (A) (B) (A) (B) (A) (B)
                 (A) (B) (A) (B) (B) (A) (A) (B) (A) (A) (B) (A)
                 (B) (A) (B) (A) (B) (A) (B) (B) (A) (A) (B) (B)
                 (A) (B) (A) (B) (A) (A) (B) (A) (A) (B)
 The electronic state is 2-B.
 Alpha  occ. eigenvalues --  -11.24619  -0.94508  -0.57719  -0.57719  -0.38344
 Alpha virt. eigenvalues --    0.03739   0.06002   0.06002   0.11633   0.15092
 Alpha virt. eigenvalues --    0.15092   0.17369   0.28412   0.28412   0.28574
 Alpha virt. eigenvalues --    0.36151   0.36151   0.44563   0.44563   0.48418
 Alpha virt. eigenvalues --    0.50867   0.53825   0.56494   0.56837   0.56837
 Alpha virt. eigenvalues --    0.62274   0.62274   0.66044   0.66044   0.90604
 Alpha virt. eigenvalues --    0.92769   1.11773   1.11773   1.45591   1.45591
 Alpha virt. eigenvalues --    1.51729   1.51729   1.74627   1.83206   1.96445
 Alpha virt. eigenvalues --    1.97429   1.97429   2.09826   2.26655   2.26655
 Alpha virt. eigenvalues --    2.46715   2.46715   2.80489   2.99055   2.99055
  Beta  occ. eigenvalues --  -11.22216  -0.85375  -0.56239  -0.56239
  Beta virt. eigenvalues --    0.03922   0.06045   0.06045   0.06777   0.15157
  Beta virt. eigenvalues --    0.15157   0.18115   0.19918   0.28833   0.28833
  Beta virt. eigenvalues --    0.31107   0.37834   0.37834   0.44788   0.44788
  Beta virt. eigenvalues --    0.50778   0.52705   0.56758   0.57114   0.57114
  Beta virt. eigenvalues --    0.58075   0.64193   0.64193   0.66808   0.66808
  Beta virt. eigenvalues --    0.94839   1.00841   1.12987   1.12987   1.46044
  Beta virt. eigenvalues --    1.46044   1.56293   1.56293   1.79291   1.82807
  Beta virt. eigenvalues --    1.97739   1.97739   1.97840   2.14162   2.29693
  Beta virt. eigenvalues --    2.29693   2.47189   2.47189   2.81005   2.99940
  Beta virt. eigenvalues --    2.99940
     Alpha Molecular Orbital Coefficients:
                           1         2         3         4         5
                           O         O         O         O         O
     Eigenvalues --   -11.24619  -0.94508  -0.57719  -0.57719  -0.38344
   1 1   C  1S          0.99738  -0.19515   0.00000   0.00000   0.00000
   2        2S          0.02214   0.40158   0.00000  -0.00000   0.00000
   3        3S         -0.03051   0.26890   0.00000  -0.00000   0.00000
   4        4S         -0.00825  -0.00623   0.00000  -0.00000   0.00000
   5        5PX         0.00000   0.00000   0.00000   0.00000   0.60305
   6        5PY         0.00000   0.00000   0.44554   0.00000  -0.00000
   7        5PZ         0.00000  -0.00000   0.00000   0.44554   0.00000
   8        6PX         0.00000   0.00000  -0.00000   0.00000   0.48693
   9        6PY         0.00000   0.00000   0.13749   0.00000   0.00000
  10        6PZ        -0.00000   0.00000   0.00000   0.13749   0.00000
  11        7PX         0.00000   0.00000  -0.00000   0.00000   0.06089
  12        7PY         0.00000   0.00000   0.00474   0.00000   0.00000
  13        7PZ        -0.00000  -0.00000   0.00000   0.00474   0.00000
  14        8D 0        0.00002  -0.00784   0.00000   0.02354   0.00000
  15        8D+1        0.00000   0.00000   0.00000   0.00000  -0.00000
  16        8D-1        0.00000   0.00000  -0.02718   0.00000  -0.00000
  17        8D+2       -0.00004   0.01358   0.00000   0.01359   0.00000
  18        8D-2       -0.00000   0.00000   0.00000  -0.00000   0.00000
  19        9D 0       -0.00080  -0.00805   0.00000  -0.04587   0.00000
  20        9D+1        0.00000   0.00000  -0.00000   0.00000  -0.00000
  21        9D-1        0.00000   0.00000   0.05296   0.00000  -0.00000
  22        9D+2        0.00138   0.01394   0.00000  -0.02648   0.00000
  23        9D-2        0.00000   0.00000   0.00000   0.00000   0.00000
  24 2   H  1S          0.00034   0.19174   0.00000   0.36591   0.00000
  25        2S          0.01003   0.03669   0.00000   0.26234   0.00000
  26        3S          0.00101   0.00317   0.00000   0.00233   0.00000
  27        4PX         0.00000   0.00000  -0.00000   0.00000   0.01960
  28        4PY         0.00000   0.00000   0.01139   0.00000  -0.00000
  29        4PZ         0.00052  -0.02826   0.00000  -0.02080   0.00000
  30        5PX         0.00000   0.00000   0.00000   0.00000   0.00074
  31        5PY         0.00000   0.00000  -0.03636   0.00000  -0.00000
  32        5PZ        -0.00315  -0.00874   0.00000  -0.04689   0.00000
  33 3   H  1S          0.00034   0.19174   0.31689  -0.18295  -0.00000
  34        2S          0.01003   0.03669   0.22719  -0.13117  -0.00000
  35        3S          0.00101   0.00317   0.00202  -0.00117  -0.00000
  36        4PX        -0.00000  -0.00000   0.00000   0.00000   0.01960
  37        4PY         0.00045  -0.02448  -0.01275   0.01394   0.00000
  38        4PZ        -0.00026   0.01413   0.01394   0.00334  -0.00000
  39        5PX        -0.00000   0.00000   0.00000  -0.00000   0.00074
  40        5PY        -0.00272  -0.00757  -0.04426   0.00456   0.00000
  41        5PZ         0.00157   0.00437   0.00456  -0.03899  -0.00000
  42 4   H  1S          0.00034   0.19174  -0.31689  -0.18295   0.00000
  43        2S          0.01003   0.03669  -0.22719  -0.13117   0.00000
  44        3S          0.00101   0.00317  -0.00202  -0.00117   0.00000
  45        4PX         0.00000   0.00000   0.00000  -0.00000   0.01960
  46        4PY        -0.00045   0.02448  -0.01275  -0.01394   0.00000
  47        4PZ        -0.00026   0.01413  -0.01394   0.00334   0.00000
  48        5PX         0.00000  -0.00000   0.00000   0.00000   0.00074
  49        5PY         0.00272   0.00757  -0.04426  -0.00456   0.00000
  50        5PZ         0.00157   0.00437  -0.00456  -0.03899   0.00000
                           6         7         8         9        10
                           V         V         V         V         V
     Eigenvalues --     0.03739   0.06002   0.06002   0.11633   0.15092
   1 1   C  1S         -0.03844  -0.00000   0.00000   0.00000   0.00000
   2        2S          0.03825  -0.00000   0.00000   0.00000   0.00000
   3        3S          0.97509   0.00000   0.00000   0.00000   0.00000
   4        4S          3.13359   0.00000   0.00000   0.00000   0.00000
   5        5PX         0.00000   0.00000   0.00000  -0.17554  -0.00000
   6        5PY         0.00000   0.00000  -0.06792  -0.00000   0.09705
   7        5PZ         0.00000  -0.06792   0.00000   0.00000   0.00000
   8        6PX         0.00000   0.00000   0.00000  -0.17817   0.00000
   9        6PY         0.00000   0.00000  -0.33700   0.00000  -1.63643
  10        6PZ         0.00000  -0.33700   0.00000   0.00000   0.00000
  11        7PX         0.00000   0.00000  -0.00000   1.25765   0.00000
  12        7PY         0.00000   0.00000  -1.71072   0.00000  -4.25121
  13        7PZ         0.00000  -1.71072   0.00000   0.00000   0.00000
  14        8D 0       -0.00259  -0.00676   0.00000   0.00000   0.00000
  15        8D+1        0.00000   0.00000  -0.00000   0.00000   0.00000
  16        8D-1        0.00000   0.00000   0.00781   0.00000  -0.00855
  17        8D+2        0.00448  -0.00390   0.00000   0.00000   0.00000
  18        8D-2        0.00000   0.00000   0.00000   0.00000   0.00000
  19        9D 0        0.04587   0.08064   0.00000   0.00000   0.00000
  20        9D+1        0.00000   0.00000   0.00000   0.00000   0.00000
  21        9D-1        0.00000   0.00000  -0.09312  -0.00000   0.34302
  22        9D+2       -0.07945   0.04656   0.00000   0.00000   0.00000
  23        9D-2       -0.00000  -0.00000   0.00000   0.00000   0.00000
  24 2   H  1S         -0.00163  -0.02756   0.00000   0.00000   0.00000
  25        2S         -0.60414   0.36013   0.00000   0.00000   0.00000
  26        3S         -1.11160   4.77953   0.00000   0.00000   0.00000
  27        4PX         0.00000   0.00000   0.00000   0.00887   0.00000
  28        4PY         0.00000   0.00000  -0.00428   0.00000  -0.01111
  29        4PZ        -0.00410   0.00443   0.00000   0.00000   0.00000
  30        5PX         0.00000   0.00000   0.00000  -0.15134   0.00000
  31        5PY         0.00000   0.00000   0.18039  -0.00000   0.09128
  32        5PZ         0.14678  -0.16182   0.00000   0.00000   0.00000
  33 3   H  1S         -0.00163   0.01378  -0.02387  -0.00000   0.09219
  34        2S         -0.60414  -0.18007   0.31188  -0.00000   3.04242
  35        3S         -1.11160  -2.38976   4.13919  -0.00000   4.84351
  36        4PX        -0.00000  -0.00000   0.00000   0.00887   0.00000
  37        4PY        -0.00355  -0.00377   0.00225   0.00000  -0.01886
  38        4PZ         0.00205  -0.00210  -0.00377  -0.00000   0.00447
  39        5PX         0.00000   0.00000   0.00000  -0.15134   0.00000
  40        5PY         0.12712   0.14818  -0.07627   0.00000  -0.57564
  41        5PZ        -0.07339   0.09484   0.14818  -0.00000   0.38505
  42 4   H  1S         -0.00163   0.01378   0.02387   0.00000  -0.09219
  43        2S         -0.60414  -0.18007  -0.31188   0.00000  -3.04242
  44        3S         -1.11160  -2.38976  -4.13919   0.00000  -4.84351
  45        4PX         0.00000   0.00000   0.00000   0.00887   0.00000
  46        4PY         0.00355   0.00377   0.00225   0.00000  -0.01886
  47        4PZ         0.00205  -0.00210   0.00377   0.00000  -0.00447
  48        5PX        -0.00000  -0.00000   0.00000  -0.15134   0.00000
  49        5PY        -0.12712  -0.14818  -0.07627   0.00000  -0.57564
  50        5PZ        -0.07339   0.09484  -0.14818   0.00000  -0.38505
                          11        12        13        14        15
                           V         V         V         V         V
     Eigenvalues --     0.15092   0.17369   0.28412   0.28412   0.28574
   1 1   C  1S         -0.00000   0.04034  -0.00000   0.00000  -0.07655
   2        2S          0.00000  -0.28961   0.00000   0.00000   0.12704
   3        3S         -0.00000   2.47480   0.00000   0.00000   0.55911
   4        4S         -0.00000   7.81009   0.00000   0.00000   2.62338
   5        5PX         0.00000   0.00000   0.00000  -0.00000   0.00000
   6        5PY         0.00000   0.00000   0.00000   0.24905   0.00000
   7        5PZ         0.09705  -0.00000   0.24905   0.00000  -0.00000
   8        6PX         0.00000   0.00000   0.00000  -0.00000   0.00000
   9        6PY         0.00000   0.00000   0.00000   0.23222   0.00000
  10        6PZ        -1.63643  -0.00000   0.23222   0.00000  -0.00000
  11        7PX         0.00000   0.00000   0.00000  -0.00000   0.00000
  12        7PY         0.00000   0.00000   0.00000  -1.14563   0.00000
  13        7PZ        -4.25121  -0.00000  -1.14563   0.00000   0.00000
  14        8D 0        0.00741  -0.00212  -0.05395   0.00000  -0.01392
  15        8D+1        0.00000   0.00000   0.00000   0.00000   0.00000
  16        8D-1        0.00000   0.00000   0.00000   0.06230   0.00000
  17        8D+2        0.00428   0.00368  -0.03115   0.00000   0.02411
  18        8D-2        0.00000   0.00000   0.00000   0.00000  -0.00000
  19        9D 0       -0.29706   0.14514   0.65495   0.00000  -0.05783
  20        9D+1        0.00000   0.00000   0.00000  -0.00000   0.00000
  21        9D-1        0.00000   0.00000   0.00000  -0.75627   0.00000
  22        9D+2       -0.17151  -0.25139   0.37813   0.00000   0.10016
  23        9D-2       -0.00000  -0.00000  -0.00000   0.00000   0.00000
  24 2   H  1S          0.10645  -0.01114  -0.10748   0.00000  -0.12036
  25        2S          3.51309  -2.07479  -1.35489   0.00000  -1.16162
  26        3S          5.59281  -1.52547   2.41903   0.00000  -0.24427
  27        4PX         0.00000   0.00000   0.00000   0.00000   0.00000
  28        4PY         0.00000   0.00000   0.00000   0.00981   0.00000
  29        4PZ        -0.02144   0.02258  -0.01277   0.00000   0.01687
  30        5PX         0.00000   0.00000   0.00000   0.00000   0.00000
  31        5PY         0.00000   0.00000   0.00000   0.99356   0.00000
  32        5PZ        -0.79795   0.53353  -0.42579   0.00000  -0.29727
  33 3   H  1S         -0.05322  -0.01114   0.05374  -0.09308  -0.12036
  34        2S         -1.75654  -2.07479   0.67744  -1.17337  -1.16162
  35        3S         -2.79640  -1.52547  -1.20951   2.09494  -0.24427
  36        4PX        -0.00000  -0.00000  -0.00000  -0.00000  -0.00000
  37        4PY         0.00447   0.01955   0.00978  -0.00713   0.01461
  38        4PZ        -0.01369  -0.01129   0.00416   0.00978  -0.00844
  39        5PX         0.00000   0.00000  -0.00000   0.00000   0.00000
  40        5PY         0.38505   0.46205   0.61460  -0.07095  -0.25744
  41        5PZ        -0.13102  -0.26676   0.63872   0.61460   0.14863
  42 4   H  1S         -0.05322  -0.01114   0.05374   0.09308  -0.12036
  43        2S         -1.75654  -2.07479   0.67744   1.17337  -1.16162
  44        3S         -2.79640  -1.52547  -1.20951  -2.09494  -0.24427
  45        4PX         0.00000   0.00000   0.00000  -0.00000   0.00000
  46        4PY        -0.00447  -0.01955  -0.00978  -0.00713  -0.01461
  47        4PZ        -0.01369  -0.01129   0.00416  -0.00978  -0.00844
  48        5PX        -0.00000  -0.00000   0.00000   0.00000  -0.00000
  49        5PY        -0.38505  -0.46205  -0.61460  -0.07095   0.25744
  50        5PZ        -0.13102  -0.26676   0.63872  -0.61460   0.14863
                          16        17        18        19        20
                           V         V         V         V         V
     Eigenvalues --     0.36151   0.36151   0.44563   0.44563   0.48418
   1 1   C  1S          0.00000  -0.00000   0.00000   0.00000   0.00000
   2        2S          0.00000  -0.00000   0.00000   0.00000   0.00000
   3        3S          0.00000   0.00000   0.00000  -0.00000   0.00000
   4        4S          0.00000   0.00000   0.00000  -0.00000   0.00000
   5        5PX        -0.00000   0.00000  -0.00000   0.00000   0.30150
   6        5PY         0.00000   0.00000  -0.15288   0.00000  -0.00000
   7        5PZ         0.00000   0.00000   0.00000  -0.15288   0.00000
   8        6PX        -0.00000   0.00000  -0.00000   0.00000   1.92625
   9        6PY        -0.00000   0.00000  -4.66996   0.00000  -0.00000
  10        6PZ         0.00000  -0.00000   0.00000  -4.66996   0.00000
  11        7PX        -0.00000   0.00000  -0.00000   0.00000   0.81583
  12        7PY        -0.00000   0.00000  -3.33541   0.00000  -0.00000
  13        7PZ         0.00000  -0.00000   0.00000  -3.33541   0.00000
  14        8D 0        0.00000   0.00000   0.00000  -0.07203   0.00000
  15        8D+1        0.04510   0.00000  -0.00000   0.00000   0.00000
  16        8D-1        0.00000   0.00000   0.08317   0.00000   0.00000
  17        8D+2        0.00000  -0.00000   0.00000  -0.04158   0.00000
  18        8D-2        0.00000   0.04510   0.00000  -0.00000   0.00000
  19        9D 0        0.00000  -0.00000   0.00000  -0.55246   0.00000
  20        9D+1       -0.14544   0.00000   0.00000   0.00000  -0.00000
  21        9D-1        0.00000   0.00000   0.63792   0.00000   0.00000
  22        9D+2        0.00000  -0.00000   0.00000  -0.31896   0.00000
  23        9D-2        0.00000  -0.14544   0.00000   0.00000   0.00000
  24 2   H  1S          0.00000   0.00000   0.00000  -0.06104   0.00000
  25        2S          0.00000   0.00000   0.00000   7.48864   0.00000
  26        3S          0.00000   0.00000   0.00000   3.25299   0.00000
  27        4PX        -0.02205   0.00000  -0.00000   0.00000   0.03143
  28        4PY        -0.00000   0.00000  -0.00467   0.00000  -0.00000
  29        4PZ         0.00000   0.00000   0.00000  -0.04039   0.00000
  30        5PX         1.19451   0.00000   0.00000   0.00000  -1.31108
  31        5PY        -0.00000   0.00000   1.07264   0.00000   0.00000
  32        5PZ         0.00000  -0.00000   0.00000  -1.68873   0.00000
  33 3   H  1S          0.00000  -0.00000  -0.05286   0.03052  -0.00000
  34        2S          0.00000  -0.00000   6.48535  -3.74432   0.00000
  35        3S          0.00000  -0.00000   2.81718  -1.62650   0.00000
  36        4PX         0.01102  -0.01909  -0.00000   0.00000   0.03143
  37        4PY         0.00000   0.00000  -0.03146   0.01547  -0.00000
  38        4PZ         0.00000  -0.00000   0.01547  -0.01360   0.00000
  39        5PX        -0.59725   1.03447   0.00000  -0.00000  -1.31108
  40        5PY        -0.00000   0.00000  -0.99839   1.19571   0.00000
  41        5PZ         0.00000  -0.00000   1.19571   0.38229  -0.00000
  42 4   H  1S         -0.00000  -0.00000   0.05286   0.03052   0.00000
  43        2S         -0.00000  -0.00000  -6.48535  -3.74432  -0.00000
  44        3S         -0.00000  -0.00000  -2.81718  -1.62650  -0.00000
  45        4PX         0.01102   0.01909  -0.00000  -0.00000   0.03143
  46        4PY         0.00000  -0.00000  -0.03146  -0.01547  -0.00000
  47        4PZ        -0.00000  -0.00000  -0.01547  -0.01360  -0.00000
  48        5PX        -0.59725  -1.03447   0.00000   0.00000  -1.31108
  49        5PY        -0.00000  -0.00000  -0.99839  -1.19571   0.00000
  50        5PZ        -0.00000  -0.00000  -1.19571   0.38229   0.00000
                          21        22        23        24        25
                           V         V         V         V         V
     Eigenvalues --     0.50867   0.53825   0.56494   0.56837   0.56837
   1 1   C  1S          0.00000  -0.11300  -0.12222  -0.00000   0.00000
   2        2S          0.00000  -0.05050  -0.10058  -0.00000   0.00000
   3        3S          0.00000   6.09612   9.84703   0.00000   0.00000
   4        4S          0.00000   7.49339   3.07058   0.00000   0.00000
   5        5PX        -0.00000   0.00000   0.00000   0.00000   0.00000
   6        5PY        -0.00000   0.00000   0.00000   0.00000   0.12487
   7        5PZ         0.00000   0.00000  -0.00000   0.12487   0.00000
   8        6PX        -0.00000   0.00000   0.00000   0.00000   0.00000
   9        6PY         0.00000   0.00000   0.00000   0.00000  -5.29130
  10        6PZ         0.00000   0.00000   0.00000  -5.29130   0.00000
  11        7PX        -0.00000   0.00000   0.00000   0.00000   0.00000
  12        7PY         0.00000   0.00000   0.00000   0.00000  -0.05101
  13        7PZ         0.00000   0.00000   0.00000  -0.05101   0.00000
  14        8D 0        0.00000   0.00106   0.01949   0.01748   0.00000
  15        8D+1       -0.00000   0.00000   0.00000   0.00000  -0.00000
  16        8D-1       -0.00000   0.00000   0.00000   0.00000  -0.02018
  17        8D+2        0.00000  -0.00184  -0.03376   0.01009   0.00000
  18        8D-2        0.00000   0.00000   0.00000  -0.00000   0.00000
  19        9D 0        0.00000   0.69872  -0.24212  -2.00833   0.00000
  20        9D+1        0.00000   0.00000   0.00000   0.00000   0.00000
  21        9D-1       -0.00000   0.00000   0.00000   0.00000   2.31902
  22        9D+2        0.00000  -1.21021   0.41937  -1.15951   0.00000
  23        9D-2        0.00000  -0.00000  -0.00000   0.00000   0.00000
  24 2   H  1S          0.00000   0.05326  -0.05176  -0.05042   0.00000
  25        2S          0.00000  -4.11661  -3.46973  12.15433   0.00000
  26        3S          0.00000  -1.02229  -0.50178  -0.18575   0.00000
  27        4PX        -0.00000   0.00000   0.00000   0.00000   0.00000
  28        4PY        -0.03110   0.00000   0.00000   0.00000   0.03465
  29        4PZ         0.00000   0.00599   0.00841   0.01981   0.00000
  30        5PX         0.00000   0.00000   0.00000   0.00000  -0.00000
  31        5PY         1.24010   0.00000   0.00000   0.00000  -2.02201
  32        5PZ         0.00000   0.68704   2.02648  -4.89888   0.00000
  33 3   H  1S          0.00000   0.05326  -0.05176   0.02521  -0.04366
  34        2S         -0.00000  -4.11661  -3.46973  -6.07716  10.52595
  35        3S         -0.00000  -1.02229  -0.50178   0.09288  -0.16087
  36        4PX        -0.00000  -0.00000  -0.00000   0.00000   0.00000
  37        4PY         0.01555   0.00519   0.00728   0.00642   0.02352
  38        4PZ         0.02693  -0.00299  -0.00421   0.03094   0.00642
  39        5PX         0.00000   0.00000   0.00000  -0.00000  -0.00000
  40        5PY        -0.62005   0.59499   1.75498   1.24572  -4.17966
  41        5PZ        -1.07396  -0.34352  -1.01324  -2.74123   1.24572
  42 4   H  1S         -0.00000   0.05326  -0.05176   0.02521   0.04366
  43        2S          0.00000  -4.11661  -3.46973  -6.07716 -10.52595
  44        3S          0.00000  -1.02229  -0.50178   0.09288   0.16087
  45        4PX        -0.00000   0.00000   0.00000  -0.00000   0.00000
  46        4PY         0.01555  -0.00519  -0.00728  -0.00642   0.02352
  47        4PZ        -0.02693  -0.00299  -0.00421   0.03094  -0.00642
  48        5PX         0.00000  -0.00000  -0.00000   0.00000  -0.00000
  49        5PY        -0.62005  -0.59499  -1.75498  -1.24572  -4.17966
  50        5PZ         1.07396  -0.34352  -1.01324  -2.74123  -1.24572
                          26        27        28        29        30
                           V         V         V         V         V
     Eigenvalues --     0.62274   0.62274   0.66044   0.66044   0.90604
   1 1   C  1S         -0.00000   0.00000  -0.00000   0.00000   0.00000
   2        2S          0.00000   0.00000   0.00000   0.00000   0.00000
   3        3S          0.00000   0.00000   0.00000   0.00000   0.00000
   4        4S          0.00000   0.00000   0.00000   0.00000   0.00000
   5        5PX         0.00000  -0.00000   0.00000   0.00000  -1.01804
   6        5PY         0.00000  -0.00000   0.00000  -0.35658  -0.00000
   7        5PZ        -0.00000   0.00000  -0.35658   0.00000   0.00000
   8        6PX         0.00000   0.00000   0.00000   0.00000   2.88317
   9        6PY         0.00000   0.00000   0.00000  -4.92898   0.00000
  10        6PZ         0.00000   0.00000  -4.92898   0.00000   0.00000
  11        7PX         0.00000   0.00000   0.00000   0.00000  -0.08398
  12        7PY         0.00000  -0.00000   0.00000  -1.61123  -0.00000
  13        7PZ        -0.00000   0.00000  -1.61123   0.00000   0.00000
  14        8D 0       -0.00000   0.00000  -0.00161   0.00000   0.00000
  15        8D+1        0.00000  -0.05236   0.00000   0.00000   0.00000
  16        8D-1        0.00000   0.00000   0.00000   0.00186  -0.00000
  17        8D+2       -0.00000   0.00000  -0.00093   0.00000   0.00000
  18        8D-2       -0.05236   0.00000   0.00000   0.00000   0.00000
  19        9D 0        0.00000   0.00000   1.84929   0.00000   0.00000
  20        9D+1        0.00000   2.35079   0.00000  -0.00000  -0.00000
  21        9D-1        0.00000  -0.00000   0.00000  -2.13538  -0.00000
  22        9D+2        0.00000   0.00000   1.06769   0.00000   0.00000
  23        9D-2        2.35079   0.00000  -0.00000   0.00000   0.00000
  24 2   H  1S          0.00000   0.00000   0.19717   0.00000   0.00000
  25        2S         -0.00000   0.00000   5.78189   0.00000   0.00000
  26        3S          0.00000   0.00000   2.23255   0.00000   0.00000
  27        4PX         0.00000   0.01714   0.00000   0.00000  -0.06666
  28        4PY         0.00000  -0.00000   0.00000  -0.01537  -0.00000
  29        4PZ        -0.00000   0.00000   0.02860   0.00000   0.00000
  30        5PX         0.00000  -2.18735   0.00000   0.00000  -0.83834
  31        5PY         0.00000   0.00000   0.00000   2.04397  -0.00000
  32        5PZ         0.00000   0.00000  -3.33929   0.00000   0.00000
  33 3   H  1S         -0.00000   0.00000  -0.09859   0.17075  -0.00000
  34        2S          0.00000  -0.00000  -2.89094   5.00726  -0.00000
  35        3S         -0.00000   0.00000  -1.11627   1.93344   0.00000
  36        4PX         0.01485  -0.00857  -0.00000   0.00000  -0.06666
  37        4PY        -0.00000  -0.00000  -0.01904   0.01761   0.00000
  38        4PZ        -0.00000  -0.00000  -0.00438  -0.01904  -0.00000
  39        5PX        -1.89430   1.09367   0.00000  -0.00000  -0.83834
  40        5PY         0.00000   0.00000   2.33102  -1.99348   0.00000
  41        5PZ         0.00000   0.00000   0.69816   2.33102  -0.00000
  42 4   H  1S         -0.00000  -0.00000  -0.09859  -0.17075   0.00000
  43        2S          0.00000   0.00000  -2.89094  -5.00726   0.00000
  44        3S         -0.00000  -0.00000  -1.11627  -1.93344  -0.00000
  45        4PX        -0.01485  -0.00857   0.00000   0.00000  -0.06666
  46        4PY         0.00000  -0.00000   0.01904   0.01761   0.00000
  47        4PZ        -0.00000   0.00000  -0.00438   0.01904   0.00000
  48        5PX         1.89430   1.09367  -0.00000  -0.00000  -0.83834
  49        5PY        -0.00000   0.00000  -2.33102  -1.99348   0.00000
  50        5PZ         0.00000  -0.00000   0.69816  -2.33102   0.00000
                          31        32        33        34        35
                           V         V         V         V         V
     Eigenvalues --     0.92769   1.11773   1.11773   1.45591   1.45591
   1 1   C  1S          0.06370   0.00000   0.00000   0.00000   0.00000
   2        2S         -0.52302   0.00000   0.00000   0.00000   0.00000
   3        3S          1.67357   0.00000  -0.00000  -0.00000   0.00000
   4        4S          1.27856   0.00000  -0.00000  -0.00000   0.00000
   5        5PX         0.00000   0.00000   0.00000   0.00000  -0.00000
   6        5PY         0.00000  -0.93364   0.00000   0.00000   0.22604
   7        5PZ        -0.00000   0.00000   0.93364   0.22604   0.00000
   8        6PX         0.00000  -0.00000   0.00000   0.00000   0.00000
   9        6PY         0.00000   7.89816   0.00000   0.00000  -5.13229
  10        6PZ         0.00000   0.00000  -7.89816  -5.13229   0.00000
  11        7PX         0.00000  -0.00000   0.00000   0.00000   0.00000
  12        7PY         0.00000   1.83962   0.00000   0.00000  -0.57748
  13        7PZ         0.00000   0.00000  -1.83962  -0.57748   0.00000
  14        8D 0        0.17270   0.00000  -0.22502   0.55980   0.00000
  15        8D+1        0.00000   0.00000   0.00000   0.00000  -0.00000
  16        8D-1        0.00000  -0.25983   0.00000   0.00000  -0.64640
  17        8D+2       -0.29913   0.00000  -0.12992   0.32320   0.00000
  18        8D-2       -0.00000   0.00000   0.00000  -0.00000   0.00000
  19        9D 0       -0.22704   0.00000   1.11581  -3.28091   0.00000
  20        9D+1        0.00000   0.00000   0.00000   0.00000   0.00000
  21        9D-1        0.00000   1.28842   0.00000   0.00000   3.78847
  22        9D+2        0.39324   0.00000   0.64421  -1.89423   0.00000
  23        9D-2        0.00000   0.00000  -0.00000   0.00000   0.00000
  24 2   H  1S          0.68585   0.00000  -0.11587   1.21252   0.00000
  25        2S         -1.25781   0.00000   8.61203   8.38126   0.00000
  26        3S         -0.08399   0.00000   1.63497   0.17702   0.00000
  27        4PX         0.00000   0.00000   0.00000   0.00000  -0.00000
  28        4PY         0.00000  -0.00681   0.00000   0.00000  -0.14381
  29        4PZ         0.18681   0.00000  -0.33249   0.06544   0.00000
  30        5PX         0.00000   0.00000   0.00000   0.00000  -0.00000
  31        5PY         0.00000  -2.08083   0.00000   0.00000  -1.53161
  32        5PZ         0.11843   0.00000  -2.76509  -1.92916   0.00000
  33 3   H  1S          0.68585   0.10034   0.05793  -0.60626   1.05007
  34        2S         -1.25781  -7.45824  -4.30602  -4.19063   7.25838
  35        3S         -0.08399  -1.41593  -0.81749  -0.08851   0.15330
  36        4PX        -0.00000  -0.00000   0.00000  -0.00000   0.00000
  37        4PY         0.16178   0.24766   0.14692  -0.09061   0.01313
  38        4PZ        -0.09340  -0.14692  -0.07801  -0.09150  -0.09061
  39        5PX        -0.00000   0.00000   0.00000   0.00000  -0.00000
  40        5PY         0.10256   1.55361   2.09834   0.17215  -1.82977
  41        5PZ        -0.05921  -2.09834   0.86935  -1.63100   0.17215
  42 4   H  1S          0.68585  -0.10034   0.05793  -0.60626  -1.05007
  43        2S         -1.25781   7.45824  -4.30602  -4.19063  -7.25838
  44        3S         -0.08399   1.41593  -0.81749  -0.08851  -0.15330
  45        4PX         0.00000  -0.00000  -0.00000   0.00000   0.00000
  46        4PY        -0.16178   0.24766  -0.14692   0.09061   0.01313
  47        4PZ        -0.09340   0.14692  -0.07801  -0.09150   0.09061
  48        5PX         0.00000   0.00000  -0.00000  -0.00000  -0.00000
  49        5PY        -0.10256   1.55361  -2.09834  -0.17215  -1.82977
  50        5PZ        -0.05921   2.09834   0.86935  -1.63100  -0.17215
                          36        37        38        39        40
                           V         V         V         V         V
     Eigenvalues --     1.51729   1.51729   1.74627   1.83206   1.96445
   1 1   C  1S          0.00000   0.00000  -0.13785   0.00000   0.00000
   2        2S          0.00000   0.00000  -1.88917   0.00000   0.00000
   3        3S          0.00000  -0.00000  11.42443   0.00000   0.00000
   4        4S          0.00000  -0.00000   5.08881   0.00000   0.00000
   5        5PX         0.00000   0.00000   0.00000  -0.00000  -0.37663
   6        5PY        -0.00000   0.00000   0.00000   0.00000  -0.00000
   7        5PZ         0.00000   0.00000   0.00000   0.00000   0.00000
   8        6PX        -0.00000   0.00000   0.00000   0.00000   0.38304
   9        6PY         0.00000   0.00000   0.00000  -0.00000   0.00000
  10        6PZ         0.00000   0.00000  -0.00000   0.00000   0.00000
  11        7PX        -0.00000   0.00000   0.00000   0.00000   0.29158
  12        7PY         0.00000   0.00000   0.00000  -0.00000   0.00000
  13        7PZ         0.00000   0.00000  -0.00000   0.00000   0.00000
  14        8D 0        0.00000  -0.00000  -0.36739   0.00000   0.00000
  15        8D+1       -0.77712   0.00000   0.00000  -0.00000  -0.00000
  16        8D-1        0.00000   0.00000   0.00000   0.00000  -0.00000
  17        8D+2        0.00000  -0.00000   0.63633   0.00000   0.00000
  18        8D-2        0.00000  -0.77712  -0.00000   0.00000   0.00000
  19        9D 0        0.00000   0.00000   0.58877   0.00000   0.00000
  20        9D+1        0.83861   0.00000   0.00000   0.00000   0.00000
  21        9D-1       -0.00000   0.00000   0.00000   0.00000  -0.00000
  22        9D+2        0.00000   0.00000  -1.01978   0.00000   0.00000
  23        9D-2        0.00000   0.83861   0.00000   0.00000   0.00000
  24 2   H  1S          0.00000  -0.00000  -0.12366   0.00000   0.00000
  25        2S          0.00000  -0.00000  -4.64925   0.00000   0.00000
  26        3S          0.00000   0.00000  -0.62968   0.00000   0.00000
  27        4PX        -0.48562   0.00000   0.00000   0.00000   0.69135
  28        4PY         0.00000   0.00000   0.00000   0.66352  -0.00000
  29        4PZ         0.00000  -0.00000   0.20737   0.00000   0.00000
  30        5PX        -0.19376   0.00000   0.00000  -0.00000  -0.42747
  31        5PY         0.00000   0.00000   0.00000  -0.55002  -0.00000
  32        5PZ         0.00000  -0.00000   1.15077   0.00000   0.00000
  33 3   H  1S         -0.00000   0.00000  -0.12366   0.00000  -0.00000
  34        2S         -0.00000   0.00000  -4.64925   0.00000  -0.00000
  35        3S         -0.00000   0.00000  -0.62968   0.00000  -0.00000
  36        4PX         0.24281  -0.42056  -0.00000   0.00000   0.69135
  37        4PY         0.00000  -0.00000   0.17959  -0.33176  -0.00000
  38        4PZ         0.00000   0.00000  -0.10369  -0.57463  -0.00000
  39        5PX         0.09688  -0.16780  -0.00000  -0.00000  -0.42747
  40        5PY         0.00000  -0.00000   0.99660   0.27501   0.00000
  41        5PZ        -0.00000   0.00000  -0.57539   0.47633  -0.00000
  42 4   H  1S          0.00000   0.00000  -0.12366  -0.00000   0.00000
  43        2S          0.00000   0.00000  -4.64925  -0.00000   0.00000
  44        3S          0.00000   0.00000  -0.62968  -0.00000   0.00000
  45        4PX         0.24281   0.42056   0.00000   0.00000   0.69135
  46        4PY         0.00000   0.00000  -0.17959  -0.33176  -0.00000
  47        4PZ        -0.00000   0.00000  -0.10369   0.57463   0.00000
  48        5PX         0.09688   0.16780   0.00000  -0.00000  -0.42747
  49        5PY         0.00000   0.00000  -0.99660   0.27501   0.00000
  50        5PZ         0.00000   0.00000  -0.57539  -0.47633   0.00000
                          41        42        43        44        45
                           V         V         V         V         V
     Eigenvalues --     1.97429   1.97429   2.09826   2.26655   2.26655
   1 1   C  1S          0.00000   0.00000  -0.21671   0.00000   0.00000
   2        2S          0.00000   0.00000  -2.43385   0.00000   0.00000
   3        3S          0.00000  -0.00000  14.43345   0.00000  -0.00000
   4        4S          0.00000  -0.00000   3.32724   0.00000  -0.00000
   5        5PX        -0.00000   0.00000   0.00000  -0.00000   0.00000
   6        5PY         0.27531   0.00000   0.00000   0.00000   0.00000
   7        5PZ         0.00000   0.27531   0.00000   0.00000  -0.00000
   8        6PX         0.00000   0.00000   0.00000   0.00000   0.00000
   9        6PY        -7.11493   0.00000   0.00000  -0.00000   0.00000
  10        6PZ         0.00000  -7.11493  -0.00000   0.00000  -0.00000
  11        7PX         0.00000   0.00000   0.00000   0.00000   0.00000
  12        7PY        -0.39818   0.00000   0.00000  -0.00000   0.00000
  13        7PZ         0.00000  -0.39818  -0.00000   0.00000  -0.00000
  14        8D 0        0.00000  -0.33615   0.44019   0.00000  -0.00000
  15        8D+1       -0.00000   0.00000   0.00000   1.10201   0.00000
  16        8D-1        0.38816   0.00000   0.00000  -0.00000   0.00000
  17        8D+2        0.00000  -0.19408  -0.76244   0.00000   0.00000
  18        8D-2        0.00000   0.00000   0.00000   0.00000   1.10201
  19        9D 0        0.00000  -0.56757   0.19627   0.00000  -0.00000
  20        9D+1        0.00000   0.00000   0.00000  -0.69610   0.00000
  21        9D-1        0.65537   0.00000   0.00000   0.00000   0.00000
  22        9D+2        0.00000  -0.32769  -0.33995   0.00000   0.00000
  23        9D-2        0.00000  -0.00000  -0.00000   0.00000  -0.69610
  24 2   H  1S          0.00000   1.09199  -0.82232   0.00000   0.00000
  25        2S          0.00000   9.04612  -4.50187   0.00000   0.00000
  26        3S          0.00000   0.22236  -0.42639   0.00000   0.00000
  27        4PX         0.00000   0.00000   0.00000  -0.94138   0.00000
  28        4PY         0.69810   0.00000   0.00000   0.00000   0.00000
  29        4PZ         0.00000   0.24647  -0.04260   0.00000  -0.00000
  30        5PX        -0.00000   0.00000   0.00000   0.79207   0.00000
  31        5PY         0.03171   0.00000   0.00000  -0.00000   0.00000
  32        5PZ         0.00000  -3.35911   1.75664   0.00000  -0.00000
  33 3   H  1S          0.94569  -0.54599  -0.82232   0.00000   0.00000
  34        2S          7.83417  -4.52306  -4.50187   0.00000   0.00000
  35        3S          0.19257  -0.11118  -0.42639  -0.00000   0.00000
  36        4PX         0.00000   0.00000  -0.00000   0.47069  -0.81526
  37        4PY         0.35937   0.19556  -0.03689   0.00000   0.00000
  38        4PZ         0.19556   0.58519   0.02130   0.00000  -0.00000
  39        5PX        -0.00000   0.00000   0.00000  -0.39604   0.68596
  40        5PY        -2.51141   1.46827   1.52129  -0.00000  -0.00000
  41        5PZ         1.46827  -0.81599  -0.87832   0.00000   0.00000
  42 4   H  1S         -0.94569  -0.54599  -0.82232  -0.00000   0.00000
  43        2S         -7.83417  -4.52306  -4.50187  -0.00000   0.00000
  44        3S         -0.19257  -0.11118  -0.42639   0.00000   0.00000
  45        4PX         0.00000  -0.00000   0.00000   0.47069   0.81526
  46        4PY         0.35937  -0.19556   0.03689   0.00000  -0.00000
  47        4PZ        -0.19556   0.58519   0.02130  -0.00000  -0.00000
  48        5PX        -0.00000  -0.00000  -0.00000  -0.39604  -0.68596
  49        5PY        -2.51141  -1.46827  -1.52129  -0.00000   0.00000
  50        5PZ        -1.46827  -0.81599  -0.87832  -0.00000   0.00000
                          46        47        48        49        50
                           V         V         V         V         V
     Eigenvalues --     2.46715   2.46715   2.80489   2.99055   2.99055
   1 1   C  1S          0.00000  -0.00000  -0.07431   0.00000   0.00000
   2        2S          0.00000  -0.00000   1.14771  -0.00000   0.00000
   3        3S          0.00000   0.00000   3.30751  -0.00000   0.00000
   4        4S          0.00000   0.00000   0.63406  -0.00000   0.00000
   5        5PX         0.00000   0.00000   0.00000   0.00000   0.00000
   6        5PY         0.86529   0.00000   0.00000   0.00000   1.12715
   7        5PZ         0.00000   0.86529   0.00000   1.12715   0.00000
   8        6PX         0.00000   0.00000   0.00000   0.00000  -0.00000
   9        6PY        -1.76863   0.00000   0.00000   0.00000   3.35070
  10        6PZ         0.00000  -1.76863   0.00000   3.35070   0.00000
  11        7PX         0.00000   0.00000   0.00000   0.00000  -0.00000
  12        7PY        -0.40265   0.00000   0.00000   0.00000   0.65746
  13        7PZ         0.00000  -0.40265   0.00000   0.65746   0.00000
  14        8D 0        0.00000  -0.40770   0.48895   1.56137   0.00000
  15        8D+1        0.00000   0.00000   0.00000   0.00000  -0.00000
  16        8D-1        0.47077   0.00000   0.00000   0.00000  -1.80291
  17        8D+2        0.00000  -0.23538  -0.84689   0.90146   0.00000
  18        8D-2        0.00000   0.00000  -0.00000   0.00000   0.00000
  19        9D 0        0.00000  -0.76947   0.00260  -0.25208   0.00000
  20        9D+1       -0.00000   0.00000   0.00000   0.00000   0.00000
  21        9D-1        0.88851   0.00000   0.00000   0.00000   0.29108
  22        9D+2        0.00000  -0.44426  -0.00450  -0.14554   0.00000
  23        9D-2        0.00000  -0.00000   0.00000   0.00000   0.00000
  24 2   H  1S          0.00000   0.26549  -0.91428  -1.71643   0.00000
  25        2S          0.00000   2.64748  -1.04313  -3.02002   0.00000
  26        3S          0.00000   0.50135  -0.03304  -0.56664   0.00000
  27        4PX        -0.00000   0.00000   0.00000   0.00000   0.00000
  28        4PY        -0.76308   0.00000   0.00000   0.00000   0.54445
  29        4PZ         0.00000   0.75556   1.01204   1.23593   0.00000
  30        5PX        -0.00000   0.00000   0.00000   0.00000   0.00000
  31        5PY        -0.16037   0.00000   0.00000   0.00000  -0.80925
  32        5PZ         0.00000  -0.95226   0.17705   0.80557   0.00000
  33 3   H  1S          0.22992  -0.13274  -0.91428   0.85822  -1.48647
  34        2S          2.29279  -1.32374  -1.04313   1.51001  -2.61541
  35        3S          0.43418  -0.25067  -0.03304   0.28332  -0.49073
  36        4PX         0.00000  -0.00000   0.00000  -0.00000  -0.00000
  37        4PY         0.37590  -0.65759   0.87645  -0.29942   1.06306
  38        4PZ        -0.65759  -0.38342  -0.50602   0.71732  -0.29942
  39        5PX        -0.00000   0.00000  -0.00000  -0.00000   0.00000
  40        5PY        -0.75429   0.34290   0.15333  -0.69924   0.40186
  41        5PZ         0.34290  -0.35834  -0.08852  -0.40555  -0.69924
  42 4   H  1S         -0.22992  -0.13274  -0.91428   0.85822   1.48647
  43        2S         -2.29279  -1.32374  -1.04313   1.51001   2.61541
  44        3S         -0.43418  -0.25067  -0.03304   0.28332   0.49073
  45        4PX         0.00000   0.00000  -0.00000   0.00000  -0.00000
  46        4PY         0.37590   0.65759  -0.87645   0.29942   1.06306
  47        4PZ         0.65759  -0.38342  -0.50602   0.71732   0.29942
  48        5PX        -0.00000  -0.00000   0.00000   0.00000   0.00000
  49        5PY        -0.75429  -0.34290  -0.15333   0.69924   0.40186
  50        5PZ        -0.34290  -0.35834  -0.08852  -0.40555   0.69924
     Beta Molecular Orbital Coefficients:
                           1         2         3         4         5
                           O         O         O         O         V
     Eigenvalues --   -11.22216  -0.85375  -0.56239  -0.56239   0.03922
   1 1   C  1S          0.99784  -0.18328   0.00000   0.00000  -0.03742
   2        2S          0.01845   0.36360  -0.00000   0.00000   0.02731
   3        3S         -0.02551   0.18692   0.00000   0.00000   0.97349
   4        4S         -0.00764  -0.02107  -0.00000   0.00000   3.26167
   5        5PX         0.00000   0.00000   0.00000  -0.00000   0.00000
   6        5PY         0.00000   0.00000   0.00000   0.41363   0.00000
   7        5PZ         0.00000   0.00000   0.41363   0.00000   0.00000
   8        6PX         0.00000   0.00000   0.00000  -0.00000   0.00000
   9        6PY         0.00000   0.00000   0.00000   0.07931   0.00000
  10        6PZ        -0.00000   0.00000   0.07931   0.00000   0.00000
  11        7PX         0.00000   0.00000   0.00000  -0.00000   0.00000
  12        7PY         0.00000   0.00000   0.00000  -0.01100   0.00000
  13        7PZ        -0.00000   0.00000  -0.01100   0.00000   0.00000
  14        8D 0        0.00066   0.01165   0.02254   0.00000   0.00004
  15        8D+1        0.00000   0.00000   0.00000   0.00000   0.00000
  16        8D-1        0.00000   0.00000   0.00000  -0.02603   0.00000
  17        8D+2       -0.00115  -0.02018   0.01301   0.00000  -0.00006
  18        8D-2       -0.00000  -0.00000  -0.00000   0.00000  -0.00000
  19        9D 0       -0.00081   0.00111  -0.05056   0.00000   0.04633
  20        9D+1        0.00000   0.00000   0.00000  -0.00000   0.00000
  21        9D-1        0.00000   0.00000   0.00000   0.05838   0.00000
  22        9D+2        0.00141  -0.00192  -0.02919   0.00000  -0.08024
  23        9D-2        0.00000  -0.00000   0.00000   0.00000  -0.00000
  24 2   H  1S          0.00025   0.22139   0.40067   0.00000   0.00424
  25        2S          0.00861   0.06538   0.31761   0.00000  -0.61608
  26        3S          0.00094   0.00487   0.01611   0.00000  -1.14052
  27        4PX         0.00000   0.00000   0.00000   0.00000   0.00000
  28        4PY         0.00000   0.00000   0.00000   0.01206   0.00000
  29        4PZ         0.00033  -0.02708  -0.02030   0.00000  -0.00390
  30        5PX         0.00000   0.00000   0.00000   0.00000   0.00000
  31        5PY         0.00000   0.00000   0.00000  -0.02766   0.00000
  32        5PZ        -0.00250  -0.01313  -0.04431   0.00000   0.15006
  33 3   H  1S          0.00025   0.22139  -0.20033   0.34699   0.00424
  34        2S          0.00861   0.06538  -0.15881   0.27506  -0.61608
  35        3S          0.00094   0.00487  -0.00805   0.01395  -1.14052
  36        4PX        -0.00000  -0.00000   0.00000   0.00000   0.00000
  37        4PY         0.00028  -0.02345   0.01401  -0.01221  -0.00338
  38        4PZ        -0.00016   0.01354   0.00397   0.01401   0.00195
  39        5PX        -0.00000   0.00000  -0.00000   0.00000   0.00000
  40        5PY        -0.00216  -0.01137   0.00721  -0.04015   0.12996
  41        5PZ         0.00125   0.00656  -0.03182   0.00721  -0.07503
  42 4   H  1S          0.00025   0.22139  -0.20033  -0.34699   0.00424
  43        2S          0.00861   0.06538  -0.15881  -0.27506  -0.61608
  44        3S          0.00094   0.00487  -0.00805  -0.01395  -1.14052
  45        4PX         0.00000   0.00000  -0.00000   0.00000  -0.00000
  46        4PY        -0.00028   0.02345  -0.01401  -0.01221   0.00338
  47        4PZ        -0.00016   0.01354   0.00397  -0.01401   0.00195
  48        5PX         0.00000  -0.00000   0.00000   0.00000  -0.00000
  49        5PY         0.00216   0.01137  -0.00721  -0.04015  -0.12996
  50        5PZ         0.00125   0.00656  -0.03182  -0.00721  -0.07503
                           6         7         8         9        10
                           V         V         V         V         V
     Eigenvalues --     0.06045   0.06045   0.06777   0.15157   0.15157
   1 1   C  1S         -0.00000   0.00000   0.00000   0.00000  -0.00000
   2        2S         -0.00000   0.00000   0.00000   0.00000   0.00000
   3        3S          0.00000   0.00000   0.00000   0.00000  -0.00000
   4        4S          0.00000   0.00000   0.00000   0.00000  -0.00000
   5        5PX         0.00000  -0.00000   0.21112  -0.00000   0.00000
   6        5PY         0.00000  -0.06493  -0.00000   0.08933   0.00000
   7        5PZ        -0.06493   0.00000   0.00000   0.00000   0.08933
   8        6PX         0.00000  -0.00000   0.15139  -0.00000   0.00000
   9        6PY         0.00000  -0.32614   0.00000  -1.65406   0.00000
  10        6PZ        -0.32614   0.00000   0.00000   0.00000  -1.65406
  11        7PX         0.00000  -0.00000   0.87375   0.00000   0.00000
  12        7PY         0.00000  -1.72607  -0.00000  -4.24301   0.00000
  13        7PZ        -1.72607   0.00000   0.00000   0.00000  -4.24301
  14        8D 0       -0.00704   0.00000   0.00000   0.00000   0.00734
  15        8D+1        0.00000   0.00000   0.00000  -0.00000   0.00000
  16        8D-1        0.00000   0.00812  -0.00000  -0.00848   0.00000
  17        8D+2       -0.00406   0.00000   0.00000   0.00000   0.00424
  18        8D-2        0.00000   0.00000   0.00000   0.00000   0.00000
  19        9D 0        0.08216   0.00000   0.00000   0.00000  -0.30695
  20        9D+1        0.00000  -0.00000   0.00000  -0.00000   0.00000
  21        9D-1        0.00000  -0.09487  -0.00000   0.35444   0.00000
  22        9D+2        0.04743   0.00000   0.00000   0.00000  -0.17722
  23        9D-2       -0.00000   0.00000   0.00000   0.00000  -0.00000
  24 2   H  1S         -0.03340   0.00000   0.00000   0.00000   0.11006
  25        2S          0.34008   0.00000   0.00000   0.00000   3.56090
  26        3S          4.80692   0.00000   0.00000   0.00000   5.56160
  27        4PX         0.00000  -0.00000   0.02038   0.00000   0.00000
  28        4PY         0.00000  -0.00447  -0.00000  -0.01176   0.00000
  29        4PZ         0.00459   0.00000   0.00000   0.00000  -0.02092
  30        5PX         0.00000   0.00000  -0.02677  -0.00000   0.00000
  31        5PY         0.00000   0.18187   0.00000   0.08118   0.00000
  32        5PZ        -0.15773   0.00000   0.00000   0.00000  -0.80853
  33 3   H  1S          0.01670  -0.02892  -0.00000   0.09532  -0.05503
  34        2S         -0.17004   0.29452  -0.00000   3.08383  -1.78045
  35        3S         -2.40346   4.16291   0.00000   4.81649  -2.78080
  36        4PX        -0.00000  -0.00000   0.02038   0.00000  -0.00000
  37        4PY        -0.00392   0.00233   0.00000  -0.01863   0.00397
  38        4PZ        -0.00220  -0.00392  -0.00000   0.00397  -0.01405
  39        5PX         0.00000   0.00000  -0.02677  -0.00000   0.00000
  40        5PY         0.14705  -0.07283   0.00000  -0.58611   0.38526
  41        5PZ         0.09697   0.14705  -0.00000   0.38526  -0.14125
  42 4   H  1S          0.01670   0.02892   0.00000  -0.09532  -0.05503
  43        2S         -0.17004  -0.29452   0.00000  -3.08383  -1.78045
  44        3S         -2.40346  -4.16291  -0.00000  -4.81649  -2.78080
  45        4PX         0.00000  -0.00000   0.02038   0.00000   0.00000
  46        4PY         0.00392   0.00233   0.00000  -0.01863  -0.00397
  47        4PZ        -0.00220   0.00392   0.00000  -0.00397  -0.01405
  48        5PX        -0.00000   0.00000  -0.02677  -0.00000  -0.00000
  49        5PY        -0.14705  -0.07283   0.00000  -0.58611  -0.38526
  50        5PZ         0.09697  -0.14705   0.00000  -0.38526  -0.14125
                          11        12        13        14        15
                           V         V         V         V         V
     Eigenvalues --     0.18115   0.19918   0.28833   0.28833   0.31107
   1 1   C  1S          0.03865   0.00000  -0.00000   0.00000  -0.08763
   2        2S         -0.27861   0.00000   0.00000   0.00000   0.14187
   3        3S          2.65212   0.00000   0.00000   0.00000   0.46360
   4        4S          7.94384   0.00000   0.00000   0.00000   2.94496
   5        5PX         0.00000  -0.36506   0.00000  -0.00000   0.00000
   6        5PY         0.00000  -0.00000   0.00000   0.24630   0.00000
   7        5PZ         0.00000   0.00000   0.24630   0.00000  -0.00000
   8        6PX         0.00000  -0.31979   0.00000  -0.00000   0.00000
   9        6PY         0.00000  -0.00000   0.00000   0.09424   0.00000
  10        6PZ        -0.00000   0.00000   0.09424   0.00000   0.00000
  11        7PX         0.00000   1.00204   0.00000  -0.00000   0.00000
  12        7PY         0.00000   0.00000   0.00000  -1.25968   0.00000
  13        7PZ        -0.00000   0.00000  -1.25968   0.00000   0.00000
  14        8D 0       -0.00644   0.00000  -0.05310   0.00000   0.00295
  15        8D+1        0.00000  -0.00000   0.00000   0.00000   0.00000
  16        8D-1        0.00000   0.00000   0.00000   0.06132   0.00000
  17        8D+2        0.01115   0.00000  -0.03066   0.00000  -0.00512
  18        8D-2        0.00000   0.00000   0.00000   0.00000   0.00000
  19        9D 0        0.15894   0.00000   0.66681   0.00000  -0.00333
  20        9D+1        0.00000  -0.00000   0.00000  -0.00000   0.00000
  21        9D-1        0.00000   0.00000   0.00000  -0.76997   0.00000
  22        9D+2       -0.27530   0.00000   0.38499   0.00000   0.00577
  23        9D-2       -0.00000   0.00000  -0.00000   0.00000  -0.00000
  24 2   H  1S         -0.02011   0.00000  -0.08854   0.00000  -0.08901
  25        2S         -2.18320   0.00000  -1.14493   0.00000  -1.25933
  26        3S         -1.52717   0.00000   2.53362   0.00000  -0.28287
  27        4PX         0.00000  -0.00439   0.00000   0.00000   0.00000
  28        4PY         0.00000   0.00000   0.00000   0.01168   0.00000
  29        4PZ         0.02298   0.00000  -0.01572   0.00000   0.01611
  30        5PX         0.00000  -0.30376   0.00000   0.00000   0.00000
  31        5PY         0.00000   0.00000   0.00000   1.04318   0.00000
  32        5PZ         0.56187   0.00000  -0.49064   0.00000  -0.36488
  33 3   H  1S         -0.02011   0.00000   0.04427  -0.07668  -0.08901
  34        2S         -2.18320   0.00000   0.57246  -0.99153  -1.25933
  35        3S         -1.52717  -0.00000  -1.26681   2.19418  -0.28287
  36        4PX        -0.00000  -0.00439  -0.00000   0.00000  -0.00000
  37        4PY         0.01990   0.00000   0.01186  -0.00887   0.01395
  38        4PZ        -0.01149   0.00000   0.00483   0.01186  -0.00806
  39        5PX         0.00000  -0.30376   0.00000   0.00000   0.00000
  40        5PY         0.48659  -0.00000   0.66417  -0.10718  -0.31600
  41        5PZ        -0.28093   0.00000   0.65973   0.66417   0.18244
  42 4   H  1S         -0.02011  -0.00000   0.04427   0.07668  -0.08901
  43        2S         -2.18320  -0.00000   0.57246   0.99153  -1.25933
  44        3S         -1.52717   0.00000  -1.26681  -2.19418  -0.28287
  45        4PX         0.00000  -0.00439   0.00000   0.00000   0.00000
  46        4PY        -0.01990   0.00000  -0.01186  -0.00887  -0.01395
  47        4PZ        -0.01149  -0.00000   0.00483  -0.01186  -0.00806
  48        5PX        -0.00000  -0.30376  -0.00000   0.00000  -0.00000
  49        5PY        -0.48659  -0.00000  -0.66417  -0.10718   0.31600
  50        5PZ        -0.28093  -0.00000   0.65973  -0.66417   0.18244
                          16        17        18        19        20
                           V         V         V         V         V
     Eigenvalues --     0.37834   0.37834   0.44788   0.44788   0.50778
   1 1   C  1S          0.00000  -0.00000   0.00000   0.00000   0.00000
   2        2S          0.00000  -0.00000   0.00000   0.00000   0.00000
   3        3S          0.00000   0.00000   0.00000  -0.00000   0.00000
   4        4S          0.00000   0.00000   0.00000  -0.00000   0.00000
   5        5PX        -0.00000   0.00000  -0.00000   0.00000   0.00000
   6        5PY         0.00000   0.00000  -0.14442   0.00000  -0.00000
   7        5PZ         0.00000   0.00000   0.00000  -0.14442   0.00000
   8        6PX        -0.00000   0.00000  -0.00000   0.00000   0.00000
   9        6PY        -0.00000   0.00000  -4.63690   0.00000   0.00000
  10        6PZ         0.00000  -0.00000   0.00000  -4.63690   0.00000
  11        7PX        -0.00000   0.00000  -0.00000   0.00000   0.00000
  12        7PY        -0.00000   0.00000  -3.28999   0.00000   0.00000
  13        7PZ         0.00000  -0.00000   0.00000  -3.28999   0.00000
  14        8D 0        0.00000  -0.00000   0.00000  -0.06947   0.00000
  15        8D+1        0.02989   0.00000  -0.00000   0.00000  -0.00000
  16        8D-1        0.00000   0.00000   0.08021   0.00000  -0.00000
  17        8D+2        0.00000  -0.00000   0.00000  -0.04011   0.00000
  18        8D-2        0.00000   0.02989   0.00000  -0.00000   0.00000
  19        9D 0        0.00000  -0.00000   0.00000  -0.57712   0.00000
  20        9D+1       -0.26488   0.00000   0.00000   0.00000   0.00000
  21        9D-1        0.00000   0.00000   0.66640   0.00000  -0.00000
  22        9D+2        0.00000  -0.00000   0.00000  -0.33320   0.00000
  23        9D-2        0.00000  -0.26488   0.00000   0.00000   0.00000
  24 2   H  1S          0.00000   0.00000   0.00000  -0.07335   0.00000
  25        2S          0.00000   0.00000   0.00000   7.45182   0.00000
  26        3S          0.00000   0.00000   0.00000   3.17399   0.00000
  27        4PX        -0.02461   0.00000  -0.00000   0.00000   0.00000
  28        4PY        -0.00000   0.00000  -0.00346   0.00000  -0.03032
  29        4PZ         0.00000   0.00000   0.00000  -0.04116   0.00000
  30        5PX         1.31160   0.00000   0.00000   0.00000  -0.00000
  31        5PY        -0.00000   0.00000   1.04065   0.00000   1.23946
  32        5PZ         0.00000  -0.00000   0.00000  -1.63806   0.00000
  33 3   H  1S          0.00000  -0.00000  -0.06352   0.03667   0.00000
  34        2S          0.00000  -0.00000   6.45347  -3.72591  -0.00000
  35        3S          0.00000  -0.00000   2.74876  -1.58700  -0.00000
  36        4PX         0.01231  -0.02131  -0.00000   0.00000   0.00000
  37        4PY         0.00000   0.00000  -0.03174   0.01632   0.01516
  38        4PZ         0.00000  -0.00000   0.01632  -0.01289   0.02626
  39        5PX        -0.65580   1.13587   0.00000  -0.00000  -0.00000
  40        5PY        -0.00000   0.00000  -0.96838   1.15991  -0.61973
  41        5PZ         0.00000  -0.00000   1.15991   0.37097  -1.07341
  42 4   H  1S         -0.00000  -0.00000   0.06352   0.03667  -0.00000
  43        2S         -0.00000  -0.00000  -6.45347  -3.72591   0.00000
  44        3S         -0.00000  -0.00000  -2.74876  -1.58700   0.00000
  45        4PX         0.01231   0.02131  -0.00000  -0.00000   0.00000
[...]
     2   1    -0.00  -0.00  -0.57    -0.00   0.08   0.00     0.81   0.00  -0.00
     3   1    -0.00  -0.00  -0.57    -0.38  -0.59   0.00     0.15   0.38  -0.00
     4   1    -0.00   0.00  -0.57     0.38  -0.59   0.00     0.15  -0.38  -0.00
                     4                      5                      6
                    A1'                    E'                     E'
 Frequencies --  3233.0404              3421.0506              3421.0506
 Red. masses --     1.0078                 1.1185                 1.1185
 Frc consts  --     6.2067                 7.7127                 7.7127
 IR Inten    --     0.0000                 8.5414                 8.5414
 Raman Activ --   156.6929                29.3416                29.3416
 Depolar (P) --     0.0692                 0.7500                 0.7500
 Depolar (U) --     0.1295                 0.8571                 0.8571
  Atom  AN      X      Y      Z        X      Y      Z        X      Y      Z
     1   6    -0.00  -0.00   0.00     0.10  -0.00   0.00     0.00   0.10  -0.00
     2   1    -0.00   0.58  -0.00     0.02   0.01  -0.00     0.00  -0.81   0.00
     3   1     0.50  -0.29  -0.00    -0.61   0.36  -0.00     0.35  -0.19   0.00
     4   1    -0.50  -0.29  -0.00    -0.60  -0.36  -0.00    -0.36  -0.19   0.00

 -------------------
 - Thermochemistry -
 -------------------
 Temperature   298.150 Kelvin.  Pressure   1.00000 Atm.
 Atom     1 has atomic number  6 and mass  12.00000
 Atom     2 has atomic number  1 and mass   1.00783
 Atom     3 has atomic number  1 and mass   1.00783
 Atom     4 has atomic number  1 and mass   1.00783
 Molecular mass:    15.02348 amu.
 Principal axes and moments of inertia in atomic units:
                           1         2         3
     Eigenvalues --     6.28885   6.28885  12.57769
           X           -0.61541   0.78821   0.00000
           Y            0.78821   0.61541   0.00000
           Z           -0.00000  -0.00000   1.00000
 This molecule is an oblate symmetric top.
 Rotational symmetry number  6.
 Rotational temperatures (Kelvin)     13.77261    13.77261     6.88630
 Rotational constants (GHZ):         286.97490   286.97490   143.48745
 Zero-point vibrational energy      80680.3 (Joules/Mol)
                                   19.28304 (Kcal/Mol)
 Warning -- explicit consideration of   1 degrees of freedom as
           vibrations may cause significant error
 Vibrational temperatures:    604.73  2153.30  2153.30  4651.62  4922.12
          (Kelvin)           4922.12
 
 Zero-point correction=                           0.030729 (Hartree/Particle)
 Thermal correction to Energy=                    0.033862
 Thermal correction to Enthalpy=                  0.034806
 Thermal correction to Gibbs Free Energy=         0.012583
 Sum of electronic and zero-point Energies=            -39.535083
 Sum of electronic and thermal Energies=               -39.531951
 Sum of electronic and thermal Enthalpies=             -39.531007
 Sum of electronic and thermal Free Energies=          -39.553230
 
                     E (Thermal)             CV                S
                      KCal/Mol        Cal/Mol-Kelvin    Cal/Mol-Kelvin
 Total                   21.249              7.539             46.772
 Electronic               0.000              0.000              1.377
 Translational            0.889              2.981             34.068
 Rotational               0.889              2.981             10.412
 Vibrational             19.471              1.578              0.915
 Vibration     1          0.783              1.426              0.891
                       Q            Log10(Q)             Ln(Q)
 Total Bot       0.162949D-05         -5.787949        -13.327245
 Total V=0       0.222128D+09          8.346604         19.218766
 Vib (Bot)       0.845948D-14        -14.072656        -32.403489
 Vib (Bot)    1  0.417667D+00         -0.379170         -0.873070
 Vib (V=0)       0.115318D+01          0.061897          0.142522
 Vib (V=0)    1  0.115150D+01          0.061262          0.141061
 Electronic      0.200000D+01          0.301030          0.693147
 Translational   0.228882D+07          6.359611         14.643545
 Rotational      0.420791D+02          1.624067          3.739552
 
                                    methyl with imposed symmetry and hf/aug-cc-pV
 DZ basis function
                                                             IR Spectrum
 
      3     3                                                                1                                                       
      4     2                                                                4                                       4               
      2     3                                                                9                                       2               
      1     3                                                                7                                       0               
 
      X                                                                      X                                       X               
      X                                                                                                              X               
      X                                                                                                              X               
      X                                                                                                              X               
                                                                                                                     X               
                                                                                                                     X               
                                                                                                                     X               
                                                                                                                     X               
                                                                                                                     X               
                                                                                                                     X               
                                                                                                                     X               
                                                                                                                     X               
                                                                                                                     X               
                                                                                                                     X               
                                                                                                                     X               
                                                                                                                     X               
                                                                                                                     X               
                                                                                                                     X               
                                                                                                                     X               
                                                                                                                     X               
 
 
                                    methyl with imposed symmetry and hf/aug-cc-pV
 DZ basis function
                                                            Raman Spectrum
 
      3     3                                                                1                                                       
      4     2                                                                4                                       4               
      2     3                                                                9                                       2               
      1     3                                                                7                                       0               
 
      X     X                                                                X                                                       
      X     X                                                                                                                        
      X     X                                                                                                                        
      X     X                                                                                                                        
      X     X                                                                                                                        
      X     X                                                                                                                        
      X     X                                                                                                                        
            X                                                                                                                        
            X                                                                                                                        
            X                                                                                                                        
            X                                                                                                                        
            X                                                                                                                        
            X                                                                                                                        
            X                                                                                                                        
            X                                                                                                                        
            X                                                                                                                        
            X                                                                                                                        
            X                                                                                                                        
            X                                                                                                                        
            X                                                                                                                        
 
 ***** Axes restored to original set *****
 -------------------------------------------------------------------
 Center     Atomic                   Forces (Hartrees/Bohr)
 Number     Number              X              Y              Z
 -------------------------------------------------------------------
      1        6           0.000000000   -0.000000000    0.000000000
      2        1          -0.000000000    0.000000000   -0.000000091
      3        1          -0.000000079    0.000000000    0.000000046
      4        1           0.000000079   -0.000000000    0.000000046
 -------------------------------------------------------------------
 Cartesian Forces:  Max     0.000000091 RMS     0.000000046
 Force constants in Cartesian coordinates: 
                1             2             3             4             5 
      1  0.668972D+00
      2  0.000000D+00  0.161451D-01
      3  0.000000D+00  0.000000D+00  0.668972D+00
      4 -0.621351D-01  0.000000D+00  0.000000D+00  0.513012D-01
      5  0.000000D+00 -0.538170D-02  0.000000D+00  0.000000D+00  0.179393D-02
      6  0.000000D+00  0.000000D+00 -0.383846D+00  0.000000D+00  0.000000D+00
      7 -0.303418D+00  0.000000D+00  0.139305D+00  0.541694D-02  0.000000D+00
      8  0.000000D+00 -0.538170D-02  0.000000D+00  0.000000D+00  0.179389D-02
      9  0.139305D+00  0.000000D+00 -0.142563D+00  0.264913D-01  0.000000D+00
     10 -0.303418D+00  0.000000D+00 -0.139305D+00  0.541694D-02  0.000000D+00
     11  0.000000D+00 -0.538170D-02  0.000000D+00  0.000000D+00  0.179389D-02
     12 -0.139305D+00  0.000000D+00 -0.142563D+00 -0.264913D-01  0.000000D+00
                6             7             8             9            10 
      6  0.398661D+00
      7 -0.427900D-02  0.311821D+00
      8  0.000000D+00  0.000000D+00  0.179393D-02
      9 -0.740733D-02 -0.150411D+00  0.000000D+00  0.138141D+00
     10  0.427900D-02 -0.138195D-01  0.000000D+00 -0.153851D-01  0.311821D+00
     11  0.000000D+00  0.000000D+00  0.179389D-02  0.000000D+00  0.000000D+00
     12 -0.740733D-02  0.153851D-01  0.000000D+00  0.118291D-01  0.150411D+00
               11            12 
     11  0.179393D-02
     12  0.000000D+00  0.138141D+00
 Force constants in internal coordinates: 
                1             2             3             4             5 
      1  0.398661D+00
      2 -0.206004D-05  0.398661D+00
      3 -0.206004D-05 -0.205735D-05  0.398661D+00
      4  0.581591D-02  0.581591D-02 -0.116318D-01  0.711379D-01
      5  0.581591D-02 -0.116318D-01  0.581591D-02 -0.355689D-01  0.711379D-01
      6 -0.116318D-01  0.581591D-02  0.581591D-02 -0.355689D-01 -0.355689D-01
      7  0.000000D+00  0.000000D+00  0.000000D+00  0.000000D+00  0.000000D+00
                6             7 
      6  0.711379D-01
      7  0.000000D+00  0.559694D-02
 Leave Link  716 at Sat Aug 17 17:48:37 2024, MaxMem=   13107200 cpu:       0.0
 (Enter /programs/64bit/g09/g09-gfortran/bin/l103.exe)

 GradGradGradGradGradGradGradGradGradGradGradGradGradGradGradGradGradGrad
 Berny optimization.
 Internal  Forces:  Max     0.000000091 RMS     0.000000060
 Search for a local minimum.
 Step number   1 out of a maximum of    2
 All quantities printed in internal units (Hartrees-Bohrs-Radians)
 Second derivative matrix not updated -- analytic derivatives used.
 The second derivative matrix:
                          R1        R2        R3        A1        A2
           R1           0.39866
           R2          -0.00000   0.39866
           R3          -0.00000  -0.00000   0.39866
           A1           0.00582   0.00582  -0.01163   0.07114
           A2           0.00582  -0.01163   0.00582  -0.03557   0.07114
           A3          -0.01163   0.00582   0.00582  -0.03557  -0.03557
           D1          -0.00000  -0.00000   0.00000   0.00000  -0.00000
                          A3        D1
           A3           0.07114
           D1          -0.00000   0.00560
     Eigenvalues ---    0.00560   0.10567   0.10567   0.39866   0.39970
     Eigenvalues ---    0.399701000.00000
 Angle between quadratic step and forces=  90.00 degrees.
 Linear search not attempted -- first point.
 Iteration  1 RMS(Cart)=  0.00000015 RMS(Int)=  0.00000000
 ClnCor:  largest displacement from symmetrization is 1.14D-14 for atom     4.
 Variable       Old X    -DE/DX   Delta X   Delta X   Delta X     New X
                                 (Linear)    (Quad)   (Total)
    R1        2.03961  -0.00000   0.00000  -0.00000  -0.00000   2.03961
    R2        2.03961  -0.00000   0.00000  -0.00000  -0.00000   2.03961
    R3        2.03961  -0.00000   0.00000  -0.00000  -0.00000   2.03961
    A1        2.09440   0.00000   0.00000   0.00000   0.00000   2.09440
    A2        2.09440   0.00000   0.00000   0.00000   0.00000   2.09440
    A3        2.09440  -0.00000   0.00000  -0.00000   0.00000   2.09440
    D1        3.14159   0.00000   0.00000  -0.00000   0.00000   3.14159
         Item               Value     Threshold  Converged?
 Maximum Force            0.000000     0.000450     YES
 RMS     Force            0.000000     0.000300     YES
 Maximum Displacement     0.000000     0.001800     YES
 RMS     Displacement     0.000000     0.001200     YES
 Predicted change in Energy=-3.121633D-14
 Optimization completed.
    -- Stationary point found.
                           ----------------------------
                           !   Optimized Parameters   !
                           ! (Angstroms and Degrees)  !
 --------------------------                            --------------------------
 ! Name  Definition              Value          Derivative Info.                !
 --------------------------------------------------------------------------------
 ! R1    R(1,2)                  1.0793         -DE/DX =    0.0                 !
 ! R2    R(1,3)                  1.0793         -DE/DX =    0.0                 !
 ! R3    R(1,4)                  1.0793         -DE/DX =    0.0                 !
 ! A1    A(2,1,3)              120.0            -DE/DX =    0.0                 !
 ! A2    A(2,1,4)              120.0            -DE/DX =    0.0                 !
 ! A3    A(3,1,4)              120.0            -DE/DX =    0.0                 !
 ! D1    D(2,1,4,3)            180.0            -DE/DX =    0.0                 !
 --------------------------------------------------------------------------------
 GradGradGradGradGradGradGradGradGradGradGradGradGradGradGradGradGradGrad

 Leave Link  103 at Sat Aug 17 17:48:37 2024, MaxMem=   13107200 cpu:       0.0
 (Enter /programs/64bit/g09/g09-gfortran/bin/l9999.exe)
 1\1\GINC-MOLMOD\Freq\UHF\Aug-CC-pVDZ\C1H3(2)\OSPITE\17-Aug-2024\0\\#P 
 Geom=AllCheck Guess=TCheck SCRF=Check GenChk UHF/Aug-CC-pVDZ Freq\\met
 hyl with imposed symmetry and hf/aug-cc-pVDZ basis function\\0,2\C,0.,
 0.,0.\H,0.,0.,1.0793155727\H,0.9347147046,0.,-0.5396577863\H,-0.934714
 7046,0.,-0.5396577863\\Version=EM64L-G09RevA.02\State=2-A2"\HF=-39.565
 8129\S2=0.761234\S2-1=0.\S2A=0.750065\RMSD=3.850e-10\RMSF=4.554e-08\Ze
 roPoint=0.0307295\Thermal=0.0338621\Dipole=0.,0.,0.\DipoleDeriv=0.0630
 927,0.,0.,0.,-0.4498102,0.,0.,0.,0.0630927,0.0333505,0.,0.,0.,0.149936
 7,0.,0.,0.,-0.0754124,-0.0482217,0.,0.0470957,0.,0.1499367,0.,0.047095
 7,0.,0.0061598,-0.0482217,0.,-0.0470957,0.,0.1499367,0.,-0.0470957,0.,
 0.0061598\Polar=14.874996,0.,14.2834092,0.,0.,14.874996\PolarDeriv=0.,
 0.,0.,4.1122132,0.,0.,0.,0.,0.,0.,0.,0.,4.1122128,0.,-0.0000006,0.,0.,
 -4.1122141,0.,0.,0.,0.5729821,0.,0.,0.,0.,0.,0.,0.193367,0.,1.5129056,
 0.,1.0212528,0.,0.,8.1418197,5.8639292,0.,0.8844308,-2.3425973,0.,2.49
 73081,0.,0.1674608,0.,0.,-0.0966835,0.,-2.812559,0.,-0.5106264,1.68331
 06,0.,-2.0148036,-5.8639292,0.,-0.8844308,-2.3425973,0.,-2.4973081,0.,
 -0.1674608,0.,0.,-0.0966835,0.,-2.812559,0.,-0.5106264,-1.6833106,0.,-
 2.0148036\HyperPolar=0.,0.,0.,0.,-13.1049012,0.,0.,0.,0.,13.1049012\PG
 =D03H [O(C1),3C2(H1)]\NImag=0\\0.66897160,0.,0.01614511,0.,0.,0.668971
 59,-0.06213512,0.,0.,0.05130124,0.,-0.00538170,0.,0.,0.00179393,0.,0.,
 -0.38384595,0.,0.,0.39866061,-0.30341825,0.,0.13930488,0.00541694,0.,-
 0.00427900,0.31182077,0.,-0.00538170,0.,0.,0.00179389,0.,0.,0.00179393
 ,0.13930488,0.,-0.14256283,0.02649129,0.,-0.00740733,-0.15041102,0.,0.
 13814108,-0.30341825,0.,-0.13930488,0.00541694,0.,0.00427900,-0.013819
 46,0.,-0.01538514,0.31182077,0.,-0.00538170,0.,0.,0.00179389,0.,0.,0.0
 0179389,0.,0.,0.00179393,-0.13930488,0.,-0.14256283,-0.02649129,0.,-0.
 00740733,0.01538514,0.,0.01182908,0.15041102,0.,0.13814108\\0.,0.,0.,0
 .,0.,0.00000009,0.00000008,0.,-0.00000005,-0.00000008,0.,-0.00000005\\
 \@


 THE WISE MAN HAS THE POWER TO REASON AWAY
 WHAT A FOOL BELIEVES.
                     - DOOBIE BROTHERS
 Job cpu time:  0 days  0 hours  0 minutes  6.4 seconds.
 File lengths (MBytes):  RWF=      5 Int=      0 D2E=      0 Chk=      1 Scr=      1
 Normal termination of Gaussian 09 at Sat Aug 17 17:48:37 2024.
