 Entering Gaussian System, Link 0=/programs/64bit/g09/g09-gfortran/bin/g09
 Input=ch3_cc-pVTZ.com
 Output=ch3_cc-pVTZ.log
 Initial command:
 /programs/64bit/g09/g09-gfortran/bin/l1.exe /home/ospite/Desktop/MMfP/Project6/CH3/g09/HF/Gau-18659.inp -scrdir=/home/ospite/Desktop/MMfP/Project6/CH3/g09/HF/
 Entering Link 1 = /programs/64bit/g09/g09-gfortran/bin/l1.exe PID=     18660.
  
 Copyright (c) 1988,1990,1992,1993,1995,1998,2003,2009, Gaussian, Inc.
                  All Rights Reserved.
  
 This is part of the Gaussian(R) 09 program.  It is based on
 the Gaussian(R) 03 system (copyright 2003, Gaussian, Inc.),
 the Gaussian(R) 98 system (copyright 1998, Gaussian, Inc.),
 the Gaussian(R) 94 system (copyright 1995, Gaussian, Inc.),
 the Gaussian 92(TM) system (copyright 1992, Gaussian, Inc.),
 the Gaussian 90(TM) system (copyright 1990, Gaussian, Inc.),
 the Gaussian 88(TM) system (copyright 1988, Gaussian, Inc.),
 the Gaussian 86(TM) system (copyright 1986, Carnegie Mellon
 University), and the Gaussian 82(TM) system (copyright 1983,
 Carnegie Mellon University). Gaussian is a federally registered
 trademark of Gaussian, Inc.
  
 This software contains proprietary and confidential information,
 including trade secrets, belonging to Gaussian, Inc.
  
 This software is provided under written license and may be
 used, copied, transmitted, or stored only in accord with that
 written license.
  
 The following legend is applicable only to US Government
 contracts under FAR:
  
                    RESTRICTED RIGHTS LEGEND
  
 Use, reproduction and disclosure by the US Government is
 subject to restrictions as set forth in subparagraphs (a)
 and (c) of the Commercial Computer Software - Restricted
 Rights clause in FAR 52.227-19.
  
 Gaussian, Inc.
 340 Quinnipiac St., Bldg. 40, Wallingford CT 06492
  
  
 ---------------------------------------------------------------
 Warning -- This program may not be used in any manner that
 competes with the business of Gaussian, Inc. or will provide
 assistance to any competitor of Gaussian, Inc.  The licensee
 of this program is prohibited from giving any competitor of
 Gaussian, Inc. access to this program.  By using this program,
 the user acknowledges that Gaussian, Inc. is engaged in the
 business of creating and licensing software in the field of
 computational chemistry and represents and warrants to the
 licensee that it is not a competitor of Gaussian, Inc. and that
 it will not use this program in any manner prohibited above.
 ---------------------------------------------------------------
  

 Cite this work as:
 Gaussian 09, Revision A.02,
 M. J. Frisch, G. W. Trucks, H. B. Schlegel, G. E. Scuseria, 
 M. A. Robb, J. R. Cheeseman, G. Scalmani, V. Barone, B. Mennucci, 
 G. A. Petersson, H. Nakatsuji, M. Caricato, X. Li, H. P. Hratchian, 
 A. F. Izmaylov, J. Bloino, G. Zheng, J. L. Sonnenberg, M. Hada, 
 M. Ehara, K. Toyota, R. Fukuda, J. Hasegawa, M. Ishida, T. Nakajima, 
 Y. Honda, O. Kitao, H. Nakai, T. Vreven, J. A. Montgomery, Jr., 
 J. E. Peralta, F. Ogliaro, M. Bearpark, J. J. Heyd, E. Brothers, 
 K. N. Kudin, V. N. Staroverov, R. Kobayashi, J. Normand, 
 K. Raghavachari, A. Rendell, J. C. Burant, S. S. Iyengar, J. Tomasi, 
 M. Cossi, N. Rega, J. M. Millam, M. Klene, J. E. Knox, J. B. Cross, 
 V. Bakken, C. Adamo, J. Jaramillo, R. Gomperts, R. E. Stratmann, 
 O. Yazyev, A. J. Austin, R. Cammi, C. Pomelli, J. W. Ochterski, 
 R. L. Martin, K. Morokuma, V. G. Zakrzewski, G. A. Voth, 
 P. Salvador, J. J. Dannenberg, S. Dapprich, A. D. Daniels, 
 O. Farkas, J. B. Foresman, J. V. Ortiz, J. Cioslowski, 
 and D. J. Fox, Gaussian, Inc., Wallingford CT, 2009.
 
 ******************************************
 Gaussian 09:  EM64L-G09RevA.02 11-Jun-2009
                18-Aug-2024 
 ******************************************
 %mem=100MB
 ----------------------------------------------------------------
 #p hf/cc-pVTZ opt freq symmetry=(follow,pg=C3v) pop=full gfinput
 ----------------------------------------------------------------
 1/18=20,19=15,38=1/1,3;
 2/9=110,12=2,17=6,18=5,19=2314885530821997379,40=1/2;
 3/5=16,6=1,11=9,16=1,24=10,25=1,30=1,71=1/1,2,3;
 4//1;
 5/5=2,38=5/2;
 6/7=3,28=1/1;
 7//1,2,3,16;
 1/18=20,19=15/3(2);
 2/9=110,15=5,19=2314885530821997379/2;
 99//99;
 2/9=110,15=5,19=2314885530821997379/2;
 3/5=16,6=1,11=9,16=1,25=1,30=1,71=1/1,2,3;
 4/5=5,16=3/1;
 5/5=2,38=5/2;
 7//1,2,3,16;
 1/18=20,19=15/3(-5);
 2/9=110,15=5,19=2314885530821997379/2;
 6/7=3,19=2,28=1/1;
 99/9=1/99;
 Leave Link    1 at Sun Aug 18 00:16:27 2024, MaxMem=   13107200 cpu:       0.1
 (Enter /programs/64bit/g09/g09-gfortran/bin/l101.exe)
 --------------------------------------------------
 methyl with imposed symmetry and cc-pVTZ basis set
 --------------------------------------------------
 Symbolic Z-matrix:
 Charge =  0 Multiplicity = 2
 C1
 H2                   1    d
 H3                   1    d        2    a
 H4                   1    d        2    -a       3    t        0
       Variables:
  d                     1.09                     
  a                   120.                       
  t                     0.                       
 
 NAtoms=      4 NQM=      4 NQMF=      0 NMic=      0 NMicF=      0 NTot=      4.
                    Isotopes and Nuclear Properties:
 (Nuclear quadrupole moments (NQMom) in fm**2, nuclear magnetic moments (NMagM)
  in nuclear magnetons)

  Atom         1           2           3           4
 IAtWgt=          12           1           1           1
 AtmWgt=  12.0000000   1.0078250   1.0078250   1.0078250
 NucSpn=           0           1           1           1
 AtZEff=   0.0000000   0.0000000   0.0000000   0.0000000
 NQMom=    0.0000000   0.0000000   0.0000000   0.0000000
 NMagM=    0.0000000   2.7928460   2.7928460   2.7928460
 Leave Link  101 at Sun Aug 18 00:16:27 2024, MaxMem=   13107200 cpu:       0.1
 (Enter /programs/64bit/g09/g09-gfortran/bin/l103.exe)

 GradGradGradGradGradGradGradGradGradGradGradGradGradGradGradGradGradGrad
 Berny optimization.
 Initialization pass.
                           ----------------------------
                           !    Initial Parameters    !
                           ! (Angstroms and Degrees)  !
 --------------------------                            --------------------------
 ! Name  Definition              Value          Derivative Info.                !
 --------------------------------------------------------------------------------
 ! R1    R(1,2)                  1.09           estimate D2E/DX2                !
 ! R2    R(1,3)                  1.09           estimate D2E/DX2                !
 ! R3    R(1,4)                  1.09           estimate D2E/DX2                !
 ! A1    A(2,1,3)              120.0            estimate D2E/DX2                !
 ! A2    A(2,1,4)              120.0            estimate D2E/DX2                !
 ! A3    A(3,1,4)              120.0            estimate D2E/DX2                !
 ! D1    D(2,1,4,3)            180.0            estimate D2E/DX2                !
 --------------------------------------------------------------------------------
 Trust Radius=3.00D-01 FncErr=1.00D-07 GrdErr=1.00D-07
 Number of steps in this run=  20 maximum allowed number of steps= 100.
 GradGradGradGradGradGradGradGradGradGradGradGradGradGradGradGradGradGrad

 Leave Link  103 at Sun Aug 18 00:16:27 2024, MaxMem=   13107200 cpu:       0.0
 (Enter /programs/64bit/g09/g09-gfortran/bin/l202.exe)
                          Input orientation:                          
 ---------------------------------------------------------------------
 Center     Atomic      Atomic             Coordinates (Angstroms)
 Number     Number       Type             X           Y           Z
 ---------------------------------------------------------------------
      1          6           0        0.000000    0.000000    0.000000
      2          1           0        0.000000    0.000000    1.090000
      3          1           0        0.943968    0.000000   -0.545000
      4          1           0       -0.943968    0.000000   -0.545000
 ---------------------------------------------------------------------
                    Distance matrix (angstroms):
                    1          2          3          4
     1  C    0.000000
     2  H    1.090000   0.000000
     3  H    1.090000   1.887935   0.000000
     4  H    1.090000   1.887935   1.887935   0.000000
 Symm:  InNGrp=C3V  InAxis=0.
 This structure is nearly, but not quite of a higher symmetry.
 Consider Symm=Loose if the higher symmetry is desired.
 Stoichiometry    CH3(2)
 Framework group  C2[C2(CH),X(H2)]
 Deg. of freedom     3
 Full point group                 C2      NOp   2
 Largest Abelian subgroup         C2      NOp   2
 Largest concise Abelian subgroup C2      NOp   2
                         Standard orientation:                         
 ---------------------------------------------------------------------
 Center     Atomic      Atomic             Coordinates (Angstroms)
 Number     Number       Type             X           Y           Z
 ---------------------------------------------------------------------
      1          6           0        0.000000    0.000000    0.000000
      2          1           0        0.000000    0.000000    1.090000
      3          1           0        0.000000    0.943968   -0.545000
      4          1           0       -0.000000   -0.943968   -0.545000
 ---------------------------------------------------------------------
 Rotational constants (GHZ):    281.3764836    281.3764836    140.6882418
 Leave Link  202 at Sun Aug 18 00:16:27 2024, MaxMem=   13107200 cpu:       0.0
 (Enter /programs/64bit/g09/g09-gfortran/bin/l301.exe)
 Standard basis: CC-pVTZ (5D, 7F)
 Ernie: Thresh=  0.10000D-02 Tol=  0.10000D-05 Strict=F.
 Ernie:  3 primitive shells out of 50 were deleted.
 AO basis set in the form of general basis input (Overlap normalization):
      1 0
 S   7 1.00       0.000000000000
      0.8236000000D+04  0.5419783203D-03
      0.1235000000D+04  0.4192873817D-02
      0.2808000000D+03  0.2152216205D-01
      0.7927000000D+02  0.8353432195D-01
      0.2559000000D+02  0.2395828457D+00
      0.8997000000D+01  0.4428528419D+00
      0.3319000000D+01  0.3517995618D+00
 S   6 1.00       0.000000000000
      0.2808000000D+03 -0.5949224937D-04
      0.7927000000D+02 -0.1148158310D-02
      0.2559000000D+02 -0.1001913745D-01
      0.8997000000D+01 -0.6121949230D-01
      0.3319000000D+01 -0.1732698541D+00
      0.3643000000D+00  0.1072915192D+01
 S   1 1.00       0.000000000000
      0.9059000000D+00  0.1000000000D+01
 S   1 1.00       0.000000000000
      0.1285000000D+00  0.1000000000D+01
 P   3 1.00       0.000000000000
      0.1871000000D+02  0.3942638716D-01
      0.4133000000D+01  0.2440889849D+00
      0.1200000000D+01  0.8154920089D+00
 P   1 1.00       0.000000000000
      0.3827000000D+00  0.1000000000D+01
 P   1 1.00       0.000000000000
      0.1209000000D+00  0.1000000000D+01
 D   1 1.00       0.000000000000
      0.1097000000D+01  0.1000000000D+01
 D   1 1.00       0.000000000000
      0.3180000000D+00  0.1000000000D+01
 F   1 1.00       0.000000000000
      0.7610000000D+00  0.1000000000D+01
 ****
      2 0
 S   3 1.00       0.000000000000
      0.3387000000D+02  0.2549486323D-01
      0.5095000000D+01  0.1903627659D+00
      0.1159000000D+01  0.8521620222D+00
 S   1 1.00       0.000000000000
      0.3258000000D+00  0.1000000000D+01
 S   1 1.00       0.000000000000
      0.1027000000D+00  0.1000000000D+01
 P   1 1.00       0.000000000000
      0.1407000000D+01  0.1000000000D+01
 P   1 1.00       0.000000000000
      0.3880000000D+00  0.1000000000D+01
 D   1 1.00       0.000000000000
      0.1057000000D+01  0.1000000000D+01
 ****
      3 0
 S   3 1.00       0.000000000000
      0.3387000000D+02  0.2549486323D-01
      0.5095000000D+01  0.1903627659D+00
      0.1159000000D+01  0.8521620222D+00
 S   1 1.00       0.000000000000
      0.3258000000D+00  0.1000000000D+01
 S   1 1.00       0.000000000000
      0.1027000000D+00  0.1000000000D+01
 P   1 1.00       0.000000000000
      0.1407000000D+01  0.1000000000D+01
 P   1 1.00       0.000000000000
      0.3880000000D+00  0.1000000000D+01
 D   1 1.00       0.000000000000
      0.1057000000D+01  0.1000000000D+01
 ****
      4 0
 S   3 1.00       0.000000000000
      0.3387000000D+02  0.2549486323D-01
      0.5095000000D+01  0.1903627659D+00
      0.1159000000D+01  0.8521620222D+00
 S   1 1.00       0.000000000000
      0.3258000000D+00  0.1000000000D+01
 S   1 1.00       0.000000000000
      0.1027000000D+00  0.1000000000D+01
 P   1 1.00       0.000000000000
      0.1407000000D+01  0.1000000000D+01
 P   1 1.00       0.000000000000
      0.3880000000D+00  0.1000000000D+01
 D   1 1.00       0.000000000000
      0.1057000000D+01  0.1000000000D+01
 ****

 There are    38 symmetry adapted basis functions of A   symmetry.
 There are    34 symmetry adapted basis functions of B   symmetry.
 Integral buffers will be    131072 words long.
 Raffenetti 2 integral format.
 Two-electron integral symmetry is turned on.
    72 basis functions,   103 primitive gaussians,    80 cartesian basis functions
     5 alpha electrons        4 beta electrons
       nuclear repulsion energy         9.5795885928 Hartrees.
 IExCor=    0 DFT=F Ex=HF Corr=None ExCW=0 ScaHFX=  1.000000
 ScaDFX=  1.000000  1.000000  1.000000  1.000000 ScalE2=  1.000000  1.000000
 IRadAn=      0 IRanWt=     -1 IRanGd=            0 ICorTp=0
 NAtoms=    4 NActive=    4 NUniq=    3 SFac= 1.33D+00 NAtFMM=   80 NAOKFM=F Big=F
 Leave Link  301 at Sun Aug 18 00:16:27 2024, MaxMem=   13107200 cpu:       0.1
 (Enter /programs/64bit/g09/g09-gfortran/bin/l302.exe)
 NPDir=0 NMtPBC=     1 NCelOv=     1 NCel=       1 NClECP=     1 NCelD=      1
         NCelK=      1 NCelE2=     1 NClLst=     1 CellRange=     0.0.
 One-electron integrals computed using PRISM.
 One-electron integral symmetry used in STVInt
 NBasis=    72 RedAO= T  NBF=    38    34
 NBsUse=    72 1.00D-06 NBFU=    38    34
 Leave Link  302 at Sun Aug 18 00:16:27 2024, MaxMem=   13107200 cpu:       0.1
 (Enter /programs/64bit/g09/g09-gfortran/bin/l303.exe)
 DipDrv:  MaxL=1.
 Leave Link  303 at Sun Aug 18 00:16:27 2024, MaxMem=   13107200 cpu:       0.0
 (Enter /programs/64bit/g09/g09-gfortran/bin/l401.exe)
 Harris functional with IExCor=  205 diagonalized for initial guess.
 ExpMin= 1.03D-01 ExpMax= 8.24D+03 ExpMxC= 2.81D+02 IAcc=1 IRadAn=         1 AccDes= 0.00D+00
 HarFok:  IExCor=  205 AccDes= 0.00D+00 IRadAn=         1 IDoV= 1
 ScaDFX=  1.000000  1.000000  1.000000  1.000000
 FoFCou: FMM=F IPFlag=           0 FMFlag=      100000 FMFlg1=           0
         NFxFlg=           0 DoJE=T BraDBF=F KetDBF=T FulRan=T
         Omega=  0.000000  0.000000  1.000000  0.000000  0.000000 ICntrl=     500 IOpCl=  0
         NMat0=    1 NMatS0=    1 NMatT0=    0 NMatD0=    1 NMtDS0=    0 NMtDT0=    0
         I1Cent=           4 NGrid=           0.
 Petite list used in FoFCou.
 Harris En= -39.6498464764066    
 Initial guess orbital symmetries:
 Alpha Orbitals:
       Occupied  (A) (A) (A) (B) (B)
       Virtual   (A) (A) (B) (B) (A) (B) (A) (A) (B) (A) (A) (B)
                 (B) (A) (B) (A) (B) (B) (A) (B) (A) (A) (B) (A)
                 (B) (A) (B) (A) (B) (A) (B) (A) (B) (A) (B) (B)
                 (A) (B) (A) (A) (A) (B) (A) (A) (B) (A) (B) (B)
                 (A) (B) (B) (A) (B) (A) (B) (A) (A) (B) (A) (B)
                 (B) (A) (A) (A) (B) (B) (A)
 Beta  Orbitals:
       Occupied  (A) (A) (A) (B)
       Virtual   (B) (A) (A) (B) (B) (A) (B) (A) (A) (B) (A) (A)
                 (B) (B) (A) (B) (A) (B) (B) (A) (B) (A) (A) (B)
                 (A) (B) (A) (B) (A) (B) (A) (B) (A) (B) (A) (B)
                 (B) (A) (B) (A) (A) (A) (B) (A) (A) (B) (A) (B)
                 (B) (A) (B) (B) (A) (B) (A) (B) (A) (A) (B) (A)
                 (B) (B) (A) (A) (A) (B) (B) (A)
 The electronic state of the initial guess is 2-B.
 Initial guess <Sx>= 0.0000 <Sy>= 0.0000 <Sz>= 0.5000 <S**2>= 0.7500 S= 0.5000
 Leave Link  401 at Sun Aug 18 00:16:28 2024, MaxMem=   13107200 cpu:       0.4
 (Enter /programs/64bit/g09/g09-gfortran/bin/l502.exe)
 UHF open shell SCF:
 Requested convergence on RMS density matrix=1.00D-08 within 128 cycles.
 Requested convergence on MAX density matrix=1.00D-06.
 Requested convergence on             energy=1.00D-06.
 No special actions if energy rises.
 Using DIIS extrapolation, IDIIS=  1040.
 Integral symmetry usage will be decided dynamically.
 Keep R1 and R2 ints in memory in canonical form, NReq=12479375.
 IEnd=       38514 IEndB=       38514 NGot=    13107200 MDV=     2590939
 LenX=     2590939 LenY=     2584098
 Symmetry not used in FoFDir.
 MinBra= 0 MaxBra= 3 Meth= 1.
 IRaf=       0 NMat=   1 IRICut=       1 DoRegI=T DoRafI=F ISym2E= 0 JSym2E=0.

 Cycle   1  Pass 1  IDiag  1:
 E= -39.5041230757249    
 DIIS: error= 4.10D-02 at cycle   1 NSaved=   1.
 NSaved= 1 IEnMin= 1 EnMin= -39.5041230757249     IErMin= 1 ErrMin= 4.10D-02
 ErrMax= 4.10D-02 EMaxC= 1.00D-01 BMatC= 4.14D-01 BMatP= 4.14D-01
 IDIUse=3 WtCom= 5.90D-01 WtEn= 4.10D-01
 Coeff-Com:  0.100D+01
 Coeff-En:   0.100D+01
 Coeff:      0.100D+01
 Gap=     0.472 Goal=   None    Shift=    0.000
 Gap=     0.683 Goal=   None    Shift=    0.000
 GapD=    0.472 DampG=2.000 DampE=0.500 DampFc=1.0000 IDamp=-1.
 RMSDP=2.55D-03 MaxDP=7.99D-02              OVMax= 1.11D-01

 Cycle   2  Pass 1  IDiag  1:
 E= -39.5690474000566     Delta-E=       -0.064924324332 Rises=F Damp=F
 DIIS: error= 1.50D-02 at cycle   2 NSaved=   2.
 NSaved= 2 IEnMin= 2 EnMin= -39.5690474000566     IErMin= 2 ErrMin= 1.50D-02
 ErrMax= 1.50D-02 EMaxC= 1.00D-01 BMatC= 3.26D-02 BMatP= 4.14D-01
 IDIUse=3 WtCom= 8.50D-01 WtEn= 1.50D-01
 Coeff-Com:  0.146D+00 0.854D+00
 Coeff-En:   0.000D+00 0.100D+01
 Coeff:      0.124D+00 0.876D+00
 Gap=     0.538 Goal=   None    Shift=    0.000
 Gap=     0.690 Goal=   None    Shift=    0.000
 RMSDP=7.90D-04 MaxDP=3.21D-02 DE=-6.49D-02 OVMax= 3.93D-02

 Cycle   3  Pass 1  IDiag  1:
 E= -39.5762282692265     Delta-E=       -0.007180869170 Rises=F Damp=F
 DIIS: error= 3.39D-03 at cycle   3 NSaved=   3.
 NSaved= 3 IEnMin= 3 EnMin= -39.5762282692265     IErMin= 3 ErrMin= 3.39D-03
 ErrMax= 3.39D-03 EMaxC= 1.00D-01 BMatC= 1.33D-03 BMatP= 3.26D-02
 IDIUse=3 WtCom= 9.66D-01 WtEn= 3.39D-02
 Coeff-Com: -0.264D-01 0.820D-01 0.944D+00
 Coeff-En:   0.000D+00 0.000D+00 0.100D+01
 Coeff:     -0.255D-01 0.792D-01 0.946D+00
 Gap=     0.529 Goal=   None    Shift=    0.000
 Gap=     0.683 Goal=   None    Shift=    0.000
 RMSDP=1.66D-04 MaxDP=3.90D-03 DE=-7.18D-03 OVMax= 9.01D-03

 Cycle   4  Pass 1  IDiag  1:
 E= -39.5766992537348     Delta-E=       -0.000470984508 Rises=F Damp=F
 DIIS: error= 1.18D-03 at cycle   4 NSaved=   4.
 NSaved= 4 IEnMin= 4 EnMin= -39.5766992537348     IErMin= 4 ErrMin= 1.18D-03
 ErrMax= 1.18D-03 EMaxC= 1.00D-01 BMatC= 1.57D-04 BMatP= 1.33D-03
 IDIUse=3 WtCom= 9.88D-01 WtEn= 1.18D-02
 Coeff-Com:  0.138D-01-0.729D-01-0.650D+00 0.171D+01
 Coeff-En:   0.000D+00 0.000D+00 0.000D+00 0.100D+01
 Coeff:      0.136D-01-0.721D-01-0.642D+00 0.170D+01
 Gap=     0.532 Goal=   None    Shift=    0.000
 Gap=     0.685 Goal=   None    Shift=    0.000
 RMSDP=1.49D-04 MaxDP=4.56D-03 DE=-4.71D-04 OVMax= 5.90D-03

 Cycle   5  Pass 1  IDiag  1:
 E= -39.5768397881147     Delta-E=       -0.000140534380 Rises=F Damp=F
 DIIS: error= 4.36D-04 at cycle   5 NSaved=   5.
 NSaved= 5 IEnMin= 5 EnMin= -39.5768397881147     IErMin= 5 ErrMin= 4.36D-04
 ErrMax= 4.36D-04 EMaxC= 1.00D-01 BMatC= 2.49D-05 BMatP= 1.57D-04
 IDIUse=3 WtCom= 9.96D-01 WtEn= 4.36D-03
 Coeff-Com: -0.743D-02 0.509D-01 0.418D+00-0.145D+01 0.199D+01
 Coeff-En:   0.000D+00 0.000D+00 0.000D+00 0.000D+00 0.100D+01
 Coeff:     -0.740D-02 0.507D-01 0.417D+00-0.145D+01 0.199D+01
 Gap=     0.534 Goal=   None    Shift=    0.000
 Gap=     0.684 Goal=   None    Shift=    0.000
 RMSDP=7.91D-05 MaxDP=2.23D-03 DE=-1.41D-04 OVMax= 3.34D-03

 Cycle   6  Pass 1  IDiag  1:
 E= -39.5768677344051     Delta-E=       -0.000027946290 Rises=F Damp=F
 DIIS: error= 1.16D-04 at cycle   6 NSaved=   6.
 NSaved= 6 IEnMin= 6 EnMin= -39.5768677344051     IErMin= 6 ErrMin= 1.16D-04
 ErrMax= 1.16D-04 EMaxC= 1.00D-01 BMatC= 1.11D-06 BMatP= 2.49D-05
 IDIUse=3 WtCom= 9.99D-01 WtEn= 1.16D-03
 Coeff-Com:  0.137D-02-0.109D-01-0.927D-01 0.377D+00-0.742D+00 0.147D+01
 Coeff-En:   0.000D+00 0.000D+00 0.000D+00 0.000D+00 0.000D+00 0.100D+01
 Coeff:      0.137D-02-0.109D-01-0.926D-01 0.376D+00-0.741D+00 0.147D+01
 Gap=     0.534 Goal=   None    Shift=    0.000
 Gap=     0.684 Goal=   None    Shift=    0.000
 RMSDP=1.56D-05 MaxDP=2.96D-04 DE=-2.79D-05 OVMax= 7.52D-04

 Cycle   7  Pass 1  IDiag  1:
 E= -39.5768688992330     Delta-E=       -0.000001164828 Rises=F Damp=F
 DIIS: error= 2.40D-05 at cycle   7 NSaved=   7.
 NSaved= 7 IEnMin= 7 EnMin= -39.5768688992330     IErMin= 7 ErrMin= 2.40D-05
 ErrMax= 2.40D-05 EMaxC= 1.00D-01 BMatC= 4.78D-08 BMatP= 1.11D-06
 IDIUse=1 WtCom= 1.00D+00 WtEn= 0.00D+00
 Coeff-Com: -0.447D-03 0.375D-02 0.342D-01-0.147D+00 0.320D+00-0.810D+00
 Coeff-Com:  0.160D+01
 Coeff:     -0.447D-03 0.375D-02 0.342D-01-0.147D+00 0.320D+00-0.810D+00
 Coeff:      0.160D+01
 Gap=     0.534 Goal=   None    Shift=    0.000
 Gap=     0.684 Goal=   None    Shift=    0.000
 RMSDP=3.53D-06 MaxDP=9.89D-05 DE=-1.16D-06 OVMax= 1.58D-04

 Cycle   8  Pass 1  IDiag  1:
 E= -39.5768689428481     Delta-E=       -0.000000043615 Rises=F Damp=F
 DIIS: error= 4.76D-06 at cycle   8 NSaved=   8.
 NSaved= 8 IEnMin= 8 EnMin= -39.5768689428481     IErMin= 8 ErrMin= 4.76D-06
 ErrMax= 4.76D-06 EMaxC= 1.00D-01 BMatC= 9.32D-10 BMatP= 4.78D-08
 IDIUse=1 WtCom= 1.00D+00 WtEn= 0.00D+00
 Coeff-Com:  0.980D-04-0.822D-03-0.748D-02 0.331D-01-0.731D-01 0.200D+00
 Coeff-Com: -0.497D+00 0.135D+01
 Coeff:      0.980D-04-0.822D-03-0.748D-02 0.331D-01-0.731D-01 0.200D+00
 Coeff:     -0.497D+00 0.135D+01
 Gap=     0.534 Goal=   None    Shift=    0.000
 Gap=     0.684 Goal=   None    Shift=    0.000
 RMSDP=4.39D-07 MaxDP=2.51D-05 DE=-4.36D-08 OVMax= 2.76D-05

 Cycle   9  Pass 1  IDiag  1:
 E= -39.5768689435393     Delta-E=       -0.000000000691 Rises=F Damp=F
 DIIS: error= 6.53D-07 at cycle   9 NSaved=   9.
 NSaved= 9 IEnMin= 9 EnMin= -39.5768689435393     IErMin= 9 ErrMin= 6.53D-07
 ErrMax= 6.53D-07 EMaxC= 1.00D-01 BMatC= 2.27D-11 BMatP= 9.32D-10
 IDIUse=1 WtCom= 1.00D+00 WtEn= 0.00D+00
 Coeff-Com: -0.217D-04 0.176D-03 0.166D-02-0.739D-02 0.166D-01-0.461D-01
 Coeff-Com:  0.125D+00-0.428D+00 0.134D+01
 Coeff:     -0.217D-04 0.176D-03 0.166D-02-0.739D-02 0.166D-01-0.461D-01
 Coeff:      0.125D+00-0.428D+00 0.134D+01
 Gap=     0.534 Goal=   None    Shift=    0.000
 Gap=     0.684 Goal=   None    Shift=    0.000
 RMSDP=7.59D-08 MaxDP=3.47D-06 DE=-6.91D-10 OVMax= 3.81D-06

 Cycle  10  Pass 1  IDiag  1:
 E= -39.5768689435576     Delta-E=       -0.000000000018 Rises=F Damp=F
 DIIS: error= 1.47D-07 at cycle  10 NSaved=  10.
 NSaved=10 IEnMin=10 EnMin= -39.5768689435576     IErMin=10 ErrMin= 1.47D-07
 ErrMax= 1.47D-07 EMaxC= 1.00D-01 BMatC= 1.49D-12 BMatP= 2.27D-11
 IDIUse=1 WtCom= 1.00D+00 WtEn= 0.00D+00
 Coeff-Com:  0.866D-05-0.687D-04-0.657D-03 0.295D-02-0.666D-02 0.186D-01
 Coeff-Com: -0.521D-01 0.193D+00-0.758D+00 0.160D+01
 Coeff:      0.866D-05-0.687D-04-0.657D-03 0.295D-02-0.666D-02 0.186D-01
 Coeff:     -0.521D-01 0.193D+00-0.758D+00 0.160D+01
 Gap=     0.534 Goal=   None    Shift=    0.000
 Gap=     0.684 Goal=   None    Shift=    0.000
 RMSDP=1.67D-08 MaxDP=8.41D-07 DE=-1.83D-11 OVMax= 9.39D-07

 Cycle  11  Pass 1  IDiag  1:
 E= -39.5768689435588     Delta-E=       -0.000000000001 Rises=F Damp=F
 DIIS: error= 2.68D-08 at cycle  11 NSaved=  11.
 NSaved=11 IEnMin=11 EnMin= -39.5768689435588     IErMin=11 ErrMin= 2.68D-08
 ErrMax= 2.68D-08 EMaxC= 1.00D-01 BMatC= 3.99D-14 BMatP= 1.49D-12
 IDIUse=1 WtCom= 1.00D+00 WtEn= 0.00D+00
 Coeff-Com: -0.194D-05 0.150D-04 0.146D-03-0.660D-03 0.148D-02-0.415D-02
 Coeff-Com:  0.117D-01-0.452D-01 0.195D+00-0.535D+00 0.138D+01
 Coeff:     -0.194D-05 0.150D-04 0.146D-03-0.660D-03 0.148D-02-0.415D-02
 Coeff:      0.117D-01-0.452D-01 0.195D+00-0.535D+00 0.138D+01
 Gap=     0.534 Goal=   None    Shift=    0.000
 Gap=     0.684 Goal=   None    Shift=    0.000
 RMSDP=3.96D-09 MaxDP=1.05D-07 DE=-1.15D-12 OVMax= 1.17D-07

 SCF Done:  E(UHF) =  -39.5768689436     A.U. after   11 cycles
             Convg  =    0.3960D-08             -V/T =  2.0024
 <Sx>= 0.0000 <Sy>= 0.0000 <Sz>= 0.5000 <S**2>= 0.7622 S= 0.5061
 <L.S>=  0.00000000000    
 KE= 3.948034770930D+01 PE=-1.108854799441D+02 EE= 2.224867469850D+01
 Annihilation of the first spin contaminant:
 S**2 before annihilation     0.7622,   after     0.7501
 Leave Link  502 at Sun Aug 18 00:16:29 2024, MaxMem=   13107200 cpu:       1.3
 (Enter /programs/64bit/g09/g09-gfortran/bin/l601.exe)
 Copying SCF densities to generalized density rwf, IOpCl= 1 IROHF=0.

 **********************************************************************

            Population analysis using the SCF density.

 **********************************************************************

 Orbital symmetries:
 Alpha Orbitals:
       Occupied  (A) (A) (A) (B) (B)
       Virtual   (A) (A) (B) (B) (A) (B) (A) (A) (A) (B) (B) (A)
                 (B) (A) (B) (A) (B) (A) (B) (B) (A) (A) (B) (A)
                 (B) (A) (A) (B) (A) (B) (B) (A) (B) (B) (A) (B)
                 (A) (A) (B) (A) (A) (A) (B) (A) (B) (A) (B) (B)
                 (A) (B) (B) (A) (B) (A) (B) (A) (B) (A) (B) (A)
                 (B) (A) (A) (A) (B) (B) (A)
 Beta  Orbitals:
       Occupied  (A) (A) (A) (B)
       Virtual   (B) (A) (A) (B) (B) (A) (A) (B) (A) (A) (B) (B)
                 (A) (B) (B) (A) (A) (B) (A) (B) (B) (A) (A) (B)
                 (A) (A) (B) (A) (B) (A) (B) (B) (A) (B) (B) (B)
                 (A) (A) (A) (B) (A) (A) (A) (B) (B) (A) (A) (B)
                 (B) (A) (B) (B) (A) (B) (A) (B) (A) (B) (A) (B)
                 (A) (B) (A) (A) (A) (B) (B) (A)
 The electronic state is 2-B.
 Alpha  occ. eigenvalues --  -11.23706  -0.94325  -0.57623  -0.57623  -0.38500
 Alpha virt. eigenvalues --    0.14880   0.22130   0.22130   0.37741   0.37741
 Alpha virt. eigenvalues --    0.44069   0.48625   0.61787   0.66009   0.66009
 Alpha virt. eigenvalues --    0.72985   0.72985   1.02463   1.06538   1.08800
 Alpha virt. eigenvalues --    1.08800   1.15334   1.26597   1.26597   1.44218
 Alpha virt. eigenvalues --    1.44218   1.53954   1.53954   1.79917   2.36268
 Alpha virt. eigenvalues --    2.39565   2.54395   2.54395   2.84248   2.84248
 Alpha virt. eigenvalues --    2.90140   2.90140   3.15846   3.18665   3.21632
 Alpha virt. eigenvalues --    3.22954   3.22954   3.27900   3.27900   3.49332
 Alpha virt. eigenvalues --    3.52698   3.67114   3.67114   3.90701   3.90701
 Alpha virt. eigenvalues --    3.94006   3.94006   4.15707   4.18861   4.21623
 Alpha virt. eigenvalues --    4.26851   4.26851   4.38482   4.38482   4.97863
 Alpha virt. eigenvalues --    5.14482   5.14482   5.16481   5.18766   5.18766
 Alpha virt. eigenvalues --    5.26387   5.26387   5.87085   6.01229   6.01229
 Alpha virt. eigenvalues --    6.49900  13.07790
  Beta  occ. eigenvalues --  -11.21389  -0.85166  -0.56223  -0.56223
  Beta virt. eigenvalues --    0.12207   0.15930   0.22599   0.22599   0.38008
  Beta virt. eigenvalues --    0.38008   0.53221   0.56466   0.64327   0.67022
  Beta virt. eigenvalues --    0.67022   0.77923   0.77923   1.02157   1.09341
  Beta virt. eigenvalues --    1.09341   1.11316   1.17347   1.29076   1.29076
  Beta virt. eigenvalues --    1.44695   1.44695   1.54575   1.54575   1.81604
  Beta virt. eigenvalues --    2.40454   2.45963   2.55977   2.55977   2.86430
  Beta virt. eigenvalues --    2.86430   2.93987   2.93987   3.16060   3.22658
  Beta virt. eigenvalues --    3.24221   3.24221   3.28524   3.31890   3.31890
  Beta virt. eigenvalues --    3.49581   3.53269   3.67284   3.67284   3.91151
  Beta virt. eigenvalues --    3.91151   3.94936   3.94936   4.15393   4.19014
  Beta virt. eigenvalues --    4.21690   4.26556   4.26556   4.39001   4.39001
  Beta virt. eigenvalues --    4.98842   5.14879   5.14879   5.17287   5.18967
  Beta virt. eigenvalues --    5.18967   5.28361   5.28361   5.87806   6.01666
  Beta virt. eigenvalues --    6.01666   6.50220  13.09620
     Alpha Molecular Orbital Coefficients:
                           1         2         3         4         5
                           O         O         O         O         O
     Eigenvalues --   -11.23706  -0.94325  -0.57623  -0.57623  -0.38500
   1 1   C  1S          0.97785  -0.18650   0.00000   0.00000   0.00000
   2        2S         -0.00824   0.46311  -0.00000   0.00000   0.00000
   3        3S          0.04264   0.10063  -0.00000   0.00000   0.00000
   4        4S          0.00442   0.24059   0.00000   0.00000   0.00000
   5        5PX         0.00000   0.00000   0.00000   0.00000   0.31945
   6        5PY         0.00000   0.00000   0.00000   0.24474  -0.00000
   7        5PZ         0.00000   0.00000   0.24474   0.00000   0.00000
   8        6PX         0.00000   0.00000   0.00000  -0.00000   0.45489
   9        6PY         0.00000   0.00000   0.00000   0.30387   0.00000
  10        6PZ        -0.00000   0.00000   0.30387   0.00000   0.00000
  11        7PX         0.00000   0.00000   0.00000   0.00000   0.39367
  12        7PY         0.00000   0.00000   0.00000   0.14370   0.00000
  13        7PZ        -0.00000   0.00000   0.14370   0.00000   0.00000
  14        8D 0       -0.00017   0.00143   0.01401   0.00000   0.00000
  15        8D+1        0.00000   0.00000   0.00000  -0.00000   0.00000
  16        8D-1        0.00000   0.00000   0.00000  -0.01617  -0.00000
  17        8D+2        0.00029  -0.00249   0.00809   0.00000   0.00000
  18        8D-2        0.00000   0.00000   0.00000   0.00000   0.00000
  19        9D 0        0.00001  -0.00148   0.01792   0.00000   0.00000
  20        9D+1        0.00000   0.00000   0.00000  -0.00000   0.00000
  21        9D-1        0.00000   0.00000   0.00000  -0.02070  -0.00000
  22        9D+2       -0.00002   0.00256   0.01035   0.00000   0.00000
  23        9D-2        0.00000  -0.00000  -0.00000   0.00000   0.00000
  24       10F 0        0.00046   0.00576  -0.00108   0.00000   0.00000
  25       10F+1        0.00000   0.00000   0.00000   0.00000  -0.00177
  26       10F-1        0.00000   0.00000   0.00000  -0.00044   0.00000
  27       10F+2        0.00035   0.00446   0.00139   0.00000   0.00000
  28       10F-2       -0.00000  -0.00000  -0.00000   0.00000   0.00000
  29       10F+3        0.00000   0.00000   0.00000   0.00000   0.00228
  30       10F-3        0.00000   0.00000   0.00000   0.00171  -0.00000
  31 2   H  1S          0.00014   0.08511   0.16170   0.00000   0.00000
  32        2S          0.00017   0.09222   0.24540   0.00000   0.00000
  33        3S         -0.00070   0.00898   0.09020   0.00000   0.00000
  34        4PX         0.00000   0.00000   0.00000   0.00000   0.00860
  35        4PY         0.00000   0.00000   0.00000   0.00482   0.00000
  36        4PZ         0.00025  -0.00873  -0.01446   0.00000   0.00000
  37        5PX         0.00000   0.00000   0.00000   0.00000   0.01799
  38        5PY         0.00000   0.00000   0.00000   0.00842   0.00000
  39        5PZ        -0.00004  -0.00481  -0.01761   0.00000   0.00000
  40        6D 0       -0.00022   0.00128   0.00439   0.00000   0.00000
  41        6D+1        0.00000   0.00000   0.00000  -0.00000  -0.00369
  42        6D-1        0.00000   0.00000   0.00000  -0.00217   0.00000
  43        6D+2       -0.00005   0.00037   0.00058   0.00000   0.00000
  44        6D-2        0.00000   0.00000   0.00000   0.00000   0.00000
  45 3   H  1S          0.00014   0.08511  -0.08085   0.14003   0.00000
  46        2S          0.00017   0.09222  -0.12270   0.21252  -0.00000
  47        3S         -0.00070   0.00898  -0.04510   0.07812  -0.00000
  48        4PX        -0.00000   0.00000   0.00000   0.00000   0.00860
  49        4PY         0.00021  -0.00756   0.00835  -0.00964   0.00000
  50        4PZ        -0.00012   0.00436   0.00000   0.00835  -0.00000
  51        5PX        -0.00000   0.00000  -0.00000   0.00000   0.01799
  52        5PY        -0.00004  -0.00417   0.01127  -0.01111   0.00000
  53        5PZ         0.00002   0.00241   0.00191   0.01127  -0.00000
  54        6D 0        0.00006  -0.00040   0.00188   0.00001   0.00000
  55        6D+1       -0.00000  -0.00000   0.00000   0.00000   0.00185
  56        6D-1        0.00019  -0.00112   0.00083  -0.00362   0.00000
  57        6D+2        0.00011  -0.00060   0.00206  -0.00169   0.00000
  58        6D-2        0.00000  -0.00000   0.00000  -0.00000  -0.00320
  59 4   H  1S          0.00014   0.08511  -0.08085  -0.14003  -0.00000
  60        2S          0.00017   0.09222  -0.12270  -0.21252   0.00000
  61        3S         -0.00070   0.00898  -0.04510  -0.07812   0.00000
  62        4PX         0.00000  -0.00000  -0.00000   0.00000   0.00860
  63        4PY        -0.00021   0.00756  -0.00835  -0.00964   0.00000
  64        4PZ        -0.00012   0.00436   0.00000  -0.00835   0.00000
  65        5PX         0.00000  -0.00000   0.00000   0.00000   0.01799
  66        5PY         0.00004   0.00417  -0.01127  -0.01111   0.00000
  67        5PZ         0.00002   0.00241   0.00191  -0.01127   0.00000
  68        6D 0        0.00006  -0.00040   0.00188  -0.00001  -0.00000
  69        6D+1        0.00000   0.00000  -0.00000   0.00000   0.00185
  70        6D-1       -0.00019   0.00112  -0.00083  -0.00362   0.00000
  71        6D+2        0.00011  -0.00060   0.00206   0.00169  -0.00000
  72        6D-2        0.00000  -0.00000   0.00000   0.00000   0.00320
                           6         7         8         9        10
                           V         V         V         V         V
     Eigenvalues --     0.14880   0.22130   0.22130   0.37741   0.37741
   1 1   C  1S         -0.07638  -0.00000   0.00000   0.00000  -0.00000
   2        2S          0.27373   0.00000   0.00000   0.00000   0.00000
   3        3S          0.05916   0.00000   0.00000   0.00000  -0.00000
   4        4S          3.14558   0.00000   0.00000   0.00000   0.00000
   5        5PX         0.00000   0.00000   0.00000   0.00000   0.00000
   6        5PY         0.00000   0.00000  -0.13762  -0.08133   0.00000
   7        5PZ         0.00000  -0.13762   0.00000   0.00000  -0.08133
   8        6PX         0.00000   0.00000   0.00000   0.00000   0.00000
   9        6PY         0.00000   0.00000  -0.34526   0.62793   0.00000
  10        6PZ         0.00000  -0.34526   0.00000   0.00000   0.62793
  11        7PX         0.00000   0.00000   0.00000  -0.00000   0.00000
  12        7PY         0.00000   0.00000  -1.75059   2.52233   0.00000
  13        7PZ         0.00000  -1.75059   0.00000   0.00000   2.52233
  14        8D 0       -0.00230   0.00364   0.00000   0.00000  -0.01015
  15        8D+1        0.00000   0.00000   0.00000   0.00000   0.00000
  16        8D-1        0.00000   0.00000  -0.00421   0.01172   0.00000
  17        8D+2        0.00399   0.00210   0.00000   0.00000  -0.00586
  18        8D-2        0.00000   0.00000   0.00000   0.00000  -0.00000
  19        9D 0        0.06793  -0.08610   0.00000   0.00000   0.56630
  20        9D+1        0.00000   0.00000  -0.00000  -0.00000   0.00000
  21        9D-1        0.00000   0.00000   0.09942  -0.65390   0.00000
  22        9D+2       -0.11766  -0.04971   0.00000   0.00000   0.32695
  23        9D-2        0.00000  -0.00000   0.00000   0.00000  -0.00000
  24       10F 0        0.01305  -0.00371   0.00000   0.00000   0.03704
  25       10F+1        0.00000   0.00000  -0.00000  -0.00000   0.00000
  26       10F-1        0.00000   0.00000  -0.00151   0.01512   0.00000
  27       10F+2        0.01011   0.00479   0.00000   0.00000  -0.04782
  28       10F-2       -0.00000   0.00000   0.00000   0.00000   0.00000
  29       10F+3        0.00000   0.00000   0.00000  -0.00000   0.00000
  30       10F-3        0.00000   0.00000   0.00587  -0.05857   0.00000
  31 2   H  1S         -0.01355   0.01116   0.00000   0.00000  -0.03829
  32        2S         -0.21676   0.11072   0.00000   0.00000  -2.02399
  33        3S         -1.31216   2.80729   0.00000   0.00000  -0.95761
  34        4PX         0.00000   0.00000  -0.00000   0.00000   0.00000
  35        4PY         0.00000   0.00000  -0.01410   0.00637   0.00000
  36        4PZ        -0.01588   0.02473   0.00000   0.00000   0.03528
  37        5PX         0.00000   0.00000   0.00000   0.00000   0.00000
  38        5PY         0.00000   0.00000   0.03867   0.14786   0.00000
  39        5PZ         0.16427  -0.19103   0.00000   0.00000   0.48674
  40        6D 0       -0.00879   0.00982   0.00000   0.00000  -0.04167
  41        6D+1        0.00000   0.00000  -0.00000   0.00000   0.00000
  42        6D-1        0.00000   0.00000   0.00042  -0.01100   0.00000
  43        6D+2        0.00334   0.00091   0.00000   0.00000  -0.00952
  44        6D-2        0.00000   0.00000   0.00000   0.00000   0.00000
  45 3   H  1S         -0.01355  -0.00558   0.00966  -0.03316   0.01914
  46        2S         -0.21676  -0.05536   0.09588  -1.75282   1.01199
  47        3S         -1.31216  -1.40365   2.43119  -0.82931   0.47881
  48        4PX        -0.00000   0.00000   0.00000  -0.00000   0.00000
  49        4PY        -0.01375  -0.01681   0.01502   0.02805  -0.01252
  50        4PZ         0.00794  -0.00439  -0.01681  -0.01252   0.01360
  51        5PX         0.00000   0.00000  -0.00000   0.00000  -0.00000
  52        5PY         0.14226   0.09946  -0.13360   0.40202  -0.14674
  53        5PZ        -0.08213  -0.01876   0.09946  -0.14674   0.23258
  54        6D 0       -0.00107   0.00064  -0.00173   0.01399   0.00145
  55        6D+1       -0.00000  -0.00000   0.00000  -0.00000   0.00000
  56        6D-1        0.00515   0.00406  -0.00662   0.02789  -0.02245
  57        6D+2        0.00780   0.00275  -0.00512   0.02067  -0.00644
  58        6D-2        0.00000  -0.00000   0.00000  -0.00000  -0.00000
  59 4   H  1S         -0.01355  -0.00558  -0.00966   0.03316   0.01914
  60        2S         -0.21676  -0.05536  -0.09588   1.75282   1.01199
  61        3S         -1.31216  -1.40365  -2.43119   0.82931   0.47881
  62        4PX         0.00000  -0.00000   0.00000  -0.00000  -0.00000
  63        4PY         0.01375   0.01681   0.01502   0.02805   0.01252
  64        4PZ         0.00794  -0.00439   0.01681   0.01252   0.01360
  65        5PX        -0.00000  -0.00000  -0.00000   0.00000   0.00000
  66        5PY        -0.14226  -0.09946  -0.13360   0.40202   0.14674
  67        5PZ        -0.08213  -0.01876  -0.09946   0.14674   0.23258
  68        6D 0       -0.00107   0.00064   0.00173  -0.01399   0.00145
  69        6D+1        0.00000   0.00000   0.00000  -0.00000  -0.00000
  70        6D-1       -0.00515  -0.00406  -0.00662   0.02789   0.02245
  71        6D+2        0.00780   0.00275   0.00512  -0.02067  -0.00644
  72        6D-2        0.00000  -0.00000  -0.00000   0.00000  -0.00000
                          11        12        13        14        15
                           V         V         V         V         V
     Eigenvalues --     0.44069   0.48625   0.61787   0.66009   0.66009
   1 1   C  1S          0.00000  -0.01971   0.15867  -0.00000   0.00000
   2        2S          0.00000   0.04558  -0.30091   0.00000   0.00000
   3        3S          0.00000  -0.04840  -0.16250   0.00000   0.00000
   4        4S          0.00000   2.88754   7.02560  -0.00000   0.00000
   5        5PX        -0.22331   0.00000   0.00000   0.00000   0.00000
   6        5PY         0.00000   0.00000   0.00000   0.00000  -0.29927
   7        5PZ         0.00000   0.00000  -0.00000  -0.29927   0.00000
   8        6PX        -0.80579   0.00000   0.00000   0.00000  -0.00000
   9        6PY        -0.00000   0.00000   0.00000   0.00000   0.39128
  10        6PZ         0.00000  -0.00000   0.00000   0.39128   0.00000
  11        7PX         1.31492   0.00000   0.00000   0.00000   0.00000
  12        7PY         0.00000   0.00000   0.00000   0.00000   2.64780
  13        7PZ         0.00000  -0.00000   0.00000   2.64780   0.00000
  14        8D 0        0.00000  -0.00181   0.02424   0.03761   0.00000
  15        8D+1       -0.00000   0.00000   0.00000   0.00000  -0.00000
  16        8D-1        0.00000   0.00000   0.00000   0.00000  -0.04342
  17        8D+2        0.00000   0.00313  -0.04198   0.02171   0.00000
  18        8D-2        0.00000   0.00000   0.00000   0.00000   0.00000
  19        9D 0        0.00000   0.01198   0.37536   0.71505   0.00000
  20        9D+1        0.00000   0.00000   0.00000   0.00000  -0.00000
  21        9D-1        0.00000   0.00000   0.00000   0.00000  -0.82567
  22        9D+2        0.00000  -0.02075  -0.65015   0.41283   0.00000
  23        9D-2        0.00000   0.00000   0.00000  -0.00000   0.00000
  24       10F 0        0.00000   0.05844   0.09742   0.03423   0.00000
  25       10F+1        0.00799   0.00000   0.00000   0.00000  -0.00000
  26       10F-1       -0.00000   0.00000   0.00000   0.00000   0.01397
  27       10F+2        0.00000   0.04527   0.07546  -0.04419   0.00000
  28       10F-2        0.00000  -0.00000  -0.00000   0.00000   0.00000
  29       10F+3       -0.01032   0.00000   0.00000   0.00000   0.00000
  30       10F-3        0.00000   0.00000   0.00000   0.00000  -0.05412
  31 2   H  1S          0.00000  -0.06351   0.08187   0.10067   0.00000
  32        2S          0.00000  -1.17859  -1.11795  -0.79088   0.00000
  33        3S          0.00000  -0.18659  -1.63195  -2.64432   0.00000
  34        4PX         0.01251   0.00000   0.00000   0.00000   0.00000
  35        4PY         0.00000   0.00000   0.00000   0.00000   0.01691
  36        4PZ         0.00000   0.02473   0.00077  -0.00425   0.00000
  37        5PX        -0.10111   0.00000   0.00000   0.00000  -0.00000
  38        5PY         0.00000   0.00000   0.00000   0.00000  -0.17710
  39        5PZ         0.00000   0.12459   0.81473   0.92853   0.00000
  40        6D 0        0.00000  -0.02415  -0.05432  -0.05240   0.00000
  41        6D+1        0.00001   0.00000   0.00000   0.00000  -0.00000
  42        6D-1       -0.00000   0.00000   0.00000   0.00000   0.00348
  43        6D+2        0.00000   0.00309   0.01111  -0.00349   0.00000
  44        6D-2        0.00000   0.00000  -0.00000   0.00000   0.00000
  45 3   H  1S         -0.00000  -0.06351   0.08187  -0.05034   0.08719
  46        2S          0.00000  -1.17859  -1.11795   0.39544  -0.68492
  47        3S          0.00000  -0.18659  -1.63195   1.32216  -2.29005
  48        4PX         0.01251   0.00000   0.00000   0.00000  -0.00000
  49        4PY        -0.00000   0.02142   0.00067   0.00916   0.00104
  50        4PZ         0.00000  -0.01237  -0.00039   0.01162   0.00916
  51        5PX        -0.10111  -0.00000   0.00000  -0.00000   0.00000
  52        5PY        -0.00000   0.10790   0.70558  -0.47875   0.65212
  53        5PZ         0.00000  -0.06229  -0.40737   0.09931  -0.47875
  54        6D 0       -0.00000   0.00101  -0.00042  -0.00667   0.00633
  55        6D+1       -0.00001  -0.00000   0.00000   0.00000  -0.00000
  56        6D-1       -0.00000   0.01678   0.03593  -0.01890   0.03622
  57        6D+2       -0.00000   0.01762   0.04222  -0.01723   0.02684
  58        6D-2        0.00001   0.00000   0.00000  -0.00000  -0.00000
  59 4   H  1S          0.00000  -0.06351   0.08187  -0.05034  -0.08719
  60        2S         -0.00000  -1.17859  -1.11795   0.39544   0.68492
  61        3S         -0.00000  -0.18659  -1.63195   1.32216   2.29005
  62        4PX         0.01251  -0.00000  -0.00000  -0.00000  -0.00000
  63        4PY        -0.00000  -0.02142  -0.00067  -0.00916   0.00104
  64        4PZ        -0.00000  -0.01237  -0.00039   0.01162  -0.00916
  65        5PX        -0.10111   0.00000  -0.00000   0.00000   0.00000
  66        5PY        -0.00000  -0.10790  -0.70558   0.47875   0.65212
  67        5PZ        -0.00000  -0.06229  -0.40737   0.09931   0.47875
  68        6D 0        0.00000   0.00101  -0.00042  -0.00667  -0.00633
  69        6D+1       -0.00001   0.00000  -0.00000  -0.00000  -0.00000
  70        6D-1       -0.00000  -0.01678  -0.03593   0.01890   0.03622
  71        6D+2        0.00000   0.01762   0.04222  -0.01723  -0.02684
  72        6D-2       -0.00001   0.00000   0.00000  -0.00000   0.00000
                          16        17        18        19        20
                           V         V         V         V         V
     Eigenvalues --     0.72985   0.72985   1.02463   1.06538   1.08800
   1 1   C  1S          0.00000  -0.00000   0.00000  -0.01382   0.00000
   2        2S          0.00000   0.00000   0.00000   0.06247   0.00000
   3        3S          0.00000   0.00000   0.00000  -0.11393   0.00000
   4        4S          0.00000  -0.00000   0.00000   2.70280   0.00000
   5        5PX        -0.00000   0.00000  -0.00000   0.00000  -0.00000
   6        5PY         0.00000   0.00000  -0.00000   0.00000   0.12181
   7        5PZ         0.00000  -0.00000   0.00000  -0.00000   0.00000
   8        6PX        -0.00000   0.00000  -0.00000   0.00000  -0.00000
   9        6PY        -0.00000   0.00000  -0.00000   0.00000   0.99112
  10        6PZ         0.00000  -0.00000   0.00000  -0.00000   0.00000
  11        7PX        -0.00000   0.00000  -0.00000   0.00000  -0.00000
  12        7PY        -0.00000   0.00000  -0.00000   0.00000   1.95677
  13        7PZ         0.00000   0.00000   0.00000  -0.00000   0.00000
  14        8D 0        0.00000  -0.00000   0.00000  -0.01072   0.00000
  15        8D+1        0.00015   0.00000   0.00000   0.00000  -0.00000
  16        8D-1        0.00000   0.00000  -0.00000   0.00000  -0.01560
  17        8D+2        0.00000  -0.00000   0.00000   0.01856   0.00000
  18        8D-2        0.00000   0.00015   0.00000   0.00000   0.00000
  19        9D 0        0.00000  -0.00000   0.00000   0.73967   0.00000
  20        9D+1        0.52014   0.00000  -0.00000   0.00000   0.00000
  21        9D-1        0.00000   0.00000   0.00000   0.00000  -1.05449
  22        9D+2        0.00000  -0.00000   0.00000  -1.28115   0.00000
  23        9D-2        0.00000   0.52014   0.00000  -0.00000   0.00000
  24       10F 0        0.00000  -0.00000   0.00000   0.09160   0.00000
  25       10F+1       -0.01171   0.00000  -0.00000   0.00000  -0.00000
  26       10F-1       -0.00000   0.00000  -0.12838   0.00000   0.01341
  27       10F+2        0.00000   0.00000   0.00000   0.07096   0.00000
  28       10F-2        0.00000   0.01481   0.00000   0.00000   0.00000
  29       10F+3       -0.00907   0.00000   0.00000   0.00000   0.00000
  30       10F-3        0.00000   0.00000  -0.03315   0.00000  -0.05193
  31 2   H  1S          0.00000   0.00000   0.00000  -0.00554   0.00000
  32        2S          0.00000   0.00000   0.00000  -1.31168   0.00000
  33        3S          0.00000  -0.00000   0.00000  -0.19014   0.00000
  34        4PX        -0.04437   0.00000  -0.00000   0.00000  -0.00000
  35        4PY         0.00000   0.00000  -0.04053   0.00000   0.05428
  36        4PZ         0.00000  -0.00000   0.00000   0.06081   0.00000
  37        5PX         0.49274   0.00000   0.00000   0.00000   0.00000
  38        5PY        -0.00000   0.00000   0.77029   0.00000  -0.63250
  39        5PZ         0.00000  -0.00000   0.00000  -0.04663   0.00000
  40        6D 0        0.00000   0.00000   0.00000  -0.01344   0.00000
  41        6D+1        0.01080   0.00000  -0.00000   0.00000  -0.00000
  42        6D-1       -0.00000   0.00000  -0.03658   0.00000  -0.01263
  43        6D+2        0.00000   0.00000   0.00000  -0.00721   0.00000
  44        6D-2        0.00000   0.00081   0.00000  -0.00000   0.00000
  45 3   H  1S          0.00000   0.00000   0.00000  -0.00554   0.03619
  46        2S          0.00000  -0.00000   0.00000  -1.31168  -1.86591
  47        3S         -0.00000   0.00000   0.00000  -0.19014  -0.45338
  48        4PX         0.02218  -0.03842   0.00000  -0.00000  -0.00000
  49        4PY        -0.00000   0.00000   0.02027   0.05266   0.05564
  50        4PZ         0.00000  -0.00000   0.03510  -0.03040  -0.00078
  51        5PX        -0.24637   0.42673  -0.00000   0.00000   0.00000
  52        5PY        -0.00000   0.00000  -0.38515  -0.04038  -0.13440
  53        5PZ         0.00000  -0.00000  -0.66709   0.02331  -0.28758
  54        6D 0       -0.00000   0.00000  -0.02743   0.00636   0.00166
  55        6D+1        0.00331  -0.00433  -0.00000  -0.00000   0.00000
  56        6D-1       -0.00000   0.00000   0.01829   0.01320   0.01217
  57        6D+2       -0.00000   0.00000  -0.01584   0.00423   0.02576
  58        6D-2       -0.00433   0.00830   0.00000  -0.00000  -0.00000
  59 4   H  1S         -0.00000   0.00000  -0.00000  -0.00554  -0.03619
  60        2S         -0.00000  -0.00000  -0.00000  -1.31168   1.86591
  61        3S          0.00000   0.00000  -0.00000  -0.19014   0.45338
  62        4PX         0.02218   0.03842   0.00000   0.00000  -0.00000
  63        4PY        -0.00000  -0.00000   0.02027  -0.05266   0.05564
  64        4PZ        -0.00000  -0.00000  -0.03510  -0.03040   0.00078
  65        5PX        -0.24637  -0.42673  -0.00000  -0.00000   0.00000
  66        5PY        -0.00000  -0.00000  -0.38515   0.04038  -0.13440
  67        5PZ        -0.00000  -0.00000   0.66709   0.02331   0.28758
  68        6D 0        0.00000   0.00000   0.02743   0.00636  -0.00166
  69        6D+1        0.00331   0.00433  -0.00000   0.00000   0.00000
  70        6D-1       -0.00000  -0.00000   0.01829  -0.01320   0.01217
  71        6D+2        0.00000   0.00000   0.01584   0.00423  -0.02576
  72        6D-2        0.00433   0.00830  -0.00000  -0.00000   0.00000
                          21        22        23        24        25
                           V         V         V         V         V
     Eigenvalues --     1.08800   1.15334   1.26597   1.26597   1.44218
   1 1   C  1S         -0.00000   0.00000   0.00000   0.00000   0.00000
   2        2S         -0.00000   0.00000   0.00000   0.00000   0.00000
   3        3S          0.00000   0.00000   0.00000   0.00000   0.00000
   4        4S         -0.00000   0.00000   0.00000   0.00000   0.00000
   5        5PX         0.00000  -0.12959   0.00000  -0.00000  -0.00000
   6        5PY         0.00000  -0.00000   0.00000  -0.00000  -0.10344
   7        5PZ        -0.12181   0.00000  -0.00000   0.00000   0.00000
   8        6PX         0.00000  -0.61776   0.00000  -0.00000  -0.00000
   9        6PY         0.00000   0.00000   0.00000   0.00000  -3.88782
  10        6PZ        -0.99112   0.00000  -0.00000   0.00000   0.00000
  11        7PX         0.00000  -0.72246   0.00000  -0.00000  -0.00000
  12        7PY         0.00000   0.00000   0.00000   0.00000  -1.01436
  13        7PZ        -1.95677   0.00000  -0.00000   0.00000   0.00000
  14        8D 0       -0.01351   0.00000  -0.00000   0.00000   0.00000
  15        8D+1        0.00000  -0.00000   0.00000  -0.03246   0.00000
  16        8D-1        0.00000  -0.00000   0.00000  -0.00000   0.08037
  17        8D+2       -0.00780   0.00000  -0.00000   0.00000   0.00000
  18        8D-2       -0.00000   0.00000  -0.03246   0.00000   0.00000
  19        9D 0       -0.91322   0.00000  -0.00000   0.00000   0.00000
  20        9D+1        0.00000  -0.00000   0.00000   1.60325   0.00000
  21        9D-1        0.00000  -0.00000   0.00000  -0.00000   3.75014
  22        9D+2       -0.52725   0.00000  -0.00000   0.00000   0.00000
  23        9D-2        0.00000   0.00000   1.60325   0.00000   0.00000
  24       10F 0       -0.03284   0.00000  -0.00000   0.00000   0.00000
  25       10F+1        0.00000  -0.03405   0.00000   0.06516   0.00000
  26       10F-1        0.00000   0.00000   0.00000   0.00000  -0.04250
  27       10F+2        0.04240   0.00000   0.00000   0.00000   0.00000
  28       10F-2       -0.00000   0.00000  -0.08243   0.00000   0.00000
  29       10F+3        0.00000   0.04396   0.00000   0.05048  -0.00000
  30       10F-3        0.00000  -0.00000   0.00000  -0.00000   0.16459
  31 2   H  1S         -0.04179   0.00000  -0.00000   0.00000   0.00000
  32        2S          2.15456   0.00000   0.00000   0.00000   0.00000
  33        3S          0.52352   0.00000   0.00000   0.00000   0.00000
  34        4PX         0.00000  -0.06716   0.00000   0.08178   0.00000
  35        4PY         0.00000  -0.00000   0.00000  -0.00000   0.08753
  36        4PZ        -0.05609   0.00000   0.00000   0.00000   0.00000
  37        5PX         0.00000   0.92252   0.00000  -1.40503  -0.00000
  38        5PY         0.00000   0.00000   0.00000   0.00000  -1.54779
  39        5PZ        -0.03163   0.00000  -0.00000   0.00000   0.00000
  40        6D 0        0.03010   0.00000   0.00000   0.00000   0.00000
  41        6D+1        0.00000  -0.02026   0.00000   0.08019  -0.00000
  42        6D-1        0.00000   0.00000   0.00000   0.00000   0.04853
  43        6D+2       -0.01126   0.00000   0.00000   0.00000   0.00000
  44        6D-2        0.00000   0.00000   0.02035   0.00000   0.00000
  45 3   H  1S          0.02089   0.00000   0.00000   0.00000  -0.13056
  46        2S         -1.07728  -0.00000  -0.00000  -0.00000   4.84500
  47        3S         -0.26176  -0.00000  -0.00000  -0.00000   0.26197
  48        4PX         0.00000  -0.06716   0.07083  -0.04089  -0.00000
  49        4PY         0.00078   0.00000  -0.00000   0.00000  -0.01000
  50        4PZ        -0.05473  -0.00000   0.00000  -0.00000   0.05631
  51        5PX        -0.00000   0.92252  -1.21679   0.70251   0.00000
  52        5PY         0.28758   0.00000   0.00000   0.00000  -2.28951
  53        5PZ         0.46647  -0.00000  -0.00000  -0.00000   0.42823
  54        6D 0       -0.00998   0.00000   0.00000   0.00000  -0.04212
  55        6D+1       -0.00000   0.01013  -0.02591   0.03531  -0.00000
  56        6D-1        0.01432   0.00000   0.00000   0.00000  -0.09101
  57        6D+2        0.00856   0.00000   0.00000   0.00000  -0.08817
  58        6D-2        0.00000  -0.01755   0.06523  -0.02591   0.00000
  59 4   H  1S          0.02089  -0.00000   0.00000  -0.00000   0.13056
  60        2S         -1.07728   0.00000  -0.00000   0.00000  -4.84500
  61        3S         -0.26176   0.00000  -0.00000   0.00000  -0.26197
  62        4PX        -0.00000  -0.06716  -0.07083  -0.04089  -0.00000
  63        4PY        -0.00078   0.00000   0.00000   0.00000  -0.01000
  64        4PZ        -0.05473   0.00000   0.00000   0.00000  -0.05631
  65        5PX         0.00000   0.92252   1.21679   0.70251   0.00000
  66        5PY        -0.28758   0.00000  -0.00000   0.00000  -2.28951
  67        5PZ         0.46647   0.00000  -0.00000   0.00000  -0.42823
  68        6D 0       -0.00998  -0.00000   0.00000  -0.00000   0.04212
  69        6D+1        0.00000   0.01013   0.02591   0.03531  -0.00000
  70        6D-1       -0.01432   0.00000  -0.00000   0.00000  -0.09101
  71        6D+2        0.00856  -0.00000   0.00000  -0.00000   0.08817
  72        6D-2        0.00000   0.01755   0.06523   0.02591  -0.00000
                          26        27        28        29        30
                           V         V         V         V         V
     Eigenvalues --     1.44218   1.53954   1.53954   1.79917   2.36268
   1 1   C  1S          0.00000  -0.00000   0.00000  -0.08568   0.00000
   2        2S         -0.00000   0.00000   0.00000   1.54799   0.00000
   3        3S         -0.00000   0.00000   0.00000   0.81076   0.00000
   4        4S         -0.00000   0.00000   0.00000   4.04308   0.00000
   5        5PX         0.00000   0.00000   0.00000   0.00000  -1.27589
   6        5PY         0.00000   0.00000   0.23576   0.00000  -0.00000
   7        5PZ        -0.10344   0.23576   0.00000  -0.00000   0.00000
   8        6PX         0.00000   0.00000  -0.00000   0.00000   1.62520
   9        6PY         0.00000   0.00000   3.63997   0.00000   0.00000
  10        6PZ        -3.88782   3.63997   0.00000  -0.00000   0.00000
  11        7PX         0.00000   0.00000   0.00000   0.00000  -0.45909
  12        7PY         0.00000   0.00000   2.06449   0.00000   0.00000
  13        7PZ        -1.01436   2.06449   0.00000  -0.00000   0.00000
  14        8D 0       -0.06961   0.05673   0.00000  -0.05858   0.00000
  15        8D+1        0.00000   0.00000  -0.00000   0.00000  -0.00000
  16        8D-1        0.00000   0.00000  -0.06550   0.00000  -0.00000
  17        8D+2       -0.04019   0.03275   0.00000   0.10146   0.00000
  18        8D-2       -0.00000  -0.00000   0.00000   0.00000   0.00000
  19        9D 0       -3.24772   0.35248   0.00000   0.45409   0.00000
  20        9D+1        0.00000   0.00000  -0.00000   0.00000  -0.00000
  21        9D-1        0.00000   0.00000  -0.40701   0.00000  -0.00000
  22        9D+2       -1.87507   0.20351   0.00000  -0.78650   0.00000
  23        9D-2       -0.00000   0.00000   0.00000  -0.00000   0.00000
  24       10F 0       -0.10410   0.05133   0.00000  -0.13710   0.00000
  25       10F+1        0.00000   0.00000  -0.00000   0.00000  -0.04977
  26       10F-1        0.00000   0.00000   0.02096   0.00000  -0.00000
  27       10F+2        0.13439  -0.06627   0.00000  -0.10620   0.00000
  28       10F-2       -0.00000   0.00000   0.00000   0.00000   0.00000
  29       10F+3        0.00000   0.00000   0.00000   0.00000   0.06426
  30       10F-3        0.00000   0.00000  -0.08117   0.00000  -0.00000
  31 2   H  1S         -0.15076  -0.11080   0.00000  -0.23862   0.00000
  32        2S          5.59452  -3.21481   0.00000  -1.30339   0.00000
  33        3S          0.30249  -1.82094   0.00000  -0.89681   0.00000
  34        4PX         0.00000   0.00000  -0.00000   0.00000   0.01036
  35        4PY         0.00000   0.00000   0.07264   0.00000  -0.00000
  36        4PZ        -0.04251  -0.07715   0.00000  -0.14559   0.00000
  37        5PX         0.00000   0.00000   0.00000   0.00000  -0.19221
  38        5PY         0.00000   0.00000  -0.91693   0.00000   0.00000
  39        5PZ        -2.53674   2.64164   0.00000   1.23126   0.00000
  40        6D 0        0.15103  -0.13290   0.00000   0.04436   0.00000
  41        6D+1        0.00000   0.00000   0.00000   0.00000   0.03112
  42        6D-1        0.00000   0.00000   0.03160   0.00000  -0.00000
  43        6D+2        0.01347  -0.00323   0.00000  -0.00196   0.00000
  44        6D-2        0.00000   0.00000   0.00000  -0.00000   0.00000
  45 3   H  1S          0.07538   0.05540  -0.09596  -0.23862   0.00000
  46        2S         -2.79726   1.60740  -2.78411  -1.30339  -0.00000
  47        3S         -0.15125   0.91047  -1.57698  -0.89681  -0.00000
  48        4PX        -0.00000   0.00000   0.00000   0.00000   0.01036
  49        4PY         0.05631   0.06486  -0.03970  -0.12608   0.00000
  50        4PZ         0.05502   0.03519   0.06486   0.07279  -0.00000
  51        5PX         0.00000  -0.00000  -0.00000   0.00000  -0.19221
  52        5PY         0.42823  -1.54091   1.75200   1.06630   0.00000
  53        5PZ        -1.79503  -0.02728  -1.54091  -0.61563  -0.00000
  54        6D 0       -0.01771  -0.02988   0.00436  -0.00427  -0.00000
  55        6D+1        0.00000  -0.00000   0.00000  -0.00000  -0.01556
  56        6D-1        0.08056  -0.03686   0.09543  -0.03242   0.00000
  57        6D+2        0.02664  -0.05400   0.06617  -0.03003   0.00000
  58        6D-2       -0.00000   0.00000  -0.00000  -0.00000   0.02695
  59 4   H  1S          0.07538   0.05540   0.09596  -0.23862  -0.00000
  60        2S         -2.79726   1.60740   2.78411  -1.30339   0.00000
  61        3S         -0.15125   0.91047   1.57698  -0.89681   0.00000
  62        4PX         0.00000  -0.00000   0.00000  -0.00000   0.01036
  63        4PY        -0.05631  -0.06486  -0.03970   0.12608   0.00000
  64        4PZ         0.05502   0.03519  -0.06486   0.07279   0.00000
  65        5PX        -0.00000   0.00000  -0.00000  -0.00000  -0.19221
  66        5PY        -0.42823   1.54091   1.75200  -1.06630   0.00000
  67        5PZ        -1.79503  -0.02728   1.54091  -0.61563   0.00000
  68        6D 0       -0.01771  -0.02988  -0.00436  -0.00427   0.00000
  69        6D+1       -0.00000   0.00000   0.00000   0.00000  -0.01556
  70        6D-1       -0.08056   0.03686   0.09543   0.03242   0.00000
  71        6D+2        0.02664  -0.05400  -0.06617  -0.03003  -0.00000
  72        6D-2       -0.00000   0.00000   0.00000  -0.00000  -0.02695
                          31        32        33        34        35
                           V         V         V         V         V
     Eigenvalues --     2.39565   2.54395   2.54395   2.84248   2.84248
   1 1   C  1S         -0.07186  -0.00000   0.00000   0.00000   0.00000
   2        2S          1.43374   0.00000   0.00000   0.00000   0.00000
   3        3S          0.86528   0.00000   0.00000   0.00000   0.00000
   4        4S          4.33508   0.00000   0.00000   0.00000   0.00000
   5        5PX         0.00000   0.00000  -0.00000   0.00000   0.00000
   6        5PY         0.00000   0.00000   0.08388   0.00000  -1.11075
   7        5PZ         0.00000   0.08388   0.00000  -1.11075   0.00000
   8        6PX         0.00000   0.00000   0.00000   0.00000  -0.00000
   9        6PY         0.00000   0.00000  -1.80562   0.00000   5.25544
  10        6PZ        -0.00000  -1.80562   0.00000   5.25544   0.00000
  11        7PX         0.00000   0.00000  -0.00000   0.00000   0.00000
  12        7PY         0.00000   0.00000  -0.91257   0.00000   0.81821
  13        7PZ         0.00000  -0.91257   0.00000   0.81821   0.00000
  14        8D 0        0.12906  -0.21899   0.00000   0.01864   0.00000
  15        8D+1        0.00000   0.00000   0.00000   0.00000  -0.00000
  16        8D-1        0.00000   0.00000   0.25287   0.00000  -0.02152
  17        8D+2       -0.22354  -0.12643   0.00000   0.01076   0.00000
  18        8D-2        0.00000   0.00000   0.00000  -0.00000   0.00000
  19        9D 0        0.37814   0.19395   0.00000   1.49680   0.00000
  20        9D+1        0.00000   0.00000  -0.00000   0.00000   0.00000
  21        9D-1        0.00000   0.00000  -0.22395   0.00000  -1.72835
  22        9D+2       -0.65495   0.11198   0.00000   0.86418   0.00000
  23        9D-2       -0.00000  -0.00000   0.00000  -0.00000   0.00000
  24       10F 0        0.44547  -0.35476   0.00000  -0.09383   0.00000
  25       10F+1        0.00000   0.00000   0.00000   0.00000  -0.00000
  26       10F-1        0.00000   0.00000  -0.14483   0.00000  -0.03830
  27       10F+2        0.34506   0.45800   0.00000   0.12113   0.00000
  28       10F-2       -0.00000  -0.00000   0.00000   0.00000   0.00000
  29       10F+3        0.00000   0.00000  -0.00000   0.00000   0.00000
  30       10F-3        0.00000   0.00000   0.56093   0.00000   0.14835
  31 2   H  1S          0.54588  -0.91116   0.00000   0.47041   0.00000
  32        2S         -2.48647   2.57603   0.00000  -5.06217   0.00000
  33        3S         -0.50692   0.05530   0.00000  -0.11661   0.00000
  34        4PX         0.00000   0.00000   0.00000   0.00000  -0.00000
  35        4PY         0.00000   0.00000   0.00021   0.00000   0.08793
  36        4PZ         0.04023  -0.10741   0.00000   0.17732   0.00000
  37        5PX         0.00000   0.00000  -0.00000   0.00000   0.00000
  38        5PY         0.00000   0.00000   0.62126   0.00000  -0.09202
  39        5PZ         0.97868  -0.91752   0.00000   2.21022   0.00000
  40        6D 0       -0.04451   0.09953   0.00000  -0.24814   0.00000
  41        6D+1        0.00000   0.00000  -0.00000   0.00000   0.00000
  42        6D-1        0.00000   0.00000  -0.02125   0.00000  -0.05088
  43        6D+2        0.02094   0.12870   0.00000   0.18638   0.00000
  44        6D-2       -0.00000  -0.00000   0.00000   0.00000   0.00000
  45 3   H  1S          0.54588   0.45558  -0.78909  -0.23520   0.40738
  46        2S         -2.48647  -1.28802   2.23091   2.53108  -4.38396
  47        3S         -0.50692  -0.02765   0.04789   0.05830  -0.10099
  48        4PX         0.00000   0.00000   0.00000  -0.00000   0.00000
  49        4PY         0.03484   0.04660  -0.08051  -0.03871   0.15497
  50        4PZ        -0.02012  -0.02669   0.04660   0.11028  -0.03871
  51        5PX         0.00000   0.00000  -0.00000   0.00000   0.00000
  52        5PY         0.84756   0.66631  -0.53283  -0.99690   1.63466
  53        5PZ        -0.48934   0.23657   0.66631   0.48354  -0.99690
  54        6D 0       -0.00804   0.06182  -0.07520   0.07807  -0.05890
  55        6D+1        0.00000  -0.00000  -0.00000   0.00000   0.00000
  56        6D-1        0.02432   0.05598  -0.11822  -0.07473   0.07856
  57        6D+2        0.04200   0.00008   0.01828  -0.11975   0.25148
  58        6D-2       -0.00000  -0.00000   0.00000   0.00000  -0.00000
  59 4   H  1S          0.54588   0.45558   0.78909  -0.23520  -0.40738
  60        2S         -2.48647  -1.28802  -2.23091   2.53108   4.38396
  61        3S         -0.50692  -0.02765  -0.04789   0.05830   0.10099
  62        4PX        -0.00000  -0.00000   0.00000   0.00000   0.00000
  63        4PY        -0.03484  -0.04660  -0.08051   0.03871   0.15497
  64        4PZ        -0.02012  -0.02669  -0.04660   0.11028   0.03871
  65        5PX        -0.00000  -0.00000  -0.00000  -0.00000   0.00000
  66        5PY        -0.84756  -0.66631  -0.53283   0.99690   1.63466
  67        5PZ        -0.48934   0.23657  -0.66631   0.48354   0.99690
  68        6D 0       -0.00804   0.06182   0.07520   0.07807   0.05890
  69        6D+1       -0.00000   0.00000  -0.00000  -0.00000   0.00000
  70        6D-1       -0.02432  -0.05598  -0.11822   0.07473   0.07856
  71        6D+2        0.04200   0.00008  -0.01828  -0.11975  -0.25148
  72        6D-2       -0.00000  -0.00000  -0.00000   0.00000   0.00000
                          36        37        38        39        40
                           V         V         V         V         V
     Eigenvalues --     2.90140   2.90140   3.15846   3.18665   3.21632
   1 1   C  1S          0.00000   0.00000   0.00000   0.00000  -0.02178
   2        2S          0.00000  -0.00000   0.00000   0.00000   0.28456
   3        3S          0.00000  -0.00000   0.00000   0.00000  -0.03408
   4        4S          0.00000  -0.00000   0.00000   0.00000   1.15597
   5        5PX        -0.00000   0.00000   0.00000   0.19934   0.00000
   6        5PY        -0.00000   0.00000   0.00000   0.00000   0.00000
   7        5PZ         0.00000  -0.00000   0.00000   0.00000   0.00000
   8        6PX         0.00000   0.00000  -0.00000  -0.44912   0.00000
   9        6PY         0.00000   0.00000  -0.00000  -0.00000   0.00000
  10        6PZ         0.00000   0.00000   0.00000   0.00000  -0.00000
  11        7PX         0.00000   0.00000  -0.00000  -0.29828   0.00000
  12        7PY         0.00000   0.00000   0.00000  -0.00000   0.00000
  13        7PZ         0.00000   0.00000   0.00000   0.00000  -0.00000
  14        8D 0        0.00000   0.00000   0.00000   0.00000  -0.48851
  15        8D+1        0.58950   0.00000  -0.00000  -0.00000   0.00000
  16        8D-1       -0.00000   0.00000   0.00000  -0.00000   0.00000
  17        8D+2        0.00000   0.00000   0.00000   0.00000   0.84612
  18        8D-2        0.00000   0.58950   0.00000   0.00000   0.00000
  19        9D 0        0.00000  -0.00000   0.00000   0.00000   0.50918
  20        9D+1       -0.18595   0.00000   0.00000   0.00000   0.00000
  21        9D-1       -0.00000   0.00000  -0.00000   0.00000   0.00000
  22        9D+2        0.00000   0.00000   0.00000   0.00000  -0.88192
  23        9D-2        0.00000  -0.18595   0.00000   0.00000  -0.00000
  24       10F 0        0.00000  -0.00000   0.00000   0.00000   0.38333
  25       10F+1        0.36848   0.00000  -0.00000  -0.59407   0.00000
  26       10F-1        0.00000   0.00000   0.87304  -0.00000   0.00000
  27       10F+2        0.00000  -0.00000   0.00000   0.00000   0.29692
  28       10F-2        0.00000  -0.46609   0.00000   0.00000   0.00000
  29       10F+3        0.28542   0.00000   0.00000   0.76694   0.00000
  30       10F-3        0.00000   0.00000   0.22542  -0.00000   0.00000
  31 2   H  1S          0.00000   0.00000   0.00000   0.00000  -0.05824
  32        2S          0.00000  -0.00000   0.00000   0.00000  -0.65645
  33        3S          0.00000   0.00000   0.00000   0.00000  -0.07763
  34        4PX         0.28009   0.00000  -0.00000  -0.19115   0.00000
  35        4PY         0.00000   0.00000   0.29921  -0.00000   0.00000
  36        4PZ         0.00000   0.00000   0.00000   0.00000   0.32043
  37        5PX        -0.28402   0.00000   0.00000   0.47600   0.00000
  38        5PY        -0.00000   0.00000  -0.49985   0.00000   0.00000
  39        5PZ         0.00000   0.00000   0.00000   0.00000  -0.08216
  40        6D 0        0.00000   0.00000   0.00000   0.00000  -0.03004
  41        6D+1       -0.22907   0.00000   0.00000   0.03804   0.00000
  42        6D-1       -0.00000   0.00000  -0.00365   0.00000   0.00000
  43        6D+2        0.00000   0.00000   0.00000   0.00000   0.05710
  44        6D-2        0.00000  -0.16541   0.00000   0.00000  -0.00000
  45 3   H  1S          0.00000  -0.00000  -0.00000  -0.00000  -0.05824
  46        2S         -0.00000   0.00000   0.00000   0.00000  -0.65645
  47        3S         -0.00000   0.00000  -0.00000   0.00000  -0.07763
  48        4PX        -0.14005   0.24257  -0.00000  -0.19115  -0.00000
  49        4PY         0.00000  -0.00000  -0.14960  -0.00000   0.27750
  50        4PZ        -0.00000   0.00000  -0.25912   0.00000  -0.16022
  51        5PX         0.14201  -0.24597   0.00000   0.47600   0.00000
  52        5PY         0.00000  -0.00000   0.24993  -0.00000  -0.07115
  53        5PZ        -0.00000   0.00000   0.43289  -0.00000   0.04108
  54        6D 0       -0.00000   0.00000  -0.00274   0.00000  -0.03333
  55        6D+1       -0.18133   0.02757  -0.00000  -0.01902   0.00000
  56        6D-1        0.00000   0.00000   0.00182   0.00000  -0.00219
  57        6D+2        0.00000  -0.00000  -0.00158  -0.00000   0.05520
  58        6D-2        0.02757  -0.21316  -0.00000   0.03295  -0.00000
  59 4   H  1S         -0.00000  -0.00000   0.00000   0.00000  -0.05824
  60        2S          0.00000   0.00000  -0.00000  -0.00000  -0.65645
  61        3S          0.00000   0.00000   0.00000  -0.00000  -0.07763
  62        4PX        -0.14005  -0.24257  -0.00000  -0.19115   0.00000
  63        4PY         0.00000   0.00000  -0.14960  -0.00000  -0.27750
  64        4PZ         0.00000   0.00000   0.25912  -0.00000  -0.16022
  65        5PX         0.14201   0.24597   0.00000   0.47600  -0.00000
  66        5PY         0.00000   0.00000   0.24993  -0.00000   0.07115
  67        5PZ         0.00000   0.00000  -0.43289   0.00000   0.04108
  68        6D 0        0.00000   0.00000   0.00274  -0.00000  -0.03333
  69        6D+1       -0.18133  -0.02757  -0.00000  -0.01902  -0.00000
  70        6D-1        0.00000  -0.00000   0.00182   0.00000   0.00219
  71        6D+2       -0.00000  -0.00000   0.00158   0.00000   0.05520
  72        6D-2       -0.02757  -0.21316   0.00000  -0.03295  -0.00000
                          41        42        43        44        45
                           V         V         V         V         V
     Eigenvalues --     3.22954   3.22954   3.27900   3.27900   3.49332
   1 1   C  1S          0.00000  -0.00000  -0.00000   0.00000  -0.00000
   2        2S          0.00000   0.00000   0.00000   0.00000   0.00000
   3        3S          0.00000   0.00000   0.00000   0.00000   0.00000
   4        4S          0.00000   0.00000   0.00000   0.00000   0.00000
   5        5PX        -0.00000   0.00000   0.00000  -0.00000   0.00000
   6        5PY        -0.20472   0.00000   0.00000  -0.00000   0.00000
   7        5PZ         0.00000   0.20472  -0.00000   0.00000  -0.00000
   8        6PX         0.00000   0.00000   0.00000   0.00000   0.00000
   9        6PY         0.75676   0.00000   0.00000   0.00000   0.00000
  10        6PZ         0.00000  -0.75676  -0.00000   0.00000   0.00000
  11        7PX         0.00000   0.00000   0.00000   0.00000   0.00000
  12        7PY        -0.45070   0.00000   0.00000  -0.00000   0.00000
  13        7PZ         0.00000   0.45070  -0.00000   0.00000   0.00000
  14        8D 0        0.00000  -0.77507   0.00000   0.00000   0.00000
  15        8D+1        0.00000   0.00000   0.00000  -0.77796   0.00000
  16        8D-1       -0.89498   0.00000   0.00000  -0.00000   0.00000
  17        8D+2        0.00000  -0.44749   0.00000   0.00000  -0.00000
  18        8D-2        0.00000  -0.00000  -0.77796   0.00000  -0.00000
  19        9D 0        0.00000   1.22928  -0.00000   0.00000   0.00000
  20        9D+1       -0.00000   0.00000   0.00000   1.24940   0.00000
  21        9D-1        1.41945   0.00000   0.00000   0.00000   0.00000
  22        9D+2        0.00000   0.70973  -0.00000   0.00000  -0.00000
  23        9D-2        0.00000   0.00000   1.24940   0.00000   0.00000
  24       10F 0        0.00000   0.20736   0.00000   0.00000   0.00000
  25       10F+1       -0.00000   0.00000   0.00000   0.58449   0.00000
  26       10F-1       -0.08466   0.00000   0.00000  -0.00000   0.00000
  27       10F+2        0.00000  -0.26770   0.00000   0.00000   0.00000
  28       10F-2        0.00000  -0.00000  -0.73933   0.00000  -0.00000
  29       10F+3       -0.00000   0.00000   0.00000   0.45275   0.00000
  30       10F-3        0.32787   0.00000   0.00000  -0.00000   0.00000
  31 2   H  1S          0.00000  -0.19466   0.00000   0.00000  -0.00000
  32        2S          0.00000  -0.13785  -0.00000   0.00000  -0.00000
  33        3S          0.00000  -0.04432  -0.00000   0.00000  -0.00000
  34        4PX         0.00000   0.00000   0.00000  -0.08277   0.00000
  35        4PY        -0.23229   0.00000   0.00000  -0.00000   0.00000
  36        4PZ         0.00000   0.36845  -0.00000   0.00000  -0.00000
  37        5PX         0.00000   0.00000   0.00000  -0.71202   0.00000
  38        5PY        -0.41433   0.00000   0.00000  -0.00000   0.00000
  39        5PZ         0.00000  -0.67180   0.00000   0.00000   0.00000
  40        6D 0        0.00000  -0.00665   0.00000   0.00000  -0.00000
  41        6D+1       -0.00000   0.00000   0.00000   0.22032   0.00000
  42        6D-1        0.24014   0.00000   0.00000   0.00000   0.00000
  43        6D+2        0.00000   0.03420   0.00000   0.00000   0.00000
  44        6D-2        0.00000  -0.00000  -0.31749   0.00000   0.58004
  45 3   H  1S          0.16858   0.09733  -0.00000  -0.00000  -0.00000
  46        2S          0.11938   0.06893  -0.00000  -0.00000   0.00000
  47        3S          0.03838   0.02216  -0.00000  -0.00000  -0.00000
  48        4PX         0.00000  -0.00000  -0.07168   0.04138   0.00000
  49        4PY        -0.33441  -0.05896   0.00000  -0.00000  -0.00000
  50        4PZ         0.05896   0.26633  -0.00000   0.00000   0.00000
  51        5PX        -0.00000  -0.00000  -0.61663   0.35601  -0.00000
  52        5PY         0.40026   0.47031   0.00000   0.00000   0.00000
  53        5PZ        -0.47031   0.14280  -0.00000  -0.00000  -0.00000
  54        6D 0       -0.07153   0.16666   0.00000   0.00000  -0.00000
  55        6D+1        0.00000  -0.00000  -0.23288  -0.18304  -0.50233
  56        6D-1        0.06854  -0.09907   0.00000   0.00000  -0.00000
  57        6D+2       -0.07424   0.07720  -0.00000  -0.00000   0.00000
  58        6D-2        0.00000   0.00000   0.08586  -0.23288  -0.29002
  59 4   H  1S         -0.16858   0.09733  -0.00000   0.00000  -0.00000
  60        2S         -0.11938   0.06893  -0.00000   0.00000   0.00000
  61        3S         -0.03838   0.02216  -0.00000   0.00000  -0.00000
  62        4PX         0.00000   0.00000   0.07168   0.04138  -0.00000
  63        4PY        -0.33441   0.05896  -0.00000  -0.00000   0.00000
  64        4PZ        -0.05896   0.26633  -0.00000  -0.00000   0.00000
  65        5PX        -0.00000   0.00000   0.61663   0.35601   0.00000
  66        5PY         0.40026  -0.47031  -0.00000   0.00000  -0.00000
  67        5PZ         0.47031   0.14280  -0.00000   0.00000  -0.00000
  68        6D 0        0.07153   0.16666   0.00000  -0.00000  -0.00000
  69        6D+1        0.00000   0.00000   0.23288  -0.18304   0.50233
  70        6D-1        0.06854   0.09907  -0.00000   0.00000   0.00000
  71        6D+2        0.07424   0.07720  -0.00000   0.00000   0.00000
  72        6D-2       -0.00000   0.00000   0.08586   0.23288  -0.29002
                          46        47        48        49        50
                           V         V         V         V         V
     Eigenvalues --     3.52698   3.67114   3.67114   3.90701   3.90701
   1 1   C  1S         -0.08485   0.00000   0.00000  -0.00000   0.00000
   2        2S          0.11037   0.00000   0.00000  -0.00000   0.00000
   3        3S          0.35050   0.00000   0.00000   0.00000   0.00000
   4        4S          1.11207   0.00000   0.00000  -0.00000   0.00000
   5        5PX         0.00000   0.00000  -0.00000   0.00000  -0.00000
   6        5PY         0.00000   0.00000  -0.76992   0.00000   0.00000
   7        5PZ         0.00000  -0.76992   0.00000  -0.00000   0.00000
   8        6PX         0.00000   0.00000  -0.00000   0.00000  -0.00000
   9        6PY         0.00000   0.00000   5.26184   0.00000   0.00000
  10        6PZ        -0.00000   5.26184   0.00000   0.00000   0.00000
  11        7PX         0.00000   0.00000   0.00000   0.00000  -0.00000
  12        7PY         0.00000   0.00000   1.34601   0.00000   0.00000
  13        7PZ         0.00000   1.34601   0.00000   0.00000   0.00000
  14        8D 0        0.07185   0.09561   0.00000   0.00000   0.00000
  15        8D+1        0.00000   0.00000   0.00000   0.00000   0.21039
  16        8D-1        0.00000   0.00000  -0.11040   0.00000  -0.00000
  17        8D+2       -0.12445   0.05520   0.00000   0.00000   0.00000
  18        8D-2       -0.00000  -0.00000   0.00000   0.21039   0.00000
  19        9D 0        0.22743   2.12913   0.00000  -0.00000   0.00000
  20        9D+1        0.00000   0.00000  -0.00000   0.00000  -0.29648
  21        9D-1        0.00000   0.00000  -2.45851   0.00000   0.00000
  22        9D+2       -0.39393   1.22925   0.00000   0.00000   0.00000
  23        9D-2        0.00000   0.00000   0.00000  -0.29648   0.00000
  24       10F 0        0.33471   0.33617   0.00000   0.00000   0.00000
  25       10F+1        0.00000   0.00000  -0.00000   0.00000  -0.38113
  26       10F-1        0.00000   0.00000   0.13724   0.00000   0.00000
  27       10F+2        0.25927  -0.43399   0.00000  -0.00000   0.00000
  28       10F-2       -0.00000  -0.00000   0.00000   0.48210   0.00000
  29       10F+3        0.00000   0.00000  -0.00000   0.00000  -0.29522
  30       10F-3        0.00000   0.00000  -0.53152   0.00000  -0.00000
  31 2   H  1S         -0.44378  -0.57055   0.00000  -0.00000   0.00000
  32        2S         -0.04948  -4.66897   0.00000  -0.00000   0.00000
  33        3S         -0.29596  -0.93751   0.00000  -0.00000   0.00000
  34        4PX         0.00000   0.00000  -0.00000   0.00000  -0.67246
  35        4PY         0.00000   0.00000   0.14272   0.00000   0.00000
  36        4PZ        -0.15325  -0.24394   0.00000  -0.00000   0.00000
  37        5PX         0.00000   0.00000   0.00000   0.00000   0.67521
  38        5PY         0.00000   0.00000   0.13622   0.00000  -0.00000
  39        5PZ         0.25595   2.65366   0.00000   0.00000   0.00000
  40        6D 0       -0.21998  -0.50732   0.00000  -0.00000   0.00000
[...]
     3   1     0.00  -0.00  -0.57    -0.38  -0.59   0.00     0.15   0.38   0.00
     4   1    -0.00   0.00  -0.57     0.38  -0.59   0.00     0.15  -0.38   0.00
                     4                      5                      6
                    A1'                    E'                     E'
 Frequencies --  3228.0193              3404.8034              3404.8034
 Red. masses --     1.0078                 1.1184                 1.1184
 Frc consts  --     6.1874                 7.6386                 7.6386
 IR Inten    --     0.0000                 8.9512                 8.9512
 Raman Activ --   146.7253                33.4141                33.4141
 Depolar (P) --     0.0951                 0.7500                 0.7500
 Depolar (U) --     0.1738                 0.8571                 0.8571
  Atom  AN      X      Y      Z        X      Y      Z        X      Y      Z
     1   6     0.00   0.00  -0.00     0.00   0.10  -0.00     0.10  -0.00   0.00
     2   1     0.00   0.58   0.00     0.00  -0.81   0.00     0.02   0.00  -0.00
     3   1     0.50  -0.29   0.00     0.36  -0.19   0.00    -0.61   0.36  -0.00
     4   1    -0.50  -0.29   0.00    -0.36  -0.19   0.00    -0.61  -0.36  -0.00

 -------------------
 - Thermochemistry -
 -------------------
 Temperature   298.150 Kelvin.  Pressure   1.00000 Atm.
 Atom     1 has atomic number  6 and mass  12.00000
 Atom     2 has atomic number  1 and mass   1.00783
 Atom     3 has atomic number  1 and mass   1.00783
 Atom     4 has atomic number  1 and mass   1.00783
 Molecular mass:    15.02348 amu.
 Principal axes and moments of inertia in atomic units:
                           1         2         3
     Eigenvalues --     6.19306   6.19306  12.38612
           X            0.99724   0.07419   0.00000
           Y           -0.07419   0.99724   0.00000
           Z            0.00000   0.00000   1.00000
 This molecule is an oblate symmetric top.
 Rotational symmetry number  6.
 Rotational temperatures (Kelvin)     13.98563    13.98563     6.99281
 Rotational constants (GHZ):         291.41351   291.41351   145.70675
 Zero-point vibrational energy      80572.9 (Joules/Mol)
                                   19.25737 (Kcal/Mol)
 Warning -- explicit consideration of   1 degrees of freedom as
           vibrations may cause significant error
 Vibrational temperatures:    577.81  2180.83  2180.83  4644.39  4898.75
          (Kelvin)           4898.75
 
 Zero-point correction=                           0.030689 (Hartree/Particle)
 Thermal correction to Energy=                    0.033838
 Thermal correction to Enthalpy=                  0.034782
 Thermal correction to Gibbs Free Energy=         0.012551
 Sum of electronic and zero-point Energies=            -39.546918
 Sum of electronic and thermal Energies=               -39.543768
 Sum of electronic and thermal Enthalpies=             -39.542824
 Sum of electronic and thermal Free Energies=          -39.565056
 
                     E (Thermal)             CV                S
                      KCal/Mol        Cal/Mol-Kelvin    Cal/Mol-Kelvin
 Total                   21.234              7.570             46.790
 Electronic               0.000              0.000              1.377
 Translational            0.889              2.981             34.068
 Rotational               0.889              2.981             10.366
 Vibrational             19.456              1.609              0.979
 Vibration     1          0.767              1.467              0.957
                       Q            Log10(Q)             Ln(Q)
 Total Bot       0.168685D-05         -5.772925        -13.292650
 Total V=0       0.220197D+09          8.342811         19.210033
 Vib (Bot)       0.896121D-14        -14.047633        -32.345871
 Vib (Bot)    1  0.443300D+00         -0.353302         -0.813508
 Vib (V=0)       0.116978D+01          0.068103          0.156812
 Vib (V=0)    1  0.116822D+01          0.067524          0.155479
 Electronic      0.200000D+01          0.301030          0.693147
 Translational   0.228882D+07          6.359611         14.643545
 Rotational      0.411214D+02          1.614068          3.716529
 
                                          methyl with imposed symmetry and cc-pVT
 Z basis set
                                                             IR Spectrum
 
      3     3                                                               1                                                        
      4     2                                                               5                                         4              
      0     2                                                               1                                         0              
      5     8                                                               6                                         2              
 
      X                                                                     X                                         X              
      X                                                                                                               X              
      X                                                                                                               X              
      X                                                                                                               X              
      X                                                                                                               X              
                                                                                                                      X              
                                                                                                                      X              
                                                                                                                      X              
                                                                                                                      X              
                                                                                                                      X              
                                                                                                                      X              
                                                                                                                      X              
                                                                                                                      X              
                                                                                                                      X              
                                                                                                                      X              
                                                                                                                      X              
                                                                                                                      X              
                                                                                                                      X              
                                                                                                                      X              
                                                                                                                      X              
 
 
                                          methyl with imposed symmetry and cc-pVT
 Z basis set
                                                            Raman Spectrum
 
      3     3                                                               1                                                        
      4     2                                                               5                                         4              
      0     2                                                               1                                         0              
      5     8                                                               6                                         2              
 
      X     X                                                               X                                                        
      X     X                                                                                                                        
      X     X                                                                                                                        
      X     X                                                                                                                        
      X     X                                                                                                                        
      X     X                                                                                                                        
      X     X                                                                                                                        
      X     X                                                                                                                        
      X     X                                                                                                                        
            X                                                                                                                        
            X                                                                                                                        
            X                                                                                                                        
            X                                                                                                                        
            X                                                                                                                        
            X                                                                                                                        
            X                                                                                                                        
            X                                                                                                                        
            X                                                                                                                        
            X                                                                                                                        
            X                                                                                                                        
 
 ***** Axes restored to original set *****
 -------------------------------------------------------------------
 Center     Atomic                   Forces (Hartrees/Bohr)
 Number     Number              X              Y              Z
 -------------------------------------------------------------------
      1        6           0.000000000   -0.000000000    0.000000000
      2        1          -0.000000000    0.000000000   -0.000000365
      3        1          -0.000000316   -0.000000000    0.000000182
      4        1           0.000000316   -0.000000000    0.000000182
 -------------------------------------------------------------------
 Cartesian Forces:  Max     0.000000365 RMS     0.000000182
 Force constants in Cartesian coordinates: 
                1             2             3             4             5 
      1  0.665398D+00
      2  0.000000D+00  0.147397D-01
      3  0.000000D+00  0.000000D+00  0.665398D+00
      4 -0.637928D-01  0.000000D+00  0.000000D+00  0.526236D-01
      5  0.000000D+00 -0.491323D-02  0.000000D+00  0.000000D+00  0.163784D-02
      6  0.000000D+00  0.000000D+00 -0.379806D+00  0.000000D+00  0.000000D+00
      7 -0.300802D+00  0.000000D+00  0.136838D+00  0.558462D-02  0.000000D+00
      8  0.000000D+00 -0.491323D-02  0.000000D+00  0.000000D+00  0.163769D-02
      9  0.136838D+00  0.000000D+00 -0.142796D+00  0.271578D-01  0.000000D+00
     10 -0.300802D+00  0.000000D+00 -0.136838D+00  0.558462D-02  0.000000D+00
     11  0.000000D+00 -0.491323D-02  0.000000D+00  0.000000D+00  0.163769D-02
     12 -0.136838D+00  0.000000D+00 -0.142796D+00 -0.271578D-01  0.000000D+00
                6             7             8             9            10 
      6  0.395772D+00
      7 -0.365788D-02  0.309985D+00
      8  0.000000D+00  0.000000D+00  0.163784D-02
      9 -0.798309D-02 -0.148588D+00  0.000000D+00  0.138411D+00
     10  0.365788D-02 -0.147669D-01  0.000000D+00 -0.154079D-01  0.309985D+00
     11  0.000000D+00  0.000000D+00  0.163769D-02  0.000000D+00  0.000000D+00
     12 -0.798309D-02  0.154079D-01  0.000000D+00  0.123685D-01  0.148588D+00
               11            12 
     11  0.163784D-02
     12  0.000000D+00  0.138411D+00
 Force constants in internal coordinates: 
                1             2             3             4             5 
      1  0.395772D+00
      2  0.823730D-03  0.395772D+00
      3  0.823730D-03  0.823727D-03  0.395772D+00
      4  0.589833D-02  0.589833D-02 -0.117967D-01  0.718599D-01
      5  0.589833D-02 -0.117967D-01  0.589833D-02 -0.359299D-01  0.718599D-01
      6 -0.117967D-01  0.589833D-02  0.589833D-02 -0.359299D-01 -0.359299D-01
      7  0.000000D+00  0.000000D+00  0.000000D+00  0.000000D+00  0.000000D+00
                6             7 
      6  0.718599D-01
      7  0.000000D+00  0.503176D-02
 Leave Link  716 at Sun Aug 18 00:17:02 2024, MaxMem=   13107200 cpu:       0.0
 (Enter /programs/64bit/g09/g09-gfortran/bin/l103.exe)

 GradGradGradGradGradGradGradGradGradGradGradGradGradGradGradGradGradGrad
 Berny optimization.
 Internal  Forces:  Max     0.000000365 RMS     0.000000239
 Search for a local minimum.
 Step number   1 out of a maximum of    2
 All quantities printed in internal units (Hartrees-Bohrs-Radians)
 Second derivative matrix not updated -- analytic derivatives used.
 The second derivative matrix:
                          R1        R2        R3        A1        A2
           R1           0.39577
           R2           0.00082   0.39577
           R3           0.00082   0.00082   0.39577
           A1           0.00590   0.00590  -0.01180   0.07186
           A2           0.00590  -0.01180   0.00590  -0.03593   0.07186
           A3          -0.01180   0.00590   0.00590  -0.03593  -0.03593
           D1          -0.00000  -0.00000   0.00000   0.00000  -0.00000
                          A3        D1
           A3           0.07186
           D1           0.00000   0.00503
     Eigenvalues ---    0.00503   0.10670   0.10670   0.39603   0.39603
     Eigenvalues ---    0.397421000.00000
 Angle between quadratic step and forces=   0.00 degrees.
 Linear search not attempted -- first point.
 Iteration  1 RMS(Cart)=  0.00000060 RMS(Int)=  0.00000000
 ClnCor:  largest displacement from symmetrization is 4.49D-15 for atom     4.
 Variable       Old X    -DE/DX   Delta X   Delta X   Delta X     New X
                                 (Linear)    (Quad)   (Total)
    R1        2.02402  -0.00000   0.00000  -0.00000  -0.00000   2.02402
    R2        2.02402  -0.00000   0.00000  -0.00000  -0.00000   2.02402
    R3        2.02402  -0.00000   0.00000  -0.00000  -0.00000   2.02402
    A1        2.09440   0.00000   0.00000   0.00000   0.00000   2.09440
    A2        2.09440   0.00000   0.00000  -0.00000   0.00000   2.09440
    A3        2.09440  -0.00000   0.00000  -0.00000   0.00000   2.09440
    D1        3.14159   0.00000   0.00000   0.00000   0.00000   3.14159
         Item               Value     Threshold  Converged?
 Maximum Force            0.000000     0.000450     YES
 RMS     Force            0.000000     0.000300     YES
 Maximum Displacement     0.000001     0.001800     YES
 RMS     Displacement     0.000001     0.001200     YES
 Predicted change in Energy=-5.016123D-13
 Optimization completed.
    -- Stationary point found.
                           ----------------------------
                           !   Optimized Parameters   !
                           ! (Angstroms and Degrees)  !
 --------------------------                            --------------------------
 ! Name  Definition              Value          Derivative Info.                !
 --------------------------------------------------------------------------------
 ! R1    R(1,2)                  1.0711         -DE/DX =    0.0                 !
 ! R2    R(1,3)                  1.0711         -DE/DX =    0.0                 !
 ! R3    R(1,4)                  1.0711         -DE/DX =    0.0                 !
 ! A1    A(2,1,3)              120.0            -DE/DX =    0.0                 !
 ! A2    A(2,1,4)              120.0            -DE/DX =    0.0                 !
 ! A3    A(3,1,4)              120.0            -DE/DX =    0.0                 !
 ! D1    D(2,1,4,3)            180.0            -DE/DX =    0.0                 !
 --------------------------------------------------------------------------------
 GradGradGradGradGradGradGradGradGradGradGradGradGradGradGradGradGradGrad

 Leave Link  103 at Sun Aug 18 00:17:02 2024, MaxMem=   13107200 cpu:       0.0
 (Enter /programs/64bit/g09/g09-gfortran/bin/l9999.exe)
 1\1\GINC-MOLMOD\Freq\UHF\CC-pVTZ\C1H3(2)\OSPITE\18-Aug-2024\0\\#P Geom
 =AllCheck Guess=TCheck SCRF=Check GenChk UHF/CC-pVTZ Freq\\methyl with
  imposed symmetry and cc-pVTZ basis set\\0,2\C,0.,0.,0.\H,0.,0.,1.0710
 643334\H,0.9275689218,0.,-0.5355321667\H,-0.9275689218,0.,-0.535532166
 7\\Version=EM64L-G09RevA.02\State=2-A2"\HF=-39.5776063\S2=0.761369\S2-
 1=0.\S2A=0.750067\RMSD=1.882e-10\RMSF=1.823e-07\ZeroPoint=0.0306886\Th
 ermal=0.0338382\Dipole=0.,0.,0.\DipoleDeriv=0.0640404,0.,0.,0.,-0.4360
 414,0.,0.,0.,0.0640403,0.0345195,0.,0.,0.,0.1453471,0.,0.,0.,-0.077213
 ,-0.0492799,0.,0.0483816,0.,0.1453471,0.,0.0483816,0.,0.0065864,-0.049
 2799,0.,-0.0483816,0.,0.1453471,0.,-0.0483816,0.,0.0065864\Polar=13.29
 39803,0.,9.895582,0.,0.,13.2939803\PolarDeriv=0.,0.,0.,4.2385324,0.,0.
 ,0.,0.,0.,0.,0.,0.,4.2385323,0.,-0.0000001,0.,0.,-4.2385326,0.,0.,0.,0
 .7210459,0.,0.,0.,0.,0.,0.,1.1193571,0.,1.2126635,0.,0.4927626,0.,0.,8
 .3061303,5.9697613,0.,0.4267449,-2.4797886,0.,2.273756,0.,0.9693917,0.
 ,0.,-0.5596786,0.,-2.7255974,0.,-0.2463813,1.8480026,0.,-2.0337995,-5.
 9697613,0.,-0.4267449,-2.4797886,0.,-2.273756,0.,-0.9693917,0.,0.,-0.5
 596786,0.,-2.7255974,0.,-0.2463813,-1.8480026,0.,-2.0337995\HyperPolar
 =0.,0.,0.,0.,-20.5995444,0.,0.,0.,0.,20.5995444\PG=D03H [O(C1),3C2(H1)
 ]\NImag=0\\0.66539757,0.,0.01473969,0.,0.,0.66539755,-0.06379282,0.,0.
 ,0.05262357,0.,-0.00491323,0.,0.,0.00163784,0.,0.,-0.37980555,0.,0.,0.
 39577175,-0.30080238,0.,0.13683753,0.00558462,0.,-0.00365788,0.3099847
 0,0.,-0.00491323,0.,0.,0.00163769,0.,0.,0.00163784,0.13683753,0.,-0.14
 279600,0.02715785,0.,-0.00798309,-0.14858752,0.,0.13841062,-0.30080238
 ,0.,-0.13683753,0.00558462,0.,0.00365788,-0.01476695,0.,-0.01540787,0.
 30998470,0.,-0.00491323,0.,0.,0.00163769,0.,0.,0.00163769,0.,0.,0.0016
 3784,-0.13683753,0.,-0.14279600,-0.02715785,0.,-0.00798309,0.01540787,
 0.,0.01236848,0.14858752,0.,0.13841062\\0.,0.,0.,0.,0.,0.00000036,0.00
 000032,0.,-0.00000018,-0.00000032,0.,-0.00000018\\\@


 GARLIC THEN HAVE POWER TO SAVE FROM DEATH
 BEAR WITH IT THOUGH IT MAKETH UNSAVORY BREATH,
 AND SCORN NOT GARLIC LIKE SOME THAT THINK
 IT ONLY MAKETH MEN WINK AND DRINK AND STINK.
   --  SIR JOHN HARRINGTON,
       "THE ENGLISHMAN'S DOCTOR", 1609
 Job cpu time:  0 days  0 hours  0 minutes 21.2 seconds.
 File lengths (MBytes):  RWF=      9 Int=      0 D2E=      0 Chk=      2 Scr=      1
 Normal termination of Gaussian 09 at Sun Aug 18 00:17:02 2024.
