 Entering Gaussian System, Link 0=/programs/64bit/g09/g09-gfortran/bin/g09
 Input=ch3_cc-pVQZ.com
 Output=ch3_cc-pVQZ.log
 Initial command:
 /programs/64bit/g09/g09-gfortran/bin/l1.exe /home/ospite/Desktop/MMfP/Project6/CH3/g09/HF/Gau-6664.inp -scrdir=/home/ospite/Desktop/MMfP/Project6/CH3/g09/HF/
 Entering Link 1 = /programs/64bit/g09/g09-gfortran/bin/l1.exe PID=      6665.
  
 Copyright (c) 1988,1990,1992,1993,1995,1998,2003,2009, Gaussian, Inc.
                  All Rights Reserved.
  
 This is part of the Gaussian(R) 09 program.  It is based on
 the Gaussian(R) 03 system (copyright 2003, Gaussian, Inc.),
 the Gaussian(R) 98 system (copyright 1998, Gaussian, Inc.),
 the Gaussian(R) 94 system (copyright 1995, Gaussian, Inc.),
 the Gaussian 92(TM) system (copyright 1992, Gaussian, Inc.),
 the Gaussian 90(TM) system (copyright 1990, Gaussian, Inc.),
 the Gaussian 88(TM) system (copyright 1988, Gaussian, Inc.),
 the Gaussian 86(TM) system (copyright 1986, Carnegie Mellon
 University), and the Gaussian 82(TM) system (copyright 1983,
 Carnegie Mellon University). Gaussian is a federally registered
 trademark of Gaussian, Inc.
  
 This software contains proprietary and confidential information,
 including trade secrets, belonging to Gaussian, Inc.
  
 This software is provided under written license and may be
 used, copied, transmitted, or stored only in accord with that
 written license.
  
 The following legend is applicable only to US Government
 contracts under FAR:
  
                    RESTRICTED RIGHTS LEGEND
  
 Use, reproduction and disclosure by the US Government is
 subject to restrictions as set forth in subparagraphs (a)
 and (c) of the Commercial Computer Software - Restricted
 Rights clause in FAR 52.227-19.
  
 Gaussian, Inc.
 340 Quinnipiac St., Bldg. 40, Wallingford CT 06492
  
  
 ---------------------------------------------------------------
 Warning -- This program may not be used in any manner that
 competes with the business of Gaussian, Inc. or will provide
 assistance to any competitor of Gaussian, Inc.  The licensee
 of this program is prohibited from giving any competitor of
 Gaussian, Inc. access to this program.  By using this program,
 the user acknowledges that Gaussian, Inc. is engaged in the
 business of creating and licensing software in the field of
 computational chemistry and represents and warrants to the
 licensee that it is not a competitor of Gaussian, Inc. and that
 it will not use this program in any manner prohibited above.
 ---------------------------------------------------------------
  

 Cite this work as:
 Gaussian 09, Revision A.02,
 M. J. Frisch, G. W. Trucks, H. B. Schlegel, G. E. Scuseria, 
 M. A. Robb, J. R. Cheeseman, G. Scalmani, V. Barone, B. Mennucci, 
 G. A. Petersson, H. Nakatsuji, M. Caricato, X. Li, H. P. Hratchian, 
 A. F. Izmaylov, J. Bloino, G. Zheng, J. L. Sonnenberg, M. Hada, 
 M. Ehara, K. Toyota, R. Fukuda, J. Hasegawa, M. Ishida, T. Nakajima, 
 Y. Honda, O. Kitao, H. Nakai, T. Vreven, J. A. Montgomery, Jr., 
 J. E. Peralta, F. Ogliaro, M. Bearpark, J. J. Heyd, E. Brothers, 
 K. N. Kudin, V. N. Staroverov, R. Kobayashi, J. Normand, 
 K. Raghavachari, A. Rendell, J. C. Burant, S. S. Iyengar, J. Tomasi, 
 M. Cossi, N. Rega, J. M. Millam, M. Klene, J. E. Knox, J. B. Cross, 
 V. Bakken, C. Adamo, J. Jaramillo, R. Gomperts, R. E. Stratmann, 
 O. Yazyev, A. J. Austin, R. Cammi, C. Pomelli, J. W. Ochterski, 
 R. L. Martin, K. Morokuma, V. G. Zakrzewski, G. A. Voth, 
 P. Salvador, J. J. Dannenberg, S. Dapprich, A. D. Daniels, 
 O. Farkas, J. B. Foresman, J. V. Ortiz, J. Cioslowski, 
 and D. J. Fox, Gaussian, Inc., Wallingford CT, 2009.
 
 ******************************************
 Gaussian 09:  EM64L-G09RevA.02 11-Jun-2009
                18-Aug-2024 
 ******************************************
 %mem=100MB
 ----------------------------------------------------------------
 #p hf/cc-pVQZ opt freq symmetry=(follow,pg=C3v) pop=full gfinput
 ----------------------------------------------------------------
 1/18=20,19=15,38=1/1,3;
 2/9=110,12=2,17=6,18=5,19=2314885530821997379,40=1/2;
 3/5=16,6=2,11=9,16=1,24=10,25=1,30=1,71=1/1,2,3;
 4//1;
 5/5=2,38=5/2;
 6/7=3,28=1/1;
 7//1,2,3,16;
 1/18=20,19=15/3(2);
 2/9=110,15=5,19=2314885530821997379/2;
 99//99;
 2/9=110,15=5,19=2314885530821997379/2;
 3/5=16,6=2,11=9,16=1,25=1,30=1,71=1/1,2,3;
 4/5=5,16=3/1;
 5/5=2,38=5/2;
 7//1,2,3,16;
 1/18=20,19=15/3(-5);
 2/9=110,15=5,19=2314885530821997379/2;
 6/7=3,19=2,28=1/1;
 99/9=1/99;
 Leave Link    1 at Sun Aug 18 13:56:02 2024, MaxMem=   13107200 cpu:       0.1
 (Enter /programs/64bit/g09/g09-gfortran/bin/l101.exe)
 --------------------------------------------------
 methyl with imposed symmetry and cc-pVQZ basis set
 --------------------------------------------------
 Symbolic Z-matrix:
 Charge =  0 Multiplicity = 2
 C1
 H2                   1    d
 H3                   1    d        2    a
 H4                   1    d        2    -a       3    t        0
       Variables:
  d                     1.09                     
  a                   120.                       
  t                     0.                       
 
 NAtoms=      4 NQM=      4 NQMF=      0 NMic=      0 NMicF=      0 NTot=      4.
                    Isotopes and Nuclear Properties:
 (Nuclear quadrupole moments (NQMom) in fm**2, nuclear magnetic moments (NMagM)
  in nuclear magnetons)

  Atom         1           2           3           4
 IAtWgt=          12           1           1           1
 AtmWgt=  12.0000000   1.0078250   1.0078250   1.0078250
 NucSpn=           0           1           1           1
 AtZEff=   0.0000000   0.0000000   0.0000000   0.0000000
 NQMom=    0.0000000   0.0000000   0.0000000   0.0000000
 NMagM=    0.0000000   2.7928460   2.7928460   2.7928460
 Leave Link  101 at Sun Aug 18 13:56:02 2024, MaxMem=   13107200 cpu:       0.1
 (Enter /programs/64bit/g09/g09-gfortran/bin/l103.exe)

 GradGradGradGradGradGradGradGradGradGradGradGradGradGradGradGradGradGrad
 Berny optimization.
 Initialization pass.
                           ----------------------------
                           !    Initial Parameters    !
                           ! (Angstroms and Degrees)  !
 --------------------------                            --------------------------
 ! Name  Definition              Value          Derivative Info.                !
 --------------------------------------------------------------------------------
 ! R1    R(1,2)                  1.09           estimate D2E/DX2                !
 ! R2    R(1,3)                  1.09           estimate D2E/DX2                !
 ! R3    R(1,4)                  1.09           estimate D2E/DX2                !
 ! A1    A(2,1,3)              120.0            estimate D2E/DX2                !
 ! A2    A(2,1,4)              120.0            estimate D2E/DX2                !
 ! A3    A(3,1,4)              120.0            estimate D2E/DX2                !
 ! D1    D(2,1,4,3)            180.0            estimate D2E/DX2                !
 --------------------------------------------------------------------------------
 Trust Radius=3.00D-01 FncErr=1.00D-07 GrdErr=1.00D-07
 Number of steps in this run=  20 maximum allowed number of steps= 100.
 GradGradGradGradGradGradGradGradGradGradGradGradGradGradGradGradGradGrad

 Leave Link  103 at Sun Aug 18 13:56:02 2024, MaxMem=   13107200 cpu:       0.0
 (Enter /programs/64bit/g09/g09-gfortran/bin/l202.exe)
                          Input orientation:                          
 ---------------------------------------------------------------------
 Center     Atomic      Atomic             Coordinates (Angstroms)
 Number     Number       Type             X           Y           Z
 ---------------------------------------------------------------------
      1          6           0        0.000000    0.000000    0.000000
      2          1           0        0.000000    0.000000    1.090000
      3          1           0        0.943968    0.000000   -0.545000
      4          1           0       -0.943968    0.000000   -0.545000
 ---------------------------------------------------------------------
                    Distance matrix (angstroms):
                    1          2          3          4
     1  C    0.000000
     2  H    1.090000   0.000000
     3  H    1.090000   1.887935   0.000000
     4  H    1.090000   1.887935   1.887935   0.000000
 Symm:  InNGrp=C3V  InAxis=0.
 This structure is nearly, but not quite of a higher symmetry.
 Consider Symm=Loose if the higher symmetry is desired.
 Stoichiometry    CH3(2)
 Framework group  C2[C2(CH),X(H2)]
 Deg. of freedom     3
 Full point group                 C2      NOp   2
 Largest Abelian subgroup         C2      NOp   2
 Largest concise Abelian subgroup C2      NOp   2
                         Standard orientation:                         
 ---------------------------------------------------------------------
 Center     Atomic      Atomic             Coordinates (Angstroms)
 Number     Number       Type             X           Y           Z
 ---------------------------------------------------------------------
      1          6           0        0.000000    0.000000    0.000000
      2          1           0        0.000000    0.000000    1.090000
      3          1           0        0.000000    0.943968   -0.545000
      4          1           0       -0.000000   -0.943968   -0.545000
 ---------------------------------------------------------------------
 Rotational constants (GHZ):    281.3764836    281.3764836    140.6882418
 Leave Link  202 at Sun Aug 18 13:56:02 2024, MaxMem=   13107200 cpu:       0.0
 (Enter /programs/64bit/g09/g09-gfortran/bin/l301.exe)
 Standard basis: CC-pVQZ (5D, 7F)
 Ernie: Thresh=  0.10000D-02 Tol=  0.10000D-05 Strict=F.
 Ernie:  3 primitive shells out of 69 were deleted.
 AO basis set in the form of general basis input (Overlap normalization):
      1 0
 S   8 1.00       0.000000000000
      0.3398000000D+05  0.1468124114D-03
      0.5089000000D+04  0.1116460016D-02
      0.1157000000D+04  0.5890887108D-02
      0.3266000000D+03  0.2421725547D-01
      0.1061000000D+03  0.8317163879D-01
      0.3811000000D+02  0.2205684777D+00
      0.1475000000D+02  0.4287314969D+00
      0.6035000000D+01  0.3643614225D+00
 S   7 1.00       0.000000000000
      0.5089000000D+04 -0.1002265364D-04
      0.3266000000D+03 -0.4365894368D-03
      0.1061000000D+03 -0.1932312730D-02
      0.3811000000D+02 -0.2148394772D-01
      0.1475000000D+02 -0.9030916566D-01
      0.6035000000D+01 -0.4187915117D+00
      0.2530000000D+01 -0.5318019058D+00
 S   1 1.00       0.000000000000
      0.7355000000D+00  0.1000000000D+01
 S   1 1.00       0.000000000000
      0.2905000000D+00  0.1000000000D+01
 S   1 1.00       0.000000000000
      0.1111000000D+00  0.1000000000D+01
 P   3 1.00       0.000000000000
      0.3451000000D+02  0.3168785521D-01
      0.7915000000D+01  0.2128943073D+00
      0.2368000000D+01  0.8395867520D+00
 P   1 1.00       0.000000000000
      0.8132000000D+00  0.1000000000D+01
 P   1 1.00       0.000000000000
      0.2890000000D+00  0.1000000000D+01
 P   1 1.00       0.000000000000
      0.1007000000D+00  0.1000000000D+01
 D   1 1.00       0.000000000000
      0.1848000000D+01  0.1000000000D+01
 D   1 1.00       0.000000000000
      0.6490000000D+00  0.1000000000D+01
 D   1 1.00       0.000000000000
      0.2280000000D+00  0.1000000000D+01
 F   1 1.00       0.000000000000
      0.1419000000D+01  0.1000000000D+01
 F   1 1.00       0.000000000000
      0.4850000000D+00  0.1000000000D+01
 G   1 1.00       0.000000000000
      0.1011000000D+01  0.1000000000D+01
 ****
      2 0
 S   3 1.00       0.000000000000
      0.8264000000D+02  0.2295075779D-01
      0.1241000000D+02  0.1755401181D+00
      0.2824000000D+01  0.8647035510D+00
 S   1 1.00       0.000000000000
      0.7977000000D+00  0.1000000000D+01
 S   1 1.00       0.000000000000
      0.2581000000D+00  0.1000000000D+01
 S   1 1.00       0.000000000000
      0.8989000000D-01  0.1000000000D+01
 P   1 1.00       0.000000000000
      0.2292000000D+01  0.1000000000D+01
 P   1 1.00       0.000000000000
      0.8380000000D+00  0.1000000000D+01
 P   1 1.00       0.000000000000
      0.2920000000D+00  0.1000000000D+01
 D   1 1.00       0.000000000000
      0.2062000000D+01  0.1000000000D+01
 D   1 1.00       0.000000000000
      0.6620000000D+00  0.1000000000D+01
 F   1 1.00       0.000000000000
      0.1397000000D+01  0.1000000000D+01
 ****
      3 0
 S   3 1.00       0.000000000000
      0.8264000000D+02  0.2295075779D-01
      0.1241000000D+02  0.1755401181D+00
      0.2824000000D+01  0.8647035510D+00
 S   1 1.00       0.000000000000
      0.7977000000D+00  0.1000000000D+01
 S   1 1.00       0.000000000000
      0.2581000000D+00  0.1000000000D+01
 S   1 1.00       0.000000000000
      0.8989000000D-01  0.1000000000D+01
 P   1 1.00       0.000000000000
      0.2292000000D+01  0.1000000000D+01
 P   1 1.00       0.000000000000
      0.8380000000D+00  0.1000000000D+01
 P   1 1.00       0.000000000000
      0.2920000000D+00  0.1000000000D+01
 D   1 1.00       0.000000000000
      0.2062000000D+01  0.1000000000D+01
 D   1 1.00       0.000000000000
      0.6620000000D+00  0.1000000000D+01
 F   1 1.00       0.000000000000
      0.1397000000D+01  0.1000000000D+01
 ****
      4 0
 S   3 1.00       0.000000000000
      0.8264000000D+02  0.2295075779D-01
      0.1241000000D+02  0.1755401181D+00
      0.2824000000D+01  0.8647035510D+00
 S   1 1.00       0.000000000000
      0.7977000000D+00  0.1000000000D+01
 S   1 1.00       0.000000000000
      0.2581000000D+00  0.1000000000D+01
 S   1 1.00       0.000000000000
      0.8989000000D-01  0.1000000000D+01
 P   1 1.00       0.000000000000
      0.2292000000D+01  0.1000000000D+01
 P   1 1.00       0.000000000000
      0.8380000000D+00  0.1000000000D+01
 P   1 1.00       0.000000000000
      0.2920000000D+00  0.1000000000D+01
 D   1 1.00       0.000000000000
      0.2062000000D+01  0.1000000000D+01
 D   1 1.00       0.000000000000
      0.6620000000D+00  0.1000000000D+01
 F   1 1.00       0.000000000000
      0.1397000000D+01  0.1000000000D+01
 ****

 There are    75 symmetry adapted basis functions of A   symmetry.
 There are    70 symmetry adapted basis functions of B   symmetry.
 Integral buffers will be    131072 words long.
 Raffenetti 2 integral format.
 Two-electron integral symmetry is turned on.
   145 basis functions,   200 primitive gaussians,   175 cartesian basis functions
     5 alpha electrons        4 beta electrons
       nuclear repulsion energy         9.5795885928 Hartrees.
 IExCor=    0 DFT=F Ex=HF Corr=None ExCW=0 ScaHFX=  1.000000
 ScaDFX=  1.000000  1.000000  1.000000  1.000000 ScalE2=  1.000000  1.000000
 IRadAn=      0 IRanWt=     -1 IRanGd=            0 ICorTp=0
 NAtoms=    4 NActive=    4 NUniq=    3 SFac= 1.33D+00 NAtFMM=   80 NAOKFM=F Big=F
 Leave Link  301 at Sun Aug 18 13:56:02 2024, MaxMem=   13107200 cpu:       0.1
 (Enter /programs/64bit/g09/g09-gfortran/bin/l302.exe)
 NPDir=0 NMtPBC=     1 NCelOv=     1 NCel=       1 NClECP=     1 NCelD=      1
         NCelK=      1 NCelE2=     1 NClLst=     1 CellRange=     0.0.
 One-electron integrals computed using PRISM.
 One-electron integral symmetry used in STVInt
 NBasis=   145 RedAO= T  NBF=    75    70
 NBsUse=   145 1.00D-06 NBFU=    75    70
 Leave Link  302 at Sun Aug 18 13:56:02 2024, MaxMem=   13107200 cpu:       0.3
 (Enter /programs/64bit/g09/g09-gfortran/bin/l303.exe)
 DipDrv:  MaxL=1.
 Leave Link  303 at Sun Aug 18 13:56:02 2024, MaxMem=   13107200 cpu:       0.0
 (Enter /programs/64bit/g09/g09-gfortran/bin/l401.exe)
 Harris functional with IExCor=  205 diagonalized for initial guess.
 ExpMin= 8.99D-02 ExpMax= 3.40D+04 ExpMxC= 3.27D+02 IAcc=2 IRadAn=         0 AccDes= 0.00D+00
 HarFok:  IExCor=  205 AccDes= 0.00D+00 IRadAn=         0 IDoV= 1
 ScaDFX=  1.000000  1.000000  1.000000  1.000000
 FoFCou: FMM=F IPFlag=           0 FMFlag=      100000 FMFlg1=           0
         NFxFlg=           0 DoJE=T BraDBF=F KetDBF=T FulRan=T
         Omega=  0.000000  0.000000  1.000000  0.000000  0.000000 ICntrl=     500 IOpCl=  0
         NMat0=    1 NMatS0=    1 NMatT0=    0 NMatD0=    1 NMtDS0=    0 NMtDT0=    0
         I1Cent=           4 NGrid=           0.
 Petite list used in FoFCou.
 Harris En= -39.6529855964436    
 Initial guess orbital symmetries:
 Alpha Orbitals:
       Occupied  (A) (A) (B) (A) (B)
       Virtual   (A) (B) (A) (B) (A) (B) (A) (A) (A) (B) (A) (B)
                 (B) (A) (B) (A) (B) (A) (B) (B) (A) (A) (B) (A)
                 (A) (B) (A) (B) (A) (B) (A) (B) (B) (A) (A) (B)
                 (A) (B) (B) (A) (A) (B) (A) (B) (A) (B) (A) (B)
                 (A) (B) (A) (B) (A) (B) (A) (B) (A) (B) (A) (B)
                 (A) (B) (A) (A) (B) (A) (B) (B) (A) (B) (A) (A)
                 (A) (B) (B) (A) (B) (A) (B) (B) (B) (A) (B) (B)
                 (B) (A) (A) (B) (A) (A) (A) (B) (B) (A) (B) (B)
                 (A) (B) (A) (A) (B) (B) (A) (A) (B) (B) (A) (A)
                 (A) (B) (A) (B) (A) (B) (A) (A) (B) (B) (A) (A)
                 (B) (A) (B) (A) (B) (A) (B) (B) (A) (A) (A) (B)
                 (B) (B) (A) (A) (B) (B) (A) (A)
 Beta  Orbitals:
       Occupied  (A) (A) (B) (A)
       Virtual   (B) (A) (B) (A) (B) (A) (B) (A) (A) (A) (B) (A)
                 (B) (B) (A) (B) (A) (B) (A) (B) (B) (A) (A) (B)
                 (A) (A) (B) (A) (B) (A) (B) (A) (B) (B) (A) (A)
                 (B) (A) (B) (B) (A) (A) (B) (A) (B) (A) (B) (A)
                 (B) (A) (B) (A) (B) (A) (B) (A) (B) (A) (B) (A)
                 (B) (A) (B) (A) (A) (B) (A) (B) (B) (A) (B) (A)
                 (A) (A) (B) (B) (A) (B) (A) (B) (B) (B) (A) (B)
                 (B) (B) (A) (A) (B) (A) (A) (A) (B) (B) (A) (B)
                 (B) (A) (B) (A) (A) (B) (B) (A) (A) (B) (B) (A)
                 (A) (A) (B) (A) (B) (A) (B) (A) (A) (B) (B) (A)
                 (A) (B) (A) (B) (A) (B) (A) (B) (B) (A) (A) (A)
                 (B) (B) (B) (A) (A) (B) (B) (A) (A)
 The electronic state of the initial guess is 2-B.
 Initial guess <Sx>= 0.0000 <Sy>= 0.0000 <Sz>= 0.5000 <S**2>= 0.7500 S= 0.5000
 Leave Link  401 at Sun Aug 18 13:56:05 2024, MaxMem=   13107200 cpu:       2.1
 (Enter /programs/64bit/g09/g09-gfortran/bin/l502.exe)
 UHF open shell SCF:
 Requested convergence on RMS density matrix=1.00D-08 within 128 cycles.
 Requested convergence on MAX density matrix=1.00D-06.
 Requested convergence on             energy=1.00D-06.
 No special actions if energy rises.
 Using DIIS extrapolation, IDIIS=  1040.
 Integral symmetry usage will be decided dynamically.
 IEnd=      112509 IEndB=      112509 NGot=    13107200 MDV=    13042132
 LenX=    13042132 LenY=    13011066
 Fock matrices will be formed incrementally for  20 cycles.
 Integral accuracy reduced to 1.0D-05 until final iterations.

 Cycle   1  Pass 0  IDiag  1:
 FoFCou: FMM=F IPFlag=           0 FMFlag=      100000 FMFlg1=           0
         NFxFlg=           0 DoJE=F BraDBF=F KetDBF=F FulRan=T
         Omega=  0.000000  0.000000  1.000000  0.000000  0.000000 ICntrl=       0 IOpCl=  1
         NMat0=    1 NMatS0=    1 NMatT0=    0 NMatD0=    1 NMtDS0=    0 NMtDT0=    0
         I1Cent=           0 NGrid=           0.
 Petite list used in FoFCou.
 E= -39.5061345477009    
 DIIS: error= 4.01D-02 at cycle   1 NSaved=   1.
 NSaved= 1 IEnMin= 1 EnMin= -39.5061345477009     IErMin= 1 ErrMin= 4.01D-02
 ErrMax= 4.01D-02 EMaxC= 1.00D-01 BMatC= 4.49D-01 BMatP= 4.49D-01
 IDIUse=3 WtCom= 5.99D-01 WtEn= 4.01D-01
 Coeff-Com:  0.100D+01
 Coeff-En:   0.100D+01
 Coeff:      0.100D+01
 Gap=     0.447 Goal=   None    Shift=    0.000
 Gap=     0.656 Goal=   None    Shift=    0.000
 GapD=    0.447 DampG=2.000 DampE=0.500 DampFc=1.0000 IDamp=-1.
 RMSDP=1.12D-03 MaxDP=6.01D-02              OVMax= 1.11D-01

 Cycle   2  Pass 0  IDiag  1:
 RMSU=  7.83D-04    CP:  9.54D-01
 E= -39.5715892788846     Delta-E=       -0.065454731184 Rises=F Damp=F
 DIIS: error= 1.31D-02 at cycle   2 NSaved=   2.
 NSaved= 2 IEnMin= 2 EnMin= -39.5715892788846     IErMin= 2 ErrMin= 1.31D-02
 ErrMax= 1.31D-02 EMaxC= 1.00D-01 BMatC= 3.36D-02 BMatP= 4.49D-01
 IDIUse=3 WtCom= 8.69D-01 WtEn= 1.31D-01
 Coeff-Com:  0.139D+00 0.861D+00
 Coeff-En:   0.000D+00 0.100D+01
 Coeff:      0.121D+00 0.879D+00
 Gap=     0.512 Goal=   None    Shift=    0.000
 Gap=     0.681 Goal=   None    Shift=    0.000
 RMSDP=3.69D-04 MaxDP=2.46D-02 DE=-6.55D-02 OVMax= 4.13D-02

 Cycle   3  Pass 0  IDiag  1:
 RMSU=  1.82D-04    CP:  9.74D-01  7.68D-01
 E= -39.5789582722751     Delta-E=       -0.007368993390 Rises=F Damp=F
 DIIS: error= 3.36D-03 at cycle   3 NSaved=   3.
 NSaved= 3 IEnMin= 3 EnMin= -39.5789582722751     IErMin= 3 ErrMin= 3.36D-03
 ErrMax= 3.36D-03 EMaxC= 1.00D-01 BMatC= 1.46D-03 BMatP= 3.36D-02
 IDIUse=3 WtCom= 9.66D-01 WtEn= 3.36D-02
 Coeff-Com: -0.260D-01 0.898D-01 0.936D+00
 Coeff-En:   0.000D+00 0.000D+00 0.100D+01
 Coeff:     -0.251D-01 0.868D-01 0.938D+00
 Gap=     0.502 Goal=   None    Shift=    0.000
 Gap=     0.672 Goal=   None    Shift=    0.000
 RMSDP=8.85D-05 MaxDP=4.59D-03 DE=-7.37D-03 OVMax= 9.17D-03

 Cycle   4  Pass 0  IDiag  1:
 RMSU=  3.59D-05    CP:  9.72D-01  8.20D-01  1.16D+00
 E= -39.5794539599387     Delta-E=       -0.000495687664 Rises=F Damp=F
 DIIS: error= 1.16D-03 at cycle   4 NSaved=   4.
 NSaved= 4 IEnMin= 4 EnMin= -39.5794539599387     IErMin= 4 ErrMin= 1.16D-03
 ErrMax= 1.16D-03 EMaxC= 1.00D-01 BMatC= 1.59D-04 BMatP= 1.46D-03
 IDIUse=3 WtCom= 9.88D-01 WtEn= 1.16D-02
 Coeff-Com:  0.127D-01-0.739D-01-0.610D+00 0.167D+01
 Coeff-En:   0.000D+00 0.000D+00 0.000D+00 0.100D+01
 Coeff:      0.126D-01-0.731D-01-0.603D+00 0.166D+01
 Gap=     0.505 Goal=   None    Shift=    0.000
 Gap=     0.673 Goal=   None    Shift=    0.000
 RMSDP=7.28D-05 MaxDP=4.20D-03 DE=-4.96D-04 OVMax= 5.77D-03

 Cycle   5  Pass 0  IDiag  1:
 RMSU=  1.03D-05    CP:  9.73D-01  8.27D-01  1.37D+00  1.93D+00
 E= -39.5795947733619     Delta-E=       -0.000140813423 Rises=F Damp=F
 DIIS: error= 4.21D-04 at cycle   5 NSaved=   5.
 NSaved= 5 IEnMin= 5 EnMin= -39.5795947733619     IErMin= 5 ErrMin= 4.21D-04
 ErrMax= 4.21D-04 EMaxC= 1.00D-01 BMatC= 2.65D-05 BMatP= 1.59D-04
 IDIUse=3 WtCom= 9.96D-01 WtEn= 4.21D-03
 Coeff-Com: -0.622D-02 0.473D-01 0.357D+00-0.135D+01 0.195D+01
 Coeff-En:   0.000D+00 0.000D+00 0.000D+00 0.000D+00 0.100D+01
 Coeff:     -0.619D-02 0.471D-01 0.356D+00-0.134D+01 0.194D+01
 Gap=     0.507 Goal=   None    Shift=    0.000
 Gap=     0.673 Goal=   None    Shift=    0.000
 RMSDP=3.71D-05 MaxDP=1.91D-03 DE=-1.41D-04 OVMax= 3.38D-03

 Cycle   6  Pass 0  IDiag  1:
 RMSU=  4.02D-06    CP:  9.73D-01  8.29D-01  1.45D+00  2.38D+00  2.23D+00
 E= -39.5796246279459     Delta-E=       -0.000029854584 Rises=F Damp=F
 DIIS: error= 1.34D-04 at cycle   6 NSaved=   6.
 NSaved= 6 IEnMin= 6 EnMin= -39.5796246279459     IErMin= 6 ErrMin= 1.34D-04
 ErrMax= 1.34D-04 EMaxC= 1.00D-01 BMatC= 1.48D-06 BMatP= 2.65D-05
 IDIUse=3 WtCom= 9.99D-01 WtEn= 1.34D-03
 Coeff-Com:  0.928D-03-0.877D-02-0.687D-01 0.335D+00-0.763D+00 0.151D+01
 Coeff-En:   0.000D+00 0.000D+00 0.000D+00 0.000D+00 0.000D+00 0.100D+01
 Coeff:      0.926D-03-0.876D-02-0.686D-01 0.334D+00-0.762D+00 0.150D+01
 Gap=     0.507 Goal=   None    Shift=    0.000
 Gap=     0.673 Goal=   None    Shift=    0.000
 RMSDP=7.90D-06 MaxDP=4.14D-04 DE=-2.99D-05 OVMax= 8.56D-04

 Initial convergence to 1.0D-05 achieved.  Increase integral accuracy.
 Cycle   7  Pass 1  IDiag  1:
 E= -39.5796261395820     Delta-E=       -0.000001511636 Rises=F Damp=F
 DIIS: error= 2.43D-05 at cycle   1 NSaved=   1.
 NSaved= 1 IEnMin= 1 EnMin= -39.5796261395820     IErMin= 1 ErrMin= 2.43D-05
 ErrMax= 2.43D-05 EMaxC= 1.00D-01 BMatC= 5.30D-08 BMatP= 5.30D-08
 IDIUse=1 WtCom= 1.00D+00 WtEn= 0.00D+00
 Coeff-Com:  0.100D+01
 Coeff:      0.100D+01
 Gap=     0.507 Goal=   None    Shift=    0.000
 Gap=     0.673 Goal=   None    Shift=    0.000
 RMSDP=7.90D-06 MaxDP=4.14D-04 DE=-1.51D-06 OVMax= 8.43D-05

 Cycle   8  Pass 1  IDiag  1:
 RMSU=  8.18D-07    CP:  1.00D+00
 E= -39.5796261747249     Delta-E=       -0.000000035143 Rises=F Damp=F
 DIIS: error= 1.20D-05 at cycle   2 NSaved=   2.
 NSaved= 2 IEnMin= 2 EnMin= -39.5796261747249     IErMin= 2 ErrMin= 1.20D-05
 ErrMax= 1.20D-05 EMaxC= 1.00D-01 BMatC= 1.50D-08 BMatP= 5.30D-08
 IDIUse=1 WtCom= 1.00D+00 WtEn= 0.00D+00
 Coeff-Com: -0.911D+00 0.191D+01
 Coeff:     -0.911D+00 0.191D+01
 Gap=     0.507 Goal=   None    Shift=    0.000
 Gap=     0.673 Goal=   None    Shift=    0.000
 RMSDP=8.62D-07 MaxDP=5.82D-05 DE=-3.51D-08 OVMax= 8.38D-05

 Cycle   9  Pass 1  IDiag  1:
 RMSU=  1.18D-07    CP:  1.00D+00  1.95D+00
 E= -39.5796261890612     Delta-E=       -0.000000014336 Rises=F Damp=F
 DIIS: error= 3.05D-06 at cycle   3 NSaved=   3.
 NSaved= 3 IEnMin= 3 EnMin= -39.5796261890612     IErMin= 3 ErrMin= 3.05D-06
 ErrMax= 3.05D-06 EMaxC= 1.00D-01 BMatC= 1.06D-09 BMatP= 1.50D-08
 IDIUse=1 WtCom= 1.00D+00 WtEn= 0.00D+00
 Coeff-Com:  0.842D-01-0.291D+00 0.121D+01
 Coeff:      0.842D-01-0.291D+00 0.121D+01
 Gap=     0.507 Goal=   None    Shift=    0.000
 Gap=     0.673 Goal=   None    Shift=    0.000
 RMSDP=1.32D-07 MaxDP=6.92D-06 DE=-1.43D-08 OVMax= 1.51D-05

 Cycle  10  Pass 1  IDiag  1:
 RMSU=  5.79D-08    CP:  1.00D+00  2.05D+00  1.46D+00
 E= -39.5796261898265     Delta-E=       -0.000000000765 Rises=F Damp=F
 DIIS: error= 1.55D-06 at cycle   4 NSaved=   4.
 NSaved= 4 IEnMin= 4 EnMin= -39.5796261898265     IErMin= 4 ErrMin= 1.55D-06
 ErrMax= 1.55D-06 EMaxC= 1.00D-01 BMatC= 2.86D-10 BMatP= 1.06D-09
 IDIUse=1 WtCom= 1.00D+00 WtEn= 0.00D+00
 Coeff-Com:  0.256D+00-0.495D+00-0.204D+00 0.144D+01
 Coeff:      0.256D+00-0.495D+00-0.204D+00 0.144D+01
 Gap=     0.507 Goal=   None    Shift=    0.000
 Gap=     0.673 Goal=   None    Shift=    0.000
 RMSDP=8.75D-08 MaxDP=4.29D-06 DE=-7.65D-10 OVMax= 9.03D-06

 Cycle  11  Pass 1  IDiag  1:
 RMSU=  2.15D-08    CP:  1.00D+00  2.07D+00  1.80D+00  1.80D+00
 E= -39.5796261900846     Delta-E=       -0.000000000258 Rises=F Damp=F
 DIIS: error= 4.65D-07 at cycle   5 NSaved=   5.
 NSaved= 5 IEnMin= 5 EnMin= -39.5796261900846     IErMin= 5 ErrMin= 4.65D-07
 ErrMax= 4.65D-07 EMaxC= 1.00D-01 BMatC= 2.62D-11 BMatP= 2.86D-10
 IDIUse=1 WtCom= 1.00D+00 WtEn= 0.00D+00
 Coeff-Com: -0.138D+00 0.280D+00-0.403D-01-0.810D+00 0.171D+01
 Coeff:     -0.138D+00 0.280D+00-0.403D-01-0.810D+00 0.171D+01
 Gap=     0.507 Goal=   None    Shift=    0.000
 Gap=     0.673 Goal=   None    Shift=    0.000
 RMSDP=4.49D-08 MaxDP=2.62D-06 DE=-2.58D-10 OVMax= 3.79D-06

 Cycle  12  Pass 1  IDiag  1:
 RMSU=  7.23D-09    CP:  1.00D+00  2.09D+00  1.85D+00  2.31D+00  1.66D+00
 E= -39.5796261901154     Delta-E=       -0.000000000031 Rises=F Damp=F
 DIIS: error= 6.82D-08 at cycle   6 NSaved=   6.
 NSaved= 6 IEnMin= 6 EnMin= -39.5796261901154     IErMin= 6 ErrMin= 6.82D-08
 ErrMax= 6.82D-08 EMaxC= 1.00D-01 BMatC= 3.81D-13 BMatP= 2.62D-11
 IDIUse=1 WtCom= 1.00D+00 WtEn= 0.00D+00
 Coeff-Com:  0.405D-01-0.831D-01 0.205D-01 0.228D+00-0.567D+00 0.136D+01
 Coeff:      0.405D-01-0.831D-01 0.205D-01 0.228D+00-0.567D+00 0.136D+01
 Gap=     0.507 Goal=   None    Shift=    0.000
 Gap=     0.673 Goal=   None    Shift=    0.000
 RMSDP=4.99D-09 MaxDP=3.57D-07 DE=-3.08D-11 OVMax= 5.37D-07

 SCF Done:  E(UHF) =  -39.5796261901     A.U. after   12 cycles
             Convg  =    0.4988D-08             -V/T =  2.0022
 <Sx>= 0.0000 <Sy>= 0.0000 <Sz>= 0.5000 <S**2>= 0.7623 S= 0.5061
 <L.S>=  0.00000000000    
 KE= 3.949262813053D+01 PE=-1.108984535842D+02 EE= 2.224661067080D+01
 Annihilation of the first spin contaminant:
 S**2 before annihilation     0.7623,   after     0.7501
 Leave Link  502 at Sun Aug 18 13:57:28 2024, MaxMem=   13107200 cpu:      82.4
 (Enter /programs/64bit/g09/g09-gfortran/bin/l601.exe)
 Copying SCF densities to generalized density rwf, IOpCl= 1 IROHF=0.

 **********************************************************************

            Population analysis using the SCF density.

 **********************************************************************

 Orbital symmetries:
 Alpha Orbitals:
       Occupied  (A) (A) (B) (A) (B)
       Virtual   (A) (A) (B) (B) (A) (B) (A) (A) (B) (A) (B) (A)
                 (B) (A) (A) (B) (B) (A) (B) (A) (B) (A) (A) (B)
                 (A) (B) (A) (B) (A) (B) (B) (A) (B) (A) (B) (A)
                 (A) (B) (B) (A) (A) (A) (B) (B) (A) (B) (A) (B)
                 (A) (B) (A) (B) (A) (B) (A) (B) (B) (A) (B) (A)
                 (A) (B) (A) (A) (B) (A) (B) (A) (B) (B) (A) (A)
                 (B) (A) (B) (A) (B) (A) (B) (B) (B) (A) (B) (B)
                 (B) (A) (B) (A) (A) (A) (B) (A) (B) (B) (A) (A)
                 (B) (B) (A) (A) (B) (A) (A) (B) (A) (B) (A) (B)
                 (B) (A) (A) (B) (A) (A) (B) (A) (B) (B) (A) (A)
                 (B) (B) (A) (A) (B) (B) (A) (B) (A) (B) (A) (A)
                 (B) (B) (A) (B) (A) (A) (B) (A)
 Beta  Orbitals:
       Occupied  (A) (A) (A) (B)
       Virtual   (B) (A) (A) (B) (A) (B) (A) (B) (A) (A) (B) (B)
                 (A) (B) (A) (A) (B) (B) (A) (B) (A) (B) (A) (B)
                 (A) (A) (A) (B) (B) (A) (B) (B) (A) (B) (A) (B)
                 (A) (A) (B) (B) (A) (A) (A) (B) (B) (A) (B) (A)
                 (B) (A) (B) (A) (B) (A) (B) (A) (B) (B) (A) (A)
                 (B) (B) (A) (A) (A) (A) (B) (B) (A) (B) (B) (A)
                 (A) (B) (A) (B) (A) (B) (A) (B) (B) (B) (B) (A)
                 (B) (B) (A) (B) (A) (A) (A) (B) (A) (B) (B) (A)
                 (A) (B) (B) (A) (A) (B) (A) (A) (B) (A) (B) (A)
                 (B) (B) (A) (A) (B) (A) (A) (B) (A) (B) (B) (A)
                 (A) (B) (B) (A) (A) (B) (B) (A) (B) (A) (B) (A)
                 (A) (B) (B) (A) (B) (A) (A) (B) (A)
 The electronic state is 2-B.
 Alpha  occ. eigenvalues --  -11.23724  -0.94359  -0.57700  -0.57700  -0.38506
 Alpha virt. eigenvalues --    0.12150   0.19101   0.19101   0.29264   0.29264
 Alpha virt. eigenvalues --    0.32926   0.39661   0.47330   0.54397   0.54397
 Alpha virt. eigenvalues --    0.55986   0.55986   0.77707   0.77782   0.81510
 Alpha virt. eigenvalues --    0.81510   0.88144   0.92422   0.92422   1.09098
 Alpha virt. eigenvalues --    1.09098   1.16566   1.17878   1.17878   1.41420
 Alpha virt. eigenvalues --    1.51090   1.54202   1.54202   1.80652   1.80652
 Alpha virt. eigenvalues --    1.91097   1.91097   1.97817   2.00016   2.06206
 Alpha virt. eigenvalues --    2.06206   2.10163   2.10163   2.11195   2.24594
 Alpha virt. eigenvalues --    2.28223   2.52318   2.52318   2.52579   2.52579
 Alpha virt. eigenvalues --    2.66111   2.68158   2.72792   2.72792   2.77431
 Alpha virt. eigenvalues --    2.77431   2.91042   3.03303   3.03303   3.06471
 Alpha virt. eigenvalues --    3.25417   3.28084   3.28084   3.65768   3.65768
 Alpha virt. eigenvalues --    3.66560   3.66560   3.88048   3.90512   4.04043
 Alpha virt. eigenvalues --    4.04043   4.34412   5.30979   5.30979   5.34772
 Alpha virt. eigenvalues --    5.47900   5.48830   5.59436   5.59436   5.88123
 Alpha virt. eigenvalues --    5.88398   5.88398   6.00694   6.00694   6.10891
 Alpha virt. eigenvalues --    6.22672   6.22672   6.24658   6.25179   6.27650
 Alpha virt. eigenvalues --    6.27650   6.35450   6.35450   6.57116   6.73751
 Alpha virt. eigenvalues --    6.76959   6.76959   6.80075   6.96765   6.96765
 Alpha virt. eigenvalues --    7.06401   7.06401   7.45958   7.45958   7.47113
 Alpha virt. eigenvalues --    7.47113   7.84370   7.84453   7.86665   7.86665
 Alpha virt. eigenvalues --    7.87229   7.87229   7.88217   8.03691   8.03691
 Alpha virt. eigenvalues --    8.29996   8.44186   8.53064   8.54003   8.54003
 Alpha virt. eigenvalues --    8.57159   8.57159   8.78881   8.78881   8.82370
 Alpha virt. eigenvalues --    8.82370   9.08297   9.12386   9.15005   9.36422
 Alpha virt. eigenvalues --    9.50223   9.50223  10.19566  10.19566  10.21047
 Alpha virt. eigenvalues --   10.21047  10.26134  10.28261  10.67652  10.93834
 Alpha virt. eigenvalues --   11.37725  11.37725  12.75905  12.75905  25.55868
  Beta  occ. eigenvalues --  -11.21397  -0.85247  -0.56314  -0.56314
  Beta virt. eigenvalues --    0.10940   0.12920   0.19448   0.19448   0.29461
  Beta virt. eigenvalues --    0.29461   0.43181   0.43784   0.50086   0.55152
  Beta virt. eigenvalues --    0.55152   0.59964   0.59964   0.77494   0.80279
  Beta virt. eigenvalues --    0.82045   0.82045   0.89990   0.93576   0.93576
  Beta virt. eigenvalues --    1.09402   1.09402   1.18406   1.18406   1.18412
  Beta virt. eigenvalues --    1.42076   1.55121   1.55121   1.60321   1.82171
  Beta virt. eigenvalues --    1.82171   1.96217   1.96217   1.97771   2.04814
  Beta virt. eigenvalues --    2.08026   2.08026   2.12169   2.12169   2.14264
  Beta virt. eigenvalues --    2.24992   2.30162   2.52335   2.52335   2.53111
  Beta virt. eigenvalues --    2.53111   2.66454   2.69528   2.73468   2.73468
  Beta virt. eigenvalues --    2.77507   2.77507   2.91079   3.04079   3.04079
  Beta virt. eigenvalues --    3.06881   3.26867   3.28567   3.28567   3.66885
  Beta virt. eigenvalues --    3.66885   3.68127   3.68127   3.88435   3.93793
  Beta virt. eigenvalues --    4.04632   4.04632   4.34627   5.32748   5.32748
  Beta virt. eigenvalues --    5.38251   5.49108   5.51647   5.62002   5.62002
  Beta virt. eigenvalues --    5.88578   5.90417   5.90417   6.01388   6.01388
  Beta virt. eigenvalues --    6.14756   6.25183   6.25542   6.25542   6.26682
  Beta virt. eigenvalues --    6.28204   6.28204   6.35992   6.35992   6.59675
  Beta virt. eigenvalues --    6.74410   6.77693   6.77693   6.81257   6.97091
  Beta virt. eigenvalues --    6.97091   7.09586   7.09586   7.46489   7.46489
  Beta virt. eigenvalues --    7.47511   7.47511   7.84352   7.84831   7.87024
  Beta virt. eigenvalues --    7.87024   7.87220   7.87220   7.88251   8.03968
  Beta virt. eigenvalues --    8.03968   8.30250   8.44104   8.53011   8.53902
  Beta virt. eigenvalues --    8.53902   8.57051   8.57051   8.78936   8.78936
  Beta virt. eigenvalues --    8.82481   8.82481   9.08586   9.12882   9.15720
  Beta virt. eigenvalues --    9.36205   9.50192   9.50192  10.20371  10.20371
  Beta virt. eigenvalues --   10.21192  10.21192  10.26218  10.29540  10.67940
  Beta virt. eigenvalues --   10.94306  11.37800  11.37800  12.76054  12.76054
  Beta virt. eigenvalues --   25.57287
     Alpha Molecular Orbital Coefficients:
                           1         2         3         4         5
                           O         O         O         O         O
     Eigenvalues --   -11.23724  -0.94359  -0.57700  -0.57700  -0.38506
   1 1   C  1S          0.62598  -0.11783   0.00000   0.00000   0.00000
   2        2S         -0.40701   0.19171   0.00000  -0.00000   0.00000
   3        3S          0.02050   0.21696   0.00000  -0.00000   0.00000
   4        4S         -0.00699   0.45034   0.00000   0.00000   0.00000
   5        5S         -0.00101   0.14847   0.00000  -0.00000   0.00000
   6        6PX         0.00000   0.00000  -0.00000   0.00000   0.15254
   7        6PY         0.00000   0.00000   0.11683   0.00000  -0.00000
   8        6PZ        -0.00000   0.00000   0.00000   0.11683   0.00000
   9        7PX         0.00000   0.00000  -0.00000   0.00000   0.30469
  10        7PY         0.00000   0.00000   0.22717   0.00000   0.00000
  11        7PZ         0.00000   0.00000   0.00000   0.22717   0.00000
  12        8PX         0.00000   0.00000  -0.00000   0.00000   0.42616
  13        8PY         0.00000   0.00000   0.26840   0.00000   0.00000
  14        8PZ         0.00000  -0.00000   0.00000   0.26840   0.00000
  15        9PX         0.00000   0.00000  -0.00000   0.00000   0.29949
  16        9PY         0.00000   0.00000   0.09425   0.00000   0.00000
  17        9PZ         0.00000  -0.00000   0.00000   0.09425   0.00000
  18       10D 0       -0.00040   0.00017   0.00000   0.00583   0.00000
  19       10D+1        0.00000   0.00000  -0.00000   0.00000  -0.00000
  20       10D-1        0.00000   0.00000  -0.00674   0.00000   0.00000
  21       10D+2        0.00069  -0.00030   0.00000   0.00337   0.00000
  22       10D-2        0.00000   0.00000   0.00000  -0.00000   0.00000
  23       11D 0        0.00025   0.00075   0.00000   0.01394   0.00000
  24       11D+1        0.00000   0.00000   0.00000   0.00000   0.00000
  25       11D-1        0.00000   0.00000  -0.01610   0.00000  -0.00000
  26       11D+2       -0.00043  -0.00130   0.00000   0.00805   0.00000
  27       11D-2       -0.00000  -0.00000   0.00000   0.00000   0.00000
  28       12D 0       -0.00043  -0.00310   0.00000   0.01817   0.00000
  29       12D+1        0.00000   0.00000   0.00000   0.00000  -0.00000
  30       12D-1        0.00000   0.00000  -0.02098   0.00000  -0.00000
  31       12D+2        0.00074   0.00537   0.00000   0.01049   0.00000
  32       12D-2       -0.00000  -0.00000   0.00000   0.00000   0.00000
  33       13F 0        0.00025   0.00206   0.00000   0.00009   0.00000
  34       13F+1        0.00000   0.00000   0.00000   0.00000  -0.00071
  35       13F-1        0.00000   0.00000   0.00004   0.00000   0.00000
  36       13F+2        0.00019   0.00160   0.00000  -0.00012   0.00000
  37       13F-2        0.00000   0.00000   0.00000  -0.00000   0.00000
  38       13F+3        0.00000   0.00000   0.00000   0.00000   0.00092
  39       13F-3        0.00000   0.00000  -0.00015   0.00000  -0.00000
  40       14F 0        0.00029   0.00513   0.00000  -0.00072   0.00000
  41       14F+1        0.00000   0.00000   0.00000   0.00000  -0.00239
  42       14F-1        0.00000   0.00000  -0.00029   0.00000   0.00000
  43       14F+2        0.00023   0.00397   0.00000   0.00093   0.00000
  44       14F-2        0.00000   0.00000   0.00000  -0.00000   0.00000
  45       14F+3        0.00000   0.00000   0.00000   0.00000   0.00308
  46       14F-3        0.00000   0.00000   0.00114   0.00000  -0.00000
  47       15G 0        0.00004   0.00009   0.00000   0.00095   0.00000
  48       15G+1        0.00000   0.00000  -0.00000   0.00000   0.00034
  49       15G-1        0.00000   0.00000   0.00135   0.00000   0.00000
  50       15G+2       -0.00007  -0.00013   0.00000   0.00099   0.00000
  51       15G-2       -0.00000  -0.00000   0.00000   0.00000   0.00000
  52       15G+3        0.00000   0.00000  -0.00000   0.00000   0.00038
  53       15G-3        0.00000   0.00000   0.00036   0.00000   0.00000
  54       15G+4        0.00009   0.00017   0.00000   0.00027   0.00000
  55       15G-4        0.00000   0.00000   0.00000  -0.00000   0.00000
  56 2   H  1S          0.00017   0.03270   0.00000   0.06148   0.00000
  57        2S         -0.00043   0.08049   0.00000   0.16054   0.00000
  58        3S          0.00230   0.08225   0.00000   0.21784   0.00000
  59        4S          0.00013   0.00638   0.00000   0.06286   0.00000
  60        5PX         0.00000   0.00000   0.00000   0.00000   0.00285
  61        5PY         0.00000   0.00000   0.00174   0.00000   0.00000
  62        5PZ        -0.00004  -0.00366   0.00000  -0.00372   0.00000
  63        6PX         0.00000   0.00000  -0.00000   0.00000   0.01144
  64        6PY         0.00000   0.00000   0.00487   0.00000  -0.00000
  65        6PZ         0.00032  -0.00960   0.00000  -0.01764   0.00000
  66        7PX         0.00000   0.00000   0.00000   0.00000   0.01707
  67        7PY         0.00000   0.00000   0.00812   0.00000   0.00000
  68        7PZ        -0.00099  -0.00648   0.00000  -0.01439   0.00000
  69        8D 0        0.00001   0.00097   0.00000   0.00145   0.00000
  70        8D+1        0.00000   0.00000   0.00000   0.00000  -0.00107
  71        8D-1        0.00000   0.00000  -0.00060   0.00000  -0.00000
  72        8D+2        0.00002  -0.00002   0.00000  -0.00003   0.00000
  73        8D-2       -0.00000  -0.00000   0.00000  -0.00000   0.00000
  74        9D 0       -0.00003   0.00165   0.00000   0.00464   0.00000
  75        9D+1        0.00000   0.00000   0.00000   0.00000  -0.00406
  76        9D-1        0.00000   0.00000  -0.00105   0.00000   0.00000
  77        9D+2       -0.00006   0.00033   0.00000   0.00057   0.00000
  78        9D-2       -0.00000  -0.00000   0.00000   0.00000   0.00000
  79       10F 0       -0.00006  -0.00017   0.00000  -0.00083   0.00000
  80       10F+1        0.00000   0.00000  -0.00000   0.00000   0.00060
  81       10F-1        0.00000   0.00000   0.00002   0.00000  -0.00000
  82       10F+2       -0.00001  -0.00003   0.00000   0.00001   0.00000
  83       10F-2        0.00000   0.00000   0.00000  -0.00000   0.00000
  84       10F+3        0.00000   0.00000  -0.00000   0.00000   0.00004
  85       10F-3        0.00000   0.00000   0.00002   0.00000   0.00000
  86 3   H  1S          0.00017   0.03270   0.05324  -0.03074   0.00000
  87        2S         -0.00043   0.08049   0.13903  -0.08027  -0.00000
  88        3S          0.00230   0.08225   0.18865  -0.10892  -0.00000
  89        4S          0.00013   0.00638   0.05444  -0.03143  -0.00000
  90        5PX        -0.00000  -0.00000  -0.00000   0.00000   0.00285
  91        5PY        -0.00004  -0.00317  -0.00236   0.00237  -0.00000
  92        5PZ         0.00002   0.00183   0.00237   0.00038   0.00000
  93        6PX         0.00000   0.00000   0.00000  -0.00000   0.01144
  94        6PY         0.00028  -0.00831  -0.01201   0.00975   0.00000
  95        6PZ        -0.00016   0.00480   0.00975  -0.00075  -0.00000
  96        7PX         0.00000   0.00000   0.00000  -0.00000   0.01707
  97        7PY        -0.00086  -0.00561  -0.00876   0.00975   0.00000
  98        7PZ         0.00050   0.00324   0.00975   0.00250  -0.00000
  99        8D 0       -0.00002  -0.00011   0.00008   0.00047  -0.00000
 100        8D+1        0.00000  -0.00000  -0.00000   0.00000   0.00054
 101        8D-1       -0.00002  -0.00072  -0.00108   0.00028   0.00000
 102        8D+2        0.00001  -0.00064  -0.00070   0.00071  -0.00000
 103        8D-2       -0.00000   0.00000   0.00000  -0.00000  -0.00093
 104        9D 0        0.00004  -0.00042  -0.00043   0.00115   0.00000
 105        9D+1        0.00000   0.00000   0.00000  -0.00000   0.00203
 106        9D-1        0.00005  -0.00138  -0.00349   0.00141   0.00000
 107        9D+2       -0.00002  -0.00086  -0.00207   0.00172   0.00000
 108        9D-2       -0.00000  -0.00000  -0.00000   0.00000  -0.00352
 109       10F 0       -0.00004  -0.00010  -0.00031   0.00017   0.00000
 110       10F+1        0.00000   0.00000   0.00000   0.00000   0.00001
 111       10F-1       -0.00001  -0.00002  -0.00011   0.00004   0.00000
 112       10F+2       -0.00005  -0.00012  -0.00052   0.00031   0.00000
 113       10F-2       -0.00000  -0.00000  -0.00000   0.00000  -0.00043
 114       10F+3       -0.00000  -0.00000  -0.00000   0.00000  -0.00042
 115       10F-3        0.00002   0.00007   0.00038  -0.00022  -0.00000
 116 4   H  1S          0.00017   0.03270  -0.05324  -0.03074  -0.00000
 117        2S         -0.00043   0.08049  -0.13903  -0.08027   0.00000
 118        3S          0.00230   0.08225  -0.18865  -0.10892   0.00000
 119        4S          0.00013   0.00638  -0.05444  -0.03143   0.00000
 120        5PX         0.00000   0.00000  -0.00000  -0.00000   0.00285
 121        5PY         0.00004   0.00317  -0.00236  -0.00237  -0.00000
 122        5PZ         0.00002   0.00183  -0.00237   0.00038  -0.00000
 123        6PX        -0.00000  -0.00000   0.00000   0.00000   0.01144
 124        6PY        -0.00028   0.00831  -0.01201  -0.00975   0.00000
 125        6PZ        -0.00016   0.00480  -0.00975  -0.00075   0.00000
 126        7PX        -0.00000  -0.00000   0.00000   0.00000   0.01707
 127        7PY         0.00086   0.00561  -0.00876  -0.00975   0.00000
 128        7PZ         0.00050   0.00324  -0.00975   0.00250   0.00000
 129        8D 0       -0.00002  -0.00011  -0.00008   0.00047   0.00000
 130        8D+1       -0.00000   0.00000  -0.00000  -0.00000   0.00054
 131        8D-1        0.00002   0.00072  -0.00108  -0.00028   0.00000
 132        8D+2        0.00001  -0.00064   0.00070   0.00071   0.00000
 133        8D-2       -0.00000   0.00000  -0.00000  -0.00000   0.00093
 134        9D 0        0.00004  -0.00042   0.00043   0.00115  -0.00000
 135        9D+1       -0.00000  -0.00000   0.00000   0.00000   0.00203
 136        9D-1       -0.00005   0.00138  -0.00349  -0.00141   0.00000
 137        9D+2       -0.00002  -0.00086   0.00207   0.00172  -0.00000
 138        9D-2       -0.00000  -0.00000   0.00000   0.00000   0.00352
 139       10F 0       -0.00004  -0.00010   0.00031   0.00017  -0.00000
 140       10F+1       -0.00000  -0.00000   0.00000  -0.00000   0.00001
 141       10F-1        0.00001   0.00002  -0.00011  -0.00004   0.00000
 142       10F+2       -0.00005  -0.00012   0.00052   0.00031  -0.00000
 143       10F-2       -0.00000  -0.00000   0.00000   0.00000   0.00043
 144       10F+3        0.00000   0.00000  -0.00000  -0.00000  -0.00042
 145       10F-3       -0.00002  -0.00007   0.00038   0.00022  -0.00000
                           6         7         8         9        10
                           V         V         V         V         V
     Eigenvalues --     0.12150   0.19101   0.19101   0.29264   0.29264
   1 1   C  1S         -0.04410  -0.00000   0.00000   0.00000  -0.00000
   2        2S          0.07705   0.00000   0.00000   0.00000   0.00000
   3        3S         -0.01418  -0.00000   0.00000   0.00000   0.00000
   4        4S          1.43268   0.00000   0.00000   0.00000  -0.00000
   5        5S          4.72943   0.00000   0.00000   0.00000  -0.00000
   6        6PX         0.00000   0.00000   0.00000  -0.00000   0.00000
   7        6PY         0.00000   0.00000  -0.05915   0.03523   0.00000
   8        6PZ         0.00000  -0.05915   0.00000   0.00000   0.03523
   9        7PX         0.00000   0.00000   0.00000   0.00000   0.00000
  10        7PY         0.00000   0.00000  -0.09561  -0.01602   0.00000
  11        7PZ         0.00000  -0.09561   0.00000   0.00000  -0.01602
  12        8PX         0.00000   0.00000  -0.00000  -0.00000   0.00000
  13        8PY         0.00000   0.00000  -0.44522  -2.42241   0.00000
  14        8PZ         0.00000  -0.44522   0.00000   0.00000  -2.42241
  15        9PX         0.00000   0.00000  -0.00000   0.00000   0.00000
  16        9PY         0.00000   0.00000  -1.99683  -3.70983   0.00000
  17        9PZ         0.00000  -1.99683   0.00000   0.00000  -3.70983
  18       10D 0       -0.00087  -0.00301   0.00000   0.00000   0.01602
  19       10D+1        0.00000   0.00000   0.00000  -0.00000   0.00000
  20       10D-1        0.00000   0.00000   0.00347  -0.01850   0.00000
  21       10D+2        0.00151  -0.00174   0.00000   0.00000   0.00925
  22       10D-2        0.00000   0.00000   0.00000   0.00000  -0.00000
  23       11D 0        0.01899   0.04007   0.00000   0.00000  -0.18382
  24       11D+1        0.00000   0.00000  -0.00000   0.00000   0.00000
  25       11D-1        0.00000   0.00000  -0.04627   0.21226   0.00000
  26       11D+2       -0.03289   0.02314   0.00000   0.00000  -0.10613
  27       11D-2       -0.00000  -0.00000   0.00000   0.00000   0.00000
  28       12D 0        0.18000  -0.11422   0.00000   0.00000  -1.18365
  29       12D+1        0.00000   0.00000   0.00000   0.00000   0.00000
  30       12D-1        0.00000   0.00000   0.13189   1.36676   0.00000
  31       12D+2       -0.31177  -0.06595   0.00000   0.00000  -0.68338
  32       12D-2        0.00000   0.00000   0.00000   0.00000   0.00000
  33       13F 0        0.00242   0.00261   0.00000   0.00000  -0.00070
  34       13F+1        0.00000   0.00000  -0.00000  -0.00000   0.00000
  35       13F-1        0.00000   0.00000   0.00107  -0.00029   0.00000
  36       13F+2        0.00188  -0.00338   0.00000   0.00000   0.00090
  37       13F-2        0.00000   0.00000   0.00000   0.00000  -0.00000
  38       13F+3        0.00000   0.00000   0.00000   0.00000   0.00000
  39       13F-3        0.00000   0.00000  -0.00413   0.00111   0.00000
  40       14F 0        0.02527  -0.00209   0.00000   0.00000  -0.09096
  41       14F+1        0.00000   0.00000  -0.00000  -0.00000   0.00000
  42       14F-1        0.00000   0.00000  -0.00085  -0.03713   0.00000
  43       14F+2        0.01957   0.00270   0.00000   0.00000   0.11743
  44       14F-2        0.00000   0.00000   0.00000   0.00000  -0.00000
  45       14F+3        0.00000   0.00000   0.00000   0.00000   0.00000
  46       14F-3        0.00000   0.00000   0.00331   0.14382   0.00000
  47       15G 0        0.00076   0.00121   0.00000   0.00000  -0.01907
  48       15G+1        0.00000   0.00000  -0.00000  -0.00000   0.00000
  49       15G-1        0.00000   0.00000  -0.00196  -0.00920   0.00000
  50       15G+2       -0.00114  -0.00221   0.00000   0.00000  -0.00299
  51       15G-2       -0.00000  -0.00000   0.00000   0.00000   0.00000
  52       15G+3        0.00000   0.00000  -0.00000  -0.00000   0.00000
  53       15G-3        0.00000   0.00000   0.00278  -0.01852   0.00000
  54       15G+4        0.00150  -0.00229   0.00000   0.00000   0.00741
  55       15G-4        0.00000   0.00000   0.00000   0.00000  -0.00000
  56 2   H  1S         -0.00060  -0.00599   0.00000   0.00000   0.02212
  57        2S         -0.00134   0.01575   0.00000   0.00000   0.07320
  58        3S         -0.89332   0.14798   0.00000   0.00000   4.33988
  59        4S         -1.64184   3.45102   0.00000   0.00000   2.06554
  60        5PX         0.00000   0.00000   0.00000  -0.00000   0.00000
  61        5PY         0.00000   0.00000   0.00142  -0.00354   0.00000
  62        5PZ        -0.00076  -0.00846   0.00000   0.00000   0.02299
  63        6PX         0.00000   0.00000   0.00000   0.00000   0.00000
  64        6PY         0.00000   0.00000  -0.01701   0.00098   0.00000
  65        6PZ        -0.00583   0.07869   0.00000   0.00000  -0.21725
  66        7PX         0.00000   0.00000   0.00000   0.00000   0.00000
  67        7PY         0.00000   0.00000   0.07787  -0.17595   0.00000
  68        7PZ         0.48318  -0.32993   0.00000   0.00000  -1.23220
  69        8D 0        0.00414  -0.00552   0.00000   0.00000   0.00128
  70        8D+1        0.00000   0.00000  -0.00000   0.00000   0.00000
  71        8D-1        0.00000   0.00000   0.00042  -0.00142   0.00000
  72        8D+2       -0.00205   0.00020   0.00000   0.00000  -0.00465
  73        8D-2        0.00000  -0.00000   0.00000   0.00000   0.00000
  74        9D 0       -0.04839   0.01277   0.00000   0.00000   0.14697
  75        9D+1        0.00000   0.00000  -0.00000  -0.00000   0.00000
  76        9D-1        0.00000   0.00000  -0.01292   0.00997   0.00000
  77        9D+2        0.01191  -0.00030   0.00000   0.00000   0.01789
  78        9D-2       -0.00000   0.00000   0.00000   0.00000   0.00000
  79       10F 0        0.00288   0.00176   0.00000   0.00000  -0.01376
  80       10F+1        0.00000   0.00000   0.00000   0.00000   0.00000
  81       10F-1        0.00000   0.00000   0.00351  -0.00317   0.00000
  82       10F+2       -0.00062   0.00022   0.00000   0.00000   0.00238
  83       10F-2       -0.00000  -0.00000   0.00000   0.00000  -0.00000
  84       10F+3        0.00000   0.00000  -0.00000  -0.00000   0.00000
  85       10F-3        0.00000   0.00000   0.00019  -0.00117   0.00000
  86 3   H  1S         -0.00060   0.00299  -0.00518   0.01915  -0.01106
  87        2S         -0.00134  -0.00787   0.01364   0.06340  -0.03660
  88        3S         -0.89332  -0.07399   0.12816   3.75845  -2.16994
  89        4S         -1.64184  -1.72551   2.98867   1.78881  -1.03277
  90        5PX        -0.00000   0.00000   0.00000  -0.00000   0.00000
  91        5PY        -0.00066   0.00428  -0.00599   0.01635  -0.01149
  92        5PZ         0.00038  -0.00105   0.00428  -0.01149   0.00309
  93        6PX         0.00000   0.00000  -0.00000   0.00000  -0.00000
  94        6PY        -0.00505  -0.04144   0.05477  -0.16269   0.09450
  95        6PZ         0.00292   0.00692  -0.04144   0.09450  -0.05358
  96        7PX        -0.00000   0.00000   0.00000   0.00000  -0.00000
  97        7PY         0.41845   0.17658  -0.22798  -0.96814   0.45737
  98        7PZ        -0.24159  -0.02408   0.17658   0.45737  -0.44002
  99        8D 0        0.00081  -0.00055   0.00032   0.00301  -0.00050
 100        8D+1       -0.00000  -0.00000  -0.00000  -0.00000  -0.00000
 101        8D-1       -0.00222  -0.00184   0.00362   0.00056  -0.00114
 102        8D+2       -0.00397  -0.00202   0.00313  -0.00293   0.00240
 103        8D-2        0.00000   0.00000   0.00000   0.00000   0.00000
 104        9D 0       -0.00168   0.00909   0.00363  -0.02971   0.00852
 105        9D+1        0.00000   0.00000   0.00000   0.00000  -0.00000
 106        9D-1        0.03114  -0.00087  -0.01141  -0.09968   0.06331
 107        9D+2        0.03887   0.00909  -0.00455  -0.07515   0.03840
 108        9D-2       -0.00000  -0.00000  -0.00000  -0.00000   0.00000
 109       10F 0        0.00081  -0.00015   0.00099  -0.00363   0.00230
 110       10F+1        0.00000  -0.00000   0.00000   0.00000  -0.00000
 111       10F-1        0.00049  -0.00291  -0.00145  -0.00028   0.00397
 112       10F+2        0.00205  -0.00106   0.00088  -0.00864   0.00472
 113       10F-2       -0.00000  -0.00000  -0.00000  -0.00000   0.00000
 114       10F+3       -0.00000  -0.00000  -0.00000  -0.00000   0.00000
 115       10F-3       -0.00189  -0.00066  -0.00126   0.00783  -0.00373
 116 4   H  1S         -0.00060   0.00299   0.00518  -0.01915  -0.01106
 117        2S         -0.00134  -0.00787  -0.01364  -0.06340  -0.03660
 118        3S         -0.89332  -0.07399  -0.12816  -3.75845  -2.16994
 119        4S         -1.64184  -1.72551  -2.98867  -1.78881  -1.03277
 120        5PX         0.00000  -0.00000   0.00000  -0.00000  -0.00000
 121        5PY         0.00066  -0.00428  -0.00599   0.01635   0.01149
 122        5PZ         0.00038  -0.00105  -0.00428   0.01149   0.00309
 123        6PX        -0.00000  -0.00000  -0.00000   0.00000   0.00000
 124        6PY         0.00505   0.04144   0.05477  -0.16269  -0.09450
 125        6PZ         0.00292   0.00692   0.04144  -0.09450  -0.05358
 126        7PX         0.00000  -0.00000   0.00000   0.00000   0.00000
 127        7PY        -0.41845  -0.17658  -0.22798  -0.96814  -0.45737
 128        7PZ        -0.24159  -0.02408  -0.17658  -0.45737  -0.44002
 129        8D 0        0.00081  -0.00055  -0.00032  -0.00301  -0.00050
 130        8D+1        0.00000   0.00000  -0.00000  -0.00000   0.00000
 131        8D-1        0.00222   0.00184   0.00362   0.00056   0.00114
 132        8D+2       -0.00397  -0.00202  -0.00313   0.00293   0.00240
 133        8D-2        0.00000   0.00000  -0.00000  -0.00000   0.00000
 134        9D 0       -0.00168   0.00909  -0.00363   0.02971   0.00852
 135        9D+1       -0.00000  -0.00000   0.00000   0.00000   0.00000
 136        9D-1       -0.03114   0.00087  -0.01141  -0.09968  -0.06331
 137        9D+2        0.03887   0.00909   0.00455   0.07515   0.03840
 138        9D-2       -0.00000  -0.00000   0.00000   0.00000   0.00000
 139       10F 0        0.00081  -0.00015  -0.00099   0.00363   0.00230
 140       10F+1       -0.00000   0.00000   0.00000   0.00000   0.00000
 141       10F-1       -0.00049   0.00291  -0.00145  -0.00028  -0.00397
 142       10F+2        0.00205  -0.00106  -0.00088   0.00864   0.00472
 143       10F-2       -0.00000  -0.00000   0.00000   0.00000   0.00000
 144       10F+3        0.00000   0.00000  -0.00000  -0.00000  -0.00000
 145       10F-3        0.00189   0.00066  -0.00126   0.00783   0.00373
                          11        12        13        14        15
                           V         V         V         V         V
     Eigenvalues --     0.32926   0.39661   0.47330   0.54397   0.54397
   1 1   C  1S          0.00000   0.00871   0.07945   0.00000   0.00000
   2        2S          0.00000   0.01188  -0.13425   0.00000  -0.00000
   3        3S          0.00000  -0.34779  -0.67069   0.00000  -0.00000
   4        4S          0.00000   3.17192   4.32202   0.00000   0.00000
   5        5S          0.00000   7.25981  10.39420   0.00000   0.00000
   6        6PX        -0.11844   0.00000   0.00000   0.00000   0.00000
   7        6PY         0.00000   0.00000   0.00000  -0.10795   0.00000
   8        6PZ         0.00000   0.00000  -0.00000   0.00000   0.10795
   9        7PX        -0.09550   0.00000   0.00000  -0.00000   0.00000
  10        7PY        -0.00000   0.00000   0.00000  -0.24457   0.00000
  11        7PZ         0.00000  -0.00000  -0.00000   0.00000   0.24457
  12        8PX        -0.91756   0.00000   0.00000   0.00000   0.00000
  13        8PY        -0.00000   0.00000   0.00000   2.23284   0.00000
  14        8PZ         0.00000   0.00000   0.00000   0.00000  -2.23284
  15        9PX         1.45679   0.00000   0.00000   0.00000   0.00000
  16        9PY         0.00000   0.00000   0.00000   3.57662   0.00000
  17        9PZ         0.00000   0.00000   0.00000   0.00000  -3.57662
  18       10D 0        0.00000  -0.01529   0.00003   0.00000  -0.01041
  19       10D+1       -0.00000   0.00000   0.00000  -0.00000   0.00000
  20       10D-1       -0.00000   0.00000   0.00000  -0.01202   0.00000
  21       10D+2        0.00000   0.02649  -0.00006   0.00000  -0.00601
  22       10D-2        0.00000   0.00000   0.00000   0.00000   0.00000
  23       11D 0        0.00000   0.12212   0.13474   0.00000  -0.09002
  24       11D+1       -0.00000   0.00000   0.00000  -0.00000   0.00000
  25       11D-1        0.00000   0.00000   0.00000  -0.10395   0.00000
  26       11D+2        0.00000  -0.21152  -0.23338   0.00000  -0.05198
  27       11D-2        0.00000   0.00000  -0.00000   0.00000   0.00000
  28       12D 0        0.00000   0.29090   0.72502   0.00000  -1.25555
  29       12D+1        0.00000   0.00000   0.00000  -0.00000   0.00000
  30       12D-1        0.00000   0.00000   0.00000  -1.44979   0.00000
  31       12D+2        0.00000  -0.50385  -1.25578   0.00000  -0.72489
  32       12D-2        0.00000   0.00000   0.00000   0.00000   0.00000
  33       13F 0        0.00000   0.01740   0.01610   0.00000   0.00288
  34       13F+1       -0.00624   0.00000   0.00000  -0.00000   0.00000
  35       13F-1       -0.00000   0.00000   0.00000  -0.00118   0.00000
  36       13F+2        0.00000   0.01348   0.01247   0.00000  -0.00372
  37       13F-2        0.00000   0.00000   0.00000   0.00000  -0.00000
  38       13F+3        0.00805   0.00000   0.00000  -0.00000   0.00000
  39       13F-3        0.00000   0.00000   0.00000   0.00455   0.00000
  40       14F 0        0.00000   0.15199   0.15643   0.00000  -0.07843
  41       14F+1       -0.01597   0.00000   0.00000   0.00000   0.00000
  42       14F-1       -0.00000   0.00000   0.00000   0.03202   0.00000
  43       14F+2        0.00000   0.11773   0.12117   0.00000   0.10125
  44       14F-2        0.00000  -0.00000   0.00000   0.00000  -0.00000
  45       14F+3        0.02062   0.00000   0.00000  -0.00000   0.00000
  46       14F-3        0.00000   0.00000   0.00000  -0.12400   0.00000
  47       15G 0        0.00000   0.00364   0.00435   0.00000  -0.01520
  48       15G+1       -0.01526   0.00000   0.00000   0.00000   0.00000
  49       15G-1       -0.00000   0.00000   0.00000   0.01545   0.00000
  50       15G+2        0.00000  -0.00542  -0.00649   0.00000  -0.01004
  51       15G-2        0.00000   0.00000  -0.00000   0.00000   0.00000
  52       15G+3       -0.01730   0.00000   0.00000   0.00000   0.00000
  53       15G-3       -0.00000   0.00000   0.00000   0.00964   0.00000
  54       15G+4        0.00000   0.00718   0.00859   0.00000   0.00012
  55       15G-4        0.00000  -0.00000   0.00000   0.00000  -0.00000
  56 2   H  1S          0.00000  -0.03192   0.03125   0.00000  -0.04633
  57        2S          0.00000  -0.01040   0.07938   0.00000  -0.00520
  58        3S          0.00000  -3.13781  -3.29212   0.00000   2.86658
  59        4S          0.00000  -0.99048  -2.22878   0.00000   3.66812
  60        5PX        -0.01316   0.00000   0.00000  -0.00000   0.00000
  61        5PY        -0.00000   0.00000   0.00000  -0.01316   0.00000
  62        5PZ         0.00000  -0.02352  -0.00228   0.00000  -0.01489
  63        6PX         0.06245   0.00000   0.00000   0.00000   0.00000
  64        6PY         0.00000   0.00000   0.00000   0.01619   0.00000
  65        6PZ         0.00000   0.17921   0.10197   0.00000  -0.02016
  66        7PX        -0.10479   0.00000   0.00000  -0.00000   0.00000
  67        7PY         0.00000   0.00000   0.00000  -0.25838   0.00000
  68        7PZ         0.00000   0.92648   1.77397   0.00000  -1.75153
  69        8D 0        0.00000   0.00102   0.00860   0.00000  -0.00852
  70        8D+1        0.00090   0.00000   0.00000  -0.00000   0.00000
  71        8D-1        0.00000   0.00000   0.00000   0.00116   0.00000
  72        8D+2        0.00000  -0.00343  -0.00618   0.00000  -0.00147
  73        8D-2        0.00000   0.00000   0.00000   0.00000   0.00000
  74        9D 0        0.00000  -0.14098  -0.18405   0.00000   0.11678
  75        9D+1       -0.03311   0.00000   0.00000   0.00000   0.00000
  76        9D-1       -0.00000   0.00000   0.00000   0.04579   0.00000
  77        9D+2        0.00000   0.01681   0.03169   0.00000   0.00199
  78        9D-2        0.00000  -0.00000  -0.00000   0.00000  -0.00000
  79       10F 0        0.00000   0.01330   0.01236   0.00000  -0.00282
  80       10F+1        0.00690   0.00000   0.00000  -0.00000   0.00000
  81       10F-1        0.00000   0.00000   0.00000  -0.00963   0.00000
  82       10F+2        0.00000   0.00006  -0.00105   0.00000   0.00216
  83       10F-2        0.00000   0.00000   0.00000   0.00000   0.00000
  84       10F+3        0.00066   0.00000   0.00000   0.00000   0.00000
  85       10F-3        0.00000   0.00000   0.00000   0.00050   0.00000
  86 3   H  1S         -0.00000  -0.03192   0.03125   0.04012   0.02316
  87        2S          0.00000  -0.01040   0.07938   0.00451   0.00260
  88        3S          0.00000  -3.13781  -3.29212  -2.48253  -1.43329
  89        4S         -0.00000  -0.99048  -2.22878  -3.17669  -1.83406
  90        5PX        -0.01316  -0.00000  -0.00000  -0.00000   0.00000
  91        5PY         0.00000  -0.02037  -0.00197   0.00788   0.01215
  92        5PZ        -0.00000   0.01176   0.00114  -0.01215   0.00615
  93        6PX         0.06245   0.00000   0.00000  -0.00000  -0.00000
  94        6PY        -0.00000   0.15520   0.08831   0.01917   0.00172
  95        6PZ         0.00000  -0.08961  -0.05099  -0.00172  -0.01719
  96        7PX        -0.10479  -0.00000  -0.00000  -0.00000   0.00000
  97        7PY        -0.00000   0.80235   1.53631   1.24905   0.87032
  98        7PZ         0.00000  -0.46324  -0.88699  -0.87032  -0.24410
  99        8D 0       -0.00000   0.00210   0.00294  -0.00218  -0.00025
 100        8D+1       -0.00045   0.00000   0.00000  -0.00000   0.00000
 101        8D-1       -0.00000   0.00072  -0.00377  -0.00579  -0.00402
 102        8D+2        0.00000  -0.00280  -0.00944  -0.00425  -0.00187
 103        8D-2        0.00078  -0.00000  -0.00000  -0.00000  -0.00000
 104        9D 0       -0.00000   0.00670   0.00243  -0.00341   0.03769
 105        9D+1        0.01655  -0.00000  -0.00000  -0.00000  -0.00000
 106        9D-1       -0.00000   0.09845   0.12432   0.08804   0.02440
 107        9D+2       -0.00000   0.10207   0.13935   0.05469   0.05447
 108        9D-2       -0.02867   0.00000  -0.00000   0.00000   0.00000
 109       10F 0       -0.00000   0.00586   0.00464  -0.00106   0.00116
 110       10F+1       -0.00005   0.00000   0.00000  -0.00000  -0.00000
 111       10F-1       -0.00000   0.00175   0.00182   0.00492  -0.00703
 112       10F+2       -0.00000   0.00967   0.00891   0.00265  -0.00076
 113       10F-2       -0.00507   0.00000  -0.00000   0.00000   0.00000
 114       10F+3       -0.00472   0.00000  -0.00000   0.00000   0.00000
 115       10F-3        0.00000  -0.00679  -0.00704  -0.00065  -0.00465
 116 4   H  1S          0.00000  -0.03192   0.03125  -0.04012   0.02316
 117        2S         -0.00000  -0.01040   0.07938  -0.00451   0.00260
 118        3S         -0.00000  -3.13781  -3.29212   2.48253  -1.43329
 119        4S          0.00000  -0.99048  -2.22878   3.17669  -1.83406
 120        5PX        -0.01316   0.00000   0.00000  -0.00000  -0.00000
 121        5PY         0.00000   0.02037   0.00197   0.00788  -0.01215
 122        5PZ         0.00000   0.01176   0.00114   0.01215   0.00615
 123        6PX         0.06245  -0.00000  -0.00000  -0.00000   0.00000
 124        6PY        -0.00000  -0.15520  -0.08831   0.01917  -0.00172
 125        6PZ        -0.00000  -0.08961  -0.05099   0.00172  -0.01719
 126        7PX        -0.10479   0.00000   0.00000  -0.00000  -0.00000
 127        7PY        -0.00000  -0.80235  -1.53631   1.24905  -0.87032
 128        7PZ        -0.00000  -0.46324  -0.88699   0.87032  -0.24410
 129        8D 0        0.00000   0.00210   0.00294   0.00218  -0.00025
 130        8D+1       -0.00045  -0.00000  -0.00000  -0.00000  -0.00000
 131        8D-1       -0.00000  -0.00072   0.00377  -0.00579   0.00402
 132        8D+2       -0.00000  -0.00280  -0.00944   0.00425  -0.00187
 133        8D-2       -0.00078  -0.00000  -0.00000   0.00000  -0.00000
 134        9D 0        0.00000   0.00670   0.00243   0.00341   0.03769
 135        9D+1        0.01655   0.00000   0.00000  -0.00000   0.00000
 136        9D-1       -0.00000  -0.09845  -0.12432   0.08804  -0.02440
 137        9D+2        0.00000   0.10207   0.13935  -0.05469   0.05447
 138        9D-2        0.02867   0.00000  -0.00000  -0.00000   0.00000
 139       10F 0        0.00000   0.00586   0.00464   0.00106   0.00116
 140       10F+1       -0.00005  -0.00000  -0.00000  -0.00000   0.00000
 141       10F-1       -0.00000  -0.00175  -0.00182   0.00492   0.00703
 142       10F+2        0.00000   0.00967   0.00891  -0.00265  -0.00076
 143       10F-2        0.00507   0.00000  -0.00000  -0.00000   0.00000
 144       10F+3       -0.00472  -0.00000   0.00000   0.00000  -0.00000
 145       10F-3        0.00000   0.00679   0.00704  -0.00065   0.00465
                          16        17        18        19        20
                           V         V         V         V         V
     Eigenvalues --     0.55986   0.55986   0.77707   0.77782   0.81510
   1 1   C  1S          0.00000  -0.00000   0.00000  -0.02780   0.00000
   2        2S          0.00000   0.00000   0.00000  -0.00525  -0.00000
   3        3S          0.00000  -0.00000   0.00000  -0.95623   0.00000
   4        4S          0.00000   0.00000   0.00000   3.41366  -0.00000
   5        5S          0.00000  -0.00000   0.00000   5.20645  -0.00000
   6        6PX         0.00000   0.00000   0.00000   0.00000   0.00000
   7        6PY        -0.00000   0.00000  -0.00000   0.00000   0.00000
   8        6PZ         0.00000  -0.00000   0.00000   0.00000  -0.08274
   9        7PX         0.00000   0.00000   0.00000   0.00000   0.00000
  10        7PY        -0.00000   0.00000  -0.00000   0.00000   0.00000
  11        7PZ         0.00000  -0.00000   0.00000  -0.00000  -0.00627
  12        8PX         0.00000   0.00000  -0.00000   0.00000   0.00000
  13        8PY        -0.00000   0.00000   0.00000   0.00000   0.00000
  14        8PZ         0.00000  -0.00000   0.00000   0.00000  -5.01773
  15        9PX        -0.00000   0.00000  -0.00000   0.00000   0.00000
  16        9PY        -0.00000   0.00000  -0.00000   0.00000   0.00000
  17        9PZ         0.00000   0.00000   0.00000   0.00000  -2.88843
  18       10D 0        0.00000   0.00000   0.00000  -0.00193   0.00836
  19       10D+1        0.04150   0.00000  -0.00000   0.00000   0.00000
  20       10D-1       -0.00000   0.00000   0.00000   0.00000   0.00000
  21       10D+2        0.00000   0.00000   0.00000   0.00334   0.00482
  22       10D-2        0.00000   0.04150   0.00000  -0.00000  -0.00000
  23       11D 0        0.00000  -0.00000   0.00000   0.11296  -0.26717
  24       11D+1       -0.07812   0.00000  -0.00000   0.00000   0.00000
  25       11D-1        0.00000   0.00000  -0.00000   0.00000   0.00000
  26       11D+2        0.00000  -0.00000   0.00000  -0.19565  -0.15425
  27       11D-2        0.00000  -0.07812   0.00000  -0.00000   0.00000
  28       12D 0        0.00000  -0.00000   0.00000   1.11094  -2.35170
  29       12D+1        0.67639   0.00000   0.00000   0.00000   0.00000
  30       12D-1        0.00000   0.00000  -0.00000   0.00000   0.00000
  31       12D+2        0.00000  -0.00000   0.00000  -1.92421  -1.35776
  32       12D-2        0.00000   0.67639   0.00000  -0.00000  -0.00000
  33       13F 0        0.00000   0.00000   0.00000  -0.00228  -0.00181
  34       13F+1        0.00153   0.00000  -0.00000   0.00000   0.00000
  35       13F-1       -0.00000   0.00000   0.01756   0.00000   0.00000
  36       13F+2        0.00000   0.00000   0.00000  -0.00177   0.00233
  37       13F-2        0.00000  -0.00194   0.00000   0.00000  -0.00000
  38       13F+3        0.00119   0.00000  -0.00000   0.00000   0.00000
  39       13F-3        0.00000   0.00000   0.00453   0.00000   0.00000
  40       14F 0        0.00000   0.00000   0.00000   0.52785  -0.20480
  41       14F+1       -0.00354   0.00000  -0.00000   0.00000   0.00000
  42       14F-1       -0.00000   0.00000  -0.93509   0.00000   0.00000
  43       14F+2        0.00000   0.00000   0.00000   0.40887   0.26439
  44       14F-2        0.00000   0.00447   0.00000   0.00000   0.00000
  45       14F+3       -0.00274   0.00000   0.00000   0.00000   0.00000
  46       14F-3        0.00000   0.00000  -0.24144   0.00000   0.00000
  47       15G 0        0.00000  -0.00000   0.00000   0.01795  -0.07181
  48       15G+1        0.00526   0.00000  -0.00000   0.00000   0.00000
  49       15G-1       -0.00000   0.00000   0.00000   0.00000   0.00000
  50       15G+2        0.00000  -0.00000   0.00000  -0.02676  -0.02277
  51       15G-2        0.00000   0.00248   0.00000  -0.00000  -0.00000
  52       15G+3       -0.00464   0.00000  -0.00000   0.00000   0.00000
  53       15G-3       -0.00000   0.00000  -0.00000   0.00000   0.00000
  54       15G+4        0.00000   0.00000   0.00000   0.03540   0.01920
  55       15G-4        0.00000  -0.00656   0.00000   0.00000  -0.00000
  56 2   H  1S          0.00000   0.00000   0.00000   0.01519  -0.01807
  57        2S          0.00000   0.00000   0.00000  -0.39971   0.21211
  58        3S          0.00000   0.00000   0.00000  -3.01025   6.76663
  59        4S          0.00000  -0.00000   0.00000  -0.42795   0.83973
  60        5PX         0.03533   0.00000  -0.00000   0.00000   0.00000
  61        5PY        -0.00000   0.00000  -0.00646   0.00000   0.00000
  62        5PZ         0.00000   0.00000   0.00000  -0.03038   0.05240
  63        6PX        -0.10864   0.00000   0.00000   0.00000   0.00000
  64        6PY         0.00000   0.00000   0.16478   0.00000   0.00000
  65        6PZ         0.00000  -0.00000   0.00000   0.34939  -0.46562
  66        7PX         0.42732   0.00000  -0.00000   0.00000   0.00000
  67        7PY        -0.00000   0.00000   1.26055   0.00000   0.00000
  68        7PZ         0.00000  -0.00000   0.00000   0.24997  -1.20784
  69        8D 0        0.00000   0.00000   0.00000  -0.01609   0.01840
  70        8D+1       -0.00557   0.00000  -0.00000   0.00000   0.00000
  71        8D-1        0.00000   0.00000   0.01107   0.00000   0.00000
  72        8D+2        0.00000  -0.00000   0.00000   0.00076  -0.00001
  73        8D-2        0.00000   0.00196   0.00000  -0.00000   0.00000
  74        9D 0        0.00000   0.00000   0.00000  -0.02478   0.10268
  75        9D+1        0.00858   0.00000  -0.00000   0.00000   0.00000
  76        9D-1       -0.00000   0.00000  -0.33023   0.00000   0.00000
  77        9D+2        0.00000   0.00000   0.00000  -0.03605  -0.01807
  78        9D-2        0.00000  -0.00660   0.00000  -0.00000  -0.00000
  79       10F 0        0.00000  -0.00000   0.00000  -0.00504   0.00307
  80       10F+1        0.01140   0.00000   0.00000   0.00000   0.00000
  81       10F-1        0.00000   0.00000   0.03690   0.00000   0.00000
  82       10F+2        0.00000   0.00000   0.00000   0.00969   0.00411
  83       10F-2        0.00000   0.00041   0.00000   0.00000  -0.00000
  84       10F+3        0.00064   0.00000   0.00000   0.00000   0.00000
  85       10F-3       -0.00000   0.00000   0.00677   0.00000   0.00000
  86 3   H  1S         -0.00000   0.00000   0.00000   0.01519   0.00904
  87        2S          0.00000  -0.00000   0.00000  -0.39971  -0.10605
  88        3S          0.00000  -0.00000  -0.00000  -3.01025  -3.38332
  89        4S          0.00000   0.00000  -0.00000  -0.42795  -0.41987
  90        5PX        -0.01766   0.03059   0.00000  -0.00000   0.00000
  91        5PY         0.00000  -0.00000   0.00323  -0.02631  -0.01196
  92        5PZ        -0.00000   0.00000   0.00559   0.01519   0.03168
  93        6PX         0.05432  -0.09409  -0.00000   0.00000  -0.00000
  94        6PY        -0.00000   0.00000  -0.08239   0.30258   0.17555
  95        6PZ         0.00000  -0.00000  -0.14271  -0.17469  -0.16156
  96        7PX        -0.21366   0.37007   0.00000   0.00000   0.00000
  97        7PY        -0.00000   0.00000  -0.63028   0.21648   0.70749
  98        7PZ         0.00000  -0.00000  -1.09167  -0.12499   0.01758
  99        8D 0        0.00000   0.00000   0.00830   0.00152   0.00160
 100        8D+1        0.00008   0.00326   0.00000   0.00000  -0.00000
 101        8D-1       -0.00000   0.00000  -0.00553   0.01174   0.00659
 102        8D+2       -0.00000   0.00000   0.00479   0.01093   0.00624
 103        8D-2        0.00326  -0.00369   0.00000   0.00000   0.00000
 104        9D 0       -0.00000   0.00000  -0.24767   0.02651   0.04117
 105        9D+1       -0.00280  -0.00657   0.00000   0.00000   0.00000
 106        9D-1       -0.00000   0.00000   0.16512   0.03419   0.00751
 107        9D+2       -0.00000   0.00000  -0.14299  -0.00644   0.06245
 108        9D-2       -0.00657   0.00478  -0.00000  -0.00000  -0.00000
 109       10F 0       -0.00000   0.00000  -0.00142   0.00484   0.00111
 110       10F+1       -0.00037   0.00007  -0.00000  -0.00000  -0.00000
 111       10F-1        0.00000   0.00000   0.03590  -0.00233  -0.01106
 112       10F+2       -0.00000   0.00000   0.00183  -0.00305  -0.00547
 113       10F-2        0.00425  -0.00695  -0.00000  -0.00000   0.00000
 114       10F+3        0.00381  -0.00703   0.00000  -0.00000   0.00000
 115       10F-3        0.00000  -0.00000   0.01065   0.00901  -0.00666
 116 4   H  1S          0.00000   0.00000  -0.00000   0.01519   0.00904
 117        2S         -0.00000  -0.00000  -0.00000  -0.39971  -0.10605
 118        3S         -0.00000  -0.00000   0.00000  -3.01025  -3.38332
 119        4S         -0.00000   0.00000   0.00000  -0.42795  -0.41987
 120        5PX        -0.01766  -0.03059   0.00000   0.00000  -0.00000
 121        5PY         0.00000   0.00000   0.00323   0.02631   0.01196
 122        5PZ         0.00000   0.00000  -0.00559   0.01519   0.03168
 123        6PX         0.05432   0.09409  -0.00000  -0.00000   0.00000
 124        6PY        -0.00000  -0.00000  -0.08239  -0.30258  -0.17555
 125        6PZ        -0.00000  -0.00000   0.14271  -0.17469  -0.16156
 126        7PX        -0.21366  -0.37007   0.00000  -0.00000  -0.00000
 127        7PY        -0.00000  -0.00000  -0.63028  -0.21648  -0.70749
 128        7PZ        -0.00000  -0.00000   1.09167  -0.12499   0.01758
 129        8D 0       -0.00000   0.00000  -0.00830   0.00152   0.00160
 130        8D+1        0.00008  -0.00326   0.00000  -0.00000   0.00000
 131        8D-1       -0.00000  -0.00000  -0.00553  -0.01174  -0.00659
 132        8D+2        0.00000   0.00000  -0.00479   0.01093   0.00624
 133        8D-2       -0.00326  -0.00369  -0.00000   0.00000   0.00000
 134        9D 0        0.00000   0.00000   0.24767   0.02651   0.04117
 135        9D+1       -0.00280   0.00657   0.00000  -0.00000  -0.00000
 136        9D-1       -0.00000  -0.00000   0.16512  -0.03419  -0.00751
 137        9D+2        0.00000   0.00000   0.14299  -0.00644   0.06245
 138        9D-2        0.00657   0.00478   0.00000  -0.00000  -0.00000
 139       10F 0        0.00000   0.00000   0.00142   0.00484   0.00111
 140       10F+1       -0.00037  -0.00007  -0.00000   0.00000   0.00000
 141       10F-1        0.00000  -0.00000   0.03590   0.00233   0.01106
 142       10F+2        0.00000   0.00000  -0.00183  -0.00305  -0.00547
 143       10F-2       -0.00425  -0.00695   0.00000  -0.00000   0.00000
 144       10F+3        0.00381   0.00703   0.00000   0.00000  -0.00000
 145       10F-3        0.00000   0.00000   0.01065  -0.00901   0.00666
                          21        22        23        24        25
                           V         V         V         V         V
     Eigenvalues --     0.81510   0.88144   0.92422   0.92422   1.09098
   1 1   C  1S          0.00000   0.00000  -0.00000   0.00000   0.00000
   2        2S          0.00000   0.00000   0.00000   0.00000  -0.00000
   3        3S          0.00000   0.00000  -0.00000   0.00000   0.00000
   4        4S          0.00000   0.00000   0.00000   0.00000  -0.00000
   5        5S          0.00000   0.00000   0.00000   0.00000  -0.00000
   6        6PX        -0.00000   0.05865   0.00000  -0.00000   0.00000
   7        6PY        -0.08274  -0.00000   0.00000  -0.00000   0.00000
   8        6PZ         0.00000   0.00000  -0.00000   0.00000  -0.05482
   9        7PX         0.00000   0.07409   0.00000   0.00000   0.00000
  10        7PY        -0.00627   0.00000   0.00000   0.00000   0.00000
  11        7PZ         0.00000   0.00000   0.00000   0.00000  -0.24832
  12        8PX        -0.00000   1.55451   0.00000   0.00000   0.00000
  13        8PY        -5.01773   0.00000   0.00000   0.00000   0.00000
  14        8PZ         0.00000   0.00000   0.00000   0.00000  -9.04045
  15        9PX        -0.00000   0.90672   0.00000   0.00000   0.00000
  16        9PY        -2.88843  -0.00000   0.00000   0.00000   0.00000
  17        9PZ         0.00000   0.00000  -0.00000   0.00000  -2.11502
  18       10D 0        0.00000   0.00000  -0.00000   0.00000   0.03317
  19       10D+1        0.00000   0.00000   0.00000  -0.00107   0.00000
  20       10D-1       -0.00965   0.00000   0.00000   0.00000   0.00000
  21       10D+2        0.00000   0.00000   0.00000   0.00000   0.01915
  22       10D-2        0.00000   0.00000   0.00107   0.00000  -0.00000
  23       11D 0        0.00000   0.00000   0.00000   0.00000  -0.66866
  24       11D+1        0.00000   0.00000   0.00000  -0.15351   0.00000
  25       11D-1        0.30850  -0.00000   0.00000  -0.00000   0.00000
  26       11D+2        0.00000   0.00000  -0.00000   0.00000  -0.38605
  27       11D-2        0.00000   0.00000   0.15351   0.00000   0.00000
  28       12D 0        0.00000   0.00000   0.00000   0.00000  -4.85440
  29       12D+1        0.00000   0.00000   0.00000  -2.23531   0.00000
  30       12D-1        2.71551  -0.00000   0.00000  -0.00000   0.00000
  31       12D+2        0.00000   0.00000  -0.00000   0.00000  -2.80269
  32       12D-2        0.00000   0.00000   2.23531   0.00000   0.00000
  33       13F 0        0.00000   0.00000   0.00000   0.00000  -0.01354
  34       13F+1       -0.00000  -0.00374   0.00000   0.00853   0.00000
  35       13F-1       -0.00074   0.00000   0.00000   0.00000   0.00000
  36       13F+2        0.00000   0.00000   0.00000   0.00000   0.01748
  37       13F-2        0.00000   0.00000   0.01079   0.00000  -0.00000
  38       13F+3       -0.00000   0.00483   0.00000   0.00661   0.00000
[...]
  10         (E')--V           0.292182          0.404981
  11         (A2")--V          0.329056          0.706153
  12         (A1')--V          0.397719          0.599579
  13         (A1')--V          0.480211          1.178781
  14         (E')--V           0.550779          1.114212
  15         (E')--V           0.550779          1.114212
  16         (E")--V           0.562044          0.744021
  17         (E")--V           0.562044          0.744021
  18         (A1')--V          0.779347          0.909044
  19         (A2')--V          0.779846          0.860837
  20         (E')--V           0.816488          1.130987
  21         (E')--V           0.816488          1.130987
  22         (A2")--V          0.885241          1.048251
  23         (E")--V           0.924828          0.985661
  24         (E")--V           0.924828          0.985661
  25         (E')--V           1.097023          1.270750
  26         (E')--V           1.097023          1.270750
  27         (A1')--V          1.172504          1.934549
  28         (E')--V           1.186845          1.543481
  29         (E')--V           1.186845          1.543481
  30         (A1')--V          1.412363          2.006346
  31         (A2")--V          1.506526          2.702889
  32         (E')--V           1.535659          1.987509
  33         (E')--V           1.535659          1.987509
  34         (E')--V           1.811589          2.710339
  35         (E')--V           1.811589          2.710339
  36         (E")--V           1.913153          2.448723
  37         (E")--V           1.913153          2.448723
  38         (A2')--V          1.965092          2.226478
  39         (A1')--V          1.994456          2.407897
  40         (E')--V           2.059381          2.392277
  41         (E')--V           2.059381          2.392277
  42         (E")--V           2.104658          2.312243
  43         (E")--V           2.104658          2.312243
  44         (A2")--V          2.111549          2.340942
  45         (A1")--V          2.258406          2.387541
  46         (A1')--V          2.296562          3.091567
  47         (E")--V           2.533796          2.729158
  48         (E")--V           2.533796          2.729158
  49         (E')--V           2.546063          2.948270
  50         (E')--V           2.546063          2.948270
  51         (A2")--V          2.665851          2.875422
  52         (A1')--V          2.695402          3.858886
  53         (E')--V           2.744757          3.026100
  54         (E')--V           2.744757          3.026100
  55         (E')--V           2.780878          2.997159
  56         (E')--V           2.780878          2.997159
  57         (A2')--V          2.951811          3.154221
  58         (E")--V           3.057894          3.205206
  59         (E")--V           3.057894          3.205206
  60         (A1')--V          3.097753          3.407737
  61         (A2")--V          3.268719          3.812256
  62         (E')--V           3.282101          3.659781
  63         (E')--V           3.282101          3.659781
  64         (E")--V           3.688611          4.080971
  65         (E")--V           3.688611          4.080971
  66         (E')--V           3.689950          4.580397
  67         (E')--V           3.689950          4.580397
  68         (A1')--V          3.890201          4.675365
  69         (A1')--V          3.920005          5.146771
  70         (E')--V           4.081112          4.741311
  71         (E')--V           4.081112          4.741311
  72         (A2')--V          4.321258          4.598453
  73         (E')--V           5.299959          6.153654
  74         (E')--V           5.299959          6.153654
  75         (A2")--V          5.330684          7.533893
  76         (A1')--V          5.495018          6.116846
  77         (A1")--V          5.533656          5.967340
  78         (E")--V           5.603111          6.392872
  79         (E")--V           5.603111          6.392872
  80         (E")--V           5.866382          6.570781
  81         (E")--V           5.866382          6.570781
  82         (A2')--V          5.956843          6.663940
  83         (E')--V           5.971143          7.589116
  84         (E')--V           5.971143          7.589116
  85         (A2")--V          6.132473          7.508254
  86         (E')--V           6.213269          7.124439
  87         (E')--V           6.213269          7.124439
  88         (A2')--V          6.272765          6.548226
  89         (A2")--V          6.287345          7.458348
  90         (E")--V           6.291015          6.673117
  91         (E")--V           6.291015          6.673117
  92         (E')--V           6.403775          7.038688
  93         (E')--V           6.403775          7.038688
  94         (A1')--V          6.639449          7.855281
  95         (A1')--V          6.748024          7.962031
  96         (E')--V           6.850463          8.001506
  97         (E')--V           6.850463          8.001506
  98         (A2")--V          6.856734          7.762541
  99         (E')--V           7.031686          8.425094
 100         (E')--V           7.031686          8.425094
 101         (E")--V           7.104319          8.530015
 102         (E")--V           7.104319          8.530015
 103         (E')--V           7.505120          8.131741
 104         (E')--V           7.505120          8.131741
 105         (E")--V           7.548744          7.914925
 106         (E")--V           7.548744          7.914925
 107         (A1")--V          7.812091          8.175902
 108         (E')--V           7.870885          8.617823
 109         (E')--V           7.870885          8.617823
 110         (A1')--V          7.881392          8.653846
 111         (A2")--V          7.883811          8.702042
 112         (E")--V           7.903247          8.697155
 113         (E")--V           7.903247          8.697155
 114         (E')--V           8.053406          8.804194
 115         (E')--V           8.053406          8.804194
 116         (A1')--V          8.394958          8.894575
 117         (A2')--V          8.452182          8.901108
 118         (A1')--V          8.537913          9.033245
 119         (E')--V           8.567332          9.166827
 120         (E')--V           8.567332          9.166827
 121         (E")--V           8.590606          9.079758
 122         (E")--V           8.590606          9.079758
 123         (E")--V           8.800401          9.364963
 124         (E")--V           8.800401          9.364963
 125         (E')--V           8.882274         10.596670
 126         (E')--V           8.882274         10.596670
 127         (A2")--V          9.124731          9.949656
 128         (A1')--V          9.202264         10.798963
 129         (A1")--V          9.277895          9.764839
 130         (A2')--V          9.437001         10.242757
 131         (E')--V           9.606454         10.477835
 132         (E')--V           9.606454         10.477835
 133         (E')--V          10.263449         11.354098
 134         (E')--V          10.263449         11.354098
 135         (E")--V          10.331279         11.082921
 136         (E")--V          10.331279         11.082921
 137         (A1')--V         10.403864         12.429398
 138         (A2")--V         10.440864         11.912699
 139         (A2')--V         10.844677         11.760954
 140         (A1')--V         10.880685         14.023490
 141         (E')--V          11.575039         12.776922
 142         (E')--V          11.575039         12.776922
 143         (E')--V          12.959982         16.049176
 144         (E')--V          12.959982         16.049176
 145         (A1')--V         25.902202         56.316674
 Orbital energies and kinetic energies (beta):
                                 1                 2
   1         (A1')--O        -11.207514         16.043463
   2         (A1')--O         -0.860278          1.211027
   3         (E')--O          -0.569262          0.964034
   4         (E')--O          -0.569262          0.964034
   5         (A2")--V          0.109387          0.515496
   6         (A1')--V          0.129907          0.315629
   7         (E')--V           0.195257          0.336185
   8         (E')--V           0.195257          0.336185
   9         (E')--V           0.294309          0.401276
  10         (E')--V           0.294309          0.401276
  11         (A1')--V          0.431829          0.541169
  12         (A2")--V          0.437016          1.085430
  13         (A1')--V          0.509978          1.263333
  14         (E')--V           0.557917          1.116101
  15         (E')--V           0.557917          1.116101
  16         (E")--V           0.602454          0.734757
  17         (E")--V           0.602454          0.734757
  18         (A2')--V          0.777952          0.861221
  19         (A1')--V          0.803420          0.884005
  20         (E')--V           0.821826          1.142644
  21         (E')--V           0.821826          1.142644
  22         (A2")--V          0.904036          1.078274
  23         (E")--V           0.935988          0.984080
  24         (E")--V           0.935988          0.984080
  25         (E')--V           1.100108          1.263087
  26         (E')--V           1.100108          1.263087
  27         (A1')--V          1.190893          1.967439
  28         (E')--V           1.192267          1.563607
  29         (E')--V           1.192267          1.563607
  30         (A1')--V          1.420865          2.016748
  31         (E')--V           1.545308          1.993988
  32         (E')--V           1.545308          1.993988
  33         (A2")--V          1.597907          2.833961
  34         (E')--V           1.825719          2.706960
  35         (E')--V           1.825719          2.706960
  36         (A2')--V          1.964710          2.226241
  37         (E")--V           1.964897          2.446347
  38         (E")--V           1.964897          2.446347
  39         (A1')--V          2.041037          2.388449
  40         (E')--V           2.078285          2.385162
  41         (E')--V           2.078285          2.385162
  42         (E")--V           2.124278          2.311908
  43         (E")--V           2.124278          2.311908
  44         (A2")--V          2.142254          2.341808
  45         (A1")--V          2.262666          2.387389
  46         (A1')--V          2.315406          3.062304
  47         (E")--V           2.539390          2.729822
  48         (E")--V           2.539390          2.729822
  49         (E')--V           2.546218          2.953045
  50         (E')--V           2.546218          2.953045
  51         (A2")--V          2.669646          2.874188
  52         (A1')--V          2.709239          3.873914
  53         (E')--V           2.749327          3.025551
  54         (E')--V           2.749327          3.025551
  55         (E')--V           2.783982          2.997860
  56         (E')--V           2.783982          2.997860
  57         (A2')--V          2.952412          3.154687
  58         (E")--V           3.065843          3.205513
  59         (E")--V           3.065843          3.205513
  60         (A1')--V          3.101744          3.416702
  61         (A2")--V          3.284742          3.822156
  62         (E')--V           3.287070          3.659413
  63         (E')--V           3.287070          3.659413
  64         (E')--V           3.693156          4.585772
  65         (E')--V           3.693156          4.585772
  66         (E")--V           3.712038          4.086182
  67         (E")--V           3.712038          4.086182
  68         (A1')--V          3.899175          4.830933
  69         (A1')--V          3.948922          5.030248
  70         (E')--V           4.087046          4.746384
  71         (E')--V           4.087046          4.746384
  72         (A2')--V          4.323320          4.597844
  73         (E')--V           5.317442          6.145874
  74         (E')--V           5.317442          6.145874
  75         (A2")--V          5.363760          7.488895
  76         (A1')--V          5.522584          6.113941
  77         (A1")--V          5.545829          5.967005
  78         (E")--V           5.628860          6.378574
  79         (E")--V           5.628860          6.378574
  80         (E")--V           5.886640          6.567348
  81         (E")--V           5.886640          6.567348
  82         (A2')--V          5.961210          6.663039
  83         (E')--V           5.977369          7.556871
  84         (E')--V           5.977369          7.556871
  85         (A2")--V          6.177657          7.433221
  86         (E')--V           6.241828          7.135314
  87         (E')--V           6.241828          7.135314
  88         (A2')--V          6.273093          6.548685
  89         (E")--V           6.296859          6.679274
  90         (E")--V           6.296859          6.679274
  91         (A2")--V          6.301136          7.549036
  92         (E')--V           6.409596          7.054453
  93         (E')--V           6.409596          7.054453
  94         (A1')--V          6.663618          7.874578
  95         (A1')--V          6.756065          7.946128
  96         (E')--V           6.857791          8.006369
  97         (E')--V           6.857791          8.006369
  98         (A2")--V          6.869138          7.807895
  99         (E')--V           7.034952          8.417998
 100         (E')--V           7.034952          8.417998
 101         (E")--V           7.134920          8.536278
 102         (E")--V           7.134920          8.536278
 103         (E')--V           7.510224          8.138336
 104         (E')--V           7.510224          8.138336
 105         (E")--V           7.552362          7.916918
 106         (E")--V           7.552362          7.916918
 107         (A1")--V          7.811861          8.176401
 108         (E')--V           7.868558          8.617829
 109         (E')--V           7.868558          8.617829
 110         (A2")--V          7.884258          8.704469
 111         (A1')--V          7.884883          8.653001
 112         (E")--V           7.909608          8.705344
 113         (E")--V           7.909608          8.705344
 114         (E')--V           8.056888          8.799750
 115         (E')--V           8.056888          8.799750
 116         (A1')--V          8.397634          8.895593
 117         (A2')--V          8.451402          8.900929
 118         (A1')--V          8.537527          9.030390
 119         (E')--V           8.566675          9.165999
 120         (E')--V           8.566675          9.165999
 121         (E")--V           8.589856          9.081223
 122         (E")--V           8.589856          9.081223
 123         (E")--V           8.801280          9.364615
 124         (E")--V           8.801280          9.364615
 125         (E')--V           8.883497         10.601111
 126         (E')--V           8.883497         10.601111
 127         (A2")--V          9.128016          9.952449
 128         (A1')--V          9.209699         10.807295
 129         (A1")--V          9.283032          9.764827
 130         (A2')--V          9.434758         10.242565
 131         (E')--V           9.606548         10.478519
 132         (E')--V           9.606548         10.478519
 133         (E')--V          10.264803         11.356899
 134         (E')--V          10.264803         11.356899
 135         (E")--V          10.339441         11.084308
 136         (E")--V          10.339441         11.084308
 137         (A1')--V         10.404958         12.433719
 138         (A2")--V         10.453730         11.924027
 139         (A2')--V         10.847723         11.761762
 140         (A1')--V         10.885331         14.015199
 141         (E')--V          11.575737         12.777118
 142         (E')--V          11.575737         12.777118
 143         (E')--V          12.961515         16.051328
 144         (E')--V          12.961515         16.051328
 145         (A1')--V         25.915935         56.315423
 Total kinetic energy from orbitals= 3.957943225816D+01
  Exact polarizability:  13.937   0.000  13.937  -0.000  -0.000  11.828
 Approx polarizability:  11.259  -0.000  11.259  -0.000  -0.000   9.708
                          Isotropic Fermi Contact Couplings
        Atom                 a.u.       MegaHertz       Gauss      10(-4) cm-1
     1  C(13)              0.12124     136.30068      48.63547      45.46501
     2  H(1)              -0.02570    -114.87878     -40.99160     -38.31943
     3  H(1)              -0.02570    -114.87878     -40.99160     -38.31943
     4  H(1)              -0.02570    -114.87878     -40.99160     -38.31943
 --------------------------------------------------------
       Center         ----  Spin Dipole Couplings  ----
                      3XX-RR        3YY-RR        3ZZ-RR
 --------------------------------------------------------
     1   Atom       -0.560227     -0.560227      1.120454
     2   Atom       -0.084946      0.081092      0.003854
     3   Atom        0.039583     -0.043437      0.003854
     4   Atom        0.039583     -0.043437      0.003854
 --------------------------------------------------------
                        XY            XZ            YZ
 --------------------------------------------------------
     1   Atom        0.000000      0.000000      0.000000
     2   Atom       -0.000000      0.000000      0.000000
     3   Atom       -0.071897      0.000000     -0.000000
     4   Atom        0.071897      0.000000      0.000000
 --------------------------------------------------------


 ---------------------------------------------------------------------------------
              Anisotropic Spin Dipole Couplings in Principal Axis System
 ---------------------------------------------------------------------------------

       Atom             a.u.   MegaHertz   Gauss  10(-4) cm-1        Axes

              Baa    -0.5602   -75.177   -26.825   -25.076  0.7947 -0.6071 -0.0000
     1 C(13)  Bbb    -0.5602   -75.177   -26.825   -25.076  0.6071  0.7947 -0.0000
              Bcc     1.1205   150.354    53.650    50.153  0.0000  0.0000  1.0000
 
              Baa    -0.0849   -45.323   -16.172   -15.118  1.0000 -0.0000 -0.0000
     2 H(1)   Bbb     0.0039     2.056     0.734     0.686  0.0000  0.0000  1.0000
              Bcc     0.0811    43.267    15.439    14.432 -0.0000  1.0000 -0.0000
 
              Baa    -0.0849   -45.323   -16.172   -15.118  0.5000  0.8660  0.0000
     3 H(1)   Bbb     0.0039     2.056     0.734     0.686  0.0000  0.0000  1.0000
              Bcc     0.0811    43.267    15.439    14.432  0.8660 -0.5000 -0.0000
 
              Baa    -0.0849   -45.323   -16.172   -15.118 -0.5000  0.8660  0.0000
     4 H(1)   Bbb     0.0039     2.056     0.734     0.686  0.0000  0.0000  1.0000
              Bcc     0.0811    43.267    15.439    14.432  0.8660  0.5000 -0.0000
 

 ---------------------------------------------------------------------------------

 No NMR shielding tensors so no spin-rotation constants.
 Leave Link  601 at Sun Aug 18 14:08:55 2024, MaxMem=   13107200 cpu:       1.2
 (Enter /programs/64bit/g09/g09-gfortran/bin/l701.exe)
 Compute integral second derivatives.
 ... and contract with generalized density number  0.
 Insufficient memory in PRISM at phase 22 IEnd=     9338601 limit=     7380120.
 Error termination via Lnk1e in /programs/64bit/g09/g09-gfortran/bin/l701.exe at Sun Aug 18 14:08:55 2024.
 Job cpu time:  0 days  0 hours  7 minutes 48.9 seconds.
 File lengths (MBytes):  RWF=     26 Int=      0 D2E=      0 Chk=      3 Scr=      1
