 Entering Gaussian System, Link 0=/programs/64bit/g09/g09-gfortran/bin/g09
 Input=h2o.com
 Output=h2o.log
 Initial command:
 /programs/64bit/g09/g09-gfortran/bin/l1.exe /home/ospite/Desktop/MMfP/Project3/H2O/Gau-3603.inp -scrdir=/home/ospite/Desktop/MMfP/Project3/H2O/
 Entering Link 1 = /programs/64bit/g09/g09-gfortran/bin/l1.exe PID=      3604.
  
 Copyright (c) 1988,1990,1992,1993,1995,1998,2003,2009, Gaussian, Inc.
                  All Rights Reserved.
  
 This is part of the Gaussian(R) 09 program.  It is based on
 the Gaussian(R) 03 system (copyright 2003, Gaussian, Inc.),
 the Gaussian(R) 98 system (copyright 1998, Gaussian, Inc.),
 the Gaussian(R) 94 system (copyright 1995, Gaussian, Inc.),
 the Gaussian 92(TM) system (copyright 1992, Gaussian, Inc.),
 the Gaussian 90(TM) system (copyright 1990, Gaussian, Inc.),
 the Gaussian 88(TM) system (copyright 1988, Gaussian, Inc.),
 the Gaussian 86(TM) system (copyright 1986, Carnegie Mellon
 University), and the Gaussian 82(TM) system (copyright 1983,
 Carnegie Mellon University). Gaussian is a federally registered
 trademark of Gaussian, Inc.
  
 This software contains proprietary and confidential information,
 including trade secrets, belonging to Gaussian, Inc.
  
 This software is provided under written license and may be
 used, copied, transmitted, or stored only in accord with that
 written license.
  
 The following legend is applicable only to US Government
 contracts under FAR:
  
                    RESTRICTED RIGHTS LEGEND
  
 Use, reproduction and disclosure by the US Government is
 subject to restrictions as set forth in subparagraphs (a)
 and (c) of the Commercial Computer Software - Restricted
 Rights clause in FAR 52.227-19.
  
 Gaussian, Inc.
 340 Quinnipiac St., Bldg. 40, Wallingford CT 06492
  
  
 ---------------------------------------------------------------
 Warning -- This program may not be used in any manner that
 competes with the business of Gaussian, Inc. or will provide
 assistance to any competitor of Gaussian, Inc.  The licensee
 of this program is prohibited from giving any competitor of
 Gaussian, Inc. access to this program.  By using this program,
 the user acknowledges that Gaussian, Inc. is engaged in the
 business of creating and licensing software in the field of
 computational chemistry and represents and warrants to the
 licensee that it is not a competitor of Gaussian, Inc. and that
 it will not use this program in any manner prohibited above.
 ---------------------------------------------------------------
  

 Cite this work as:
 Gaussian 09, Revision A.02,
 M. J. Frisch, G. W. Trucks, H. B. Schlegel, G. E. Scuseria, 
 M. A. Robb, J. R. Cheeseman, G. Scalmani, V. Barone, B. Mennucci, 
 G. A. Petersson, H. Nakatsuji, M. Caricato, X. Li, H. P. Hratchian, 
 A. F. Izmaylov, J. Bloino, G. Zheng, J. L. Sonnenberg, M. Hada, 
 M. Ehara, K. Toyota, R. Fukuda, J. Hasegawa, M. Ishida, T. Nakajima, 
 Y. Honda, O. Kitao, H. Nakai, T. Vreven, J. A. Montgomery, Jr., 
 J. E. Peralta, F. Ogliaro, M. Bearpark, J. J. Heyd, E. Brothers, 
 K. N. Kudin, V. N. Staroverov, R. Kobayashi, J. Normand, 
 K. Raghavachari, A. Rendell, J. C. Burant, S. S. Iyengar, J. Tomasi, 
 M. Cossi, N. Rega, J. M. Millam, M. Klene, J. E. Knox, J. B. Cross, 
 V. Bakken, C. Adamo, J. Jaramillo, R. Gomperts, R. E. Stratmann, 
 O. Yazyev, A. J. Austin, R. Cammi, C. Pomelli, J. W. Ochterski, 
 R. L. Martin, K. Morokuma, V. G. Zakrzewski, G. A. Voth, 
 P. Salvador, J. J. Dannenberg, S. Dapprich, A. D. Daniels, 
 O. Farkas, J. B. Foresman, J. V. Ortiz, J. Cioslowski, 
 and D. J. Fox, Gaussian, Inc., Wallingford CT, 2009.
 
 ******************************************
 Gaussian 09:  EM64L-G09RevA.02 11-Jun-2009
                13-Aug-2024 
 ******************************************
 ----------------------------------------------
 #p B3LYP/6-31+g(d,p) opt freq pop=full gfinput
 ----------------------------------------------
 1/14=-1,18=20,19=15,26=3,38=1/1,3;
 2/9=110,12=2,17=6,18=5,40=1/2;
 3/5=1,6=6,7=111,11=2,16=1,24=10,25=1,30=1,71=1,74=-5/1,2,3;
 4//1;
 5/5=2,38=5/2;
 6/7=3,28=1/1;
 7//1,2,3,16;
 1/14=-1,18=20,19=15/3(2);
 2/9=110/2;
 99//99;
 2/9=110/2;
 3/5=1,6=6,7=111,11=2,16=1,25=1,30=1,71=1,74=-5/1,2,3;
 4/5=5,16=3/1;
 5/5=2,38=5/2;
 7//1,2,3,16;
 1/14=-1,18=20,19=15/3(-5);
 2/9=110/2;
 6/7=3,19=2,28=1/1;
 99/9=1/99;
 Leave Link    1 at Tue Aug 13 20:54:17 2024, MaxMem=          0 cpu:       0.1
 (Enter /programs/64bit/g09/g09-gfortran/bin/l101.exe)
 -----
 water
 -----
 Symbolic Z-matrix:
 Charge =  0 Multiplicity = 1
 O1
 H2                   1    d
 H3                   1    d        2    a
       Variables:
  d                     0.958                    
  a                   104.5                      
 
 NAtoms=      3 NQM=      3 NQMF=      0 NMic=      0 NMicF=      0 NTot=      3.
                    Isotopes and Nuclear Properties:
 (Nuclear quadrupole moments (NQMom) in fm**2, nuclear magnetic moments (NMagM)
  in nuclear magnetons)

  Atom         1           2           3
 IAtWgt=          16           1           1
 AtmWgt=  15.9949146   1.0078250   1.0078250
 NucSpn=           0           1           1
 AtZEff=   0.0000000   0.0000000   0.0000000
 NQMom=    0.0000000   0.0000000   0.0000000
 NMagM=    0.0000000   2.7928460   2.7928460
 Leave Link  101 at Tue Aug 13 20:54:17 2024, MaxMem=   33554432 cpu:       0.1
 (Enter /programs/64bit/g09/g09-gfortran/bin/l103.exe)

 GradGradGradGradGradGradGradGradGradGradGradGradGradGradGradGradGradGrad
 Berny optimization.
 Initialization pass.
                           ----------------------------
                           !    Initial Parameters    !
                           ! (Angstroms and Degrees)  !
 --------------------------                            --------------------------
 ! Name  Definition              Value          Derivative Info.                !
 --------------------------------------------------------------------------------
 ! R1    R(1,2)                  0.958          estimate D2E/DX2                !
 ! R2    R(1,3)                  0.958          estimate D2E/DX2                !
 ! A1    A(2,1,3)              104.5            estimate D2E/DX2                !
 --------------------------------------------------------------------------------
 Trust Radius=3.00D-01 FncErr=1.00D-07 GrdErr=1.00D-06
 Number of steps in this run=  20 maximum allowed number of steps= 100.
 GradGradGradGradGradGradGradGradGradGradGradGradGradGradGradGradGradGrad

 Leave Link  103 at Tue Aug 13 20:54:17 2024, MaxMem=   33554432 cpu:       0.0
 (Enter /programs/64bit/g09/g09-gfortran/bin/l202.exe)
                          Input orientation:                          
 ---------------------------------------------------------------------
 Center     Atomic      Atomic             Coordinates (Angstroms)
 Number     Number       Type             X           Y           Z
 ---------------------------------------------------------------------
      1          8           0        0.000000    0.000000    0.000000
      2          1           0        0.000000    0.000000    0.958000
      3          1           0        0.927485    0.000000   -0.239864
 ---------------------------------------------------------------------
                    Distance matrix (angstroms):
                    1          2          3
     1  O    0.000000
     2  H    0.958000   0.000000
     3  H    0.958000   1.514961   0.000000
 Stoichiometry    H2O
 Framework group  C2V[C2(O),SGV(H2)]
 Deg. of freedom     2
 Full point group                 C2V     NOp   4
 Largest Abelian subgroup         C2V     NOp   4
 Largest concise Abelian subgroup C2      NOp   2
                         Standard orientation:                         
 ---------------------------------------------------------------------
 Center     Atomic      Atomic             Coordinates (Angstroms)
 Number     Number       Type             X           Y           Z
 ---------------------------------------------------------------------
      1          8           0       -0.000000   -0.000000    0.117301
      2          1           0        0.000000    0.757481   -0.469203
      3          1           0       -0.000000   -0.757481   -0.469203
 ---------------------------------------------------------------------
 Rotational constants (GHZ):    820.7393867    436.9774388    285.1552812
 Leave Link  202 at Tue Aug 13 20:54:17 2024, MaxMem=   33554432 cpu:       0.0
 (Enter /programs/64bit/g09/g09-gfortran/bin/l301.exe)
 Standard basis: 6-31+G(d,p) (6D, 7F)
 Ernie: Thresh=  0.10000D-02 Tol=  0.10000D-05 Strict=F.
 AO basis set in the form of general basis input (Overlap normalization):
      1 0
 S   6 1.00       0.000000000000
      0.5484671660D+04  0.1831074430D-02
      0.8252349460D+03  0.1395017220D-01
      0.1880469580D+03  0.6844507810D-01
      0.5296450000D+02  0.2327143360D+00
      0.1689757040D+02  0.4701928980D+00
      0.5799635340D+01  0.3585208530D+00
 SP   3 1.00       0.000000000000
      0.1553961625D+02 -0.1107775495D+00  0.7087426823D-01
      0.3599933586D+01 -0.1480262627D+00  0.3397528391D+00
      0.1013761750D+01  0.1130767015D+01  0.7271585773D+00
 SP   1 1.00       0.000000000000
      0.2700058226D+00  0.1000000000D+01  0.1000000000D+01
 SP   1 1.00       0.000000000000
      0.8450000000D-01  0.1000000000D+01  0.1000000000D+01
 D   1 1.00       0.000000000000
      0.8000000000D+00  0.1000000000D+01
 ****
      2 0
 S   3 1.00       0.000000000000
      0.1873113696D+02  0.3349460434D-01
      0.2825394365D+01  0.2347269535D+00
      0.6401216923D+00  0.8137573261D+00
 S   1 1.00       0.000000000000
      0.1612777588D+00  0.1000000000D+01
 P   1 1.00       0.000000000000
      0.1100000000D+01  0.1000000000D+01
 ****
      3 0
 S   3 1.00       0.000000000000
      0.1873113696D+02  0.3349460434D-01
      0.2825394365D+01  0.2347269535D+00
      0.6401216923D+00  0.8137573261D+00
 S   1 1.00       0.000000000000
      0.1612777588D+00  0.1000000000D+01
 P   1 1.00       0.000000000000
      0.1100000000D+01  0.1000000000D+01
 ****

 There are    14 symmetry adapted basis functions of A1  symmetry.
 There are     2 symmetry adapted basis functions of A2  symmetry.
 There are     5 symmetry adapted basis functions of B1  symmetry.
 There are     8 symmetry adapted basis functions of B2  symmetry.
 Integral buffers will be    131072 words long.
 Raffenetti 2 integral format.
 Two-electron integral symmetry is turned on.
    29 basis functions,    46 primitive gaussians,    29 cartesian basis functions
     5 alpha electrons        5 beta electrons
       nuclear repulsion energy         9.1873335386 Hartrees.
 IExCor=  402 DFT=T Ex+Corr=B3LYP ExCW=0 ScaHFX=  0.200000
 ScaDFX=  0.800000  0.720000  1.000000  0.810000 ScalE2=  1.000000  1.000000
 IRadAn=      0 IRanWt=     -1 IRanGd=            0 ICorTp=0
 NAtoms=    3 NActive=    3 NUniq=    2 SFac= 1.69D+00 NAtFMM=   80 NAOKFM=F Big=F
 Leave Link  301 at Tue Aug 13 20:54:17 2024, MaxMem=   33554432 cpu:       0.1
 (Enter /programs/64bit/g09/g09-gfortran/bin/l302.exe)
 NPDir=0 NMtPBC=     1 NCelOv=     1 NCel=       1 NClECP=     1 NCelD=      1
         NCelK=      1 NCelE2=     1 NClLst=     1 CellRange=     0.0.
 One-electron integrals computed using PRISM.
 One-electron integral symmetry used in STVInt
 NBasis=    29 RedAO= T  NBF=    14     2     5     8
 NBsUse=    29 1.00D-06 NBFU=    14     2     5     8
 Precomputing XC quadrature grid using
 IXCGrd= 2 IRadAn=           0 IRanWt=          -1 IRanGd=           0 AccXCQ= 1.00D-10.
 NRdTot=     187 NPtTot=       23652 NUsed=       25013 NTot=       25045
 NSgBfM=    29    29    29    29    29 NAtAll=     3     3.
 Leave Link  302 at Tue Aug 13 20:54:17 2024, MaxMem=   33554432 cpu:       0.2
 (Enter /programs/64bit/g09/g09-gfortran/bin/l303.exe)
 DipDrv:  MaxL=1.
 Leave Link  303 at Tue Aug 13 20:54:17 2024, MaxMem=   33554432 cpu:       0.0
 (Enter /programs/64bit/g09/g09-gfortran/bin/l401.exe)
 Harris functional with IExCor=  402 diagonalized for initial guess.
 ExpMin= 8.45D-02 ExpMax= 5.48D+03 ExpMxC= 8.25D+02 IAcc=2 IRadAn=         0 AccDes= 0.00D+00
 HarFok:  IExCor=  402 AccDes= 0.00D+00 IRadAn=         0 IDoV= 1
 ScaDFX=  1.000000  1.000000  1.000000  1.000000
 FoFCou: FMM=F IPFlag=           0 FMFlag=      100000 FMFlg1=           0
         NFxFlg=           0 DoJE=T BraDBF=F KetDBF=T FulRan=T
         Omega=  0.000000  0.000000  1.000000  0.000000  0.000000 ICntrl=     500 IOpCl=  0
         NMat0=    1 NMatS0=    1 NMatT0=    0 NMatD0=    1 NMtDS0=    0 NMtDT0=    0
         I1Cent=           4 NGrid=           0.
 Petite list used in FoFCou.
 Harris En= -76.4706124491657    
 Initial guess orbital symmetries:
       Occupied  (A1) (A1) (B2) (A1) (B1)
       Virtual   (A1) (B2) (A1) (B1) (B2) (A1) (B2) (A1) (B2) (B1)
                 (A1) (A1) (A2) (A1) (B1) (A1) (B2) (B2) (A2) (B1)
                 (A1) (A1) (B2) (A1)
 The electronic state of the initial guess is 1-A1.
 Leave Link  401 at Tue Aug 13 20:54:18 2024, MaxMem=   33554432 cpu:       0.3
 (Enter /programs/64bit/g09/g09-gfortran/bin/l502.exe)
 Closed shell SCF:
 Requested convergence on RMS density matrix=1.00D-08 within 128 cycles.
 Requested convergence on MAX density matrix=1.00D-06.
 Requested convergence on             energy=1.00D-06.
 No special actions if energy rises.
 Using DIIS extrapolation, IDIIS=  1040.
 Integral symmetry usage will be decided dynamically.
        24973 words used for storage of precomputed grid.
 Keep R1 ints in memory in canonical form, NReq=999482.
 IEnd=       46098 IEndB=       46098 NGot=    33554432 MDV=    33430987
 LenX=    33430987 LenY=    33429705
 Symmetry not used in FoFDir.
 MinBra= 0 MaxBra= 2 Meth= 1.
 IRaf=       0 NMat=   1 IRICut=       1 DoRegI=T DoRafI=F ISym2E= 0 JSym2E=0.
 Integral accuracy reduced to 1.0D-05 until final iterations.

 Cycle   1  Pass 0  IDiag  1:
 E= -76.3590405414346    
 DIIS: error= 6.92D-02 at cycle   1 NSaved=   1.
 NSaved= 1 IEnMin= 1 EnMin= -76.3590405414346     IErMin= 1 ErrMin= 6.92D-02
 ErrMax= 6.92D-02 EMaxC= 1.00D-01 BMatC= 9.77D-02 BMatP= 9.77D-02
 IDIUse=3 WtCom= 3.08D-01 WtEn= 6.92D-01
 Coeff-Com:  0.100D+01
 Coeff-En:   0.100D+01
 Coeff:      0.100D+01
 Gap=     0.200 Goal=   None    Shift=    0.000
 GapD=    0.200 DampG=1.000 DampE=0.500 DampFc=0.5000 IDamp=-1.
 Damping current iteration by 5.00D-01
 RMSDP=1.67D-02 MaxDP=1.81D-01              OVMax= 2.23D-01

 Cycle   2  Pass 0  IDiag  1:
 E= -76.3723132577596     Delta-E=       -0.013272716325 Rises=F Damp=T
 DIIS: error= 2.62D-02 at cycle   2 NSaved=   2.
 NSaved= 2 IEnMin= 2 EnMin= -76.3723132577596     IErMin= 2 ErrMin= 2.62D-02
 ErrMax= 2.62D-02 EMaxC= 1.00D-01 BMatC= 1.32D-02 BMatP= 9.77D-02
 IDIUse=3 WtCom= 7.38D-01 WtEn= 2.62D-01
 Coeff-Com:  0.260D+00 0.740D+00
 Coeff-En:   0.421D+00 0.579D+00
 Coeff:      0.303D+00 0.697D+00
 Gap=     0.330 Goal=   None    Shift=    0.000
 RMSDP=2.17D-03 MaxDP=2.00D-02 DE=-1.33D-02 OVMax= 1.43D-01

 Cycle   3  Pass 0  IDiag  1:
 E= -76.4335653946068     Delta-E=       -0.061252136847 Rises=F Damp=F
 DIIS: error= 4.43D-03 at cycle   3 NSaved=   3.
 NSaved= 3 IEnMin= 3 EnMin= -76.4335653946068     IErMin= 3 ErrMin= 4.43D-03
 ErrMax= 4.43D-03 EMaxC= 1.00D-01 BMatC= 4.98D-04 BMatP= 1.32D-02
 IDIUse=3 WtCom= 9.56D-01 WtEn= 4.43D-02
 Coeff-Com:  0.594D-01-0.204D-01 0.961D+00
 Coeff-En:   0.000D+00 0.000D+00 0.100D+01
 Coeff:      0.568D-01-0.195D-01 0.963D+00
 Gap=     0.347 Goal=   None    Shift=    0.000
 RMSDP=3.71D-04 MaxDP=4.36D-03 DE=-6.13D-02 OVMax= 4.73D-03

 Cycle   4  Pass 0  IDiag  1:
 E= -76.4338960161509     Delta-E=       -0.000330621544 Rises=F Damp=F
 DIIS: error= 4.23D-04 at cycle   4 NSaved=   4.
 NSaved= 4 IEnMin= 4 EnMin= -76.4338960161509     IErMin= 4 ErrMin= 4.23D-04
 ErrMax= 4.23D-04 EMaxC= 1.00D-01 BMatC= 4.00D-06 BMatP= 4.98D-04
 IDIUse=3 WtCom= 9.96D-01 WtEn= 4.23D-03
 Coeff-Com:  0.891D-02-0.223D-01 0.205D+00 0.809D+00
 Coeff-En:   0.000D+00 0.000D+00 0.000D+00 0.100D+01
 Coeff:      0.887D-02-0.222D-01 0.204D+00 0.810D+00
 Gap=     0.347 Goal=   None    Shift=    0.000
 RMSDP=3.17D-05 MaxDP=2.34D-04 DE=-3.31D-04 OVMax= 4.38D-04

 Cycle   5  Pass 0  IDiag  1:
 E= -76.4338987665781     Delta-E=       -0.000002750427 Rises=F Damp=F
 DIIS: error= 1.50D-04 at cycle   5 NSaved=   5.
 NSaved= 5 IEnMin= 5 EnMin= -76.4338987665781     IErMin= 5 ErrMin= 1.50D-04
 ErrMax= 1.50D-04 EMaxC= 1.00D-01 BMatC= 4.33D-07 BMatP= 4.00D-06
 IDIUse=3 WtCom= 9.99D-01 WtEn= 1.50D-03
 Coeff-Com:  0.219D-02-0.313D-02 0.166D-01 0.644D-01 0.920D+00
 Coeff-En:   0.000D+00 0.000D+00 0.000D+00 0.000D+00 0.100D+01
 Coeff:      0.219D-02-0.312D-02 0.166D-01 0.643D-01 0.920D+00
 Gap=     0.347 Goal=   None    Shift=    0.000
 RMSDP=1.28D-05 MaxDP=1.36D-04 DE=-2.75D-06 OVMax= 1.70D-04

 Cycle   6  Pass 0  IDiag  1:
 E= -76.4338991003247     Delta-E=       -0.000000333747 Rises=F Damp=F
 DIIS: error= 1.29D-05 at cycle   6 NSaved=   6.
 NSaved= 6 IEnMin= 6 EnMin= -76.4338991003247     IErMin= 6 ErrMin= 1.29D-05
 ErrMax= 1.29D-05 EMaxC= 1.00D-01 BMatC= 3.07D-09 BMatP= 4.33D-07
 IDIUse=1 WtCom= 1.00D+00 WtEn= 0.00D+00
 Coeff-Com: -0.109D-04 0.160D-04-0.427D-03-0.501D-02-0.771D-01 0.108D+01
 Coeff:     -0.109D-04 0.160D-04-0.427D-03-0.501D-02-0.771D-01 0.108D+01
 Gap=     0.348 Goal=   None    Shift=    0.000
 RMSDP=1.14D-06 MaxDP=1.37D-05 DE=-3.34D-07 OVMax= 1.69D-05

 Initial convergence to 1.0D-05 achieved.  Increase integral accuracy.
 Cycle   7  Pass 1  IDiag  1:
 E= -76.4338966088178     Delta-E=        0.000002491507 Rises=F Damp=F
 DIIS: error= 3.45D-06 at cycle   1 NSaved=   1.
 NSaved= 1 IEnMin= 1 EnMin= -76.4338966088178     IErMin= 1 ErrMin= 3.45D-06
 ErrMax= 3.45D-06 EMaxC= 1.00D-01 BMatC= 1.25D-10 BMatP= 1.25D-10
 IDIUse=1 WtCom= 1.00D+00 WtEn= 0.00D+00
 Coeff-Com:  0.100D+01
 Coeff:      0.100D+01
 Gap=     0.348 Goal=   None    Shift=    0.000
 RMSDP=1.14D-06 MaxDP=1.37D-05 DE= 2.49D-06 OVMax= 1.36D-05

 Cycle   8  Pass 1  IDiag  1:
 E= -76.4338966090218     Delta-E=       -0.000000000204 Rises=F Damp=F
 DIIS: error= 1.55D-06 at cycle   2 NSaved=   2.
 NSaved= 2 IEnMin= 2 EnMin= -76.4338966090218     IErMin= 2 ErrMin= 1.55D-06
 ErrMax= 1.55D-06 EMaxC= 1.00D-01 BMatC= 5.12D-11 BMatP= 1.25D-10
 IDIUse=1 WtCom= 1.00D+00 WtEn= 0.00D+00
 Coeff-Com:  0.312D+00 0.688D+00
 Coeff:      0.312D+00 0.688D+00
 Gap=     0.348 Goal=   None    Shift=    0.000
 RMSDP=2.40D-07 MaxDP=2.80D-06 DE=-2.04D-10 OVMax= 3.42D-06

 Cycle   9  Pass 1  IDiag  1:
 E= -76.4338966090380     Delta-E=       -0.000000000016 Rises=F Damp=F
 DIIS: error= 1.31D-06 at cycle   3 NSaved=   3.
 NSaved= 3 IEnMin= 3 EnMin= -76.4338966090380     IErMin= 3 ErrMin= 1.31D-06
 ErrMax= 1.31D-06 EMaxC= 1.00D-01 BMatC= 3.00D-11 BMatP= 5.12D-11
 IDIUse=1 WtCom= 1.00D+00 WtEn= 0.00D+00
 Coeff-Com: -0.250D-01 0.440D+00 0.585D+00
 Coeff:     -0.250D-01 0.440D+00 0.585D+00
 Gap=     0.348 Goal=   None    Shift=    0.000
 RMSDP=1.03D-07 MaxDP=1.45D-06 DE=-1.62D-11 OVMax= 1.79D-06

 Cycle  10  Pass 1  IDiag  1:
 E= -76.4338966090599     Delta-E=       -0.000000000022 Rises=F Damp=F
 DIIS: error= 2.91D-08 at cycle   4 NSaved=   4.
 NSaved= 4 IEnMin= 4 EnMin= -76.4338966090599     IErMin= 4 ErrMin= 2.91D-08
 ErrMax= 2.91D-08 EMaxC= 1.00D-01 BMatC= 2.16D-14 BMatP= 3.00D-11
 IDIUse=1 WtCom= 1.00D+00 WtEn= 0.00D+00
 Coeff-Com: -0.670D-02 0.397D-01 0.602D-01 0.907D+00
 Coeff:     -0.670D-02 0.397D-01 0.602D-01 0.907D+00
 Gap=     0.348 Goal=   None    Shift=    0.000
 RMSDP=4.57D-09 MaxDP=3.70D-08 DE=-2.19D-11 OVMax= 6.10D-08

 SCF Done:  E(RB3LYP) =  -76.4338966091     A.U. after   10 cycles
             Convg  =    0.4569D-08             -V/T =  2.0089
 KE= 7.576088458408D+01 PE=-1.986775275545D+02 EE= 3.729541282280D+01
 Leave Link  502 at Tue Aug 13 20:54:18 2024, MaxMem=   33554432 cpu:       0.8
 (Enter /programs/64bit/g09/g09-gfortran/bin/l601.exe)
 Copying SCF densities to generalized density rwf, IOpCl= 0 IROHF=0.

 **********************************************************************

            Population analysis using the SCF density.

 **********************************************************************

 Orbital symmetries:
       Occupied  (A1) (A1) (B2) (A1) (B1)
       Virtual   (A1) (B2) (B1) (A1) (B2) (A1) (B2) (A1) (B2) (B1)
                 (A1) (A1) (A2) (A1) (B1) (A1) (B2) (B2) (A2) (B1)
                 (A1) (A1) (B2) (A1)
 The electronic state is 1-A1.
 Alpha  occ. eigenvalues --  -19.16902  -1.02633  -0.54280  -0.39711  -0.32184
 Alpha virt. eigenvalues --    0.02567   0.11579   0.15501   0.15522   0.20707
 Alpha virt. eigenvalues --    0.24666   0.90242   0.99734   1.08446   1.11253
 Alpha virt. eigenvalues --    1.12986   1.23240   1.50620   1.52756   1.62670
 Alpha virt. eigenvalues --    2.23972   2.25604   2.51611   2.63336   2.66297
 Alpha virt. eigenvalues --    3.03507   3.33365   3.52407   3.92479
     Molecular Orbital Coefficients:
                           1         2         3         4         5
                        (A1)--O   (A1)--O   (B2)--O   (A1)--O   (B1)--O
     Eigenvalues --   -19.16902  -1.02633  -0.54280  -0.39711  -0.32184
   1 1   O  1S          0.99276  -0.21130   0.00000  -0.08118   0.00000
   2        2S          0.02595   0.47088   0.00000   0.18534   0.00000
   3        2PX         0.00000   0.00000   0.00000   0.00000   0.64335
   4        2PY         0.00000   0.00000   0.52189   0.00000   0.00000
   5        2PZ        -0.00130  -0.11968   0.00000   0.56049   0.00000
   6        3S          0.01186   0.42554   0.00000   0.32475   0.00000
   7        3PX         0.00000   0.00000   0.00000   0.00000   0.41994
   8        3PY         0.00000   0.00000   0.24618   0.00000   0.00000
   9        3PZ         0.00046  -0.04260   0.00000   0.32308   0.00000
  10        4S         -0.00087   0.02535   0.00000   0.04972   0.00000
  11        4PX         0.00000   0.00000   0.00000   0.00000   0.12746
  12        4PY         0.00000   0.00000   0.01728   0.00000   0.00000
  13        4PZ        -0.00074  -0.01352   0.00000   0.07724   0.00000
  14        5XX        -0.00808  -0.00820   0.00000   0.00888   0.00000
  15        5YY        -0.00795   0.00015   0.00000   0.00869   0.00000
  16        5ZZ        -0.00799   0.00280   0.00000  -0.03304   0.00000
  17        5XY         0.00000   0.00000   0.00000   0.00000   0.00000
  18        5XZ         0.00000   0.00000   0.00000   0.00000  -0.02773
  19        5YZ         0.00000   0.00000  -0.02885   0.00000   0.00000
  20 2   H  1S          0.00027   0.15415   0.24610  -0.14528   0.00000
  21        2S         -0.00110  -0.00400   0.13015  -0.09840   0.00000
  22        3PX         0.00000   0.00000   0.00000   0.00000   0.02282
  23        3PY         0.00016  -0.02101  -0.00650   0.01355   0.00000
  24        3PZ        -0.00012   0.01230   0.01597   0.00965   0.00000
  25 3   H  1S          0.00027   0.15415  -0.24610  -0.14528   0.00000
  26        2S         -0.00110  -0.00400  -0.13015  -0.09840   0.00000
  27        3PX         0.00000   0.00000   0.00000   0.00000   0.02282
  28        3PY        -0.00016   0.02101  -0.00650  -0.01355   0.00000
  29        3PZ        -0.00012   0.01230  -0.01597   0.00965   0.00000
                           6         7         8         9        10
                        (A1)--V   (B2)--V   (B1)--V   (A1)--V   (B2)--V
     Eigenvalues --     0.02567   0.11579   0.15501   0.15522   0.20707
   1 1   O  1S          0.09382   0.00000   0.00000   0.05883   0.00000
   2        2S         -0.11056   0.00000   0.00000  -0.05090   0.00000
   3        2PX         0.00000   0.00000  -0.27180   0.00000   0.00000
   4        2PY         0.00000  -0.33164   0.00000   0.00000  -0.24262
   5        2PZ         0.21768   0.00000   0.00000  -0.18890   0.00000
   6        3S         -1.02075   0.00000   0.00000  -0.70706   0.00000
   7        3PX         0.00000   0.00000  -0.46678   0.00000   0.00000
   8        3PY         0.00000  -0.57005   0.00000   0.00000  -0.54709
   9        3PZ         0.21465   0.00000   0.00000  -0.31919   0.00000
  10        4S          1.37725   0.00000   0.00000   0.11435   0.00000
  11        4PX         0.00000   0.00000   1.20073   0.00000   0.00000
  12        4PY         0.00000   0.96555   0.00000   0.00000  -1.51707
  13        4PZ        -0.46026   0.00000   0.00000   1.31242   0.00000
  14        5XX         0.05284   0.00000   0.00000   0.03324   0.00000
  15        5YY         0.06305   0.00000   0.00000   0.04667   0.00000
  16        5ZZ         0.04692   0.00000   0.00000   0.05247   0.00000
  17        5XY         0.00000   0.00000   0.00000   0.00000   0.00000
  18        5XZ         0.00000   0.00000   0.01017   0.00000   0.00000
  19        5YZ         0.00000   0.02321   0.00000   0.00000  -0.01783
  20 2   H  1S          0.07446   0.05927   0.00000   0.02546   0.16550
  21        2S          0.00171   0.29915   0.00000   0.43411   1.89416
  22        3PX         0.00000   0.00000   0.00697   0.00000   0.00000
  23        3PY         0.02158   0.00432   0.00000   0.00805  -0.00864
  24        3PZ        -0.01313  -0.00231   0.00000   0.00347  -0.01002
  25 3   H  1S          0.07446  -0.05927   0.00000   0.02546  -0.16550
  26        2S          0.00171  -0.29915   0.00000   0.43411  -1.89416
  27        3PX         0.00000   0.00000   0.00697   0.00000   0.00000
  28        3PY        -0.02158   0.00432   0.00000  -0.00805  -0.00864
  29        3PZ        -0.01313   0.00231   0.00000   0.00347   0.01002
                          11        12        13        14        15
                        (A1)--V   (B2)--V   (A1)--V   (B2)--V   (B1)--V
     Eigenvalues --     0.24666   0.90242   0.99734   1.08446   1.11253
   1 1   O  1S         -0.04985   0.00000  -0.00366   0.00000   0.00000
   2        2S          0.05732   0.00000   0.67883   0.00000   0.00000
   3        2PX         0.00000   0.00000   0.00000   0.00000  -0.97244
   4        2PY         0.00000   0.61100   0.00000  -0.63513   0.00000
   5        2PZ        -0.23924   0.00000  -0.65867   0.00000   0.00000
   6        3S          0.87691   0.00000  -1.89629   0.00000   0.00000
   7        3PX         0.00000   0.00000   0.00000   0.00000   1.44007
   8        3PY         0.00000  -0.86702   0.00000   1.58093   0.00000
   9        3PZ        -0.63231   0.00000   1.15078   0.00000   0.00000
  10        4S          3.33623   0.00000  -1.90056   0.00000   0.00000
  11        4PX         0.00000   0.00000   0.00000   0.00000  -0.69924
  12        4PY         0.00000  -0.72083   0.00000  -0.89231   0.00000
  13        4PZ        -1.14624   0.00000   0.52930   0.00000   0.00000
  14        5XX        -0.00556   0.00000   0.26536   0.00000   0.00000
  15        5YY        -0.03885   0.00000  -0.04199   0.00000   0.00000
  16        5ZZ         0.00088   0.00000   0.08240   0.00000   0.00000
  17        5XY         0.00000   0.00000   0.00000   0.00000   0.00000
  18        5XZ         0.00000   0.00000   0.00000   0.00000  -0.03935
  19        5YZ         0.00000   0.31891   0.00000   0.13276   0.00000
  20 2   H  1S         -0.16685  -0.58298  -0.49682  -0.56999   0.00000
  21        2S         -2.46878   1.86362   2.16880   0.41818   0.00000
  22        3PX         0.00000   0.00000   0.00000   0.00000   0.02270
  23        3PY        -0.00088  -0.11796  -0.15123   0.10380   0.00000
  24        3PZ        -0.00750   0.13789   0.09148  -0.01376   0.00000
  25 3   H  1S         -0.16685   0.58298  -0.49682   0.56999   0.00000
  26        2S         -2.46878  -1.86362   2.16880  -0.41818   0.00000
  27        3PX         0.00000   0.00000   0.00000   0.00000   0.02270
  28        3PY         0.00088  -0.11796   0.15123   0.10380   0.00000
  29        3PZ        -0.00750  -0.13789   0.09148   0.01376   0.00000
                          16        17        18        19        20
                        (A1)--V   (A1)--V   (A2)--V   (A1)--V   (B1)--V
     Eigenvalues --     1.12986   1.23240   1.50620   1.52756   1.62670
   1 1   O  1S          0.02733  -0.07820   0.00000   0.02879   0.00000
   2        2S         -0.27589  -1.58005   0.00000   0.25701   0.00000
   3        2PX         0.00000   0.00000   0.00000   0.00000  -0.03128
   4        2PY         0.00000   0.00000   0.00000   0.00000   0.00000
   5        2PZ        -0.60915  -0.19409   0.00000  -0.08096   0.00000
   6        3S          0.38494   3.60463   0.00000  -0.73634   0.00000
   7        3PX         0.00000   0.00000   0.00000   0.00000   0.29907
   8        3PY         0.00000   0.00000   0.00000   0.00000   0.00000
   9        3PZ         1.21739   0.09137   0.00000   0.55922   0.00000
  10        4S          0.72393  -1.12996   0.00000   0.23427   0.00000
  11        4PX         0.00000   0.00000   0.00000   0.00000  -0.08167
  12        4PY         0.00000   0.00000   0.00000   0.00000   0.00000
  13        4PZ        -0.91284  -0.12697   0.00000  -0.17500   0.00000
  14        5XX        -0.20671  -0.30638   0.00000  -0.29165   0.00000
  15        5YY         0.17252  -0.68707   0.00000  -0.23614   0.00000
  16        5ZZ        -0.15380  -0.41631   0.00000   0.78228   0.00000
  17        5XY         0.00000   0.00000   0.68098   0.00000   0.00000
  18        5XZ         0.00000   0.00000   0.00000   0.00000   0.79005
  19        5YZ         0.00000   0.00000   0.00000   0.00000   0.00000
  20 2   H  1S          0.62662  -0.31063   0.00000   0.29184   0.00000
  21        2S         -0.84037  -0.00495   0.00000  -0.07736   0.00000
  22        3PX         0.00000   0.00000   0.34725   0.00000  -0.29219
  23        3PY         0.05677  -0.07062   0.00000  -0.17185   0.00000
  24        3PZ         0.09086  -0.05084   0.00000  -0.24265   0.00000
  25 3   H  1S          0.62662  -0.31063   0.00000   0.29184   0.00000
  26        2S         -0.84037  -0.00495   0.00000  -0.07736   0.00000
  27        3PX         0.00000   0.00000  -0.34725   0.00000  -0.29219
  28        3PY        -0.05677   0.07062   0.00000   0.17185   0.00000
  29        3PZ         0.09086  -0.05084   0.00000  -0.24265   0.00000
                          21        22        23        24        25
                        (A1)--V   (B2)--V   (B2)--V   (A2)--V   (B1)--V
     Eigenvalues --     2.23972   2.25604   2.51611   2.63336   2.66297
   1 1   O  1S         -0.05315   0.00000   0.00000   0.00000   0.00000
   2        2S         -0.56438   0.00000   0.00000   0.00000   0.00000
   3        2PX         0.00000   0.00000   0.00000   0.00000   0.01964
   4        2PY         0.00000   0.03336   0.38743   0.00000   0.00000
   5        2PZ         0.19300   0.00000   0.00000   0.00000   0.00000
   6        3S          1.37371   0.00000   0.00000   0.00000   0.00000
   7        3PX         0.00000   0.00000   0.00000   0.00000  -0.52547
   8        3PY         0.00000  -0.49204  -0.59219   0.00000   0.00000
   9        3PZ        -0.65271   0.00000   0.00000   0.00000   0.00000
  10        4S         -0.36693   0.00000   0.00000   0.00000   0.00000
  11        4PX         0.00000   0.00000   0.00000   0.00000   0.10610
  12        4PY         0.00000   0.06834   0.41084   0.00000   0.00000
  13        4PZ         0.17457   0.00000   0.00000   0.00000   0.00000
  14        5XX        -1.06976   0.00000   0.00000   0.00000   0.00000
  15        5YY         0.51453   0.00000   0.00000   0.00000   0.00000
  16        5ZZ         0.02373   0.00000   0.00000   0.00000   0.00000
  17        5XY         0.00000   0.00000   0.00000   0.88708   0.00000
  18        5XZ         0.00000   0.00000   0.00000   0.00000   0.73185
  19        5YZ         0.00000  -0.17323   0.75882   0.00000   0.00000
  20 2   H  1S         -0.71286   0.11239   0.64306   0.00000   0.00000
  21        2S          0.18712   0.04565  -0.60689   0.00000   0.00000
  22        3PX         0.00000   0.00000   0.00000  -0.71534   0.77205
  23        3PY        -0.14905   0.46999   0.36217   0.00000   0.00000
  24        3PZ         0.16063   0.59001  -0.24036   0.00000   0.00000
  25 3   H  1S         -0.71286  -0.11239  -0.64306   0.00000   0.00000
  26        2S          0.18712  -0.04565   0.60689   0.00000   0.00000
  27        3PX         0.00000   0.00000   0.00000   0.71534   0.77205
  28        3PY         0.14905   0.46999   0.36217   0.00000   0.00000
  29        3PZ         0.16063  -0.59001   0.24036   0.00000   0.00000
                          26        27        28        29
                        (A1)--V   (A1)--V   (B2)--V   (A1)--V
     Eigenvalues --     3.03507   3.33365   3.52407   3.92479
   1 1   O  1S          0.00408  -0.26258   0.00000  -0.42671
   2        2S         -0.12696   0.23529   0.00000  -0.04290
   3        2PX         0.00000   0.00000   0.00000   0.00000
   4        2PY         0.00000   0.00000  -0.70575   0.00000
   5        2PZ         0.08439  -0.43575   0.00000   0.40367
   6        3S          0.15521   3.03709   0.00000   3.05236
   7        3PX         0.00000   0.00000   0.00000   0.00000
   8        3PY         0.00000   0.00000  -1.39175   0.00000
   9        3PZ        -0.52707  -0.85572   0.00000   0.53291
  10        4S          0.16159   0.42886   0.00000  -0.64942
  11        4PX         0.00000   0.00000   0.00000   0.00000
  12        4PY         0.00000   0.00000   0.10863   0.00000
  13        4PZ         0.02380  -0.20646   0.00000  -0.17699
  14        5XX        -0.05716  -1.23172   0.00000  -1.18813
  15        5YY        -0.83907  -0.11055   0.00000  -2.07219
  16        5ZZ         0.89019  -0.38106   0.00000  -1.75621
  17        5XY         0.00000   0.00000   0.00000   0.00000
  18        5XZ         0.00000   0.00000   0.00000   0.00000
  19        5YZ         0.00000   0.00000   1.49757   0.00000
  20 2   H  1S         -0.03537  -0.69508   1.24918   0.72523
  21        2S         -0.13870  -0.93291   0.43472  -0.00267
  22        3PX         0.00000   0.00000   0.00000   0.00000
  23        3PY         0.43290   0.76568  -0.80968  -0.60395
  24        3PZ         0.70474  -0.45238   0.68696   0.43452
  25 3   H  1S         -0.03537  -0.69508  -1.24918   0.72523
  26        2S         -0.13870  -0.93291  -0.43472  -0.00267
  27        3PX         0.00000   0.00000   0.00000   0.00000
  28        3PY        -0.43290  -0.76568  -0.80968   0.60395
  29        3PZ         0.70474  -0.45238  -0.68696   0.43452
     Density Matrix:
                           1         2         3         4         5
   1 1   O  1S          2.07362
   2        2S         -0.17757   0.51351
   3        2PX         0.00000   0.00000   0.82780
   4        2PY         0.00000  -0.00000   0.00000   0.54474
   5        2PZ        -0.04300   0.09499  -0.00000  -0.00000   0.65694
   6        3S         -0.20902   0.52176  -0.00000  -0.00000   0.26215
   7        3PX         0.00000   0.00000   0.54033   0.00000   0.00000
   8        3PY         0.00000  -0.00000   0.00000   0.25695  -0.00000
   9        3PZ        -0.03354   0.07967  -0.00000  -0.00000   0.37236
  10        4S         -0.02051   0.04226  -0.00000  -0.00000   0.04967
  11        4PX         0.00000   0.00000   0.16400   0.00000   0.00000
  12        4PY         0.00000  -0.00000   0.00000   0.01804  -0.00000
  13        4PZ        -0.00830   0.01586  -0.00000  -0.00000   0.08982
  14        5XX        -0.01401  -0.00485  -0.00000  -0.00000   0.01194
  15        5YY        -0.01726   0.00295  -0.00000   0.00000   0.00973
  16        5ZZ        -0.01169  -0.01003   0.00000  -0.00000  -0.03769
  17        5XY        -0.00000  -0.00000   0.00000   0.00000   0.00000
  18        5XZ         0.00000   0.00000  -0.03568  -0.00000   0.00000
  19        5YZ        -0.00000   0.00000  -0.00000  -0.03011   0.00000
  20 2   H  1S         -0.04101   0.09133   0.00000   0.25688  -0.19975
  21        2S          0.01548  -0.04030   0.00000   0.13585  -0.10934
  22        3PX         0.00000   0.00000   0.02936   0.00000   0.00000
  23        3PY         0.00700  -0.01475   0.00000  -0.00678   0.02022
  24        3PZ        -0.00700   0.01515   0.00000   0.01667   0.00788
  25 3   H  1S         -0.04101   0.09133   0.00000  -0.25688  -0.19975
  26        2S          0.01548  -0.04030   0.00000  -0.13585  -0.10934
  27        3PX         0.00000   0.00000   0.02936   0.00000   0.00000
  28        3PY        -0.00700   0.01475   0.00000  -0.00678  -0.02022
  29        3PZ        -0.00700   0.01515  -0.00000  -0.01667   0.00788
                           6         7         8         9        10
   6        3S          0.57338
   7        3PX         0.00000   0.35269
   8        3PY        -0.00000   0.00000   0.12121
   9        3PZ         0.17359  -0.00000  -0.00000   0.21239
  10        4S          0.05385  -0.00000  -0.00000   0.02997   0.00623
  11        4PX         0.00000   0.10705   0.00000   0.00000   0.00000
  12        4PY        -0.00000   0.00000   0.00851  -0.00000  -0.00000
  13        4PZ         0.03864  -0.00000  -0.00000   0.05106   0.00700
  14        5XX        -0.00140  -0.00000  -0.00000   0.00643   0.00048
  15        5YY         0.00558  -0.00000   0.00000   0.00560   0.00089
  16        5ZZ        -0.01927   0.00000  -0.00000  -0.02160  -0.00313
  17        5XY        -0.00000   0.00000   0.00000   0.00000   0.00000
  18        5XZ         0.00000  -0.02329  -0.00000   0.00000   0.00000
  19        5YZ         0.00000  -0.00000  -0.01420   0.00000   0.00000
  20 2   H  1S          0.03684   0.00000   0.12117  -0.10700  -0.00663
  21        2S         -0.06734   0.00000   0.06408  -0.06324  -0.00999
  22        3PX         0.00000   0.01916   0.00000   0.00000   0.00000
  23        3PY        -0.00908   0.00000  -0.00320   0.01055   0.00028
  24        3PZ         0.01673   0.00000   0.00786   0.00519   0.00158
  25 3   H  1S          0.03684   0.00000  -0.12117  -0.10700  -0.00663
  26        2S         -0.06734   0.00000  -0.06408  -0.06324  -0.00999
  27        3PX         0.00000   0.01916   0.00000   0.00000   0.00000
  28        3PY         0.00908   0.00000  -0.00320  -0.01055  -0.00028
  29        3PZ         0.01673  -0.00000  -0.00786   0.00519   0.00158
                          11        12        13        14        15
  11        4PX         0.03249
  12        4PY         0.00000   0.00060
  13        4PZ        -0.00000  -0.00000   0.01230
  14        5XX        -0.00000  -0.00000   0.00161   0.00042
  15        5YY        -0.00000   0.00000   0.00135   0.00028   0.00028
  16        5ZZ         0.00000   0.00000  -0.00517  -0.00050  -0.00045
  17        5XY         0.00000   0.00000   0.00000   0.00000   0.00000
  18        5XZ        -0.00707  -0.00000   0.00000  -0.00000   0.00000
  19        5YZ        -0.00000  -0.00100   0.00000   0.00000  -0.00000
  20 2   H  1S          0.00000   0.00850  -0.02661  -0.00511  -0.00248
  21        2S          0.00000   0.00450  -0.01509  -0.00167  -0.00169
  22        3PX         0.00582   0.00000   0.00000   0.00000   0.00000
  23        3PY         0.00000  -0.00022   0.00266   0.00058   0.00023
  24        3PZ         0.00000   0.00055   0.00116  -0.00003   0.00017
  25 3   H  1S          0.00000  -0.00850  -0.02661  -0.00511  -0.00248
  26        2S          0.00000  -0.00450  -0.01509  -0.00167  -0.00169
  27        3PX         0.00582   0.00000   0.00000  -0.00000  -0.00000
  28        3PY         0.00000  -0.00022  -0.00266  -0.00058  -0.00023
  29        3PZ        -0.00000  -0.00055   0.00116  -0.00003   0.00017
                          16        17        18        19        20
  16        5ZZ         0.00233
  17        5XY        -0.00000   0.00000
  18        5XZ        -0.00000  -0.00000   0.00154
  19        5YZ        -0.00000  -0.00000   0.00000   0.00166
  20 2   H  1S          0.01046  -0.00000  -0.00000  -0.01420   0.21087
  21        2S          0.00650  -0.00000  -0.00000  -0.00751   0.09142
  22        3PX        -0.00000   0.00000  -0.00127  -0.00000   0.00000
  23        3PY        -0.00102   0.00000  -0.00000   0.00037  -0.01361
  24        3PZ        -0.00057   0.00000  -0.00000  -0.00092   0.00884
  25 3   H  1S          0.01046  -0.00000   0.00000   0.01420  -0.03140
  26        2S          0.00650  -0.00000   0.00000   0.00751  -0.03670
  27        3PX         0.00000   0.00000  -0.00127  -0.00000   0.00000
  28        3PY         0.00102  -0.00000  -0.00000   0.00037   0.00722
  29        3PZ        -0.00057  -0.00000   0.00000   0.00092  -0.00687
                          21        22        23        24        25
  21        2S          0.05328
  22        3PX         0.00000   0.00104
  23        3PY        -0.00419   0.00000   0.00133
  24        3PZ         0.00216  -0.00000  -0.00046   0.00100
  25 3   H  1S         -0.03670   0.00000  -0.00722  -0.00687   0.21087
  26        2S         -0.01448   0.00000  -0.00081  -0.00615   0.09142
  27        3PX         0.00000   0.00104  -0.00000   0.00000   0.00000
  28        3PY         0.00081   0.00000  -0.00117   0.00005   0.01361
  29        3PZ        -0.00615  -0.00000  -0.00005  -0.00002   0.00884
                          26        27        28        29
  26        2S          0.05328
  27        3PX         0.00000   0.00104
  28        3PY         0.00419   0.00000   0.00133
  29        3PZ         0.00216   0.00000   0.00046   0.00100
    Full Mulliken population analysis:
                           1         2         3         4         5
   1 1   O  1S          2.07362
   2        2S         -0.04150   0.51351
   3        2PX         0.00000   0.00000   0.82780
   4        2PY         0.00000   0.00000   0.00000   0.54474
   5        2PZ         0.00000   0.00000   0.00000   0.00000   0.65694
   6        3S         -0.03497   0.39844   0.00000   0.00000   0.00000
   7        3PX         0.00000   0.00000   0.27099   0.00000   0.00000
   8        3PY         0.00000   0.00000   0.00000   0.12887   0.00000
   9        3PZ         0.00000   0.00000   0.00000   0.00000   0.18674
  10        4S         -0.00148   0.01731   0.00000   0.00000   0.00000
  11        4PX         0.00000   0.00000   0.02756   0.00000   0.00000
  12        4PY         0.00000   0.00000   0.00000   0.00303   0.00000
  13        4PZ         0.00000   0.00000   0.00000   0.00000   0.01509
  14        5XX        -0.00047  -0.00265   0.00000   0.00000   0.00000
  15        5YY        -0.00058   0.00161   0.00000   0.00000   0.00000
  16        5ZZ        -0.00039  -0.00549   0.00000   0.00000   0.00000
  17        5XY        -0.00000  -0.00000   0.00000   0.00000   0.00000
  18        5XZ        -0.00000   0.00000   0.00000   0.00000   0.00000
  19        5YZ         0.00000   0.00000   0.00000   0.00000   0.00000
  20 2   H  1S         -0.00143   0.02271   0.00000   0.05839   0.03515
  21        2S          0.00107  -0.01532   0.00000   0.01587   0.00989
  22        3PX         0.00000   0.00000   0.00421   0.00000   0.00000
  23        3PY        -0.00032   0.00396   0.00000   0.00126   0.00515
  24        3PZ        -0.00025   0.00314   0.00000   0.00425  -0.00042
  25 3   H  1S         -0.00143   0.02271   0.00000   0.05839   0.03515
  26        2S          0.00107  -0.01532   0.00000   0.01587   0.00989
  27        3PX         0.00000   0.00000   0.00421   0.00000   0.00000
  28        3PY        -0.00032   0.00396  -0.00000   0.00126   0.00515
  29        3PZ        -0.00025   0.00314   0.00000   0.00425  -0.00042
                           6         7         8         9        10
   6        3S          0.57338
   7        3PX         0.00000   0.35269
   8        3PY         0.00000   0.00000   0.12121
   9        3PZ         0.00000   0.00000   0.00000   0.21239
  10        4S          0.04236   0.00000   0.00000   0.00000   0.00623
  11        4PX         0.00000   0.07176   0.00000   0.00000   0.00000
  12        4PY         0.00000   0.00000   0.00570   0.00000   0.00000
  13        4PZ         0.00000   0.00000   0.00000   0.03423   0.00000
  14        5XX        -0.00098   0.00000   0.00000   0.00000   0.00023
  15        5YY         0.00390   0.00000   0.00000   0.00000   0.00042
  16        5ZZ        -0.01347   0.00000   0.00000   0.00000  -0.00147
  17        5XY        -0.00000   0.00000   0.00000   0.00000   0.00000
  18        5XZ         0.00000   0.00000   0.00000   0.00000   0.00000
  19        5YZ         0.00000   0.00000   0.00000   0.00000   0.00000
  20 2   H  1S          0.01574   0.00000   0.05593   0.03824  -0.00241
  21        2S         -0.04604   0.00000   0.02437   0.01863  -0.00771
  22        3PX         0.00000   0.00532   0.00000   0.00000   0.00000
  23        3PY         0.00187   0.00000  -0.00010   0.00201  -0.00002
  24        3PZ         0.00267   0.00000   0.00150   0.00067   0.00007
  25 3   H  1S          0.01574   0.00000   0.05593   0.03824  -0.00241
  26        2S         -0.04604   0.00000   0.02437   0.01863  -0.00771
  27        3PX         0.00000   0.00532   0.00000   0.00000   0.00000
  28        3PY         0.00187   0.00000  -0.00010   0.00201  -0.00002
  29        3PZ         0.00267   0.00000   0.00150   0.00067   0.00007
                          11        12        13        14        15
  11        4PX         0.03249
  12        4PY         0.00000   0.00060
  13        4PZ         0.00000   0.00000   0.01230
  14        5XX         0.00000   0.00000   0.00000   0.00042
  15        5YY         0.00000   0.00000   0.00000   0.00009   0.00028
  16        5ZZ         0.00000   0.00000   0.00000  -0.00017  -0.00015
  17        5XY         0.00000   0.00000   0.00000   0.00000   0.00000
  18        5XZ         0.00000   0.00000   0.00000   0.00000  -0.00000
  19        5YZ         0.00000   0.00000   0.00000  -0.00000  -0.00000
  20 2   H  1S          0.00000   0.00230   0.00557  -0.00085  -0.00102
  21        2S          0.00000   0.00190   0.00493  -0.00067  -0.00075
  22        3PX         0.00086   0.00000   0.00000   0.00000   0.00000
  23        3PY         0.00000  -0.00002   0.00010  -0.00008  -0.00003
  24        3PZ         0.00000   0.00002   0.00014  -0.00000   0.00006
  25 3   H  1S          0.00000   0.00230   0.00557  -0.00085  -0.00102
  26        2S          0.00000   0.00190   0.00493  -0.00067  -0.00075
  27        3PX         0.00086   0.00000   0.00000   0.00000   0.00000
  28        3PY         0.00000  -0.00002   0.00010  -0.00008  -0.00003
  29        3PZ         0.00000   0.00002   0.00014  -0.00000   0.00006
                          16        17        18        19        20
  16        5ZZ         0.00233
  17        5XY        -0.00000   0.00000
  18        5XZ         0.00000   0.00000   0.00154
  19        5YZ         0.00000   0.00000   0.00000   0.00166
  20 2   H  1S          0.00327  -0.00000   0.00000   0.00463   0.21087
  21        2S          0.00277  -0.00000   0.00000   0.00045   0.06018
  22        3PX        -0.00000   0.00000   0.00031   0.00000   0.00000
  23        3PY         0.00034   0.00000   0.00000   0.00008   0.00000
  24        3PZ         0.00001   0.00000  -0.00000   0.00004   0.00000
  25 3   H  1S          0.00327  -0.00000   0.00000   0.00463  -0.00162
  26        2S          0.00277  -0.00000   0.00000   0.00045  -0.00824
  27        3PX         0.00000  -0.00000   0.00031  -0.00000   0.00000
  28        3PY         0.00034  -0.00000  -0.00000   0.00008   0.00046
  29        3PZ         0.00001  -0.00000   0.00000   0.00004  -0.00000
                          21        22        23        24        25
  21        2S          0.05328
  22        3PX         0.00000   0.00104
  23        3PY         0.00000   0.00000   0.00133
  24        3PZ         0.00000   0.00000   0.00000   0.00100
  25 3   H  1S         -0.00824   0.00000   0.00046  -0.00000   0.21087
  26        2S         -0.00748   0.00000   0.00011  -0.00000   0.06018
  27        3PX         0.00000   0.00001   0.00000  -0.00000   0.00000
  28        3PY         0.00011   0.00000   0.00010  -0.00000   0.00000
  29        3PZ        -0.00000   0.00000   0.00000  -0.00000   0.00000
                          26        27        28        29
  26        2S          0.05328
  27        3PX         0.00000   0.00104
  28        3PY         0.00000   0.00000   0.00133
  29        3PZ         0.00000  -0.00000  -0.00000   0.00100
     Gross orbital populations:
                           1
   1 1   O  1S          1.99238
   2        2S          0.91020
   3        2PX         1.13477
   4        2PY         0.83617
   5        2PZ         0.95833
   6        3S          0.91716
   7        3PX         0.70607
   8        3PY         0.41919
   9        3PZ         0.55247
  10        4S          0.04346
  11        4PX         0.13352
  12        4PY         0.01771
  13        4PZ         0.08307
  14        5XX        -0.00672
  15        5YY         0.00211
  16        5ZZ        -0.00602
  17        5XY         0.00000
  18        5XZ         0.00215
  19        5YZ         0.01206
  20 2   H  1S          0.49786
  21        2S          0.10723
  22        3PX         0.01174
  23        3PY         0.01622
  24        3PZ         0.01291
  25 3   H  1S          0.49786
  26        2S          0.10723
  27        3PX         0.01174
  28        3PY         0.01622
  29        3PZ         0.01291
          Condensed to atoms (all electrons):
              1          2          3
     1  O    8.143272   0.282411   0.282411
     2  H    0.282411   0.387881  -0.024338
     3  H    0.282411  -0.024338   0.387881
 Mulliken atomic charges:
              1
     1  O   -0.708093
     2  H    0.354047
     3  H    0.354047
 Sum of Mulliken atomic charges =  -0.00000
 Mulliken charges with hydrogens summed into heavy atoms:
              1
     1  O   -0.000000
 Sum of Mulliken charges with hydrogens summed into heavy atoms =  -0.00000
 Electronic spatial extent (au):  <R**2>=             20.0428
 Charge=             -0.0000 electrons
 Dipole moment (field-independent basis, Debye):
    X=             -0.0000    Y=             -0.0000    Z=             -2.2115  Tot=              2.2115
 Quadrupole moment (field-independent basis, Debye-Ang):
   XX=             -7.8634   YY=             -4.4457   ZZ=             -6.4936
   XY=              0.0000   XZ=              0.0000   YZ=              0.0000
 Traceless Quadrupole moment (field-independent basis, Debye-Ang):
   XX=             -1.5959   YY=              1.8219   ZZ=             -0.2260
   XY=              0.0000   XZ=              0.0000   YZ=              0.0000
 Octapole moment (field-independent basis, Debye-Ang**2):
  XXX=              0.0000  YYY=             -0.0000  ZZZ=             -1.6409  XYY=             -0.0000
  XXY=              0.0000  XXZ=             -0.4884  XZZ=             -0.0000  YZZ=             -0.0000
  YYZ=             -1.3840  XYZ=             -0.0000
 Hexadecapole moment (field-independent basis, Debye-Ang**3):
 XXXX=             -7.9185 YYYY=             -6.4943 ZZZZ=             -8.0909 XXXY=             -0.0000
 XXXZ=             -0.0000 YYYX=             -0.0000 YYYZ=              0.0000 ZZZX=             -0.0000
 ZZZY=              0.0000 XXYY=             -2.6717 XXZZ=             -2.7219 YYZZ=             -2.1101
 XXYZ=             -0.0000 YYXZ=              0.0000 ZZXY=              0.0000
 N-N= 9.187333538593D+00 E-N=-1.986775272094D+02  KE= 7.576088458408D+01
 Symmetry A1   KE= 6.766398565053D+01
 Symmetry A2   KE= 7.808516060178D-36
 Symmetry B1   KE= 4.465281583182D+00
 Symmetry B2   KE= 3.631617350373D+00
 Orbital energies and kinetic energies (alpha):
                                 1                 2
   1         (A1)--O         -19.169018         29.027944
   2         (A1)--O          -1.026334          2.606175
   3         (B2)--O          -0.542799          1.815809
   4         (A1)--O          -0.397105          2.197874
   5         (B1)--O          -0.321844          2.232641
   6         (A1)--V           0.025665          0.844078
   7         (B2)--V           0.115786          0.819598
   8         (B1)--V           0.155005          0.618376
   9         (A1)--V           0.155216          0.563439
  10         (B2)--V           0.207068          0.814504
  11         (A1)--V           0.246662          0.953105
  12         (B2)--V           0.902418          2.876335
  13         (A1)--V           0.997338          3.119122
  14         (B2)--V           1.084461          2.544112
  15         (B1)--V           1.112531          3.671382
  16         (A1)--V           1.129859          2.798911
  17         (A1)--V           1.232400          2.289487
  18         (A2)--V           1.506198          2.514211
  19         (A1)--V           1.527564          2.512331
  20         (B1)--V           1.626701          2.605108
  21         (A1)--V           2.239717          3.449216
  22         (B2)--V           2.256041          3.121579
  23         (B2)--V           2.516105          3.941275
  24         (A2)--V           2.633364          3.575618
  25         (B1)--V           2.662970          3.566470
  26         (A1)--V           3.035074          4.024634
  27         (A1)--V           3.333649          6.671491
  28         (B2)--V           3.524071          5.642139
  29         (A1)--V           3.924785          8.944053
 Total kinetic energy from orbitals= 7.576088458408D+01
 No NMR shielding tensors so no spin-rotation constants.
 Leave Link  601 at Tue Aug 13 20:54:19 2024, MaxMem=   33554432 cpu:       0.1
 (Enter /programs/64bit/g09/g09-gfortran/bin/l701.exe)
 Compute integral first derivatives.
 ... and contract with generalized density number  0.
 Leave Link  701 at Tue Aug 13 20:54:19 2024, MaxMem=   33554432 cpu:       0.1
 (Enter /programs/64bit/g09/g09-gfortran/bin/l702.exe)
 L702 exits ... SP integral derivatives will be done elsewhere.
 Leave Link  702 at Tue Aug 13 20:54:19 2024, MaxMem=   33554432 cpu:       0.0
 (Enter /programs/64bit/g09/g09-gfortran/bin/l703.exe)
 Compute integral first derivatives, UseDBF=F ICtDFT=           0.
 Integral derivatives from FoFDir, PRISM(SPDF).
 Calling FoFJK, ICntrl=      2127 FMM=F ISym2X=1 I1Cent= 0 IOpClX= 0 NMat=1 NMatS=1 NMatT=0.
 FoFCou: FMM=F IPFlag=           0 FMFlag=      100000 FMFlg1=         800
         NFxFlg=           0 DoJE=F BraDBF=F KetDBF=F FulRan=T
         Omega=  0.000000  0.000000  1.000000  0.000000  0.000000 ICntrl=    2127 IOpCl=  0
         NMat0=    1 NMatS0=    1 NMatT0=    0 NMatD0=    1 NMtDS0=    0 NMtDT0=    0
         I1Cent=           0 NGrid=           0.
 Petite list used in FoFCou.
 Leave Link  703 at Tue Aug 13 20:54:19 2024, MaxMem=   33554432 cpu:       0.5
 (Enter /programs/64bit/g09/g09-gfortran/bin/l716.exe)
 Dipole        =-5.48685519D-17-2.22044605D-16-8.70072705D-01
 ***** Axes restored to original set *****
 -------------------------------------------------------------------
 Center     Atomic                   Forces (Hartrees/Bohr)
 Number     Number              X              Y              Z
 -------------------------------------------------------------------
      1        8          -0.004787033    0.000000000   -0.003706517
      2        1          -0.002326317   -0.000000000    0.007949008
      3        1           0.007113350   -0.000000000   -0.004242491
 -------------------------------------------------------------------
 Cartesian Forces:  Max     0.007949008 RMS     0.004395085
 Leave Link  716 at Tue Aug 13 20:54:19 2024, MaxMem=   33554432 cpu:       0.0
 (Enter /programs/64bit/g09/g09-gfortran/bin/l103.exe)

 GradGradGradGradGradGradGradGradGradGradGradGradGradGradGradGradGradGrad
 Berny optimization.
 Internal  Forces:  Max     0.007949008 RMS     0.006930847
 Search for a local minimum.
 Step number   1 out of a maximum of   20
 All quantities printed in internal units (Hartrees-Bohrs-Radians)
 RMS Force = .69308D-02 SwitMx=.10000D-02 MixMth= 1
 Mixed Optimization -- RFO/linear search
 Second derivative matrix not updated -- first step.
 The second derivative matrix:
                          R1        R2        A1
           R1           0.55906
           R2           0.00000   0.55906
           A1           0.00000   0.00000   0.16000
     Eigenvalues ---    0.16000   0.55906   0.55906
 RFO step:  Lambda=-3.36530841D-04 EMin= 1.60000000D-01
 Linear search not attempted -- first point.
 Iteration  1 RMS(Cart)=  0.02159030 RMS(Int)=  0.00017363
 Iteration  2 RMS(Cart)=  0.00011504 RMS(Int)=  0.00000001
 Iteration  3 RMS(Cart)=  0.00000001 RMS(Int)=  0.00000000
 ClnCor:  largest displacement from symmetrization is 9.13D-15 for atom     3.
 Variable       Old X    -DE/DX   Delta X   Delta X   Delta X     New X
                                 (Linear)    (Quad)   (Total)
    R1        1.81036   0.00795   0.00000   0.01421   0.01421   1.82457
    R2        1.81036   0.00795   0.00000   0.01421   0.01421   1.82457
    A1        1.82387   0.00421   0.00000   0.02627   0.02627   1.85014
         Item               Value     Threshold  Converged?
 Maximum Force            0.007949     0.000450     NO 
 RMS     Force            0.006931     0.000300     NO 
 Maximum Displacement     0.022496     0.001800     NO 
 RMS     Displacement     0.021607     0.001200     NO 
 Predicted change in Energy=-1.684497D-04
 GradGradGradGradGradGradGradGradGradGradGradGradGradGradGradGradGradGrad

 Leave Link  103 at Tue Aug 13 20:54:20 2024, MaxMem=   33554432 cpu:       0.0
 (Enter /programs/64bit/g09/g09-gfortran/bin/l202.exe)
                          Input orientation:                          
 ---------------------------------------------------------------------
 Center     Atomic      Atomic             Coordinates (Angstroms)
 Number     Number       Type             X           Y           Z
 ---------------------------------------------------------------------
      1          8           0        0.002885   -0.000000    0.002234
      2          1           0       -0.009795   -0.000000    0.967670
      3          1           0        0.934395    0.000000   -0.251768
 ---------------------------------------------------------------------
                    Distance matrix (angstroms):
                    1          2          3
     1  O    0.000000
     2  H    0.965520   0.000000
     3  H    0.965520   1.542247   0.000000
 Stoichiometry    H2O
 Framework group  C2V[C2(O),SGV(H2)]
 Deg. of freedom     2
 Full point group                 C2V     NOp   4
 Largest Abelian subgroup         C2V     NOp   4
 Largest concise Abelian subgroup C2      NOp   2
                         Standard orientation:                         
 ---------------------------------------------------------------------
 Center     Atomic      Atomic             Coordinates (Angstroms)
 Number     Number       Type             X           Y           Z
 ---------------------------------------------------------------------
      1          8           0       -0.000000    0.000000    0.116206
      2          1           0        0.000000    0.771123   -0.464825
      3          1           0       -0.000000   -0.771123   -0.464825
 ---------------------------------------------------------------------
 Rotational constants (GHZ):    836.2748755    421.6521499    280.3160216
 Leave Link  202 at Tue Aug 13 20:54:20 2024, MaxMem=   33554432 cpu:       0.0
 (Enter /programs/64bit/g09/g09-gfortran/bin/l301.exe)
 Standard basis: 6-31+G(d,p) (6D, 7F)
 Ernie: Thresh=  0.10000D-02 Tol=  0.10000D-05 Strict=F.
 There are    14 symmetry adapted basis functions of A1  symmetry.
 There are     2 symmetry adapted basis functions of A2  symmetry.
 There are     5 symmetry adapted basis functions of B1  symmetry.
 There are     8 symmetry adapted basis functions of B2  symmetry.
 Integral buffers will be    131072 words long.
 Raffenetti 2 integral format.
 Two-electron integral symmetry is turned on.
    29 basis functions,    46 primitive gaussians,    29 cartesian basis functions
     5 alpha electrons        5 beta electrons
       nuclear repulsion energy         9.1123217056 Hartrees.
 IExCor=  402 DFT=T Ex+Corr=B3LYP ExCW=0 ScaHFX=  0.200000
 ScaDFX=  0.800000  0.720000  1.000000  0.810000 ScalE2=  1.000000  1.000000
 IRadAn=      0 IRanWt=     -1 IRanGd=            0 ICorTp=0
 NAtoms=    3 NActive=    3 NUniq=    2 SFac= 1.69D+00 NAtFMM=   80 NAOKFM=F Big=F
 Leave Link  301 at Tue Aug 13 20:54:20 2024, MaxMem=   33554432 cpu:       0.1
 (Enter /programs/64bit/g09/g09-gfortran/bin/l302.exe)
 NPDir=0 NMtPBC=     1 NCelOv=     1 NCel=       1 NClECP=     1 NCelD=      1
         NCelK=      1 NCelE2=     1 NClLst=     1 CellRange=     0.0.
 One-electron integrals computed using PRISM.
 One-electron integral symmetry used in STVInt
 NBasis=    29 RedAO= T  NBF=    14     2     5     8
 NBsUse=    29 1.00D-06 NBFU=    14     2     5     8
 Precomputing XC quadrature grid using
 IXCGrd= 2 IRadAn=           0 IRanWt=          -1 IRanGd=           0 AccXCQ= 1.00D-10.
 NRdTot=     187 NPtTot=       23652 NUsed=       25013 NTot=       25045
 NSgBfM=    29    29    29    29    29 NAtAll=     3     3.
 Leave Link  302 at Tue Aug 13 20:54:20 2024, MaxMem=   33554432 cpu:       0.2
 (Enter /programs/64bit/g09/g09-gfortran/bin/l303.exe)
 DipDrv:  MaxL=1.
 Leave Link  303 at Tue Aug 13 20:54:20 2024, MaxMem=   33554432 cpu:       0.0
 (Enter /programs/64bit/g09/g09-gfortran/bin/l401.exe)
 Initial guess read from the read-write file.
 B after Tr=     0.000000    0.000000    0.000000
         Rot=    1.000000    0.000000    0.000000    0.000000 Ang=   0.00 deg.
 Guess basis will be translated and rotated to current coordinates.
 Initial guess orbital symmetries:
       Occupied  (A1) (A1) (B2) (A1) (B1)
       Virtual   (A1) (B2) (B1) (A1) (B2) (A1) (B2) (A1) (B2) (B1)
                 (A1) (A1) (A2) (A1) (B1) (A1) (B2) (B2) (A2) (B1)
                 (A1) (A1) (B2) (A1)
 The electronic state of the initial guess is 1-A1.
 Generating alternative initial guess.
 Harris functional with IExCor=  402 diagonalized for initial guess.
 ExpMin= 8.45D-02 ExpMax= 5.48D+03 ExpMxC= 8.25D+02 IAcc=2 IRadAn=         0 AccDes= 0.00D+00
 HarFok:  IExCor=  402 AccDes= 0.00D+00 IRadAn=         0 IDoV= 1
 ScaDFX=  1.000000  1.000000  1.000000  1.000000
 FoFCou: FMM=F IPFlag=           0 FMFlag=      100000 FMFlg1=           0
         NFxFlg=           0 DoJE=T BraDBF=F KetDBF=T FulRan=T
         Omega=  0.000000  0.000000  1.000000  0.000000  0.000000 ICntrl=     500 IOpCl=  0
         NMat0=    1 NMatS0=    1 NMatT0=    0 NMatD0=    1 NMtDS0=    0 NMtDT0=    0
         I1Cent=           4 NGrid=           0.
 Petite list used in FoFCou.
 Harris En= -76.4703218421891    
 Leave Link  401 at Tue Aug 13 20:54:21 2024, MaxMem=   33554432 cpu:       0.4
 (Enter /programs/64bit/g09/g09-gfortran/bin/l502.exe)
 Closed shell SCF:
 Requested convergence on RMS density matrix=1.00D-08 within 128 cycles.
 Requested convergence on MAX density matrix=1.00D-06.
 Requested convergence on             energy=1.00D-06.
 No special actions if energy rises.
 Using DIIS extrapolation, IDIIS=  1040.
 Integral symmetry usage will be decided dynamically.
        24973 words used for storage of precomputed grid.
 Keep R1 ints in memory in canonical form, NReq=999482.
 IEnd=       46098 IEndB=       46098 NGot=    33554432 MDV=    33430987
 LenX=    33430987 LenY=    33429705
 Symmetry not used in FoFDir.
 MinBra= 0 MaxBra= 2 Meth= 1.
 IRaf=       0 NMat=   1 IRICut=       1 DoRegI=T DoRafI=F ISym2E= 0 JSym2E=0.
 Integral accuracy reduced to 1.0D-05 until final iterations.

 Cycle   1  Pass 0  IDiag  1:
 E= -76.4340005263676    
 DIIS: error= 1.56D-03 at cycle   1 NSaved=   1.
 NSaved= 1 IEnMin= 1 EnMin= -76.4340005263676     IErMin= 1 ErrMin= 1.56D-03
 ErrMax= 1.56D-03 EMaxC= 1.00D-01 BMatC= 5.06D-05 BMatP= 5.06D-05
 IDIUse=3 WtCom= 9.84D-01 WtEn= 1.56D-02
 Coeff-Com:  0.100D+01
 Coeff-En:   0.100D+01
 Coeff:      0.100D+01
 Gap=     0.345 Goal=   None    Shift=    0.000
 GapD=    0.345 DampG=1.000 DampE=1.000 DampFc=1.0000 IDamp=-1.
 RMSDP=3.02D-04 MaxDP=1.84D-03              OVMax= 3.72D-03

 Cycle   2  Pass 0  IDiag  1:
 E= -76.4340379921983     Delta-E=       -0.000037465831 Rises=F Damp=F
 DIIS: error= 8.68D-04 at cycle   2 NSaved=   2.
 NSaved= 2 IEnMin= 2 EnMin= -76.4340379921983     IErMin= 2 ErrMin= 8.68D-04
 ErrMax= 8.68D-04 EMaxC= 1.00D-01 BMatC= 1.49D-05 BMatP= 5.06D-05
 IDIUse=3 WtCom= 9.91D-01 WtEn= 8.68D-03
 Coeff-Com:  0.286D+00 0.714D+00
 Coeff-En:   0.000D+00 0.100D+01
 Coeff:      0.284D+00 0.716D+00
 Gap=     0.347 Goal=   None    Shift=    0.000
 RMSDP=1.32D-04 MaxDP=1.63D-03 DE=-3.75D-05 OVMax= 1.85D-03

 Cycle   3  Pass 0  IDiag  1:
 E= -76.4340411940531     Delta-E=       -0.000003201855 Rises=F Damp=F
 DIIS: error= 6.96D-04 at cycle   3 NSaved=   3.
 NSaved= 3 IEnMin= 3 EnMin= -76.4340411940531     IErMin= 3 ErrMin= 6.96D-04
 ErrMax= 6.96D-04 EMaxC= 1.00D-01 BMatC= 1.08D-05 BMatP= 1.49D-05
 IDIUse=3 WtCom= 9.93D-01 WtEn= 6.96D-03
 Coeff-Com:  0.138D-01 0.457D+00 0.529D+00
 Coeff-En:   0.000D+00 0.428D+00 0.572D+00
 Coeff:      0.137D-01 0.457D+00 0.529D+00
 Gap=     0.346 Goal=   None    Shift=    0.000
 RMSDP=5.99D-05 MaxDP=7.09D-04 DE=-3.20D-06 OVMax= 8.38D-04

 Cycle   4  Pass 0  IDiag  1:
 E= -76.4340488916690     Delta-E=       -0.000007697616 Rises=F Damp=F
 DIIS: error= 3.17D-05 at cycle   4 NSaved=   4.
 NSaved= 4 IEnMin= 4 EnMin= -76.4340488916690     IErMin= 4 ErrMin= 3.17D-05
 ErrMax= 3.17D-05 EMaxC= 1.00D-01 BMatC= 2.00D-08 BMatP= 1.08D-05
 IDIUse=1 WtCom= 1.00D+00 WtEn= 0.00D+00
 Coeff-Com: -0.378D-02 0.909D-01 0.121D+00 0.792D+00
 Coeff:     -0.378D-02 0.909D-01 0.121D+00 0.792D+00
 Gap=     0.346 Goal=   None    Shift=    0.000
 RMSDP=3.56D-06 MaxDP=2.19D-05 DE=-7.70D-06 OVMax= 4.09D-05

 Initial convergence to 1.0D-05 achieved.  Increase integral accuracy.
 Cycle   5  Pass 1  IDiag  1:
 E= -76.4340455514492     Delta-E=        0.000003340220 Rises=F Damp=F
 DIIS: error= 2.71D-06 at cycle   1 NSaved=   1.
 NSaved= 1 IEnMin= 1 EnMin= -76.4340455514492     IErMin= 1 ErrMin= 2.71D-06
 ErrMax= 2.71D-06 EMaxC= 1.00D-01 BMatC= 1.57D-10 BMatP= 1.57D-10
 IDIUse=1 WtCom= 1.00D+00 WtEn= 0.00D+00
 Coeff-Com:  0.100D+01
 Coeff:      0.100D+01
 Gap=     0.346 Goal=   None    Shift=    0.000
 RMSDP=3.56D-06 MaxDP=2.19D-05 DE= 3.34D-06 OVMax= 1.28D-05

 Cycle   6  Pass 1  IDiag  1:
 E= -76.4340455517717     Delta-E=       -0.000000000323 Rises=F Damp=F
 DIIS: error= 1.08D-06 at cycle   2 NSaved=   2.
 NSaved= 2 IEnMin= 2 EnMin= -76.4340455517717     IErMin= 2 ErrMin= 1.08D-06
 ErrMax= 1.08D-06 EMaxC= 1.00D-01 BMatC= 1.64D-11 BMatP= 1.57D-10
 IDIUse=1 WtCom= 1.00D+00 WtEn= 0.00D+00
 Coeff-Com:  0.146D+00 0.854D+00
 Coeff:      0.146D+00 0.854D+00
 Gap=     0.346 Goal=   None    Shift=    0.000
 RMSDP=1.66D-07 MaxDP=2.21D-06 DE=-3.23D-10 OVMax= 2.97D-06

 Cycle   7  Pass 1  IDiag  1:
 E= -76.4340455517750     Delta-E=       -0.000000000003 Rises=F Damp=F
 DIIS: error= 8.89D-07 at cycle   3 NSaved=   3.
 NSaved= 3 IEnMin= 3 EnMin= -76.4340455517750     IErMin= 3 ErrMin= 8.89D-07
 ErrMax= 8.89D-07 EMaxC= 1.00D-01 BMatC= 1.74D-11 BMatP= 1.64D-11
 IDIUse=1 WtCom= 1.00D+00 WtEn= 0.00D+00
 Coeff-Com: -0.116D-01 0.508D+00 0.503D+00
 Coeff:     -0.116D-01 0.508D+00 0.503D+00
 Gap=     0.346 Goal=   None    Shift=    0.000
 RMSDP=8.69D-08 MaxDP=1.10D-06 DE=-3.24D-12 OVMax= 1.35D-06

 Cycle   8  Pass 1  IDiag  1:
 E= -76.4340455517872     Delta-E=       -0.000000000012 Rises=F Damp=F
 DIIS: error= 1.57D-07 at cycle   4 NSaved=   4.
 NSaved= 4 IEnMin= 4 EnMin= -76.4340455517872     IErMin= 4 ErrMin= 1.57D-07
 ErrMax= 1.57D-07 EMaxC= 1.00D-01 BMatC= 4.09D-13 BMatP= 1.64D-11
 IDIUse=1 WtCom= 1.00D+00 WtEn= 0.00D+00
 Coeff-Com: -0.156D-01 0.841D-01 0.179D+00 0.752D+00
 Coeff:     -0.156D-01 0.841D-01 0.179D+00 0.752D+00
 Gap=     0.346 Goal=   None    Shift=    0.000
 RMSDP=1.34D-08 MaxDP=2.00D-07 DE=-1.23D-11 OVMax= 2.76D-07

 Cycle   9  Pass 1  IDiag  1:
 E= -76.4340455517878     Delta-E=       -0.000000000001 Rises=F Damp=F
 DIIS: error= 7.01D-09 at cycle   5 NSaved=   5.
 NSaved= 5 IEnMin= 5 EnMin= -76.4340455517878     IErMin= 5 ErrMin= 7.01D-09
 ErrMax= 7.01D-09 EMaxC= 1.00D-01 BMatC= 9.77D-16 BMatP= 4.09D-13
 IDIUse=1 WtCom= 1.00D+00 WtEn= 0.00D+00
 Coeff-Com:  0.611D-03-0.122D-01-0.712D-02-0.365D-02 0.102D+01
 Coeff:      0.611D-03-0.122D-01-0.712D-02-0.365D-02 0.102D+01
 Gap=     0.346 Goal=   None    Shift=    0.000
 RMSDP=1.12D-09 MaxDP=1.34D-08 DE=-6.11D-13 OVMax= 1.95D-08

 SCF Done:  E(RB3LYP) =  -76.4340455518     A.U. after    9 cycles
             Convg  =    0.1122D-08             -V/T =  2.0093
 KE= 7.573040952686D+01 PE=-1.985180764874D+02 EE= 3.724129970315D+01
 Leave Link  502 at Tue Aug 13 20:54:22 2024, MaxMem=   33554432 cpu:       0.9
 (Enter /programs/64bit/g09/g09-gfortran/bin/l701.exe)
 Compute integral first derivatives.
 ... and contract with generalized density number  0.
 Leave Link  701 at Tue Aug 13 20:54:23 2024, MaxMem=   33554432 cpu:       0.2
 (Enter /programs/64bit/g09/g09-gfortran/bin/l702.exe)
 L702 exits ... SP integral derivatives will be done elsewhere.
 Leave Link  702 at Tue Aug 13 20:54:23 2024, MaxMem=   33554432 cpu:       0.0
 (Enter /programs/64bit/g09/g09-gfortran/bin/l703.exe)
 Compute integral first derivatives, UseDBF=F ICtDFT=           0.
 Integral derivatives from FoFDir, PRISM(SPDF).
 Calling FoFJK, ICntrl=      2127 FMM=F ISym2X=1 I1Cent= 0 IOpClX= 0 NMat=1 NMatS=1 NMatT=0.
 FoFCou: FMM=F IPFlag=           0 FMFlag=      100000 FMFlg1=         800
         NFxFlg=           0 DoJE=F BraDBF=F KetDBF=F FulRan=T
         Omega=  0.000000  0.000000  1.000000  0.000000  0.000000 ICntrl=    2127 IOpCl=  0
         NMat0=    1 NMatS0=    1 NMatT0=    0 NMatD0=    1 NMtDS0=    0 NMtDT0=    0
         I1Cent=           0 NGrid=           0.
 Petite list used in FoFCou.
 Leave Link  703 at Tue Aug 13 20:54:23 2024, MaxMem=   33554432 cpu:       0.5
 (Enter /programs/64bit/g09/g09-gfortran/bin/l716.exe)
 Dipole        =-5.63311703D-17-2.22044605D-16-8.62014663D-01
 ***** Axes restored to original set *****
 -------------------------------------------------------------------
 Center     Atomic                   Forces (Hartrees/Bohr)
 Number     Number              X              Y              Z
 -------------------------------------------------------------------
      1        8           0.000029719    0.000000000    0.000023011
      2        1           0.000413467   -0.000000000   -0.000564697
      3        1          -0.000443186   -0.000000000    0.000541686
 -------------------------------------------------------------------
 Cartesian Forces:  Max     0.000564697 RMS     0.000330166
 Leave Link  716 at Tue Aug 13 20:54:23 2024, MaxMem=   33554432 cpu:       0.0
 (Enter /programs/64bit/g09/g09-gfortran/bin/l103.exe)

 GradGradGradGradGradGradGradGradGradGradGradGradGradGradGradGradGradGrad
 Berny optimization.
 Using GEDIIS/GDIIS optimizer.
 Internal  Forces:  Max     0.000740803 RMS     0.000632131
 Search for a local minimum.
 Step number   2 out of a maximum of   20
 All quantities printed in internal units (Hartrees-Bohrs-Radians)
 RMS Force = .63213D-03 SwitMx=.10000D-02 MixMth= 2
 Mixed Optimization -- En-DIIS/RFO-DIIS
 Update second derivatives using D2CorX and points    1    2
 DE= -1.49D-04 DEPred=-1.68D-04 R= 8.84D-01
 SS=  1.41D+00  RLast= 3.31D-02 DXNew= 5.0454D-01 9.9217D-02
 Trust test= 8.84D-01 RLast= 3.31D-02 DXMaxT set to 3.00D-01
 The second derivative matrix:
                          R1        R2        A1
           R1           0.56631
           R2           0.00726   0.56631
           A1           0.01404   0.01404   0.17335
 Use linear search instead of GDIIS.
     Eigenvalues ---    0.17237   0.55906   0.57455
 RFO step:  Lambda=-7.02571510D-07 EMin= 1.72371223D-01
 Quartic linear search produced a step of -0.09793.
 Iteration  1 RMS(Cart)=  0.00276335 RMS(Int)=  0.00000355
 Iteration  2 RMS(Cart)=  0.00000262 RMS(Int)=  0.00000000
 Iteration  3 RMS(Cart)=  0.00000000 RMS(Int)=  0.00000000
 ClnCor:  largest displacement from symmetrization is 3.42D-15 for atom     3.
 Variable       Old X    -DE/DX   Delta X   Delta X   Delta X     New X
                                 (Linear)    (Quad)   (Total)
    R1        1.82457  -0.00057  -0.00139   0.00048  -0.00091   1.82366
    R2        1.82457  -0.00057  -0.00139   0.00048  -0.00091   1.82366
    A1        1.85014  -0.00074  -0.00257  -0.00166  -0.00424   1.84590
         Item               Value     Threshold  Converged?
 Maximum Force            0.000741     0.000450     NO 
 RMS     Force            0.000632     0.000300     NO 
 Maximum Displacement     0.002931     0.001800     NO 
 RMS     Displacement     0.002764     0.001200     NO 
 Predicted change in Energy=-2.037152D-06
 GradGradGradGradGradGradGradGradGradGradGradGradGradGradGradGradGradGrad

 Leave Link  103 at Tue Aug 13 20:54:23 2024, MaxMem=   33554432 cpu:       0.0
 (Enter /programs/64bit/g09/g09-gfortran/bin/l202.exe)
                          Input orientation:                          
 ---------------------------------------------------------------------
 Center     Atomic      Atomic             Coordinates (Angstroms)
 Number     Number       Type             X           Y           Z
 ---------------------------------------------------------------------
      1          8           0        0.002178   -0.000000    0.001686
      2          1           0       -0.008452   -0.000000    0.966667
      3          1           0        0.933760    0.000000   -0.250217
 ---------------------------------------------------------------------
                    Distance matrix (angstroms):
                    1          2          3
     1  O    0.000000
     2  H    0.965039   0.000000
     3  H    0.965039   1.539016   0.000000
 Stoichiometry    H2O
 Framework group  C2V[C2(O),SGV(H2)]
 Deg. of freedom     2
 Full point group                 C2V     NOp   4
 Largest Abelian subgroup         C2V     NOp   4
 Largest concise Abelian subgroup C2      NOp   2
                         Standard orientation:                         
 ---------------------------------------------------------------------
 Center     Atomic      Atomic             Coordinates (Angstroms)
 Number     Number       Type             X           Y           Z
 ---------------------------------------------------------------------
      1          8           0       -0.000000    0.000000    0.116475
      2          1           0       -0.000000    0.769508   -0.465898
      3          1           0       -0.000000   -0.769508   -0.465898
 ---------------------------------------------------------------------
 Rotational constants (GHZ):    832.4258211    423.4243506    280.6619537
 Leave Link  202 at Tue Aug 13 20:54:23 2024, MaxMem=   33554432 cpu:       0.0
 (Enter /programs/64bit/g09/g09-gfortran/bin/l301.exe)
 Standard basis: 6-31+G(d,p) (6D, 7F)
 Ernie: Thresh=  0.10000D-02 Tol=  0.10000D-05 Strict=F.
 There are    14 symmetry adapted basis functions of A1  symmetry.
 There are     2 symmetry adapted basis functions of A2  symmetry.
 There are     5 symmetry adapted basis functions of B1  symmetry.
 There are     8 symmetry adapted basis functions of B2  symmetry.
 Integral buffers will be    131072 words long.
 Raffenetti 2 integral format.
 Two-electron integral symmetry is turned on.
    29 basis functions,    46 primitive gaussians,    29 cartesian basis functions
     5 alpha electrons        5 beta electrons
       nuclear repulsion energy         9.1174088417 Hartrees.
 IExCor=  402 DFT=T Ex+Corr=B3LYP ExCW=0 ScaHFX=  0.200000
 ScaDFX=  0.800000  0.720000  1.000000  0.810000 ScalE2=  1.000000  1.000000
 IRadAn=      0 IRanWt=     -1 IRanGd=            0 ICorTp=0
 NAtoms=    3 NActive=    3 NUniq=    2 SFac= 1.69D+00 NAtFMM=   80 NAOKFM=F Big=F
 Leave Link  301 at Tue Aug 13 20:54:24 2024, MaxMem=   33554432 cpu:       0.1
 (Enter /programs/64bit/g09/g09-gfortran/bin/l302.exe)
 NPDir=0 NMtPBC=     1 NCelOv=     1 NCel=       1 NClECP=     1 NCelD=      1
         NCelK=      1 NCelE2=     1 NClLst=     1 CellRange=     0.0.
 One-electron integrals computed using PRISM.
 One-electron integral symmetry used in STVInt
 NBasis=    29 RedAO= T  NBF=    14     2     5     8
 NBsUse=    29 1.00D-06 NBFU=    14     2     5     8
 Precomputing XC quadrature grid using
 IXCGrd= 2 IRadAn=           0 IRanWt=          -1 IRanGd=           0 AccXCQ= 1.00D-10.
 NRdTot=     187 NPtTot=       23652 NUsed=       25013 NTot=       25045
 NSgBfM=    29    29    29    29    29 NAtAll=     3     3.
 Leave Link  302 at Tue Aug 13 20:54:24 2024, MaxMem=   33554432 cpu:       0.2
 (Enter /programs/64bit/g09/g09-gfortran/bin/l303.exe)
 DipDrv:  MaxL=1.
 Leave Link  303 at Tue Aug 13 20:54:24 2024, MaxMem=   33554432 cpu:       0.0
 (Enter /programs/64bit/g09/g09-gfortran/bin/l401.exe)
 Initial guess read from the read-write file.
 B after Tr=     0.000000    0.000000    0.000000
         Rot=    1.000000    0.000000    0.000000    0.000000 Ang=   0.00 deg.
 Guess basis will be translated and rotated to current coordinates.
 Initial guess orbital symmetries:
       Occupied  (A1) (A1) (B2) (A1) (B1)
       Virtual   (A1) (B2) (A1) (B1) (B2) (A1) (B2) (A1) (B2) (B1)
                 (A1) (A1) (A2) (A1) (B1) (A1) (B2) (B2) (A2) (B1)
                 (A1) (A1) (B2) (A1)
 The electronic state of the initial guess is 1-A1.
 Leave Link  401 at Tue Aug 13 20:54:24 2024, MaxMem=   33554432 cpu:       0.1
 (Enter /programs/64bit/g09/g09-gfortran/bin/l502.exe)
 Closed shell SCF:
 Requested convergence on RMS density matrix=1.00D-08 within 128 cycles.
 Requested convergence on MAX density matrix=1.00D-06.
 Requested convergence on             energy=1.00D-06.
 No special actions if energy rises.
 Using DIIS extrapolation, IDIIS=  1040.
 Integral symmetry usage will be decided dynamically.
        24973 words used for storage of precomputed grid.
 Keep R1 ints in memory in canonical form, NReq=999482.
 IEnd=       46098 IEndB=       46098 NGot=    33554432 MDV=    33430987
 LenX=    33430987 LenY=    33429705
 Symmetry not used in FoFDir.
 MinBra= 0 MaxBra= 2 Meth= 1.
 IRaf=       0 NMat=   1 IRICut=       1 DoRegI=T DoRafI=F ISym2E= 0 JSym2E=0.

 Cycle   1  Pass 1  IDiag  1:
 E= -76.4340469935706    
 DIIS: error= 2.03D-04 at cycle   1 NSaved=   1.
 NSaved= 1 IEnMin= 1 EnMin= -76.4340469935706     IErMin= 1 ErrMin= 2.03D-04
 ErrMax= 2.03D-04 EMaxC= 1.00D-01 BMatC= 6.43D-07 BMatP= 6.43D-07
 IDIUse=3 WtCom= 9.98D-01 WtEn= 2.03D-03
 Coeff-Com:  0.100D+01
 Coeff-En:   0.100D+01
 Coeff:      0.100D+01
 Gap=     0.346 Goal=   None    Shift=    0.000
 RMSDP=4.35D-05 MaxDP=2.47D-04              OVMax= 4.51D-04

 Cycle   2  Pass 1  IDiag  1:
 E= -76.4340476427047     Delta-E=       -0.000000649134 Rises=F Damp=F
 DIIS: error= 5.09D-05 at cycle   2 NSaved=   2.
 NSaved= 2 IEnMin= 2 EnMin= -76.4340476427047     IErMin= 2 ErrMin= 5.09D-05
 ErrMax= 5.09D-05 EMaxC= 1.00D-01 BMatC= 5.32D-08 BMatP= 6.43D-07
 IDIUse=1 WtCom= 1.00D+00 WtEn= 0.00D+00
 Coeff-Com:  0.109D+00 0.891D+00
 Coeff:      0.109D+00 0.891D+00
 Gap=     0.346 Goal=   None    Shift=    0.000
 RMSDP=1.05D-05 MaxDP=1.20D-04 DE=-6.49D-07 OVMax= 1.36D-04

 Cycle   3  Pass 1  IDiag  1:
 E= -76.4340476228527     Delta-E=        0.000000019852 Rises=F Damp=F
 DIIS: error= 6.25D-05 at cycle   3 NSaved=   3.
 NSaved= 3 IEnMin= 2 EnMin= -76.4340476427047     IErMin= 2 ErrMin= 5.09D-05
 ErrMax= 6.25D-05 EMaxC= 1.00D-01 BMatC= 8.47D-08 BMatP= 5.32D-08
 IDIUse=1 WtCom= 1.00D+00 WtEn= 0.00D+00
 Coeff-Com: -0.183D-02 0.560D+00 0.442D+00
 Coeff:     -0.183D-02 0.560D+00 0.442D+00
 Gap=     0.346 Goal=   None    Shift=    0.000
 RMSDP=5.31D-06 MaxDP=6.41D-05 DE= 1.99D-08 OVMax= 7.19D-05

 Cycle   4  Pass 1  IDiag  1:
 E= -76.4340476831453     Delta-E=       -0.000000060293 Rises=F Damp=F
[...]
   5        2PZ         0.95834
   6        3S          0.91810
   7        3PX         0.70613
   8        3PY         0.41990
   9        3PZ         0.55726
  10        4S          0.04159
  11        4PX         0.13421
  12        4PY         0.01769
  13        4PZ         0.08550
  14        5XX        -0.00680
  15        5YY         0.00260
  16        5ZZ        -0.00586
  17        5XY         0.00000
  18        5XZ         0.00208
  19        5YZ         0.01171
  20 2   H  1S          0.49358
  21        2S          0.11031
  22        3PX         0.01146
  23        3PY         0.01609
  24        3PZ         0.01258
  25 3   H  1S          0.49358
  26        2S          0.11031
  27        3PX         0.01146
  28        3PY         0.01609
  29        3PZ         0.01258
          Condensed to atoms (all electrons):
              1          2          3
     1  O    8.147352   0.282299   0.282299
     2  H    0.282299   0.385809  -0.024083
     3  H    0.282299  -0.024083   0.385809
 Mulliken atomic charges:
              1
     1  O   -0.711950
     2  H    0.355975
     3  H    0.355975
 Sum of Mulliken atomic charges =  -0.00000
 Mulliken charges with hydrogens summed into heavy atoms:
              1
     1  O   -0.000000
 Sum of Mulliken charges with hydrogens summed into heavy atoms =  -0.00000
 APT atomic charges:
              1
     1  O   -0.570162
     2  H    0.285081
     3  H    0.285081
 Sum of APT charges=   0.00000
 APT Atomic charges with hydrogens summed into heavy atoms:
              1
     1  O    0.000000
     2  H    0.000000
     3  H    0.000000
 Sum of APT charges=   0.00000
 Electronic spatial extent (au):  <R**2>=             20.1423
 Charge=             -0.0000 electrons
 Dipole moment (field-independent basis, Debye):
    X=             -0.0000    Y=              0.0000    Z=             -2.1948  Tot=              2.1948
 Quadrupole moment (field-independent basis, Debye-Ang):
   XX=             -7.8841   YY=             -4.3750   ZZ=             -6.5381
   XY=              0.0000   XZ=              0.0000   YZ=             -0.0000
 Traceless Quadrupole moment (field-independent basis, Debye-Ang):
   XX=             -1.6184   YY=              1.8907   ZZ=             -0.2724
   XY=              0.0000   XZ=              0.0000   YZ=             -0.0000
 Octapole moment (field-independent basis, Debye-Ang**2):
  XXX=              0.0000  YYY=              0.0000  ZZZ=             -1.6085  XYY=             -0.0000
  XXY=             -0.0000  XXZ=             -0.4779  XZZ=             -0.0000  YZZ=              0.0000
  YYZ=             -1.4078  XYZ=             -0.0000
 Hexadecapole moment (field-independent basis, Debye-Ang**3):
 XXXX=             -7.9583 YYYY=             -6.5049 ZZZZ=             -8.1556 XXXY=             -0.0000
 XXXZ=             -0.0000 YYYX=             -0.0000 YYYZ=             -0.0000 ZZZX=             -0.0000
 ZZZY=             -0.0000 XXYY=             -2.6993 XXZZ=             -2.7378 YYZZ=             -2.1280
 XXYZ=              0.0000 YYXZ=              0.0000 ZZXY=              0.0000
 N-N= 9.117408841731D+00 E-N=-1.985287817825D+02  KE= 7.573267129415D+01
 Symmetry A1   KE= 6.765769743419D+01
 Symmetry A2   KE= 1.467038166988D-34
 Symmetry B1   KE= 4.464291171158D+00
 Symmetry B2   KE= 3.610682688805D+00
 Orbital energies and kinetic energies (alpha):
                                 1                 2
   1         (A1)--O         -19.169599         29.028228
   2         (A1)--O          -1.022303          2.608541
   3         (B2)--O          -0.542355          1.805341
   4         (A1)--O          -0.394216          2.192080
   5         (B1)--O          -0.321038          2.232146
   6         (A1)--V           0.025157          0.863833
   7         (B2)--V           0.114496          0.837765
   8         (B1)--V           0.155056          0.619300
   9         (A1)--V           0.155063          0.562613
  10         (B2)--V           0.206168          0.805255
  11         (A1)--V           0.241935          0.936070
  12         (B2)--V           0.900475          2.893968
  13         (A1)--V           0.988675          3.072906
  14         (B2)--V           1.088407          2.529252
  15         (B1)--V           1.112656          3.670902
  16         (A1)--V           1.126659          2.828859
  17         (A1)--V           1.231263          2.293868
  18         (A2)--V           1.502911          2.507644
  19         (A1)--V           1.536445          2.519522
  20         (B1)--V           1.630514          2.606394
  21         (A1)--V           2.230257          3.439874
  22         (B2)--V           2.241424          3.104909
  23         (B2)--V           2.500991          3.929061
  24         (A2)--V           2.632881          3.576104
  25         (B1)--V           2.645727          3.547157
  26         (A1)--V           3.024250          4.009258
  27         (A1)--V           3.318759          6.592258
  28         (B2)--V           3.510021          5.589181
  29         (A1)--V           3.921708          8.948994
 Total kinetic energy from orbitals= 7.573267129415D+01
  Exact polarizability:   6.676   0.000   7.841   0.000   0.000   6.577
 Approx polarizability:   6.823   0.000   9.672   0.000  -0.000   7.658
 No NMR shielding tensors so no spin-rotation constants.
 Leave Link  601 at Tue Aug 13 20:54:32 2024, MaxMem=   33554432 cpu:       0.1
 (Enter /programs/64bit/g09/g09-gfortran/bin/l701.exe)
 Compute integral second derivatives.
 ... and contract with generalized density number  0.
 Leave Link  701 at Tue Aug 13 20:54:33 2024, MaxMem=   33554432 cpu:       0.2
 (Enter /programs/64bit/g09/g09-gfortran/bin/l702.exe)
 L702 exits ... SP integral derivatives will be done elsewhere.
 Leave Link  702 at Tue Aug 13 20:54:33 2024, MaxMem=   33554432 cpu:       0.0
 (Enter /programs/64bit/g09/g09-gfortran/bin/l703.exe)
 Compute integral second derivatives, UseDBF=F ICtDFT=           0.
 Integral derivatives from FoFDir, PRISM(SPDF).
 Calling FoFJK, ICntrl=    100127 FMM=F ISym2X=1 I1Cent= 0 IOpClX= 0 NMat=1 NMatS=1 NMatT=0.
 FoFCou: FMM=F IPFlag=           0 FMFlag=      100000 FMFlg1=         800
         NFxFlg=           0 DoJE=F BraDBF=F KetDBF=F FulRan=T
         Omega=  0.000000  0.000000  1.000000  0.000000  0.000000 ICntrl=  100127 IOpCl=  0
         NMat0=    1 NMatS0=    1 NMatT0=    0 NMatD0=    1 NMtDS0=    0 NMtDT0=    0
         I1Cent=           0 NGrid=           0.
 Petite list used in FoFCou.
 Leave Link  703 at Tue Aug 13 20:54:34 2024, MaxMem=   33554432 cpu:       1.7
 (Enter /programs/64bit/g09/g09-gfortran/bin/l716.exe)
 Dipole        =-5.61600890D-17 6.92371507D-16-8.63500674D-01
 Polarizability= 6.67639891D+00 2.93073880D-10 7.84132459D+00
                 8.54748841D-11 6.52012320D-11 6.57730791D+00
 Full mass-weighted force constant matrix:
 Low frequencies ---  -61.2220  -50.8579  -30.9043   -0.0007    0.0009    0.0013
 Low frequencies --- 1603.0222 3809.8024 3931.9307
 Diagonal vibrational polarizability:
        0.0000000       0.0997999       0.9675776
 Harmonic frequencies (cm**-1), IR intensities (KM/Mole), Raman scattering
 activities (A**4/AMU), depolarization ratios for plane and unpolarized
 incident light, reduced masses (AMU), force constants (mDyne/A),
 and normal coordinates:
                     1                      2                      3
                    A1                     A1                     B2
 Frequencies --  1603.0222              3809.8024              3931.9307
 Red. masses --     1.0838                 1.0441                 1.0831
 Frc consts  --     1.6409                 8.9292                 9.8658
 IR Inten    --    91.2560                 6.4134                57.3335
  Atom  AN      X      Y      Z        X      Y      Z        X      Y      Z
     1   8     0.00   0.00   0.07     0.00   0.00   0.05     0.00   0.07  -0.00
     2   1    -0.00  -0.42  -0.56     0.00   0.59  -0.39    -0.00  -0.56   0.43
     3   1    -0.00   0.42  -0.56    -0.00  -0.59  -0.39    -0.00  -0.56  -0.43

 -------------------
 - Thermochemistry -
 -------------------
 Temperature   298.150 Kelvin.  Pressure   1.00000 Atm.
 Atom     1 has atomic number  8 and mass  15.99491
 Atom     2 has atomic number  1 and mass   1.00783
 Atom     3 has atomic number  1 and mass   1.00783
 Molecular mass:    18.01056 amu.
 Principal axes and moments of inertia in atomic units:
                           1         2         3
     Eigenvalues --     2.16805   4.26225   6.43030
           X           -0.00000   0.00000   1.00000
           Y            1.00000   0.00000  -0.00000
           Z           -0.00000   1.00000  -0.00000
 This molecule is an asymmetric top.
 Rotational symmetry number  2.
 Rotational temperatures (Kelvin)     39.95009    20.32114    13.46963
 Rotational constants (GHZ):         832.42582   423.42435   280.66195
 Zero-point vibrational energy      55894.0 (Joules/Mol)
                                   13.35900 (Kcal/Mol)
 Vibrational temperatures:   2306.39  5481.45  5657.16
          (Kelvin)
 
 Zero-point correction=                           0.021289 (Hartree/Particle)
 Thermal correction to Energy=                    0.024125
 Thermal correction to Enthalpy=                  0.025069
 Thermal correction to Gibbs Free Energy=         0.003640
 Sum of electronic and zero-point Energies=            -76.412759
 Sum of electronic and thermal Energies=               -76.409923
 Sum of electronic and thermal Enthalpies=             -76.408979
 Sum of electronic and thermal Free Energies=          -76.430407
 
                     E (Thermal)             CV                S
                      KCal/Mol        Cal/Mol-Kelvin    Cal/Mol-Kelvin
 Total                   15.138              6.014             45.100
 Electronic               0.000              0.000              0.000
 Translational            0.889              2.981             34.608
 Rotational               0.889              2.981             10.484
 Vibrational             13.361              0.052              0.008
                       Q            Log10(Q)             Ln(Q)
 Total Bot       0.211602D-01         -1.674480         -3.855632
 Total V=0       0.131136D+09          8.117722         18.691747
 Vib (Bot)       0.161431D-09         -9.792012        -22.546941
 Vib (V=0)       0.100044D+01          0.000190          0.000437
 Electronic      0.100000D+01          0.000000          0.000000
 Translational   0.300432D+07          6.477746         14.915562
 Rotational      0.436301D+02          1.639786          3.775748
 
                                                                water
                                                             IR Spectrum
 
     3   3                                                                       1                                                   
     9   8                                                                       6                                                   
     3   1                                                                       0                                                   
     2   0                                                                       3                                                   
 
     X   X                                                                       X                                                   
     X                                                                           X                                                   
     X                                                                           X                                                   
     X                                                                           X                                                   
     X                                                                           X                                                   
     X                                                                           X                                                   
     X                                                                           X                                                   
     X                                                                           X                                                   
     X                                                                           X                                                   
     X                                                                           X                                                   
     X                                                                           X                                                   
     X                                                                           X                                                   
     X                                                                           X                                                   
                                                                                 X                                                   
                                                                                 X                                                   
                                                                                 X                                                   
                                                                                 X                                                   
                                                                                 X                                                   
                                                                                 X                                                   
                                                                                 X                                                   
 
 ***** Axes restored to original set *****
 -------------------------------------------------------------------
 Center     Atomic                   Forces (Hartrees/Bohr)
 Number     Number              X              Y              Z
 -------------------------------------------------------------------
      1        8          -0.000058950    0.000000000   -0.000045644
      2        1           0.000019252    0.000000000    0.000036026
      3        1           0.000039698   -0.000000000    0.000009618
 -------------------------------------------------------------------
 Cartesian Forces:  Max     0.000058950 RMS     0.000031438
 Force constants in Cartesian coordinates: 
                1             2             3             4             5 
      1  0.536730D+00
      2  0.000000D+00 -0.175218D-03
      3 -0.121820D+00  0.000000D+00  0.599739D+00
      4 -0.433452D-01  0.000000D+00 -0.275842D-01  0.467520D-01
      5  0.000000D+00  0.876090D-04  0.000000D+00  0.000000D+00 -0.115281D-03
      6  0.330162D-01  0.000000D+00 -0.524889D+00 -0.215560D-01  0.000000D+00
      7 -0.493385D+00  0.000000D+00  0.149404D+00 -0.340675D-02  0.000000D+00
      8  0.000000D+00  0.876090D-04  0.000000D+00  0.000000D+00  0.276717D-04
      9  0.888039D-01  0.000000D+00 -0.748501D-01  0.491402D-01  0.000000D+00
                6             7             8             9 
      6  0.538041D+00
      7 -0.114602D-01  0.496791D+00
      8  0.000000D+00  0.000000D+00 -0.115281D-03
      9 -0.131514D-01 -0.137944D+00  0.000000D+00  0.880015D-01
 Force constants in internal coordinates: 
                1             2             3 
      1  0.538434D+00
      2 -0.743011D-02  0.538434D+00
      3  0.294967D-01  0.294967D-01  0.154194D+00
 Leave Link  716 at Tue Aug 13 20:54:35 2024, MaxMem=   33554432 cpu:       0.0
 (Enter /programs/64bit/g09/g09-gfortran/bin/l103.exe)

 GradGradGradGradGradGradGradGradGradGradGradGradGradGradGradGradGradGrad
 Berny optimization.
 Internal  Forces:  Max     0.000035830 RMS     0.000035817
 Search for a local minimum.
 Step number   1 out of a maximum of    2
 All quantities printed in internal units (Hartrees-Bohrs-Radians)
 Second derivative matrix not updated -- analytic derivatives used.
 The second derivative matrix:
                          R1        R2        A1
           R1           0.53843
           R2          -0.00743   0.53843
           A1           0.02950   0.02950   0.15419
     Eigenvalues ---    0.14963   0.53557   0.54586
 Angle between quadratic step and forces=  30.97 degrees.
 Linear search not attempted -- first point.
 Iteration  1 RMS(Cart)=  0.00013105 RMS(Int)=  0.00000001
 Iteration  2 RMS(Cart)=  0.00000002 RMS(Int)=  0.00000000
 ClnCor:  largest displacement from symmetrization is 1.02D-15 for atom     1.
 Variable       Old X    -DE/DX   Delta X   Delta X   Delta X     New X
                                 (Linear)    (Quad)   (Total)
    R1        1.82366   0.00004   0.00000   0.00008   0.00008   1.82374
    R2        1.82366   0.00004   0.00000   0.00008   0.00008   1.82374
    A1        1.84590  -0.00004   0.00000  -0.00026  -0.00026   1.84564
         Item               Value     Threshold  Converged?
 Maximum Force            0.000036     0.000450     YES
 RMS     Force            0.000036     0.000300     YES
 Maximum Displacement     0.000127     0.001800     YES
 RMS     Displacement     0.000131     0.001200     YES
 Predicted change in Energy=-7.665376D-09
 Optimization completed.
    -- Stationary point found.
                           ----------------------------
                           !   Optimized Parameters   !
                           ! (Angstroms and Degrees)  !
 --------------------------                            --------------------------
 ! Name  Definition              Value          Derivative Info.                !
 --------------------------------------------------------------------------------
 ! R1    R(1,2)                  0.965          -DE/DX =    0.0                 !
 ! R2    R(1,3)                  0.965          -DE/DX =    0.0                 !
 ! A1    A(2,1,3)              105.7623         -DE/DX =    0.0                 !
 --------------------------------------------------------------------------------
 GradGradGradGradGradGradGradGradGradGradGradGradGradGradGradGradGradGrad

 Leave Link  103 at Tue Aug 13 20:54:35 2024, MaxMem=   33554432 cpu:       0.0
 (Enter /programs/64bit/g09/g09-gfortran/bin/l9999.exe)
 1\1\GINC-MOLMOD\Freq\RB3LYP\6-31+G(d,p)\H2O1\OSPITE\13-Aug-2024\0\\#P 
 Geom=AllCheck Guess=TCheck SCRF=Check GenChk RB3LYP/6-31+G(d,p) Freq\\
 water\\0,1\O,0.0021778336,0.,0.0016862589\H,-0.0084522639,0.,0.9666667
 651\H,0.9337598698,0.,-0.2502170679\\Version=EM64L-G09RevA.02\State=1-
 A1\HF=-76.4340477\RMSD=2.192e-10\RMSF=3.144e-05\ZeroPoint=0.0212889\Th
 ermal=0.0241247\Dipole=0.682761,0.,0.52865\DipoleDeriv=-0.446459,0.,0.
 0636806,0.,-0.7846306,0.,0.0636806,0.,-0.4793969,0.307863,0.,-0.063150
 2,0.,0.3923153,0.,-0.0443058,0.,0.155065,0.1385961,0.,-0.0005305,0.,0.
 3923153,0.,-0.0193748,0.,0.3243319\Polar=7.051074,0.,6.6763989,-0.6118
 774,0.,7.3675585\PG=C02V [C2(O1),SGV(H2)]\NImag=0\\0.53672979,0.,-0.00
 017522,-0.12182014,0.,0.59973945,-0.04334522,0.,-0.02758418,0.04675197
 ,0.,0.00008761,0.,0.,-0.00011528,0.03301624,0.,-0.52488939,-0.02155600
 ,0.,0.53804083,-0.49338456,0.,0.14940432,-0.00340675,0.,-0.01146023,0.
 49679131,0.,0.00008761,0.,0.,0.00002767,0.,0.,-0.00011528,0.08880391,0
 .,-0.07485006,0.04914018,0.,-0.01315144,-0.13794409,0.,0.08800150\\0.0
 0005895,0.,0.00004564,-0.00001925,0.,-0.00003603,-0.00003970,0.,-0.000
 00962\\\@


 BE LIKE A POSTAGE STAMP.  STICK TO ONE THING UNTIL
 YOU GET THERE -- JOSH BILLINGS
 Job cpu time:  0 days  0 hours  0 minutes  7.9 seconds.
 File lengths (MBytes):  RWF=      5 Int=      0 D2E=      0 Chk=      1 Scr=      1
 Normal termination of Gaussian 09 at Tue Aug 13 20:54:35 2024.
