 Entering Gaussian System, Link 0=/programs/64bit/g09/g09-gfortran/bin/g09
 Input=water.com
 Output=water.log
 Initial command:
 /programs/64bit/g09/g09-gfortran/bin/l1.exe /home/ospite/Desktop/MMfP/Project8/gaussian_simulations/round2/Gau-12544.inp -scrdir=/home/ospite/Desktop/MMfP/Project8/gaussian_simulations/round2/
 Entering Link 1 = /programs/64bit/g09/g09-gfortran/bin/l1.exe PID=     12545.
  
 Copyright (c) 1988,1990,1992,1993,1995,1998,2003,2009, Gaussian, Inc.
                  All Rights Reserved.
  
 This is part of the Gaussian(R) 09 program.  It is based on
 the Gaussian(R) 03 system (copyright 2003, Gaussian, Inc.),
 the Gaussian(R) 98 system (copyright 1998, Gaussian, Inc.),
 the Gaussian(R) 94 system (copyright 1995, Gaussian, Inc.),
 the Gaussian 92(TM) system (copyright 1992, Gaussian, Inc.),
 the Gaussian 90(TM) system (copyright 1990, Gaussian, Inc.),
 the Gaussian 88(TM) system (copyright 1988, Gaussian, Inc.),
 the Gaussian 86(TM) system (copyright 1986, Carnegie Mellon
 University), and the Gaussian 82(TM) system (copyright 1983,
 Carnegie Mellon University). Gaussian is a federally registered
 trademark of Gaussian, Inc.
  
 This software contains proprietary and confidential information,
 including trade secrets, belonging to Gaussian, Inc.
  
 This software is provided under written license and may be
 used, copied, transmitted, or stored only in accord with that
 written license.
  
 The following legend is applicable only to US Government
 contracts under FAR:
  
                    RESTRICTED RIGHTS LEGEND
  
 Use, reproduction and disclosure by the US Government is
 subject to restrictions as set forth in subparagraphs (a)
 and (c) of the Commercial Computer Software - Restricted
 Rights clause in FAR 52.227-19.
  
 Gaussian, Inc.
 340 Quinnipiac St., Bldg. 40, Wallingford CT 06492
  
  
 ---------------------------------------------------------------
 Warning -- This program may not be used in any manner that
 competes with the business of Gaussian, Inc. or will provide
 assistance to any competitor of Gaussian, Inc.  The licensee
 of this program is prohibited from giving any competitor of
 Gaussian, Inc. access to this program.  By using this program,
 the user acknowledges that Gaussian, Inc. is engaged in the
 business of creating and licensing software in the field of
 computational chemistry and represents and warrants to the
 licensee that it is not a competitor of Gaussian, Inc. and that
 it will not use this program in any manner prohibited above.
 ---------------------------------------------------------------
  

 Cite this work as:
 Gaussian 09, Revision A.02,
 M. J. Frisch, G. W. Trucks, H. B. Schlegel, G. E. Scuseria, 
 M. A. Robb, J. R. Cheeseman, G. Scalmani, V. Barone, B. Mennucci, 
 G. A. Petersson, H. Nakatsuji, M. Caricato, X. Li, H. P. Hratchian, 
 A. F. Izmaylov, J. Bloino, G. Zheng, J. L. Sonnenberg, M. Hada, 
 M. Ehara, K. Toyota, R. Fukuda, J. Hasegawa, M. Ishida, T. Nakajima, 
 Y. Honda, O. Kitao, H. Nakai, T. Vreven, J. A. Montgomery, Jr., 
 J. E. Peralta, F. Ogliaro, M. Bearpark, J. J. Heyd, E. Brothers, 
 K. N. Kudin, V. N. Staroverov, R. Kobayashi, J. Normand, 
 K. Raghavachari, A. Rendell, J. C. Burant, S. S. Iyengar, J. Tomasi, 
 M. Cossi, N. Rega, J. M. Millam, M. Klene, J. E. Knox, J. B. Cross, 
 V. Bakken, C. Adamo, J. Jaramillo, R. Gomperts, R. E. Stratmann, 
 O. Yazyev, A. J. Austin, R. Cammi, C. Pomelli, J. W. Ochterski, 
 R. L. Martin, K. Morokuma, V. G. Zakrzewski, G. A. Voth, 
 P. Salvador, J. J. Dannenberg, S. Dapprich, A. D. Daniels, 
 O. Farkas, J. B. Foresman, J. V. Ortiz, J. Cioslowski, 
 and D. J. Fox, Gaussian, Inc., Wallingford CT, 2009.
 
 ******************************************
 Gaussian 09:  EM64L-G09RevA.02 11-Jun-2009
                21-Aug-2024 
 ******************************************
 %NProcShared=2
 Will use up to    2 processors via shared memory.
 %chk=water
 %mem=100MB
 ---------------------------------------------
 #p B3LYP/6-31g(d,p) opt freq pop=full gfinput
 ---------------------------------------------
 1/14=-1,18=20,19=15,26=3,38=1/1,3;
 2/9=110,12=2,17=6,18=5,40=1/2;
 3/5=1,6=6,7=101,11=2,16=1,24=10,25=1,30=1,71=1,74=-5/1,2,3;
 4//1;
 5/5=2,38=5/2;
 6/7=3,28=1/1;
 7//1,2,3,16;
 1/14=-1,18=20,19=15/3(2);
 2/9=110/2;
 99//99;
 2/9=110/2;
 3/5=1,6=6,7=101,11=2,16=1,25=1,30=1,71=1,74=-5/1,2,3;
 4/5=5,16=3/1;
 5/5=2,38=5/2;
 7//1,2,3,16;
 1/14=-1,18=20,19=15/3(-5);
 2/9=110/2;
 6/7=3,19=2,28=1/1;
 99/9=1/99;
 Leave Link    1 at Wed Aug 21 02:32:33 2024, MaxMem=   13107200 cpu:       0.1
 (Enter /programs/64bit/g09/g09-gfortran/bin/l101.exe)
 -----
 water
 -----
 Symbolic Z-matrix:
 Charge =  0 Multiplicity = 1
 o
 h                    1    ho2
 h                    1    ho3      2    hoh3
       Variables:
  ho2                   0.95                     
  ho3                   0.95                     
  hoh3                109.471                    
 
     1 tetrahedral angles replaced.
 NAtoms=      3 NQM=      3 NQMF=      0 NMic=      0 NMicF=      0 NTot=      3.
                    Isotopes and Nuclear Properties:
 (Nuclear quadrupole moments (NQMom) in fm**2, nuclear magnetic moments (NMagM)
  in nuclear magnetons)

  Atom         1           2           3
 IAtWgt=          16           1           1
 AtmWgt=  15.9949146   1.0078250   1.0078250
 NucSpn=           0           1           1
 AtZEff=   0.0000000   0.0000000   0.0000000
 NQMom=    0.0000000   0.0000000   0.0000000
 NMagM=    0.0000000   2.7928460   2.7928460
 Leave Link  101 at Wed Aug 21 02:32:33 2024, MaxMem=   13107200 cpu:       0.1
 (Enter /programs/64bit/g09/g09-gfortran/bin/l103.exe)

 GradGradGradGradGradGradGradGradGradGradGradGradGradGradGradGradGradGrad
 Berny optimization.
 Initialization pass.
                           ----------------------------
                           !    Initial Parameters    !
                           ! (Angstroms and Degrees)  !
 --------------------------                            --------------------------
 ! Name  Definition              Value          Derivative Info.                !
 --------------------------------------------------------------------------------
 ! R1    R(1,2)                  0.95           estimate D2E/DX2                !
 ! R2    R(1,3)                  0.95           estimate D2E/DX2                !
 ! A1    A(2,1,3)              109.4712         estimate D2E/DX2                !
 --------------------------------------------------------------------------------
 Trust Radius=3.00D-01 FncErr=1.00D-07 GrdErr=1.00D-06
 Number of steps in this run=  20 maximum allowed number of steps= 100.
 GradGradGradGradGradGradGradGradGradGradGradGradGradGradGradGradGradGrad

 Leave Link  103 at Wed Aug 21 02:32:33 2024, MaxMem=   13107200 cpu:       0.0
 (Enter /programs/64bit/g09/g09-gfortran/bin/l202.exe)
                          Input orientation:                          
 ---------------------------------------------------------------------
 Center     Atomic      Atomic             Coordinates (Angstroms)
 Number     Number       Type             X           Y           Z
 ---------------------------------------------------------------------
      1          8           0        0.000000    0.000000    0.000000
      2          1           0        0.000000    0.000000    0.950000
      3          1           0        0.895669    0.000000   -0.316667
 ---------------------------------------------------------------------
                    Distance matrix (angstroms):
                    1          2          3
     1  O    0.000000
     2  H    0.950000   0.000000
     3  H    0.950000   1.551344   0.000000
 Stoichiometry    H2O
 Framework group  C2V[C2(O),SGV(H2)]
 Deg. of freedom     2
 Full point group                 C2V     NOp   4
 Largest Abelian subgroup         C2V     NOp   4
 Largest concise Abelian subgroup C2      NOp   2
                         Standard orientation:                         
 ---------------------------------------------------------------------
 Center     Atomic      Atomic             Coordinates (Angstroms)
 Number     Number       Type             X           Y           Z
 ---------------------------------------------------------------------
      1          8           0        0.000000    0.000000    0.109697
      2          1           0       -0.000000    0.775672   -0.438786
      3          1           0       -0.000000   -0.775672   -0.438786
 ---------------------------------------------------------------------
 Rotational constants (GHZ):    938.4724000    416.7216900    288.5799218
 Leave Link  202 at Wed Aug 21 02:32:33 2024, MaxMem=   13107200 cpu:       0.0
 (Enter /programs/64bit/g09/g09-gfortran/bin/l301.exe)
 Standard basis: 6-31G(d,p) (6D, 7F)
 Ernie: Thresh=  0.10000D-02 Tol=  0.10000D-05 Strict=F.
 AO basis set in the form of general basis input (Overlap normalization):
      1 0
 S   6 1.00       0.000000000000
      0.5484671660D+04  0.1831074430D-02
      0.8252349460D+03  0.1395017220D-01
      0.1880469580D+03  0.6844507810D-01
      0.5296450000D+02  0.2327143360D+00
      0.1689757040D+02  0.4701928980D+00
      0.5799635340D+01  0.3585208530D+00
 SP   3 1.00       0.000000000000
      0.1553961625D+02 -0.1107775495D+00  0.7087426823D-01
      0.3599933586D+01 -0.1480262627D+00  0.3397528391D+00
      0.1013761750D+01  0.1130767015D+01  0.7271585773D+00
 SP   1 1.00       0.000000000000
      0.2700058226D+00  0.1000000000D+01  0.1000000000D+01
 D   1 1.00       0.000000000000
      0.8000000000D+00  0.1000000000D+01
 ****
      2 0
 S   3 1.00       0.000000000000
      0.1873113696D+02  0.3349460434D-01
      0.2825394365D+01  0.2347269535D+00
      0.6401216923D+00  0.8137573261D+00
 S   1 1.00       0.000000000000
      0.1612777588D+00  0.1000000000D+01
 P   1 1.00       0.000000000000
      0.1100000000D+01  0.1000000000D+01
 ****
      3 0
 S   3 1.00       0.000000000000
      0.1873113696D+02  0.3349460434D-01
      0.2825394365D+01  0.2347269535D+00
      0.6401216923D+00  0.8137573261D+00
 S   1 1.00       0.000000000000
      0.1612777588D+00  0.1000000000D+01
 P   1 1.00       0.000000000000
      0.1100000000D+01  0.1000000000D+01
 ****

 There are    12 symmetry adapted basis functions of A1  symmetry.
 There are     2 symmetry adapted basis functions of A2  symmetry.
 There are     4 symmetry adapted basis functions of B1  symmetry.
 There are     7 symmetry adapted basis functions of B2  symmetry.
 Integral buffers will be    131072 words long.
 Raffenetti 2 integral format.
 Two-electron integral symmetry is turned on.
    25 basis functions,    42 primitive gaussians,    25 cartesian basis functions
     5 alpha electrons        5 beta electrons
       nuclear repulsion energy         9.2535672353 Hartrees.
 IExCor=  402 DFT=T Ex+Corr=B3LYP ExCW=0 ScaHFX=  0.200000
 ScaDFX=  0.800000  0.720000  1.000000  0.810000 ScalE2=  1.000000  1.000000
 IRadAn=      0 IRanWt=     -1 IRanGd=            0 ICorTp=0
 NAtoms=    3 NActive=    3 NUniq=    2 SFac= 1.69D+00 NAtFMM=   80 NAOKFM=F Big=F
 Leave Link  301 at Wed Aug 21 02:32:33 2024, MaxMem=   13107200 cpu:       0.1
 (Enter /programs/64bit/g09/g09-gfortran/bin/l302.exe)
 NPDir=0 NMtPBC=     1 NCelOv=     1 NCel=       1 NClECP=     1 NCelD=      1
         NCelK=      1 NCelE2=     1 NClLst=     1 CellRange=     0.0.
 One-electron integrals computed using PRISM.
 One-electron integral symmetry used in STVInt
 NBasis=    25 RedAO= T  NBF=    12     2     4     7
 NBsUse=    25 1.00D-06 NBFU=    12     2     4     7
 Precomputing XC quadrature grid using
 IXCGrd= 2 IRadAn=           0 IRanWt=          -1 IRanGd=           0 AccXCQ= 1.00D-10.
 NRdTot=     183 NPtTot=       23214 NUsed=       24547 NTot=       24579
 NSgBfM=    25    25    25    25    25 NAtAll=     3     3.
 Leave Link  302 at Wed Aug 21 02:32:34 2024, MaxMem=   13107200 cpu:       0.3
 (Enter /programs/64bit/g09/g09-gfortran/bin/l303.exe)
 DipDrv:  MaxL=1.
 Leave Link  303 at Wed Aug 21 02:32:34 2024, MaxMem=   13107200 cpu:       0.0
 (Enter /programs/64bit/g09/g09-gfortran/bin/l401.exe)
 Harris functional with IExCor=  402 diagonalized for initial guess.
 ExpMin= 1.61D-01 ExpMax= 5.48D+03 ExpMxC= 8.25D+02 IAcc=1 IRadAn=         1 AccDes= 0.00D+00
 HarFok:  IExCor=  402 AccDes= 0.00D+00 IRadAn=         1 IDoV= 1
 ScaDFX=  1.000000  1.000000  1.000000  1.000000
 FoFCou: FMM=F IPFlag=           0 FMFlag=      100000 FMFlg1=           0
         NFxFlg=           0 DoJE=T BraDBF=F KetDBF=T FulRan=T
         Omega=  0.000000  0.000000  1.000000  0.000000  0.000000 ICntrl=     500 IOpCl=  0
         NMat0=    1 NMatS0=    1 NMatT0=    0 NMatD0=    1 NMtDS0=    0 NMtDT0=    0
         I1Cent=           4 NGrid=           0.
 Petite list used in FoFCou.
 Harris En= -76.4662956322291    
 Initial guess orbital symmetries:
       Occupied  (A1) (A1) (B2) (A1) (B1)
       Virtual   (A1) (B2) (A1) (B2) (B1) (A1) (B2) (A1) (A2) (A1)
                 (B1) (A1) (B2) (B2) (B1) (A2) (A1) (A1) (B2) (A1)
 The electronic state of the initial guess is 1-A1.
 Leave Link  401 at Wed Aug 21 02:32:34 2024, MaxMem=   13107200 cpu:       0.3
 (Enter /programs/64bit/g09/g09-gfortran/bin/l502.exe)
 Closed shell SCF:
 Requested convergence on RMS density matrix=1.00D-08 within 128 cycles.
 Requested convergence on MAX density matrix=1.00D-06.
 Requested convergence on             energy=1.00D-06.
 No special actions if energy rises.
 Using DIIS extrapolation, IDIIS=  1040.
 Integral symmetry usage will be decided dynamically.
        24507 words used for storage of precomputed grid.
 Keep R1 ints in memory in canonical form, NReq=956207.
 IEnd=       44924 IEndB=       44924 NGot=    13107200 MDV=    13026564
 LenX=    13026564 LenY=    13025498
 Symmetry not used in FoFDir.
 MinBra= 0 MaxBra= 2 Meth= 1.
 IRaf=       0 NMat=   1 IRICut=       1 DoRegI=T DoRafI=F ISym2E= 0 JSym2E=0.
 Integral accuracy reduced to 1.0D-05 until final iterations.

 Cycle   1  Pass 0  IDiag  1:
 E= -76.3382511126881    
 DIIS: error= 7.65D-02 at cycle   1 NSaved=   1.
 NSaved= 1 IEnMin= 1 EnMin= -76.3382511126881     IErMin= 1 ErrMin= 7.65D-02
 ErrMax= 7.65D-02 EMaxC= 1.00D-01 BMatC= 1.09D-01 BMatP= 1.09D-01
 IDIUse=3 WtCom= 2.35D-01 WtEn= 7.65D-01
 Coeff-Com:  0.100D+01
 Coeff-En:   0.100D+01
 Coeff:      0.100D+01
 Gap=     0.216 Goal=   None    Shift=    0.000
 GapD=    0.216 DampG=1.000 DampE=0.500 DampFc=0.5000 IDamp=-1.
 Damping current iteration by 5.00D-01
 RMSDP=2.22D-02 MaxDP=2.22D-01              OVMax= 1.98D-01

 Cycle   2  Pass 0  IDiag  1:
 E= -76.3667750331919     Delta-E=       -0.028523920504 Rises=F Damp=T
 DIIS: error= 1.75D-02 at cycle   2 NSaved=   2.
 NSaved= 2 IEnMin= 2 EnMin= -76.3667750331919     IErMin= 2 ErrMin= 1.75D-02
 ErrMax= 1.75D-02 EMaxC= 1.00D-01 BMatC= 5.89D-03 BMatP= 1.09D-01
 IDIUse=3 WtCom= 8.25D-01 WtEn= 1.75D-01
 Coeff-Com:  0.175D+00 0.825D+00
 Coeff-En:   0.285D+00 0.715D+00
 Coeff:      0.194D+00 0.806D+00
 Gap=     0.348 Goal=   None    Shift=    0.000
 RMSDP=2.48D-03 MaxDP=3.25D-02 DE=-2.85D-02 OVMax= 1.11D-01

 Cycle   3  Pass 0  IDiag  1:
 E= -76.4185405975242     Delta-E=       -0.051765564332 Rises=F Damp=F
 DIIS: error= 2.74D-03 at cycle   3 NSaved=   3.
 NSaved= 3 IEnMin= 3 EnMin= -76.4185405975242     IErMin= 3 ErrMin= 2.74D-03
 ErrMax= 2.74D-03 EMaxC= 1.00D-01 BMatC= 1.70D-04 BMatP= 5.89D-03
 IDIUse=3 WtCom= 9.73D-01 WtEn= 2.74D-02
 Coeff-Com:  0.337D-01-0.163D-01 0.983D+00
 Coeff-En:   0.000D+00 0.000D+00 0.100D+01
 Coeff:      0.328D-01-0.158D-01 0.983D+00
 Gap=     0.361 Goal=   None    Shift=    0.000
 RMSDP=3.11D-04 MaxDP=3.20D-03 DE=-5.18D-02 OVMax= 2.83D-03

 Cycle   4  Pass 0  IDiag  1:
 E= -76.4186521462236     Delta-E=       -0.000111548699 Rises=F Damp=F
 DIIS: error= 2.88D-04 at cycle   4 NSaved=   4.
 NSaved= 4 IEnMin= 4 EnMin= -76.4186521462236     IErMin= 4 ErrMin= 2.88D-04
 ErrMax= 2.88D-04 EMaxC= 1.00D-01 BMatC= 2.13D-06 BMatP= 1.70D-04
 IDIUse=3 WtCom= 9.97D-01 WtEn= 2.88D-03
 Coeff-Com:  0.619D-02-0.183D-01 0.227D+00 0.785D+00
 Coeff-En:   0.000D+00 0.000D+00 0.000D+00 0.100D+01
 Coeff:      0.617D-02-0.182D-01 0.226D+00 0.786D+00
 Gap=     0.361 Goal=   None    Shift=    0.000
 RMSDP=2.70D-05 MaxDP=2.00D-04 DE=-1.12D-04 OVMax= 2.84D-04

 Cycle   5  Pass 0  IDiag  1:
 E= -76.4186536575542     Delta-E=       -0.000001511331 Rises=F Damp=F
 DIIS: error= 5.23D-05 at cycle   5 NSaved=   5.
 NSaved= 5 IEnMin= 5 EnMin= -76.4186536575542     IErMin= 5 ErrMin= 5.23D-05
 ErrMax= 5.23D-05 EMaxC= 1.00D-01 BMatC= 4.48D-08 BMatP= 2.13D-06
 IDIUse=1 WtCom= 1.00D+00 WtEn= 0.00D+00
 Coeff-Com:  0.645D-03-0.555D-03 0.311D-02 0.862D-02 0.988D+00
 Coeff:      0.645D-03-0.555D-03 0.311D-02 0.862D-02 0.988D+00
 Gap=     0.361 Goal=   None    Shift=    0.000
 RMSDP=6.06D-06 MaxDP=7.08D-05 DE=-1.51D-06 OVMax= 4.81D-05

 Initial convergence to 1.0D-05 achieved.  Increase integral accuracy.
 Cycle   6  Pass 1  IDiag  1:
 E= -76.4186536498323     Delta-E=        0.000000007722 Rises=F Damp=F
 DIIS: error= 1.40D-06 at cycle   1 NSaved=   1.
 NSaved= 1 IEnMin= 1 EnMin= -76.4186536498323     IErMin= 1 ErrMin= 1.40D-06
 ErrMax= 1.40D-06 EMaxC= 1.00D-01 BMatC= 7.27D-11 BMatP= 7.27D-11
 IDIUse=1 WtCom= 1.00D+00 WtEn= 0.00D+00
 Coeff-Com:  0.100D+01
 Coeff:      0.100D+01
 Gap=     0.361 Goal=   None    Shift=    0.000
 RMSDP=6.06D-06 MaxDP=7.08D-05 DE= 7.72D-09 OVMax= 2.60D-06

 Cycle   7  Pass 1  IDiag  1:
 E= -76.4186536498892     Delta-E=       -0.000000000057 Rises=F Damp=F
 DIIS: error= 2.21D-07 at cycle   2 NSaved=   2.
 NSaved= 2 IEnMin= 2 EnMin= -76.4186536498892     IErMin= 2 ErrMin= 2.21D-07
 ErrMax= 2.21D-07 EMaxC= 1.00D-01 BMatC= 1.24D-12 BMatP= 7.27D-11
 IDIUse=1 WtCom= 1.00D+00 WtEn= 0.00D+00
 Coeff-Com: -0.129D-01 0.101D+01
 Coeff:     -0.129D-01 0.101D+01
 Gap=     0.361 Goal=   None    Shift=    0.000
 RMSDP=5.42D-08 MaxDP=6.41D-07 DE=-5.69D-11 OVMax= 6.12D-07

 Cycle   8  Pass 1  IDiag  1:
 E= -76.4186536498892     Delta-E=        0.000000000000 Rises=F Damp=F
 DIIS: error= 2.71D-07 at cycle   3 NSaved=   3.
 NSaved= 3 IEnMin= 2 EnMin= -76.4186536498892     IErMin= 2 ErrMin= 2.21D-07
 ErrMax= 2.71D-07 EMaxC= 1.00D-01 BMatC= 1.42D-12 BMatP= 1.24D-12
 IDIUse=1 WtCom= 1.00D+00 WtEn= 0.00D+00
 Coeff-Com: -0.206D-01 0.534D+00 0.486D+00
 Coeff:     -0.206D-01 0.534D+00 0.486D+00
 Gap=     0.361 Goal=   None    Shift=    0.000
 RMSDP=3.35D-08 MaxDP=3.01D-07 DE= 0.00D+00 OVMax= 3.13D-07

 Cycle   9  Pass 1  IDiag  1:
 E= -76.4186536498900     Delta-E=       -0.000000000001 Rises=F Damp=F
 DIIS: error= 3.87D-08 at cycle   4 NSaved=   4.
 NSaved= 4 IEnMin= 4 EnMin= -76.4186536498900     IErMin= 4 ErrMin= 3.87D-08
 ErrMax= 3.87D-08 EMaxC= 1.00D-01 BMatC= 3.28D-14 BMatP= 1.24D-12
 IDIUse=1 WtCom= 1.00D+00 WtEn= 0.00D+00
 Coeff-Com: -0.607D-02 0.128D+00 0.186D+00 0.692D+00
 Coeff:     -0.607D-02 0.128D+00 0.186D+00 0.692D+00
 Gap=     0.361 Goal=   None    Shift=    0.000
 RMSDP=4.10D-09 MaxDP=3.86D-08 DE=-8.81D-13 OVMax= 4.04D-08

 SCF Done:  E(RB3LYP) =  -76.4186536499     A.U. after    9 cycles
             Convg  =    0.4105D-08             -V/T =  2.0072
 KE= 7.586899478985D+01 PE=-1.991508390588D+02 EE= 3.760962338372D+01
 Leave Link  502 at Wed Aug 21 02:32:35 2024, MaxMem=   13107200 cpu:       0.8
 (Enter /programs/64bit/g09/g09-gfortran/bin/l601.exe)
 Copying SCF densities to generalized density rwf, IOpCl= 0 IROHF=0.

 **********************************************************************

            Population analysis using the SCF density.

 **********************************************************************

 Orbital symmetries:
       Occupied  (A1) (A1) (B2) (A1) (B1)
       Virtual   (A1) (B2) (B2) (A1) (A1) (B1) (B2) (A1) (A2) (A1)
                 (B1) (B2) (A1) (B2) (B1) (A2) (A1) (A1) (B2) (A1)
 The electronic state is 1-A1.
 Alpha  occ. eigenvalues --  -19.13245  -0.99887  -0.53022  -0.36041  -0.29112
 Alpha virt. eigenvalues --    0.07008   0.15784   0.78328   0.80273   0.88887
 Alpha virt. eigenvalues --    0.89268   1.01972   1.16266   1.51965   1.57916
 Alpha virt. eigenvalues --    1.66326   2.24188   2.25453   2.50023   2.64445
 Alpha virt. eigenvalues --    2.69436   3.05413   3.34859   3.52809   3.73778
     Molecular Orbital Coefficients:
                           1         2         3         4         5
                        (A1)--O   (A1)--O   (B2)--O   (A1)--O   (B1)--O
     Eigenvalues --   -19.13245  -0.99887  -0.53022  -0.36041  -0.29112
   1 1   O  1S          0.99286  -0.21119   0.00000  -0.08378   0.00000
   2        2S          0.02625   0.46683   0.00000   0.16602   0.00000
   3        2PX         0.00000   0.00000   0.00000   0.00000   0.64284
   4        2PY         0.00000   0.00000   0.51257   0.00000   0.00000
   5        2PZ        -0.00125  -0.11526   0.00000   0.56185   0.00000
   6        3S          0.01051   0.42089   0.00000   0.40259   0.00000
   7        3PX         0.00000   0.00000   0.00000   0.00000   0.49520
   8        3PY         0.00000   0.00000   0.23806   0.00000   0.00000
   9        3PZ        -0.00024  -0.03911   0.00000   0.37808   0.00000
  10        4XX        -0.00780  -0.00812   0.00000  -0.00078   0.00000
  11        4YY        -0.00748   0.00006   0.00000  -0.00413   0.00000
  12        4ZZ        -0.00759   0.00185   0.00000  -0.04500   0.00000
  13        4XY         0.00000   0.00000   0.00000   0.00000   0.00000
  14        4XZ         0.00000   0.00000   0.00000   0.00000  -0.02827
  15        4YZ         0.00000   0.00000  -0.02750   0.00000   0.00000
  16 2   H  1S          0.00012   0.15447   0.24885  -0.13688   0.00000
  17        2S         -0.00122   0.01703   0.14918  -0.11005   0.00000
  18        3PX         0.00000   0.00000   0.00000   0.00000   0.02130
  19        3PY         0.00032  -0.02175  -0.00751   0.00960   0.00000
  20        3PZ        -0.00017   0.01190   0.01560   0.01149   0.00000
  21 3   H  1S          0.00012   0.15447  -0.24885  -0.13688   0.00000
  22        2S         -0.00122   0.01703  -0.14918  -0.11005   0.00000
  23        3PX         0.00000   0.00000   0.00000   0.00000   0.02130
  24        3PY        -0.00032   0.02175  -0.00751  -0.00960   0.00000
  25        3PZ        -0.00017   0.01190  -0.01560   0.01149   0.00000
                           6         7         8         9        10
                        (A1)--V   (B2)--V   (B2)--V   (A1)--V   (A1)--V
     Eigenvalues --     0.07008   0.15784   0.78328   0.80273   0.88887
   1 1   O  1S         -0.10448   0.00000   0.00000   0.04436   0.01383
   2        2S          0.12002   0.00000   0.00000  -0.10149  -0.69008
   3        2PX         0.00000   0.00000   0.00000   0.00000   0.00000
   4        2PY         0.00000  -0.40366  -0.23246   0.00000   0.00000
   5        2PZ        -0.25845   0.00000   0.00000   0.56081  -0.63494
   6        3S          1.31090   0.00000   0.00000   0.18944   1.05616
   7        3PX         0.00000   0.00000   0.00000   0.00000   0.00000
   8        3PY         0.00000  -0.78193  -0.17341   0.00000   0.00000
   9        3PZ        -0.44631   0.00000   0.00000  -0.41739   0.92595
  10        4XX        -0.05895   0.00000   0.00000  -0.11895  -0.27389
  11        4YY        -0.05422   0.00000   0.00000   0.29758  -0.13182
  12        4ZZ        -0.03620   0.00000   0.00000   0.05693  -0.25502
  13        4XY         0.00000   0.00000   0.00000   0.00000   0.00000
  14        4XZ         0.00000   0.00000   0.00000   0.00000   0.00000
  15        4YZ         0.00000   0.02158  -0.27795   0.00000   0.00000
  16 2   H  1S         -0.09157   0.09095   0.76484   0.62407   0.45523
  17        2S         -0.98977   1.31367  -0.75110  -0.59191  -0.27276
  18        3PX         0.00000   0.00000   0.00000   0.00000   0.00000
  19        3PY        -0.00808  -0.00398   0.05879   0.16973   0.00102
  20        3PZ         0.00371  -0.00330  -0.10793  -0.05393   0.04376
  21 3   H  1S         -0.09157  -0.09095  -0.76484   0.62407   0.45523
  22        2S         -0.98977  -1.31367   0.75110  -0.59191  -0.27276
  23        3PX         0.00000   0.00000   0.00000   0.00000   0.00000
  24        3PY         0.00808  -0.00398   0.05879  -0.16973  -0.00102
  25        3PZ         0.00371   0.00330   0.10793  -0.05393   0.04376
                          11        12        13        14        15
                        (B1)--V   (B2)--V   (A1)--V   (A2)--V   (A1)--V
     Eigenvalues --     0.89268   1.01972   1.16266   1.51965   1.57916
   1 1   O  1S          0.00000   0.00000  -0.07389   0.00000  -0.02686
   2        2S          0.00000   0.00000  -1.50472   0.00000  -0.30668
   3        2PX        -0.96003   0.00000   0.00000   0.00000   0.00000
   4        2PY         0.00000  -0.84634   0.00000   0.00000   0.00000
   5        2PZ         0.00000   0.00000   0.33143   0.00000   0.04627
   6        3S          0.00000   0.00000   3.69088   0.00000   0.85610
   7        3PX         1.03969   0.00000   0.00000   0.00000   0.00000
   8        3PY         0.00000   1.85932   0.00000   0.00000   0.00000
   9        3PZ         0.00000   0.00000  -0.90768   0.00000  -0.47410
  10        4XX         0.00000   0.00000  -0.33428   0.00000   0.30996
  11        4YY         0.00000   0.00000  -0.60352   0.00000   0.22831
  12        4ZZ         0.00000   0.00000  -0.34896   0.00000  -0.81319
  13        4XY         0.00000   0.00000   0.00000   0.67070   0.00000
  14        4XZ        -0.01485   0.00000   0.00000   0.00000   0.00000
  15        4YZ         0.00000  -0.08742   0.00000   0.00000   0.00000
  16 2   H  1S          0.00000  -0.18729  -0.24804   0.00000  -0.22638
  17        2S          0.00000  -0.98502  -0.84659   0.00000  -0.14773
  18        3PX        -0.00273   0.00000   0.00000   0.34864   0.00000
  19        3PY         0.00000   0.15952  -0.01296   0.00000   0.15462
  20        3PZ         0.00000  -0.07816  -0.10326   0.00000   0.25228
  21 3   H  1S          0.00000   0.18729  -0.24804   0.00000  -0.22638
  22        2S          0.00000   0.98502  -0.84659   0.00000  -0.14773
  23        3PX        -0.00273   0.00000   0.00000  -0.34864   0.00000
  24        3PY         0.00000   0.15952   0.01296   0.00000  -0.15462
  25        3PZ         0.00000   0.07816  -0.10326   0.00000   0.25228
                          16        17        18        19        20
                        (B1)--V   (B2)--V   (A1)--V   (B2)--V   (B1)--V
     Eigenvalues --     1.66326   2.24188   2.25453   2.50023   2.64445
   1 1   O  1S          0.00000   0.00000  -0.05051   0.00000   0.00000
   2        2S          0.00000   0.00000  -0.56992   0.00000   0.00000
   3        2PX         0.02331   0.00000   0.00000   0.00000  -0.02892
   4        2PY         0.00000  -0.11011   0.00000   0.33802   0.00000
   5        2PZ         0.00000   0.00000   0.18397   0.00000   0.00000
   6        3S          0.00000   0.00000   1.40958   0.00000   0.00000
   7        3PX         0.19484   0.00000   0.00000   0.00000  -0.42110
   8        3PY         0.00000   0.66479   0.00000  -0.42009   0.00000
   9        3PZ         0.00000   0.00000  -0.63935   0.00000   0.00000
  10        4XX         0.00000   0.00000  -1.06806   0.00000   0.00000
  11        4YY         0.00000   0.00000   0.51723   0.00000   0.00000
  12        4ZZ         0.00000   0.00000   0.03074   0.00000   0.00000
  13        4XY         0.00000   0.00000   0.00000   0.00000   0.00000
  14        4XZ         0.79885   0.00000   0.00000   0.00000   0.71286
  15        4YZ         0.00000  -0.05350   0.00000   0.84014   0.00000
  16 2   H  1S          0.00000  -0.27477  -0.63848   0.51971   0.00000
  17        2S          0.00000  -0.09837  -0.10108  -0.19192   0.00000
  18        3PX        -0.28994   0.00000   0.00000   0.00000   0.76779
  19        3PY         0.00000  -0.49863  -0.12983   0.21177   0.00000
  20        3PZ         0.00000  -0.54602   0.20296  -0.37256   0.00000
  21 3   H  1S          0.00000   0.27477  -0.63848  -0.51971   0.00000
  22        2S          0.00000   0.09837  -0.10108   0.19192   0.00000
  23        3PX        -0.28994   0.00000   0.00000   0.00000   0.76779
  24        3PY         0.00000  -0.49863   0.12983   0.21177   0.00000
  25        3PZ         0.00000   0.54602   0.20296   0.37256   0.00000
                          21        22        23        24        25
                        (A2)--V   (A1)--V   (A1)--V   (B2)--V   (A1)--V
     Eigenvalues --     2.69436   3.05413   3.34859   3.52809   3.73778
   1 1   O  1S          0.00000   0.01318  -0.26685   0.00000  -0.39375
   2        2S          0.00000  -0.09738   0.29790   0.00000   0.08040
   3        2PX         0.00000   0.00000   0.00000   0.00000   0.00000
   4        2PY         0.00000   0.00000   0.00000  -0.76740   0.00000
   5        2PZ         0.00000  -0.07408  -0.41872   0.00000   0.48908
   6        3S          0.00000   0.24684   2.92479   0.00000   2.53027
   7        3PX         0.00000   0.00000   0.00000   0.00000   0.00000
   8        3PY         0.00000   0.00000   0.00000  -1.39120   0.00000
   9        3PZ         0.00000  -0.51236  -0.70688   0.00000   0.11343
  10        4XX         0.00000  -0.04957  -1.22218   0.00000  -1.08479
  11        4YY         0.00000  -0.65566   0.05399   0.00000  -2.10232
  12        4ZZ         0.00000   0.96293  -0.61718   0.00000  -1.44787
  13        4XY         0.91276   0.00000   0.00000   0.00000   0.00000
  14        4XZ         0.00000   0.00000   0.00000   0.00000   0.00000
  15        4YZ         0.00000   0.00000   0.00000   1.45981   0.00000
  16 2   H  1S          0.00000  -0.13884  -0.74477   1.23282   0.75598
  17        2S          0.00000  -0.11332  -0.57591   0.55012  -0.28360
  18        3PX        -0.72503   0.00000   0.00000   0.00000   0.00000
  19        3PY         0.00000   0.57209   0.68875  -0.86978  -0.52393
  20        3PZ         0.00000   0.60604  -0.51768   0.61747   0.50386
  21 3   H  1S          0.00000  -0.13884  -0.74477  -1.23282   0.75598
  22        2S          0.00000  -0.11332  -0.57591  -0.55012  -0.28360
  23        3PX         0.72503   0.00000   0.00000   0.00000   0.00000
  24        3PY         0.00000  -0.57209  -0.68875  -0.86978   0.52393
  25        3PZ         0.00000   0.60604  -0.51768  -0.61747   0.50386
     Density Matrix:
                           1         2         3         4         5
   1 1   O  1S          2.07479
   2        2S         -0.17287   0.49237
   3        2PX         0.00000   0.00000   0.82649
   4        2PY         0.00000   0.00000  -0.00000   0.52545
   5        2PZ        -0.04794   0.07888   0.00000   0.00000   0.65793
   6        3S         -0.22436   0.52720   0.00000   0.00000   0.35533
   7        3PX         0.00000   0.00000   0.63667  -0.00000   0.00000
   8        3PY         0.00000   0.00000  -0.00000   0.24405  -0.00000
   9        3PZ        -0.04730   0.08901   0.00000   0.00000   0.43387
  10        4XX        -0.01192  -0.00825  -0.00000   0.00000   0.00102
  11        4YY        -0.01418  -0.00171  -0.00000   0.00000  -0.00464
  12        4ZZ        -0.00832  -0.01361  -0.00000   0.00000  -0.05098
  13        4XY         0.00000   0.00000   0.00000  -0.00000   0.00000
  14        4XZ        -0.00000  -0.00000  -0.03635   0.00000  -0.00000
  15        4YZ         0.00000   0.00000   0.00000  -0.02820   0.00000
  16 2   H  1S         -0.04208   0.09878  -0.00000   0.25510  -0.18942
  17        2S          0.00882  -0.02070  -0.00000   0.15293  -0.12759
  18        3PX        -0.00000   0.00000   0.02739  -0.00000   0.00000
  19        3PY         0.00821  -0.01710  -0.00000  -0.00770   0.01580
  20        3PZ        -0.00730   0.01491  -0.00000   0.01599   0.01017
  21 3   H  1S         -0.04208   0.09878   0.00000  -0.25510  -0.18942
  22        2S          0.00882  -0.02070   0.00000  -0.15293  -0.12759
  23        3PX         0.00000  -0.00000   0.02739  -0.00000   0.00000
  24        3PY        -0.00821   0.01710  -0.00000  -0.00770  -0.01580
  25        3PZ        -0.00730   0.01491   0.00000  -0.01599   0.01017
                           6         7         8         9        10
   6        3S          0.67868
   7        3PX         0.00000   0.49045
   8        3PY         0.00000  -0.00000   0.11335
   9        3PZ         0.27149   0.00000   0.00000   0.28896
  10        4XX        -0.00763  -0.00000   0.00000   0.00005   0.00025
  11        4YY        -0.00343  -0.00000   0.00000  -0.00313   0.00012
  12        4ZZ        -0.03484  -0.00000   0.00000  -0.03417   0.00016
  13        4XY         0.00000   0.00000  -0.00000   0.00000  -0.00000
  14        4XZ        -0.00000  -0.02800   0.00000  -0.00000   0.00000
  15        4YZ         0.00000   0.00000  -0.01310   0.00000  -0.00000
  16 2   H  1S          0.01982  -0.00000   0.11848  -0.11559  -0.00230
  17        2S         -0.07430  -0.00000   0.07103  -0.08455  -0.00009
  18        3PX         0.00000   0.02110  -0.00000   0.00000  -0.00000
  19        3PY        -0.01057  -0.00000  -0.00357   0.00896   0.00033
  20        3PZ         0.01926  -0.00000   0.00743   0.00776  -0.00021
  21 3   H  1S          0.01982   0.00000  -0.11848  -0.11559  -0.00230
  22        2S         -0.07430   0.00000  -0.07103  -0.08455  -0.00009
  23        3PX        -0.00000   0.02110  -0.00000   0.00000  -0.00000
  24        3PY         0.01057  -0.00000  -0.00357  -0.00896  -0.00033
  25        3PZ         0.01926   0.00000  -0.00743   0.00776  -0.00021
                          11        12        13        14        15
  11        4YY         0.00015
  12        4ZZ         0.00049   0.00417
  13        4XY        -0.00000  -0.00000   0.00000
  14        4XZ         0.00000   0.00000   0.00000   0.00160
  15        4YZ        -0.00000  -0.00000   0.00000  -0.00000   0.00151
  16 2   H  1S          0.00115   0.01289  -0.00000   0.00000  -0.01369
  17        2S          0.00093   0.00999  -0.00000   0.00000  -0.00821
  18        3PX         0.00000  -0.00000  -0.00000  -0.00120   0.00000
  19        3PY        -0.00009  -0.00095  -0.00000   0.00000   0.00041
  20        3PZ        -0.00009  -0.00099  -0.00000  -0.00000  -0.00086
  21 3   H  1S          0.00115   0.01289   0.00000  -0.00000   0.01369
  22        2S          0.00093   0.00999   0.00000   0.00000   0.00821
  23        3PX        -0.00000  -0.00000   0.00000  -0.00120   0.00000
  24        3PY         0.00009   0.00095   0.00000   0.00000   0.00041
  25        3PZ        -0.00009  -0.00099   0.00000  -0.00000   0.00086
                          16        17        18        19        20
  16 2   H  1S          0.20904
  17        2S          0.10964   0.06932
  18        3PX         0.00000   0.00000   0.00091
  19        3PY        -0.01308  -0.00509  -0.00000   0.00124
  20        3PZ         0.00829   0.00253   0.00000  -0.00053   0.00103
  21 3   H  1S         -0.03865  -0.03886   0.00000  -0.00561  -0.00723
  22        2S         -0.03886  -0.01971   0.00000  -0.00062  -0.00678
  23        3PX        -0.00000  -0.00000   0.00091  -0.00000   0.00000
  24        3PY         0.00561   0.00062  -0.00000  -0.00102   0.00006
  25        3PZ        -0.00723  -0.00678   0.00000  -0.00006   0.00006
                          21        22        23        24        25
  21 3   H  1S          0.20904
  22        2S          0.10964   0.06932
  23        3PX        -0.00000  -0.00000   0.00091
  24        3PY         0.01308   0.00509  -0.00000   0.00124
  25        3PZ         0.00829   0.00253   0.00000   0.00053   0.00103
    Full Mulliken population analysis:
                           1         2         3         4         5
   1 1   O  1S          2.07479
   2        2S         -0.04040   0.49237
   3        2PX         0.00000   0.00000   0.82649
   4        2PY         0.00000   0.00000   0.00000   0.52545
   5        2PZ         0.00000   0.00000   0.00000   0.00000   0.65793
   6        3S         -0.03753   0.40259   0.00000   0.00000   0.00000
   7        3PX         0.00000   0.00000   0.31931   0.00000   0.00000
   8        3PY         0.00000   0.00000   0.00000   0.12239   0.00000
   9        3PZ         0.00000   0.00000   0.00000   0.00000   0.21760
  10        4XX        -0.00040  -0.00451   0.00000   0.00000   0.00000
  11        4YY        -0.00048  -0.00093   0.00000   0.00000   0.00000
  12        4ZZ        -0.00028  -0.00745   0.00000   0.00000   0.00000
  13        4XY        -0.00000  -0.00000   0.00000   0.00000   0.00000
  14        4XZ        -0.00000  -0.00000   0.00000   0.00000   0.00000
  15        4YZ        -0.00000  -0.00000   0.00000   0.00000   0.00000
  16 2   H  1S         -0.00152   0.02512   0.00000   0.06087   0.03196
  17        2S          0.00061  -0.00793   0.00000   0.01844   0.01088
  18        3PX        -0.00000   0.00000   0.00405   0.00000  -0.00000
  19        3PY        -0.00040   0.00482   0.00000   0.00160   0.00398
  20        3PZ        -0.00025   0.00298   0.00000   0.00403  -0.00031
  21 3   H  1S         -0.00152   0.02512   0.00000   0.06087   0.03196
  22        2S          0.00061  -0.00793   0.00000   0.01844   0.01088
  23        3PX         0.00000   0.00000   0.00405   0.00000   0.00000
  24        3PY        -0.00040   0.00482   0.00000   0.00160   0.00398
  25        3PZ        -0.00025   0.00298   0.00000   0.00403  -0.00031
                           6         7         8         9        10
   6        3S          0.67868
   7        3PX         0.00000   0.49045
   8        3PY         0.00000   0.00000   0.11335
   9        3PZ         0.00000   0.00000   0.00000   0.28896
  10        4XX        -0.00533   0.00000   0.00000   0.00000   0.00025
  11        4YY        -0.00240   0.00000   0.00000   0.00000   0.00004
  12        4ZZ        -0.02435   0.00000   0.00000   0.00000   0.00005
  13        4XY        -0.00000   0.00000   0.00000   0.00000   0.00000
  14        4XZ        -0.00000   0.00000   0.00000   0.00000   0.00000
  15        4YZ        -0.00000   0.00000   0.00000   0.00000   0.00000
  16 2   H  1S          0.00856   0.00000   0.05661   0.03905  -0.00039
  17        2S         -0.05108   0.00000   0.02782   0.02341  -0.00003
  18        3PX         0.00000   0.00592   0.00000   0.00000   0.00000
  19        3PY         0.00226   0.00000  -0.00007   0.00166  -0.00005
  20        3PZ         0.00291   0.00000   0.00137   0.00116  -0.00002
  21 3   H  1S          0.00856   0.00000   0.05661   0.03905  -0.00039
  22        2S         -0.05108   0.00000   0.02782   0.02341  -0.00003
  23        3PX         0.00000   0.00592   0.00000   0.00000   0.00000
  24        3PY         0.00226   0.00000  -0.00007   0.00166  -0.00005
  25        3PZ         0.00291   0.00000   0.00137   0.00116  -0.00002
                          11        12        13        14        15
  11        4YY         0.00015
  12        4ZZ         0.00016   0.00417
  13        4XY         0.00000   0.00000   0.00000
  14        4XZ         0.00000   0.00000  -0.00000   0.00160
  15        4YZ         0.00000   0.00000   0.00000   0.00000   0.00151
  16 2   H  1S          0.00050   0.00388   0.00000   0.00000   0.00437
  17        2S          0.00042   0.00426   0.00000   0.00000   0.00047
  18        3PX        -0.00000   0.00000  -0.00000   0.00028   0.00000
  19        3PY         0.00001   0.00031   0.00000   0.00000   0.00010
  20        3PZ        -0.00003   0.00004   0.00000   0.00000  -0.00000
  21 3   H  1S          0.00050   0.00388  -0.00000  -0.00000   0.00437
  22        2S          0.00042   0.00426  -0.00000   0.00000   0.00047
  23        3PX        -0.00000   0.00000  -0.00000   0.00028   0.00000
  24        3PY         0.00001   0.00031   0.00000   0.00000   0.00010
  25        3PZ        -0.00003   0.00004  -0.00000   0.00000  -0.00000
                          16        17        18        19        20
  16 2   H  1S          0.20904
  17        2S          0.07217   0.06932
  18        3PX         0.00000   0.00000   0.00091
  19        3PY         0.00000   0.00000   0.00000   0.00124
  20        3PZ         0.00000   0.00000   0.00000   0.00000   0.00103
  21 3   H  1S         -0.00175  -0.00828   0.00000   0.00031   0.00000
  22        2S         -0.00828  -0.00985   0.00000   0.00008   0.00000
  23        3PX         0.00000   0.00000   0.00001  -0.00000   0.00000
  24        3PY         0.00031   0.00008  -0.00000   0.00008   0.00000
  25        3PZ         0.00000   0.00000   0.00000   0.00000   0.00000
                          21        22        23        24        25
  21 3   H  1S          0.20904
  22        2S          0.07217   0.06932
  23        3PX         0.00000   0.00000   0.00091
  24        3PY         0.00000   0.00000   0.00000   0.00124
  25        3PZ         0.00000   0.00000   0.00000  -0.00000   0.00103
     Gross orbital populations:
                           1
   1 1   O  1S          1.99258
   2        2S          0.89164
   3        2PX         1.15390
   4        2PY         0.81773
   5        2PZ         0.96855
   6        3S          0.93696
   7        3PX         0.82160
   8        3PY         0.40721
   9        3PZ         0.63713
  10        4XX        -0.01088
  11        4YY        -0.00168
  12        4ZZ        -0.01072
  13        4XY        -0.00000
  14        4XZ         0.00216
  15        4YZ         0.01139
  16 2   H  1S          0.50051
  17        2S          0.15070
  18        3PX         0.01117
  19        3PY         0.01593
  20        3PZ         0.01291
  21 3   H  1S          0.50051
  22        2S          0.15070
  23        3PX         0.01117
  24        3PY         0.01593
  25        3PZ         0.01291
          Condensed to atoms (all electrons):
              1          2          3
     1  O    8.032308   0.292629   0.292629
     2  H    0.292629   0.425890  -0.027303
     3  H    0.292629  -0.027303   0.425890
 Mulliken atomic charges:
              1
     1  O   -0.617566
     2  H    0.308783
     3  H    0.308783
 Sum of Mulliken atomic charges =   0.00000
 Mulliken charges with hydrogens summed into heavy atoms:
              1
     1  O    0.000000
 Sum of Mulliken charges with hydrogens summed into heavy atoms =   0.00000
 Electronic spatial extent (au):  <R**2>=             18.8665
 Charge=             -0.0000 electrons
 Dipole moment (field-independent basis, Debye):
    X=             -0.0000    Y=              0.0000    Z=             -1.9502  Tot=              1.9502
 Quadrupole moment (field-independent basis, Debye-Ang):
   XX=             -7.1049   YY=             -4.0737   ZZ=             -6.1056
   XY=              0.0000   XZ=              0.0000   YZ=             -0.0000
 Traceless Quadrupole moment (field-independent basis, Debye-Ang):
   XX=             -1.3435   YY=              1.6877   ZZ=             -0.3442
   XY=              0.0000   XZ=              0.0000   YZ=             -0.0000
 Octapole moment (field-independent basis, Debye-Ang**2):
  XXX=              0.0000  YYY=             -0.0000  ZZZ=             -1.0885  XYY=             -0.0000
  XXY=             -0.0000  XXZ=             -0.2953  XZZ=              0.0000  YZZ=             -0.0000
  YYZ=             -1.1816  XYZ=             -0.0000
 Hexadecapole moment (field-independent basis, Debye-Ang**3):
 XXXX=             -5.0864 YYYY=             -5.8206 ZZZZ=             -6.0752 XXXY=             -0.0000
 XXXZ=             -0.0000 YYYX=             -0.0000 YYYZ=             -0.0000 ZZZX=             -0.0000
 ZZZY=             -0.0000 XXYY=             -2.1014 XXZZ=             -1.8993 YYZZ=             -1.7309
 XXYZ=              0.0000 YYXZ=              0.0000 ZZXY=             -0.0000
 N-N= 9.253567235346D+00 E-N=-1.991508380579D+02  KE= 7.586899478985D+01
 Symmetry A1   KE= 6.771607839996D+01
 Symmetry A2   KE= 1.288483571127D-36
 Symmetry B1   KE= 4.583654130616D+00
 Symmetry B2   KE= 3.569262259270D+00
 Orbital energies and kinetic energies (alpha):
                                 1                 2
   1         (A1)--O         -19.132452         29.031182
   2         (A1)--O          -0.998873          2.591749
   3         (B2)--O          -0.530217          1.784631
   4         (A1)--O          -0.360414          2.235108
   5         (B1)--O          -0.291124          2.291827
   6         (A1)--V           0.070078          1.151803
   7         (B2)--V           0.157837          1.208282
   8         (B2)--V           0.783280          2.156780
   9         (A1)--V           0.802726          2.822869
  10         (A1)--V           0.888869          2.723458
  11         (B1)--V           0.892677          3.555192
  12         (B2)--V           1.019717          3.112594
  13         (A1)--V           1.162661          2.338000
  14         (A2)--V           1.519652          2.508286
  15         (A1)--V           1.579160          2.542705
  16         (B1)--V           1.663259          2.628797
  17         (B2)--V           2.241882          3.116054
  18         (A1)--V           2.254526          3.422248
  19         (B2)--V           2.500225          3.839558
  20         (B1)--V           2.644449          3.531563
  21         (A2)--V           2.694358          3.619473
  22         (A1)--V           3.054132          4.045894
  23         (A1)--V           3.348589          6.796117
  24         (B2)--V           3.528093          5.738471
  25         (A1)--V           3.737779          8.525802
 Total kinetic energy from orbitals= 7.586899478985D+01
 No NMR shielding tensors so no spin-rotation constants.
 Leave Link  601 at Wed Aug 21 02:32:35 2024, MaxMem=   13107200 cpu:       0.3
 (Enter /programs/64bit/g09/g09-gfortran/bin/l701.exe)
 Compute integral first derivatives.
 ... and contract with generalized density number  0.
 Leave Link  701 at Wed Aug 21 02:32:36 2024, MaxMem=   13107200 cpu:       0.3
 (Enter /programs/64bit/g09/g09-gfortran/bin/l702.exe)
 L702 exits ... SP integral derivatives will be done elsewhere.
 Leave Link  702 at Wed Aug 21 02:32:36 2024, MaxMem=   13107200 cpu:       0.0
 (Enter /programs/64bit/g09/g09-gfortran/bin/l703.exe)
 Compute integral first derivatives, UseDBF=F ICtDFT=           0.
 Integral derivatives from FoFDir, PRISM(SPDF).
 Calling FoFJK, ICntrl=      2127 FMM=F ISym2X=1 I1Cent= 0 IOpClX= 0 NMat=1 NMatS=1 NMatT=0.
 FoFCou: FMM=F IPFlag=           0 FMFlag=      100000 FMFlg1=         800
         NFxFlg=           0 DoJE=F BraDBF=F KetDBF=F FulRan=T
         Omega=  0.000000  0.000000  1.000000  0.000000  0.000000 ICntrl=    2127 IOpCl=  0
         NMat0=    1 NMatS0=    1 NMatT0=    0 NMatD0=    1 NMtDS0=    0 NMtDT0=    0
         I1Cent=           0 NGrid=           0.
 Petite list used in FoFCou.
 Leave Link  703 at Wed Aug 21 02:32:37 2024, MaxMem=   13107200 cpu:       0.7
 (Enter /programs/64bit/g09/g09-gfortran/bin/l716.exe)
 Dipole        =-5.10374871D-17 0.00000000D+00-7.67271821D-01
 ***** Axes restored to original set *****
 -------------------------------------------------------------------
 Center     Atomic                   Forces (Hartrees/Bohr)
 Number     Number              X              Y              Z
 -------------------------------------------------------------------
      1        8          -0.022610407    0.000000000   -0.015987972
      2        1           0.007857117   -0.000000000    0.012870316
      3        1           0.014753289   -0.000000000    0.003117656
 -------------------------------------------------------------------
 Cartesian Forces:  Max     0.022610407 RMS     0.011650486
 Leave Link  716 at Wed Aug 21 02:32:37 2024, MaxMem=   13107200 cpu:       0.1
 (Enter /programs/64bit/g09/g09-gfortran/bin/l103.exe)

 GradGradGradGradGradGradGradGradGradGradGradGradGradGradGradGradGradGrad
 Berny optimization.
 Internal  Forces:  Max     0.014105410 RMS     0.013294769
 Search for a local minimum.
 Step number   1 out of a maximum of   20
 All quantities printed in internal units (Hartrees-Bohrs-Radians)
 RMS Force = .13295D-01 SwitMx=.10000D-02 MixMth= 1
 Mixed Optimization -- RFO/linear search
 Second derivative matrix not updated -- first step.
 The second derivative matrix:
                          R1        R2        A1
           R1           0.57681
           R2           0.00000   0.57681
           A1           0.00000   0.00000   0.16000
     Eigenvalues ---    0.16000   0.57681   0.57681
 RFO step:  Lambda=-1.80222516D-03 EMin= 1.60000000D-01
 Linear search not attempted -- first point.
 Iteration  1 RMS(Cart)=  0.04236857 RMS(Int)=  0.00151930
 Iteration  2 RMS(Cart)=  0.00159984 RMS(Int)=  0.00000064
 Iteration  3 RMS(Cart)=  0.00000050 RMS(Int)=  0.00000000
 ClnCor:  largest displacement from symmetrization is 5.58D-15 for atom     3.
 Variable       Old X    -DE/DX   Delta X   Delta X   Delta X     New X
                                 (Linear)    (Quad)   (Total)
    R1        1.79524   0.01287   0.00000   0.02224   0.02224   1.81748
    R2        1.79524   0.01287   0.00000   0.02224   0.02224   1.81748
    A1        1.91063  -0.01411   0.00000  -0.08718  -0.08718   1.82346
         Item               Value     Threshold  Converged?
 Maximum Force            0.014105     0.000450     NO 
 RMS     Force            0.013295     0.000300     NO 
 Maximum Displacement     0.041646     0.001800     NO 
 RMS     Displacement     0.043132     0.001200     NO 
 Predicted change in Energy=-9.088520D-04
 GradGradGradGradGradGradGradGradGradGradGradGradGradGradGradGradGradGrad

 Leave Link  103 at Wed Aug 21 02:32:37 2024, MaxMem=   13107200 cpu:       0.0
 (Enter /programs/64bit/g09/g09-gfortran/bin/l202.exe)
                          Input orientation:                          
 ---------------------------------------------------------------------
 Center     Atomic      Atomic             Coordinates (Angstroms)
 Number     Number       Type             X           Y           Z
 ---------------------------------------------------------------------
      1          8           0       -0.022038   -0.000000   -0.015583
      2          1           0        0.019871   -0.000000    0.945274
      3          1           0        0.897836    0.000000   -0.296357
 ---------------------------------------------------------------------
                    Distance matrix (angstroms):
                    1          2          3
     1  O    0.000000
     2  H    0.961771   0.000000
     3  H    0.961771   1.520681   0.000000
 Stoichiometry    H2O
 Framework group  C2V[C2(O),SGV(H2)]
 Deg. of freedom     2
 Full point group                 C2V     NOp   4
 Largest Abelian subgroup         C2V     NOp   4
 Largest concise Abelian subgroup C2      NOp   2
                         Standard orientation:                         
 ---------------------------------------------------------------------
 Center     Atomic      Atomic             Coordinates (Angstroms)
 Number     Number       Type             X           Y           Z
 ---------------------------------------------------------------------
      1          8           0        0.000000    0.000000    0.117794
      2          1           0        0.000000    0.760341   -0.471176
      3          1           0       -0.000000   -0.760341   -0.471176
 ---------------------------------------------------------------------
 Rotational constants (GHZ):    813.8826473    433.6963436    282.9303241
 Leave Link  202 at Wed Aug 21 02:32:37 2024, MaxMem=   13107200 cpu:       0.0
 (Enter /programs/64bit/g09/g09-gfortran/bin/l301.exe)
 Standard basis: 6-31G(d,p) (6D, 7F)
 Ernie: Thresh=  0.10000D-02 Tol=  0.10000D-05 Strict=F.
 There are    12 symmetry adapted basis functions of A1  symmetry.
 There are     2 symmetry adapted basis functions of A2  symmetry.
 There are     4 symmetry adapted basis functions of B1  symmetry.
 There are     7 symmetry adapted basis functions of B2  symmetry.
 Integral buffers will be    131072 words long.
 Raffenetti 2 integral format.
 Two-electron integral symmetry is turned on.
    25 basis functions,    42 primitive gaussians,    25 cartesian basis functions
     5 alpha electrons        5 beta electrons
       nuclear repulsion energy         9.1513695485 Hartrees.
 IExCor=  402 DFT=T Ex+Corr=B3LYP ExCW=0 ScaHFX=  0.200000
 ScaDFX=  0.800000  0.720000  1.000000  0.810000 ScalE2=  1.000000  1.000000
 IRadAn=      0 IRanWt=     -1 IRanGd=            0 ICorTp=0
 NAtoms=    3 NActive=    3 NUniq=    2 SFac= 1.69D+00 NAtFMM=   80 NAOKFM=F Big=F
 Leave Link  301 at Wed Aug 21 02:32:37 2024, MaxMem=   13107200 cpu:       0.1
 (Enter /programs/64bit/g09/g09-gfortran/bin/l302.exe)
 NPDir=0 NMtPBC=     1 NCelOv=     1 NCel=       1 NClECP=     1 NCelD=      1
         NCelK=      1 NCelE2=     1 NClLst=     1 CellRange=     0.0.
 One-electron integrals computed using PRISM.
 One-electron integral symmetry used in STVInt
 NBasis=    25 RedAO= T  NBF=    12     2     4     7
 NBsUse=    25 1.00D-06 NBFU=    12     2     4     7
 Precomputing XC quadrature grid using
 IXCGrd= 2 IRadAn=           0 IRanWt=          -1 IRanGd=           0 AccXCQ= 1.00D-10.
 NRdTot=     183 NPtTot=       23214 NUsed=       24547 NTot=       24579
 NSgBfM=    25    25    25    25    25 NAtAll=     3     3.
 Leave Link  302 at Wed Aug 21 02:32:37 2024, MaxMem=   13107200 cpu:       0.3
 (Enter /programs/64bit/g09/g09-gfortran/bin/l303.exe)
 DipDrv:  MaxL=1.
 Leave Link  303 at Wed Aug 21 02:32:37 2024, MaxMem=   13107200 cpu:       0.0
 (Enter /programs/64bit/g09/g09-gfortran/bin/l401.exe)
 Initial guess read from the read-write file.
 B after Tr=     0.000000    0.000000    0.000000
         Rot=    1.000000    0.000000    0.000000    0.000000 Ang=   0.00 deg.
 Guess basis will be translated and rotated to current coordinates.
 Initial guess orbital symmetries:
       Occupied  (A1) (A1) (B2) (A1) (B1)
       Virtual   (A1) (B2) (B2) (A1) (A1) (B1) (B2) (A1) (A2) (A1)
                 (B1) (B2) (A1) (B2) (B1) (A2) (A1) (A1) (B2) (A1)
 The electronic state of the initial guess is 1-A1.
 Generating alternative initial guess.
 Harris functional with IExCor=  402 diagonalized for initial guess.
 ExpMin= 1.61D-01 ExpMax= 5.48D+03 ExpMxC= 8.25D+02 IAcc=1 IRadAn=         1 AccDes= 0.00D+00
 HarFok:  IExCor=  402 AccDes= 0.00D+00 IRadAn=         1 IDoV= 1
 ScaDFX=  1.000000  1.000000  1.000000  1.000000
 FoFCou: FMM=F IPFlag=           0 FMFlag=      100000 FMFlg1=           0
         NFxFlg=           0 DoJE=T BraDBF=F KetDBF=T FulRan=T
         Omega=  0.000000  0.000000  1.000000  0.000000  0.000000 ICntrl=     500 IOpCl=  0
         NMat0=    1 NMatS0=    1 NMatT0=    0 NMatD0=    1 NMtDS0=    0 NMtDT0=    0
         I1Cent=           4 NGrid=           0.
 Petite list used in FoFCou.
 Harris En= -76.4654765756842    
 Leave Link  401 at Wed Aug 21 02:32:38 2024, MaxMem=   13107200 cpu:       0.4
 (Enter /programs/64bit/g09/g09-gfortran/bin/l502.exe)
 Closed shell SCF:
 Requested convergence on RMS density matrix=1.00D-08 within 128 cycles.
 Requested convergence on MAX density matrix=1.00D-06.
 Requested convergence on             energy=1.00D-06.
 No special actions if energy rises.
 Using DIIS extrapolation, IDIIS=  1040.
 Integral symmetry usage will be decided dynamically.
        24507 words used for storage of precomputed grid.
 Keep R1 ints in memory in canonical form, NReq=956207.
 IEnd=       44924 IEndB=       44924 NGot=    13107200 MDV=    13026564
 LenX=    13026564 LenY=    13025498
 Symmetry not used in FoFDir.
 MinBra= 0 MaxBra= 2 Meth= 1.
 IRaf=       0 NMat=   1 IRICut=       1 DoRegI=T DoRafI=F ISym2E= 0 JSym2E=0.
 Integral accuracy reduced to 1.0D-05 until final iterations.

 Cycle   1  Pass 0  IDiag  1:
 E= -76.4192958566498    
 DIIS: error= 3.15D-03 at cycle   1 NSaved=   1.
 NSaved= 1 IEnMin= 1 EnMin= -76.4192958566498     IErMin= 1 ErrMin= 3.15D-03
 ErrMax= 3.15D-03 EMaxC= 1.00D-01 BMatC= 2.98D-04 BMatP= 2.98D-04
 IDIUse=3 WtCom= 9.68D-01 WtEn= 3.15D-02
 Coeff-Com:  0.100D+01
 Coeff-En:   0.100D+01
 Coeff:      0.100D+01
 Gap=     0.357 Goal=   None    Shift=    0.000
 GapD=    0.357 DampG=1.000 DampE=1.000 DampFc=1.0000 IDamp=-1.
 RMSDP=1.27D-03 MaxDP=1.21D-02              OVMax= 1.17D-02

 Cycle   2  Pass 0  IDiag  1:
 E= -76.4196616826268     Delta-E=       -0.000365825977 Rises=F Damp=F
 DIIS: error= 1.86D-03 at cycle   2 NSaved=   2.
 NSaved= 2 IEnMin= 2 EnMin= -76.4196616826268     IErMin= 2 ErrMin= 1.86D-03
 ErrMax= 1.86D-03 EMaxC= 1.00D-01 BMatC= 6.00D-05 BMatP= 2.98D-04
 IDIUse=3 WtCom= 9.81D-01 WtEn= 1.86D-02
 Coeff-Com:  0.191D+00 0.809D+00
 Coeff-En:   0.000D+00 0.100D+01
 Coeff:      0.188D+00 0.812D+00
 Gap=     0.360 Goal=   None    Shift=    0.000
 RMSDP=3.62D-04 MaxDP=3.31D-03 DE=-3.66D-04 OVMax= 3.45D-03

 Cycle   3  Pass 0  IDiag  1:
 E= -76.4196666843443     Delta-E=       -0.000005001717 Rises=F Damp=F
 DIIS: error= 1.67D-03 at cycle   3 NSaved=   3.
 NSaved= 3 IEnMin= 3 EnMin= -76.4196666843443     IErMin= 3 ErrMin= 1.67D-03
 ErrMax= 1.67D-03 EMaxC= 1.00D-01 BMatC= 5.30D-05 BMatP= 6.00D-05
 IDIUse=3 WtCom= 9.83D-01 WtEn= 1.67D-02
 Coeff-Com: -0.276D-01 0.493D+00 0.535D+00
 Coeff-En:   0.000D+00 0.472D+00 0.528D+00
 Coeff:     -0.271D-01 0.492D+00 0.535D+00
 Gap=     0.358 Goal=   None    Shift=    0.000
 RMSDP=1.87D-04 MaxDP=1.70D-03 DE=-5.00D-06 OVMax= 1.78D-03

 Cycle   4  Pass 0  IDiag  1:
 E= -76.4197035791017     Delta-E=       -0.000036894757 Rises=F Damp=F
 DIIS: error= 1.85D-05 at cycle   4 NSaved=   4.
 NSaved= 4 IEnMin= 4 EnMin= -76.4197035791017     IErMin= 4 ErrMin= 1.85D-05
 ErrMax= 1.85D-05 EMaxC= 1.00D-01 BMatC= 5.24D-09 BMatP= 5.30D-05
 IDIUse=1 WtCom= 1.00D+00 WtEn= 0.00D+00
 Coeff-Com: -0.117D-02 0.842D-02 0.119D-01 0.981D+00
 Coeff:     -0.117D-02 0.842D-02 0.119D-01 0.981D+00
 Gap=     0.358 Goal=   None    Shift=    0.000
 RMSDP=3.38D-06 MaxDP=1.73D-05 DE=-3.69D-05 OVMax= 4.45D-05

 Initial convergence to 1.0D-05 achieved.  Increase integral accuracy.
 Cycle   5  Pass 1  IDiag  1:
 E= -76.4197044436239     Delta-E=       -0.000000864522 Rises=F Damp=F
 DIIS: error= 4.20D-06 at cycle   1 NSaved=   1.
 NSaved= 1 IEnMin= 1 EnMin= -76.4197044436239     IErMin= 1 ErrMin= 4.20D-06
 ErrMax= 4.20D-06 EMaxC= 1.00D-01 BMatC= 4.53D-10 BMatP= 4.53D-10
 IDIUse=1 WtCom= 1.00D+00 WtEn= 0.00D+00
 Coeff-Com:  0.100D+01
 Coeff:      0.100D+01
 Gap=     0.358 Goal=   None    Shift=    0.000
 RMSDP=3.38D-06 MaxDP=1.73D-05 DE=-8.65D-07 OVMax= 6.92D-06

 Cycle   6  Pass 1  IDiag  1:
 E= -76.4197044439133     Delta-E=       -0.000000000289 Rises=F Damp=F
 DIIS: error= 1.98D-06 at cycle   2 NSaved=   2.
 NSaved= 2 IEnMin= 2 EnMin= -76.4197044439133     IErMin= 2 ErrMin= 1.98D-06
 ErrMax= 1.98D-06 EMaxC= 1.00D-01 BMatC= 9.49D-11 BMatP= 4.53D-10
 IDIUse=1 WtCom= 1.00D+00 WtEn= 0.00D+00
 Coeff-Com:  0.290D+00 0.710D+00
 Coeff:      0.290D+00 0.710D+00
 Gap=     0.358 Goal=   None    Shift=    0.000
 RMSDP=3.22D-07 MaxDP=2.93D-06 DE=-2.89D-10 OVMax= 3.21D-06

 Cycle   7  Pass 1  IDiag  1:
 E= -76.4197044439638     Delta-E=       -0.000000000051 Rises=F Damp=F
 DIIS: error= 1.20D-06 at cycle   3 NSaved=   3.
 NSaved= 3 IEnMin= 3 EnMin= -76.4197044439638     IErMin= 3 ErrMin= 1.20D-06
 ErrMax= 1.20D-06 EMaxC= 1.00D-01 BMatC= 2.56D-11 BMatP= 9.49D-11
 IDIUse=1 WtCom= 1.00D+00 WtEn= 0.00D+00
 Coeff-Com:  0.107D+00 0.384D+00 0.509D+00
 Coeff:      0.107D+00 0.384D+00 0.509D+00
 Gap=     0.358 Goal=   None    Shift=    0.000
 RMSDP=1.37D-07 MaxDP=1.23D-06 DE=-5.05D-11 OVMax= 1.44D-06

 Cycle   8  Pass 1  IDiag  1:
 E= -76.4197044439812     Delta-E=       -0.000000000017 Rises=F Damp=F
 DIIS: error= 1.32D-07 at cycle   4 NSaved=   4.
 NSaved= 4 IEnMin= 4 EnMin= -76.4197044439812     IErMin= 4 ErrMin= 1.32D-07
 ErrMax= 1.32D-07 EMaxC= 1.00D-01 BMatC= 3.73D-13 BMatP= 2.56D-11
 IDIUse=1 WtCom= 1.00D+00 WtEn= 0.00D+00
 Coeff-Com: -0.123D-01-0.208D-02 0.106D+00 0.909D+00
 Coeff:     -0.123D-01-0.208D-02 0.106D+00 0.909D+00
 Gap=     0.358 Goal=   None    Shift=    0.000
 RMSDP=2.40D-08 MaxDP=3.00D-07 DE=-1.75D-11 OVMax= 2.87D-07

 Cycle   9  Pass 1  IDiag  1:
 E= -76.4197044439815     Delta-E=       -0.000000000000 Rises=F Damp=F
 DIIS: error= 5.12D-09 at cycle   5 NSaved=   5.
 NSaved= 5 IEnMin= 5 EnMin= -76.4197044439815     IErMin= 5 ErrMin= 5.12D-09
 ErrMax= 5.12D-09 EMaxC= 1.00D-01 BMatC= 3.36D-16 BMatP= 3.73D-13
 IDIUse=1 WtCom= 1.00D+00 WtEn= 0.00D+00
 Coeff-Com:  0.621D-03-0.153D-02-0.135D-01-0.712D-01 0.109D+01
 Coeff:      0.621D-03-0.153D-02-0.135D-01-0.712D-01 0.109D+01
 Gap=     0.358 Goal=   None    Shift=    0.000
 RMSDP=1.22D-09 MaxDP=7.94D-09 DE=-2.84D-13 OVMax= 1.38D-08

 SCF Done:  E(RB3LYP) =  -76.4197044440     A.U. after    9 cycles
             Convg  =    0.1217D-08             -V/T =  2.0077
 KE= 7.583729419310D+01 PE=-1.989202787420D+02 EE= 3.751191055642D+01
 Leave Link  502 at Wed Aug 21 02:32:39 2024, MaxMem=   13107200 cpu:       1.0
 (Enter /programs/64bit/g09/g09-gfortran/bin/l701.exe)
 Compute integral first derivatives.
 ... and contract with generalized density number  0.
 Leave Link  701 at Wed Aug 21 02:32:39 2024, MaxMem=   13107200 cpu:       0.3
 (Enter /programs/64bit/g09/g09-gfortran/bin/l702.exe)
 L702 exits ... SP integral derivatives will be done elsewhere.
 Leave Link  702 at Wed Aug 21 02:32:39 2024, MaxMem=   13107200 cpu:       0.0
 (Enter /programs/64bit/g09/g09-gfortran/bin/l703.exe)
 Compute integral first derivatives, UseDBF=F ICtDFT=           0.
 Integral derivatives from FoFDir, PRISM(SPDF).
 Calling FoFJK, ICntrl=      2127 FMM=F ISym2X=1 I1Cent= 0 IOpClX= 0 NMat=1 NMatS=1 NMatT=0.
 FoFCou: FMM=F IPFlag=           0 FMFlag=      100000 FMFlg1=         800
         NFxFlg=           0 DoJE=F BraDBF=F KetDBF=F FulRan=T
         Omega=  0.000000  0.000000  1.000000  0.000000  0.000000 ICntrl=    2127 IOpCl=  0
         NMat0=    1 NMatS0=    1 NMatT0=    0 NMatD0=    1 NMtDS0=    0 NMtDT0=    0
         I1Cent=           0 NGrid=           0.
 Petite list used in FoFCou.
 Leave Link  703 at Wed Aug 21 02:32:40 2024, MaxMem=   13107200 cpu:       0.7
 (Enter /programs/64bit/g09/g09-gfortran/bin/l716.exe)
 Dipole        =-4.97290388D-17 2.22044605D-16-7.99047890D-01
 ***** Axes restored to original set *****
 -------------------------------------------------------------------
 Center     Atomic                   Forces (Hartrees/Bohr)
 Number     Number              X              Y              Z
 -------------------------------------------------------------------
      1        8          -0.004379826    0.000000000   -0.003097005
      2        1           0.001074635   -0.000000000    0.003125744
      3        1           0.003305191   -0.000000000   -0.000028739
 -------------------------------------------------------------------
 Cartesian Forces:  Max     0.004379826 RMS     0.002371698
 Leave Link  716 at Wed Aug 21 02:32:40 2024, MaxMem=   13107200 cpu:       0.0
 (Enter /programs/64bit/g09/g09-gfortran/bin/l103.exe)

 GradGradGradGradGradGradGradGradGradGradGradGradGradGradGradGradGradGrad
 Berny optimization.
 Using GEDIIS/GDIIS optimizer.
 Internal  Forces:  Max     0.003169602 RMS     0.002768600
 Search for a local minimum.
 Step number   2 out of a maximum of   20
 All quantities printed in internal units (Hartrees-Bohrs-Radians)
 RMS Force = .27686D-02 SwitMx=.10000D-02 MixMth= 1
 Mixed Optimization -- RFO/linear search
 Update second derivatives using D2CorX and points    1    2
 DE= -1.05D-03 DEPred=-9.09D-04 R= 1.16D+00
 SS=  1.41D+00  RLast= 9.27D-02 DXNew= 5.0454D-01 2.7804D-01
 Trust test= 1.16D+00 RLast= 9.27D-02 DXMaxT set to 3.00D-01
 The second derivative matrix:
                          R1        R2        A1
           R1           0.54689
           R2          -0.02992   0.54689
           A1           0.02063   0.02063   0.15279
 Use linear search instead of GDIIS.
     Eigenvalues ---    0.15046   0.51929   0.57681
 RFO step:  Lambda=-9.12151414D-06 EMin= 1.50463775D-01
 Quartic linear search produced a step of  0.18705.
 Iteration  1 RMS(Cart)=  0.00629826 RMS(Int)=  0.00003897
 Iteration  2 RMS(Cart)=  0.00004384 RMS(Int)=  0.00000000
 Iteration  3 RMS(Cart)=  0.00000000 RMS(Int)=  0.00000000
 ClnCor:  largest displacement from symmetrization is 7.97D-15 for atom     3.
 Variable       Old X    -DE/DX   Delta X   Delta X   Delta X     New X
                                 (Linear)    (Quad)   (Total)
    R1        1.81748   0.00317   0.00416   0.00244   0.00660   1.82408
    R2        1.81748   0.00317   0.00416   0.00244   0.00660   1.82408
    A1        1.82346  -0.00170  -0.01631   0.00381  -0.01250   1.81096
         Item               Value     Threshold  Converged?
 Maximum Force            0.003170     0.000450     NO 
 RMS     Force            0.002769     0.000300     NO 
 Maximum Displacement     0.007091     0.001800     NO 
 RMS     Displacement     0.006313     0.001200     NO 
 Predicted change in Energy=-3.208327D-05
 GradGradGradGradGradGradGradGradGradGradGradGradGradGradGradGradGradGrad

 Leave Link  103 at Wed Aug 21 02:32:40 2024, MaxMem=   13107200 cpu:       0.0
 (Enter /programs/64bit/g09/g09-gfortran/bin/l202.exe)
                          Input orientation:                          
 ---------------------------------------------------------------------
 Center     Atomic      Atomic             Coordinates (Angstroms)
 Number     Number       Type             X           Y           Z
 ---------------------------------------------------------------------
      1          8           0       -0.025791   -0.000000   -0.018237
      2          1           0        0.022294   -0.000000    0.945826
      3          1           0        0.899165    0.000000   -0.294256
 ---------------------------------------------------------------------
                    Distance matrix (angstroms):
                    1          2          3
     1  O    0.000000
     2  H    0.965262   0.000000
     3  H    0.965262   1.518785   0.000000
 Stoichiometry    H2O
 Framework group  C2V[C2(O),SGV(H2)]
 Deg. of freedom     2
 Full point group                 C2V     NOp   4
 Largest Abelian subgroup         C2V     NOp   4
 Largest concise Abelian subgroup C2      NOp   2
                         Standard orientation:                         
 ---------------------------------------------------------------------
 Center     Atomic      Atomic             Coordinates (Angstroms)
 Number     Number       Type             X           Y           Z
 ---------------------------------------------------------------------
      1          8           0       -0.000000    0.000000    0.119173
      2          1           0       -0.000000    0.759392   -0.476691
      3          1           0       -0.000000   -0.759392   -0.476691
 ---------------------------------------------------------------------
 Rotational constants (GHZ):    795.1590422    434.7801400    281.0865486
 Leave Link  202 at Wed Aug 21 02:32:40 2024, MaxMem=   13107200 cpu:       0.0
 (Enter /programs/64bit/g09/g09-gfortran/bin/l301.exe)
 Standard basis: 6-31G(d,p) (6D, 7F)
 Ernie: Thresh=  0.10000D-02 Tol=  0.10000D-05 Strict=F.
 There are    12 symmetry adapted basis functions of A1  symmetry.
 There are     2 symmetry adapted basis functions of A2  symmetry.
 There are     4 symmetry adapted basis functions of B1  symmetry.
 There are     7 symmetry adapted basis functions of B2  symmetry.
 Integral buffers will be    131072 words long.
 Raffenetti 2 integral format.
 Two-electron integral symmetry is turned on.
    25 basis functions,    42 primitive gaussians,    25 cartesian basis functions
     5 alpha electrons        5 beta electrons
       nuclear repulsion energy         9.1199667195 Hartrees.
 IExCor=  402 DFT=T Ex+Corr=B3LYP ExCW=0 ScaHFX=  0.200000
 ScaDFX=  0.800000  0.720000  1.000000  0.810000 ScalE2=  1.000000  1.000000
 IRadAn=      0 IRanWt=     -1 IRanGd=            0 ICorTp=0
 NAtoms=    3 NActive=    3 NUniq=    2 SFac= 1.69D+00 NAtFMM=   80 NAOKFM=F Big=F
 Leave Link  301 at Wed Aug 21 02:32:40 2024, MaxMem=   13107200 cpu:       0.1
 (Enter /programs/64bit/g09/g09-gfortran/bin/l302.exe)
 NPDir=0 NMtPBC=     1 NCelOv=     1 NCel=       1 NClECP=     1 NCelD=      1
         NCelK=      1 NCelE2=     1 NClLst=     1 CellRange=     0.0.
 One-electron integrals computed using PRISM.
 One-electron integral symmetry used in STVInt
 NBasis=    25 RedAO= T  NBF=    12     2     4     7
 NBsUse=    25 1.00D-06 NBFU=    12     2     4     7
 Precomputing XC quadrature grid using
 IXCGrd= 2 IRadAn=           0 IRanWt=          -1 IRanGd=           0 AccXCQ= 1.00D-10.
 NRdTot=     183 NPtTot=       23214 NUsed=       24547 NTot=       24579
 NSgBfM=    25    25    25    25    25 NAtAll=     3     3.
 Leave Link  302 at Wed Aug 21 02:32:41 2024, MaxMem=   13107200 cpu:       0.3
 (Enter /programs/64bit/g09/g09-gfortran/bin/l303.exe)
 DipDrv:  MaxL=1.
 Leave Link  303 at Wed Aug 21 02:32:41 2024, MaxMem=   13107200 cpu:       0.0
 (Enter /programs/64bit/g09/g09-gfortran/bin/l401.exe)
 Initial guess read from the read-write file.
 B after Tr=     0.000000    0.000000    0.000000
         Rot=    1.000000    0.000000    0.000000    0.000000 Ang=   0.00 deg.
 Guess basis will be translated and rotated to current coordinates.
 Initial guess orbital symmetries:
       Occupied  (A1) (A1) (B2) (A1) (B1)
       Virtual   (A1) (B2) (B2) (A1) (B1) (A1) (B2) (A1) (A2) (A1)
                 (B1) (A1) (B2) (B2) (A2) (B1) (A1) (A1) (B2) (A1)
 The electronic state of the initial guess is 1-A1.
 Leave Link  401 at Wed Aug 21 02:32:41 2024, MaxMem=   13107200 cpu:       0.2
 (Enter /programs/64bit/g09/g09-gfortran/bin/l502.exe)
 Closed shell SCF:
 Requested convergence on RMS density matrix=1.00D-08 within 128 cycles.
 Requested convergence on MAX density matrix=1.00D-06.
 Requested convergence on             energy=1.00D-06.
 No special actions if energy rises.
 Using DIIS extrapolation, IDIIS=  1040.
 Integral symmetry usage will be decided dynamically.
        24507 words used for storage of precomputed grid.
 Keep R1 ints in memory in canonical form, NReq=956207.
 IEnd=       44924 IEndB=       44924 NGot=    13107200 MDV=    13026564
 LenX=    13026564 LenY=    13025498
 Symmetry not used in FoFDir.
 MinBra= 0 MaxBra= 2 Meth= 1.
 IRaf=       0 NMat=   1 IRICut=       1 DoRegI=T DoRafI=F ISym2E= 0 JSym2E=0.

 Cycle   1  Pass 1  IDiag  1:
 E= -76.4197217064798    
 DIIS: error= 5.77D-04 at cycle   1 NSaved=   1.
 NSaved= 1 IEnMin= 1 EnMin= -76.4197217064798     IErMin= 1 ErrMin= 5.77D-04
 ErrMax= 5.77D-04 EMaxC= 1.00D-01 BMatC= 1.09D-05 BMatP= 1.09D-05
 IDIUse=3 WtCom= 9.94D-01 WtEn= 5.77D-03
 Coeff-Com:  0.100D+01
 Coeff-En:   0.100D+01
 Coeff:      0.100D+01
 Gap=     0.357 Goal=   None    Shift=    0.000
 RMSDP=2.41D-04 MaxDP=2.31D-03              OVMax= 2.34D-03

 Cycle   2  Pass 1  IDiag  1:
 E= -76.4197338276368     Delta-E=       -0.000012121157 Rises=F Damp=F
 DIIS: error= 4.88D-04 at cycle   2 NSaved=   2.
 NSaved= 2 IEnMin= 2 EnMin= -76.4197338276368     IErMin= 2 ErrMin= 4.88D-04
 ErrMax= 4.88D-04 EMaxC= 1.00D-01 BMatC= 4.02D-06 BMatP= 1.09D-05
 IDIUse=3 WtCom= 9.95D-01 WtEn= 4.88D-03
 Coeff-Com:  0.310D+00 0.690D+00
 Coeff-En:   0.000D+00 0.100D+01
 Coeff:      0.308D+00 0.692D+00
 Gap=     0.358 Goal=   None    Shift=    0.000
 RMSDP=8.05D-05 MaxDP=7.38D-04 DE=-1.21D-05 OVMax= 7.64D-04

 Cycle   3  Pass 1  IDiag  1:
 E= -76.4197353923387     Delta-E=       -0.000001564702 Rises=F Damp=F
 DIIS: error= 2.99D-04 at cycle   3 NSaved=   3.
 NSaved= 3 IEnMin= 3 EnMin= -76.4197353923387     IErMin= 3 ErrMin= 2.99D-04
 ErrMax= 2.99D-04 EMaxC= 1.00D-01 BMatC= 1.75D-06 BMatP= 4.02D-06
 IDIUse=3 WtCom= 9.97D-01 WtEn= 2.99D-03
 Coeff-Com: -0.229D-01 0.400D+00 0.623D+00
 Coeff-En:   0.000D+00 0.323D+00 0.677D+00
 Coeff:     -0.228D-01 0.399D+00 0.623D+00
 Gap=     0.357 Goal=   None    Shift=    0.000
 RMSDP=3.52D-05 MaxDP=3.30D-04 DE=-1.56D-06 OVMax= 3.52D-04

 Cycle   4  Pass 1  IDiag  1:
 E= -76.4197366193209     Delta-E=       -0.000001226982 Rises=F Damp=F
 DIIS: error= 1.11D-05 at cycle   4 NSaved=   4.
 NSaved= 4 IEnMin= 4 EnMin= -76.4197366193209     IErMin= 4 ErrMin= 1.11D-05
 ErrMax= 1.11D-05 EMaxC= 1.00D-01 BMatC= 1.79D-09 BMatP= 1.75D-06
 IDIUse=1 WtCom= 1.00D+00 WtEn= 0.00D+00
 Coeff-Com: -0.643D-02 0.676D-01 0.114D+00 0.825D+00
 Coeff:     -0.643D-02 0.676D-01 0.114D+00 0.825D+00
 Gap=     0.357 Goal=   None    Shift=    0.000
 RMSDP=1.02D-06 MaxDP=5.49D-06 DE=-1.23D-06 OVMax= 1.40D-05

 Cycle   5  Pass 1  IDiag  1:
 E= -76.4197366207493     Delta-E=       -0.000000001428 Rises=F Damp=F
 DIIS: error= 1.17D-06 at cycle   5 NSaved=   5.
 NSaved= 5 IEnMin= 5 EnMin= -76.4197366207493     IErMin= 5 ErrMin= 1.17D-06
 ErrMax= 1.17D-06 EMaxC= 1.00D-01 BMatC= 2.73D-11 BMatP= 1.79D-09
 IDIUse=1 WtCom= 1.00D+00 WtEn= 0.00D+00
 Coeff-Com:  0.159D-03-0.552D-02-0.862D-02 0.738D-01 0.940D+00
 Coeff:      0.159D-03-0.552D-02-0.862D-02 0.738D-01 0.940D+00
 Gap=     0.357 Goal=   None    Shift=    0.000
 RMSDP=2.93D-07 MaxDP=3.42D-06 DE=-1.43D-09 OVMax= 3.35D-06

 Cycle   6  Pass 1  IDiag  1:
 E= -76.4197366207781     Delta-E=       -0.000000000029 Rises=F Damp=F
 DIIS: error= 1.64D-07 at cycle   6 NSaved=   6.
 NSaved= 6 IEnMin= 6 EnMin= -76.4197366207781     IErMin= 6 ErrMin= 1.64D-07
 ErrMax= 1.64D-07 EMaxC= 1.00D-01 BMatC= 3.63D-13 BMatP= 2.73D-11
 IDIUse=1 WtCom= 1.00D+00 WtEn= 0.00D+00
 Coeff-Com:  0.277D-04-0.221D-03 0.575D-04-0.939D-02-0.483D-01 0.106D+01
 Coeff:      0.277D-04-0.221D-03 0.575D-04-0.939D-02-0.483D-01 0.106D+01
 Gap=     0.357 Goal=   None    Shift=    0.000
 RMSDP=2.29D-08 MaxDP=1.86D-07 DE=-2.88D-11 OVMax= 2.63D-07

 Cycle   7  Pass 1  IDiag  1:
 E= -76.4197366207784     Delta-E=       -0.000000000000 Rises=F Damp=F
 DIIS: error= 3.66D-09 at cycle   7 NSaved=   7.
 NSaved= 7 IEnMin= 7 EnMin= -76.4197366207784     IErMin= 7 ErrMin= 3.66D-09
 ErrMax= 3.66D-09 EMaxC= 1.00D-01 BMatC= 1.69D-16 BMatP= 3.63D-13
 IDIUse=1 WtCom= 1.00D+00 WtEn= 0.00D+00
 Coeff-Com: -0.131D-05 0.275D-04 0.237D-04-0.830D-04-0.232D-02-0.341D-01
 Coeff-Com:  0.104D+01
 Coeff:     -0.131D-05 0.275D-04 0.237D-04-0.830D-04-0.232D-02-0.341D-01
 Coeff:      0.104D+01
 Gap=     0.357 Goal=   None    Shift=    0.000
 RMSDP=1.13D-09 MaxDP=1.14D-08 DE=-3.13D-13 OVMax= 1.26D-08

 SCF Done:  E(RB3LYP) =  -76.4197366208     A.U. after    7 cycles
             Convg  =    0.1126D-08             -V/T =  2.0078
 KE= 7.582655104847D+01 PE=-1.988510372159D+02 EE= 3.748478282721D+01
 Leave Link  502 at Wed Aug 21 02:32:42 2024, MaxMem=   13107200 cpu:       0.9
 (Enter /programs/64bit/g09/g09-gfortran/bin/l701.exe)
 Compute integral first derivatives.
 ... and contract with generalized density number  0.
 Leave Link  701 at Wed Aug 21 02:32:42 2024, MaxMem=   13107200 cpu:       0.3
 (Enter /programs/64bit/g09/g09-gfortran/bin/l702.exe)
 L702 exits ... SP integral derivatives will be done elsewhere.
 Leave Link  702 at Wed Aug 21 02:32:42 2024, MaxMem=   13107200 cpu:       0.0
 (Enter /programs/64bit/g09/g09-gfortran/bin/l703.exe)
 Compute integral first derivatives, UseDBF=F ICtDFT=           0.
 Integral derivatives from FoFDir, PRISM(SPDF).
 Calling FoFJK, ICntrl=      2127 FMM=F ISym2X=1 I1Cent= 0 IOpClX= 0 NMat=1 NMatS=1 NMatT=0.
 FoFCou: FMM=F IPFlag=           0 FMFlag=      100000 FMFlg1=         800
         NFxFlg=           0 DoJE=F BraDBF=F KetDBF=F FulRan=T
         Omega=  0.000000  0.000000  1.000000  0.000000  0.000000 ICntrl=    2127 IOpCl=  0
         NMat0=    1 NMatS0=    1 NMatT0=    0 NMatD0=    1 NMtDS0=    0 NMtDT0=    0
         I1Cent=           0 NGrid=           0.
 Petite list used in FoFCou.
 Leave Link  703 at Wed Aug 21 02:32:43 2024, MaxMem=   13107200 cpu:       0.7
 (Enter /programs/64bit/g09/g09-gfortran/bin/l716.exe)
 Dipole        =-4.96654504D-17 4.44089210D-16-8.03624601D-01
 ***** Axes restored to original set *****
 -------------------------------------------------------------------
 Center     Atomic                   Forces (Hartrees/Bohr)
 Number     Number              X              Y              Z
 -------------------------------------------------------------------
      1        8          -0.000092754    0.000000000   -0.000065587
      2        1           0.000031597   -0.000000000    0.000053695
      3        1           0.000061157   -0.000000000    0.000011892
 -------------------------------------------------------------------
 Cartesian Forces:  Max     0.000092754 RMS     0.000047922
 Leave Link  716 at Wed Aug 21 02:32:43 2024, MaxMem=   13107200 cpu:       0.0
 (Enter /programs/64bit/g09/g09-gfortran/bin/l103.exe)

 GradGradGradGradGradGradGradGradGradGradGradGradGradGradGradGradGradGrad
 Berny optimization.
 Using GEDIIS/GDIIS optimizer.
 Internal  Forces:  Max     0.000055203 RMS     0.000054377
 Search for a local minimum.
 Step number   3 out of a maximum of   20
 All quantities printed in internal units (Hartrees-Bohrs-Radians)
 RMS Force = .54377D-04 SwitMx=.10000D-02 MixMth= 2
 Mixed Optimization -- En-DIIS/RFO-DIIS
 Update second derivatives using D2CorX and points    1    2    3
 DE= -3.22D-05 DEPred=-3.21D-05 R= 1.00D+00
 SS=  1.41D+00  RLast= 1.56D-02 DXNew= 5.0454D-01 4.6782D-02
 Trust test= 1.00D+00 RLast= 1.56D-02 DXMaxT set to 3.00D-01
 The second derivative matrix:
                          R1        R2        A1
           R1           0.54396
           R2          -0.03285   0.54396
           A1           0.02059   0.02059   0.15387
 Use linear search instead of GDIIS.
     Eigenvalues ---    0.15151   0.51348   0.57681
 RFO step:  Lambda= 0.00000000D+00 EMin= 1.51514484D-01
 Quartic linear search produced a step of  0.02262.
 Iteration  1 RMS(Cart)=  0.00018946 RMS(Int)=  0.00000003
 Iteration  2 RMS(Cart)=  0.00000003 RMS(Int)=  0.00000000
 ClnCor:  largest displacement from symmetrization is 2.78D-15 for atom     3.
 Variable       Old X    -DE/DX   Delta X   Delta X   Delta X     New X
                                 (Linear)    (Quad)   (Total)
    R1        1.82408   0.00006   0.00015  -0.00003   0.00012   1.82420
    R2        1.82408   0.00006   0.00015  -0.00003   0.00012   1.82420
    A1        1.81096  -0.00005  -0.00028  -0.00010  -0.00038   1.81058
         Item               Value     Threshold  Converged?
 Maximum Force            0.000055     0.000450     YES
 RMS     Force            0.000054     0.000300     YES
 Maximum Displacement     0.000190     0.001800     YES
 RMS     Displacement     0.000189     0.001200     YES
 Predicted change in Energy=-1.668375D-08
 Optimization completed.
    -- Stationary point found.
                           ----------------------------
                           !   Optimized Parameters   !
                           ! (Angstroms and Degrees)  !
 --------------------------                            --------------------------
 ! Name  Definition              Value          Derivative Info.                !
 --------------------------------------------------------------------------------
 ! R1    R(1,2)                  0.9653         -DE/DX =    0.0001              !
 ! R2    R(1,3)                  0.9653         -DE/DX =    0.0001              !
 ! A1    A(2,1,3)              103.7604         -DE/DX =   -0.0001              !
 --------------------------------------------------------------------------------
 GradGradGradGradGradGradGradGradGradGradGradGradGradGradGradGradGradGrad

 Largest change from initial coordinates is atom    2       0.041 Angstoms.
 Leave Link  103 at Wed Aug 21 02:32:43 2024, MaxMem=   13107200 cpu:       0.0
 (Enter /programs/64bit/g09/g09-gfortran/bin/l202.exe)
                          Input orientation:                          
 ---------------------------------------------------------------------
 Center     Atomic      Atomic             Coordinates (Angstroms)
[...]
  25        3PZ         0.00000   0.00000   0.00000   0.00000   0.00104
     Gross orbital populations:
                           1
   1 1   O  1S          1.99265
   2        2S          0.89932
   3        2PX         1.15637
   4        2PY         0.81572
   5        2PZ         0.94594
   6        3S          0.94938
   7        3PX         0.82005
   8        3PY         0.42208
   9        3PZ         0.61625
  10        4XX        -0.01112
  11        4YY        -0.00169
  12        4ZZ        -0.00952
  13        4XY        -0.00000
  14        4XZ         0.00228
  15        4YZ         0.01217
  16 2   H  1S          0.49498
  17        2S          0.16150
  18        3PX         0.01065
  19        3PY         0.01496
  20        3PZ         0.01297
  21 3   H  1S          0.49498
  22        2S          0.16150
  23        3PX         0.01065
  24        3PY         0.01496
  25        3PZ         0.01297
          Condensed to atoms (all electrons):
              1          2          3
     1  O    8.041930   0.283975   0.283975
     2  H    0.283975   0.439548  -0.028464
     3  H    0.283975  -0.028464   0.439548
 Mulliken atomic charges:
              1
     1  O   -0.609881
     2  H    0.304940
     3  H    0.304940
 Sum of Mulliken atomic charges =  -0.00000
 Mulliken charges with hydrogens summed into heavy atoms:
              1
     1  O   -0.000000
 Sum of Mulliken charges with hydrogens summed into heavy atoms =  -0.00000
 APT atomic charges:
              1
     1  O   -0.481669
     2  H    0.240834
     3  H    0.240834
 Sum of APT charges=   0.00000
 APT Atomic charges with hydrogens summed into heavy atoms:
              1
     1  O    0.000000
     2  H    0.000000
     3  H    0.000000
 Sum of APT charges=   0.00000
 Electronic spatial extent (au):  <R**2>=             19.0914
 Charge=             -0.0000 electrons
 Dipole moment (field-independent basis, Debye):
    X=             -0.0000    Y=             -0.0000    Z=             -2.0426  Tot=              2.0426
 Quadrupole moment (field-independent basis, Debye-Ang):
   XX=             -7.1377   YY=             -4.2962   ZZ=             -5.9762
   XY=              0.0000   XZ=              0.0000   YZ=              0.0000
 Traceless Quadrupole moment (field-independent basis, Debye-Ang):
   XX=             -1.3343   YY=              1.5072   ZZ=             -0.1729
   XY=              0.0000   XZ=              0.0000   YZ=              0.0000
 Octapole moment (field-independent basis, Debye-Ang**2):
  XXX=              0.0000  YYY=             -0.0000  ZZZ=             -1.1610  XYY=             -0.0000
  XXY=              0.0000  XXZ=             -0.2979  XZZ=              0.0000  YZZ=             -0.0000
  YYZ=             -1.1941  XYZ=             -0.0000
 Hexadecapole moment (field-independent basis, Debye-Ang**3):
 XXXX=             -5.1252 YYYY=             -6.1217 ZZZZ=             -6.2899 XXXY=             -0.0000
 XXXZ=             -0.0000 YYYX=             -0.0000 YYYZ=              0.0000 ZZZX=             -0.0000
 ZZZY=              0.0000 XXYY=             -2.1267 XXZZ=             -1.9555 YYZZ=             -1.7370
 XXYZ=             -0.0000 YYXZ=              0.0000 ZZXY=             -0.0000
 N-N= 9.119966719488D+00 E-N=-1.988510371333D+02  KE= 7.582655102735D+01
 Symmetry A1   KE= 6.767621829823D+01
 Symmetry A2   KE= 1.393031705002D-35
 Symmetry B1   KE= 4.592859482875D+00
 Symmetry B2   KE= 3.557473246244D+00
 Orbital energies and kinetic energies (alpha):
                                 1                 2
   1         (A1)--O         -19.137985         29.032262
   2         (A1)--O          -0.997322          2.582852
   3         (B2)--O          -0.515040          1.778737
   4         (A1)--O          -0.370986          2.222995
   5         (B1)--O          -0.291959          2.296430
   6         (A1)--V           0.065366          1.165925
   7         (B2)--V           0.151252          1.246464
   8         (B2)--V           0.756934          2.075344
   9         (A1)--V           0.805514          2.978465
  10         (B1)--V           0.891356          3.554506
  11         (A1)--V           0.893515          2.576286
  12         (B2)--V           1.015578          3.171539
  13         (A1)--V           1.175319          2.333039
  14         (A2)--V           1.529472          2.511142
  15         (A1)--V           1.537809          2.496581
  16         (B1)--V           1.643702          2.604870
  17         (A1)--V           2.238760          3.423849
  18         (B2)--V           2.268152          3.112783
  19         (B2)--V           2.450208          3.805926
  20         (A2)--V           2.641181          3.563321
  21         (B1)--V           2.666704          3.556572
  22         (A1)--V           3.028003          4.023621
  23         (A1)--V           3.307319          6.445376
  24         (B2)--V           3.531532          5.582556
  25         (A1)--V           3.693033          8.737536
 Total kinetic energy from orbitals= 7.582655102735D+01
  Exact polarizability:   2.994  -0.000   7.510  -0.000   0.000   5.557
 Approx polarizability:   3.295   0.000   9.175   0.000   0.000   6.977
 No NMR shielding tensors so no spin-rotation constants.
 Leave Link  601 at Wed Aug 21 02:32:50 2024, MaxMem=   13107200 cpu:       0.2
 (Enter /programs/64bit/g09/g09-gfortran/bin/l701.exe)
 Compute integral second derivatives.
 ... and contract with generalized density number  0.
 Leave Link  701 at Wed Aug 21 02:32:51 2024, MaxMem=   13107200 cpu:       0.4
 (Enter /programs/64bit/g09/g09-gfortran/bin/l702.exe)
 L702 exits ... SP integral derivatives will be done elsewhere.
 Leave Link  702 at Wed Aug 21 02:32:51 2024, MaxMem=   13107200 cpu:       0.0
 (Enter /programs/64bit/g09/g09-gfortran/bin/l703.exe)
 Compute integral second derivatives, UseDBF=F ICtDFT=           0.
 Integral derivatives from FoFDir, PRISM(SPDF).
 Calling FoFJK, ICntrl=    100127 FMM=F ISym2X=1 I1Cent= 0 IOpClX= 0 NMat=1 NMatS=1 NMatT=0.
 FoFCou: FMM=F IPFlag=           0 FMFlag=      100000 FMFlg1=         800
         NFxFlg=           0 DoJE=F BraDBF=F KetDBF=F FulRan=T
         Omega=  0.000000  0.000000  1.000000  0.000000  0.000000 ICntrl=  100127 IOpCl=  0
         NMat0=    1 NMatS0=    1 NMatT0=    0 NMatD0=    1 NMtDS0=    0 NMtDT0=    0
         I1Cent=           0 NGrid=           0.
 Petite list used in FoFCou.
 Leave Link  703 at Wed Aug 21 02:32:53 2024, MaxMem=   13107200 cpu:       2.6
 (Enter /programs/64bit/g09/g09-gfortran/bin/l716.exe)
 Dipole        =-4.96654500D-17 2.04263689D-16-8.03624596D-01
 Polarizability= 2.99367000D+00-3.15398090D-11 7.50970221D+00
                -8.02492773D-11 3.41091180D-10 5.55748053D+00
 Full mass-weighted force constant matrix:
 Low frequencies ---  -59.2908  -53.9972  -28.8636   -0.0011    0.0011    0.0017
 Low frequencies --- 1664.9025 3800.4056 3913.8254
 Diagonal vibrational polarizability:
        0.0000000       0.0356033       0.6862768
 Harmonic frequencies (cm**-1), IR intensities (KM/Mole), Raman scattering
 activities (A**4/AMU), depolarization ratios for plane and unpolarized
 incident light, reduced masses (AMU), force constants (mDyne/A),
 and normal coordinates:
                     1                      2                      3
                    A1                     A1                     B2
 Frequencies --  1664.9025              3800.4056              3913.8254
 Red. masses --     1.0827                 1.0452                 1.0811
 Frc consts  --     1.7682                 8.8940                 9.7572
 IR Inten    --    70.3723                 1.6434                20.2656
  Atom  AN      X      Y      Z        X      Y      Z        X      Y      Z
     1   8     0.00   0.00   0.07     0.00   0.00   0.05     0.00   0.07  -0.00
     2   1    -0.00  -0.43  -0.56     0.00   0.58  -0.40    -0.00  -0.55   0.44
     3   1    -0.00   0.43  -0.56    -0.00  -0.58  -0.40    -0.00  -0.55  -0.44

 -------------------
 - Thermochemistry -
 -------------------
 Temperature   298.150 Kelvin.  Pressure   1.00000 Atm.
 Atom     1 has atomic number  8 and mass  15.99491
 Atom     2 has atomic number  1 and mass   1.00783
 Atom     3 has atomic number  1 and mass   1.00783
 Molecular mass:    18.01056 amu.
 Principal axes and moments of inertia in atomic units:
                           1         2         3
     Eigenvalues --     2.26966   4.15093   6.42059
           X            0.00000   0.00000   1.00000
           Y            1.00000  -0.00000  -0.00000
           Z            0.00000   1.00000  -0.00000
 This molecule is an asymmetric top.
 Rotational symmetry number  2.
 Rotational temperatures (Kelvin)     38.16157    20.86613    13.49001
 Rotational constants (GHZ):         795.15904   434.78014   281.08655
 Zero-point vibrational energy      56099.7 (Joules/Mol)
                                   13.40814 (Kcal/Mol)
 Vibrational temperatures:   2395.42  5467.93  5631.11
          (Kelvin)
 
 Zero-point correction=                           0.021367 (Hartree/Particle)
 Thermal correction to Energy=                    0.024202
 Thermal correction to Enthalpy=                  0.025146
 Thermal correction to Gibbs Free Energy=         0.003710
 Sum of electronic and zero-point Energies=            -76.398369
 Sum of electronic and thermal Energies=               -76.395534
 Sum of electronic and thermal Enthalpies=             -76.394590
 Sum of electronic and thermal Free Energies=          -76.416026
 
                     E (Thermal)             CV                S
                      KCal/Mol        Cal/Mol-Kelvin    Cal/Mol-Kelvin
 Total                   15.187              6.003             45.116
 Electronic               0.000              0.000              0.000
 Translational            0.889              2.981             34.608
 Rotational               0.889              2.981             10.502
 Vibrational             13.410              0.042              0.006
                       Q            Log10(Q)             Ln(Q)
 Total Bot       0.196480D-01         -1.706682         -3.929781
 Total V=0       0.132295D+09          8.121544         18.700546
 Vib (Bot)       0.148564D-09         -9.828086        -22.630003
 Vib (V=0)       0.100032D+01          0.000141          0.000324
 Electronic      0.100000D+01          0.000000          0.000000
 Translational   0.300432D+07          6.477746         14.915562
 Rotational      0.440207D+02          1.643657          3.784660
 
                                                                water
                                                             IR Spectrum
 
     3   3                                                                    1                                                      
     9   8                                                                    6                                                      
     1   0                                                                    6                                                      
     4   0                                                                    5                                                      
 
     X   X                                                                    X                                                      
     X                                                                        X                                                      
     X                                                                        X                                                      
     X                                                                        X                                                      
     X                                                                        X                                                      
     X                                                                        X                                                      
                                                                              X                                                      
                                                                              X                                                      
                                                                              X                                                      
                                                                              X                                                      
                                                                              X                                                      
                                                                              X                                                      
                                                                              X                                                      
                                                                              X                                                      
                                                                              X                                                      
                                                                              X                                                      
                                                                              X                                                      
                                                                              X                                                      
                                                                              X                                                      
                                                                              X                                                      
 
 ***** Axes restored to original set *****
 -------------------------------------------------------------------
 Center     Atomic                   Forces (Hartrees/Bohr)
 Number     Number              X              Y              Z
 -------------------------------------------------------------------
      1        8          -0.000092755    0.000000000   -0.000065587
      2        1           0.000031598    0.000000000    0.000053695
      3        1           0.000061157   -0.000000000    0.000011892
 -------------------------------------------------------------------
 Cartesian Forces:  Max     0.000092755 RMS     0.000047922
 Force constants in Cartesian coordinates: 
                1             2             3             4             5 
      1  0.528341D+00
      2  0.000000D+00 -0.238142D-03
      3 -0.100679D+00  0.000000D+00  0.599532D+00
      4 -0.463588D-01  0.000000D+00 -0.588781D-01  0.496624D-01
      5  0.000000D+00  0.119071D-03  0.000000D+00  0.000000D+00 -0.115137D-03
      6  0.554078D-02  0.000000D+00 -0.517577D+00  0.643648D-02  0.000000D+00
      7 -0.481982D+00  0.000000D+00  0.159557D+00 -0.330356D-02  0.000000D+00
      8  0.000000D+00  0.119071D-03  0.000000D+00  0.000000D+00 -0.393361D-05
      9  0.951380D-01  0.000000D+00 -0.819541D-01  0.524416D-01  0.000000D+00
                6             7             8             9 
      6  0.535187D+00
      7 -0.119773D-01  0.485286D+00
      8  0.000000D+00  0.000000D+00 -0.115137D-03
      9 -0.176099D-01 -0.147580D+00  0.000000D+00  0.995640D-01
 Force constants in internal coordinates: 
                1             2             3 
      1  0.534601D+00
      2 -0.731654D-02  0.534601D+00
      3  0.324559D-01  0.324559D-01  0.167219D+00
 Leave Link  716 at Wed Aug 21 02:32:53 2024, MaxMem=   13107200 cpu:       0.1
 (Enter /programs/64bit/g09/g09-gfortran/bin/l103.exe)

 GradGradGradGradGradGradGradGradGradGradGradGradGradGradGradGradGradGrad
 Berny optimization.
 Internal  Forces:  Max     0.000055203 RMS     0.000054377
 Search for a local minimum.
 Step number   1 out of a maximum of    2
 All quantities printed in internal units (Hartrees-Bohrs-Radians)
 Second derivative matrix not updated -- analytic derivatives used.
 The second derivative matrix:
                          R1        R2        A1
           R1           0.53460
           R2          -0.00732   0.53460
           A1           0.03246   0.03246   0.16722
     Eigenvalues ---    0.16146   0.53304   0.54192
 Angle between quadratic step and forces=  29.73 degrees.
 Linear search not attempted -- first point.
 Iteration  1 RMS(Cart)=  0.00018181 RMS(Int)=  0.00000003
 Iteration  2 RMS(Cart)=  0.00000003 RMS(Int)=  0.00000000
 ClnCor:  largest displacement from symmetrization is 4.34D-15 for atom     3.
 Variable       Old X    -DE/DX   Delta X   Delta X   Delta X     New X
                                 (Linear)    (Quad)   (Total)
    R1        1.82408   0.00006   0.00000   0.00013   0.00013   1.82421
    R2        1.82408   0.00006   0.00000   0.00013   0.00013   1.82421
    A1        1.81096  -0.00005   0.00000  -0.00036  -0.00036   1.81060
         Item               Value     Threshold  Converged?
 Maximum Force            0.000055     0.000450     YES
 RMS     Force            0.000054     0.000300     YES
 Maximum Displacement     0.000185     0.001800     YES
 RMS     Displacement     0.000182     0.001200     YES
 Predicted change in Energy=-1.661737D-08
 Optimization completed.
    -- Stationary point found.
                           ----------------------------
                           !   Optimized Parameters   !
                           ! (Angstroms and Degrees)  !
 --------------------------                            --------------------------
 ! Name  Definition              Value          Derivative Info.                !
 --------------------------------------------------------------------------------
 ! R1    R(1,2)                  0.9653         -DE/DX =    0.0001              !
 ! R2    R(1,3)                  0.9653         -DE/DX =    0.0001              !
 ! A1    A(2,1,3)              103.7604         -DE/DX =   -0.0001              !
 --------------------------------------------------------------------------------
 GradGradGradGradGradGradGradGradGradGradGradGradGradGradGradGradGradGrad

 Leave Link  103 at Wed Aug 21 02:32:54 2024, MaxMem=   13107200 cpu:       0.0
 (Enter /programs/64bit/g09/g09-gfortran/bin/l9999.exe)
 1\1\GINC-MOLMOD\Freq\RB3LYP\6-31G(d,p)\H2O1\OSPITE\21-Aug-2024\0\\#P G
 eom=AllCheck Guess=TCheck SCRF=Check GenChk RB3LYP/6-31G(d,p) Freq\\wa
 ter\\0,1\O,-0.0257907702,0.,-0.0182368285\H,0.0222943408,0.,0.94582628
 37\H,0.899165019,0.,-0.2942561219\\Version=EM64L-G09RevA.02\State=1-A1
 \HF=-76.4197366\RMSD=1.090e-10\RMSF=4.792e-05\ZeroPoint=0.0213672\Ther
 mal=0.0242023\Dipole=0.6561567,0.,0.4639729\DipoleDeriv=-0.3517531,0.,
 0.0393329,0.,-0.7136877,0.,0.0393329,0.,-0.3795657,0.2738438,0.,-0.070
 5529,0.,0.3568438,0.,-0.0380533,0.,0.0918156,0.0779093,0.,0.03122,0.,0
 .3568438,0.,-0.0012797,0.,0.2877501\Polar=6.2082211,0.,2.99367,-0.9202
 861,0.,6.8589617\PG=C02V [C2(O1),SGV(H2)]\NImag=0\\0.52834093,0.,-0.00
 023814,-0.10067878,0.,0.59953158,-0.04635882,0.,-0.05887809,0.04966238
 ,0.,0.00011907,0.,0.,-0.00011514,0.00554078,0.,-0.51757743,0.00643648,
 0.,0.53518731,-0.48198211,0.,0.15955686,-0.00330356,0.,-0.01197725,0.4
 8528567,0.,0.00011907,0.,0.,-0.00000393,0.,0.,-0.00011514,0.09513800,0
 .,-0.08195415,0.05244161,0.,-0.01760987,-0.14757961,0.,0.09956402\\0.0
 0009275,0.,0.00006559,-0.00003160,0.,-0.00005370,-0.00006116,0.,-0.000
 01189\\\@


 "THE TIME HAS COME", THE WALRUS SAID,
 "TO TALK OF MANY THINGS,
 OF SHOES AND SHIPS AND SEALING WAX,
 OF CABBAGES AND KINGS,
 AND WHY THE SEA IS BOILING HOT,
 AND WHETHER PIGS HAVE WINGS."
 Job cpu time:  0 days  0 hours  0 minutes  9.2 seconds.
 File lengths (MBytes):  RWF=      5 Int=      0 D2E=      0 Chk=      1 Scr=      1
 Normal termination of Gaussian 09 at Wed Aug 21 02:32:54 2024.
