 water dimer                                             
GAUSSIAN             10 MOL ORBITALS     84 PRIMITIVES        6 NUCLEI
  O    1    (CENTRE  1)   2.76554860 -0.22583776  0.03077338  CHARGE =  8.0
  H    2    (CENTRE  2)   3.69006963  1.33088493 -0.17703600  CHARGE =  1.0
  H    3    (CENTRE  3)   1.00122166  0.28749721 -0.04996606  CHARGE =  1.0
  O    4    (CENTRE  4)  -2.64739605  0.23869738 -0.03369135  CHARGE =  8.0
  H    5    (CENTRE  5)  -2.81319085 -0.65535684  1.55100596  CHARGE =  1.0
  H    6    (CENTRE  6)  -2.82332084 -1.06590226 -1.30066019  CHARGE =  1.0
CENTRE ASSIGNMENTS    1  1  1  1  1  1  1  1  1  1  1  1  1  1  1  1  1  1  1  1
CENTRE ASSIGNMENTS    1  1  1  1  1  1  1  1  2  2  2  2  2  2  2  3  3  3  3  3
CENTRE ASSIGNMENTS    3  3  4  4  4  4  4  4  4  4  4  4  4  4  4  4  4  4  4  4
CENTRE ASSIGNMENTS    4  4  4  4  4  4  4  4  4  4  5  5  5  5  5  5  5  6  6  6
CENTRE ASSIGNMENTS    6  6  6  6
TYPE ASSIGNMENTS      1  1  1  1  1  1  1  1  1  2  2  2  3  3  3  4  4  4  1  2
TYPE ASSIGNMENTS      3  4  5  6  7  8  9 10  1  1  1  1  2  3  4  1  1  1  1  2
TYPE ASSIGNMENTS      3  4  1  1  1  1  1  1  1  1  1  2  2  2  3  3  3  4  4  4
TYPE ASSIGNMENTS      1  2  3  4  5  6  7  8  9 10  1  1  1  1  2  3  4  1  1  1
TYPE ASSIGNMENTS      1  2  3  4
EXPONENTS  0.5484672D+04 0.8252349D+03 0.1880470D+03 0.5296450D+02 0.1689757D+02
EXPONENTS  0.5799635D+01 0.1553962D+02 0.3599934D+01 0.1013762D+01 0.1553962D+02
EXPONENTS  0.3599934D+01 0.1013762D+01 0.1553962D+02 0.3599934D+01 0.1013762D+01
EXPONENTS  0.1553962D+02 0.3599934D+01 0.1013762D+01 0.2700058D+00 0.2700058D+00
EXPONENTS  0.2700058D+00 0.2700058D+00 0.8000000D+00 0.8000000D+00 0.8000000D+00
EXPONENTS  0.8000000D+00 0.8000000D+00 0.8000000D+00 0.1873114D+02 0.2825394D+01
EXPONENTS  0.6401217D+00 0.1612778D+00 0.1100000D+01 0.1100000D+01 0.1100000D+01
EXPONENTS  0.1873114D+02 0.2825394D+01 0.6401217D+00 0.1612778D+00 0.1100000D+01
EXPONENTS  0.1100000D+01 0.1100000D+01 0.5484672D+04 0.8252349D+03 0.1880470D+03
EXPONENTS  0.5296450D+02 0.1689757D+02 0.5799635D+01 0.1553962D+02 0.3599934D+01
EXPONENTS  0.1013762D+01 0.1553962D+02 0.3599934D+01 0.1013762D+01 0.1553962D+02
EXPONENTS  0.3599934D+01 0.1013762D+01 0.1553962D+02 0.3599934D+01 0.1013762D+01
EXPONENTS  0.2700058D+00 0.2700058D+00 0.2700058D+00 0.2700058D+00 0.8000000D+00
EXPONENTS  0.8000000D+00 0.8000000D+00 0.8000000D+00 0.8000000D+00 0.8000000D+00
EXPONENTS  0.1873114D+02 0.2825394D+01 0.6401217D+00 0.1612778D+00 0.1100000D+01
EXPONENTS  0.1100000D+01 0.1100000D+01 0.1873114D+02 0.2825394D+01 0.6401217D+00
EXPONENTS  0.1612778D+00 0.1100000D+01 0.1100000D+01 0.1100000D+01
MO    1     MO 0.0        OCC NO =    2.0000000  ORB. ENERGY =  -19.174452
 -0.48578118D-04 -0.89409669D-04 -0.14468172D-03 -0.19018817D-03 -0.16312329D-03
 -0.55774624D-04  0.14348512D-03  0.64022780D-04 -0.18906013D-03  0.18378269D-03
  0.14159465D-03  0.62167680D-04 -0.78525286D-04 -0.60499499D-04 -0.26562539D-04
  0.13076488D-04  0.10074729D-04  0.44233487D-05  0.28856508D-03 -0.11581849D-03
  0.19975188D-04 -0.35369747D-05 -0.11824038D-03 -0.19359506D-03 -0.18493817D-03
 -0.33676884D-04  0.47480957D-05  0.23780143D-05 -0.63659528D-05 -0.10797861D-04
 -0.12292983D-04  0.24379657D-04 -0.21320815D-04 -0.54872625D-04  0.75725555D-05
 -0.25789884D-04 -0.43744525D-04 -0.49801596D-04 -0.19430397D-03  0.16858465D-03
  0.45294122D-04 -0.82644051D-05  0.82575556D+00  0.15198310D+01  0.24593735D+01
  0.32329153D+01  0.27728527D+01  0.94808542D+00 -0.16104562D-01 -0.71858241D-02
  0.21219835D-01 -0.66183455D-03 -0.50990784D-03 -0.22387701D-03 -0.36040453D-02
 -0.27767226D-02 -0.12191308D-02  0.52083559D-03  0.40127574D-03  0.17618166D-03
  0.29289075D-02  0.89155944D-04 -0.52841509D-04  0.73940407D-05 -0.87531149D-02
 -0.86698371D-02 -0.86154817D-02  0.25872949D-04 -0.26346435D-05  0.15822670D-04
  0.29787249D-04  0.50524813D-04  0.57520714D-04 -0.19790675D-03 -0.99563233D-04
 -0.14430973D-03  0.37063164D-03  0.29782813D-04  0.50517288D-04  0.57512147D-04
 -0.19781977D-03 -0.10204950D-03 -0.24278945D-03 -0.31408545D-03
MO    2     MO 0.0        OCC NO =    2.0000000  ORB. ENERGY =  -19.106272
  0.82576894D+00  0.15198557D+01  0.24594134D+01  0.32329677D+01  0.27728976D+01
  0.94810079D+00 -0.16118273D-01 -0.71919422D-02  0.21237902D-01 -0.10615359D-02
 -0.81785617D-03 -0.35908291D-03  0.33771478D-02  0.26019103D-02  0.11423788D-02
 -0.46876004D-03 -0.36115434D-03 -0.15856621D-03  0.29400519D-02 -0.10437285D-03
  0.77094739D-04 -0.11236021D-04 -0.84654263D-02 -0.85498195D-02 -0.87681184D-02
  0.16862407D-04  0.11251494D-05 -0.60810763D-04  0.26606382D-04  0.45129460D-04
  0.51378296D-04 -0.19407799D-03  0.30864491D-03  0.36597657D-03 -0.48223881D-04
  0.37423749D-04  0.63477761D-04  0.72267187D-04 -0.32592568D-03 -0.48465951D-03
  0.10725377D-03 -0.18261312D-04 -0.93387184D-05 -0.17188227D-04 -0.27813796D-04
 -0.36562013D-04 -0.31359026D-04 -0.10722184D-04  0.59204662D-04  0.26417005D-04
 -0.78009769D-04 -0.69260189D-04 -0.53361242D-04 -0.23428459D-04 -0.44584077D-04
 -0.34349628D-04 -0.15081337D-04  0.68907154D-05  0.53089247D-05  0.23309039D-05
  0.91608258D-04  0.68537077D-04  0.31334086D-04 -0.47716277D-05  0.29142036D-05
 -0.10133060D-03 -0.10183747D-03  0.21342547D-04 -0.40370571D-05  0.30669292D-06
  0.44597892D-05  0.75646466D-05  0.86120827D-05  0.13756574D-04  0.14553909D-04
  0.76025171D-05 -0.52156987D-04  0.41966998D-05  0.71183971D-05  0.81040435D-05
  0.14138892D-04  0.14748731D-04  0.21955625D-04  0.48074580D-04
MO    3     MO 0.0        OCC NO =    2.0000000  ORB. ENERGY =   -1.031666
 -0.12737627D-01 -0.23444034D-01 -0.37936873D-01 -0.49869081D-01 -0.42772421D-01
 -0.14624617D-01 -0.20305153D-01 -0.90601198D-02  0.26754655D-01 -0.20150209D-01
 -0.15524650D-01 -0.68161575D-02  0.22455841D-01  0.17301015D-01  0.75960775D-02
 -0.31576286D-02 -0.24327826D-02 -0.10681226D-02  0.79228642D-02 -0.88741821D-03
  0.48513528D-03 -0.65756636D-04  0.91076292D-04 -0.53560921D-03 -0.10866601D-02
 -0.24838468D-03  0.33721456D-04 -0.15256240D-03  0.20977211D-02  0.35581320D-02
  0.40508075D-02  0.25213114D-03 -0.17986836D-02 -0.22445627D-02  0.29606123D-03
  0.40288534D-02  0.68336980D-02  0.77799236D-02  0.83745272D-03  0.27755108D-02
 -0.63009488D-03  0.10566206D-03 -0.17513234D+00 -0.32233700D+00 -0.52160210D+00
 -0.68566057D+00 -0.58808708D+00 -0.20107696D+00 -0.28865284D+00 -0.12879633D+00
  0.38033730D+00 -0.41289064D-01 -0.31810998D-01 -0.13966742D-01 -0.35533676D+00
 -0.27376782D+00 -0.12019882D+00  0.51289297D-01  0.39515638D-01  0.17349494D-01
  0.11412534D+00 -0.98818106D-04 -0.11069826D-01  0.15938686D-02 -0.72927583D-02
  0.15001360D-02 -0.80018607D-03  0.32595711D-02 -0.42347456D-03 -0.68563889D-03
  0.32019669D-01  0.54311420D-01  0.61831632D-01  0.26329426D-02  0.26716743D-02
  0.14942905D-01 -0.36283697D-01  0.32021076D-01  0.54313805D-01  0.61834347D-01
  0.26357767D-02  0.29124829D-02  0.24568170D-01  0.30575391D-01
MO    4     MO 0.0        OCC NO =    2.0000000  ORB. ENERGY =   -0.966321
 -0.17510269D+00 -0.32228242D+00 -0.52151380D+00 -0.68554448D+00 -0.58798752D+00
 -0.20104292D+00 -0.28683506D+00 -0.12798525D+00  0.37794215D+00 -0.12045622D+00
 -0.92805026D-01 -0.40746405D-01  0.33523528D+00  0.25828071D+00  0.11339914D+00
 -0.46623797D-01 -0.35921122D-01 -0.15771307D-01  0.11553157D+00 -0.48594537D-02
  0.10081001D-01 -0.14076107D-02 -0.34623999D-03  0.13283621D-02 -0.96057129D-02
 -0.13513732D-02  0.29808117D-03 -0.30637763D-02  0.32956086D-01  0.55899760D-01
  0.63639901D-01  0.38797027D-02 -0.23863977D-01 -0.31091152D-01  0.41196383D-02
  0.31092940D-01  0.52739511D-01  0.60042069D-01  0.15553233D-02  0.37691651D-01
 -0.61047972D-02  0.10516735D-02  0.14826889D-01  0.27289390D-01  0.44159384D-01
  0.58048746D-01  0.49788072D-01  0.17023388D-01  0.25984413D-01  0.11594195D-01
 -0.34237812D-01  0.21543296D-01  0.16597948D-01  0.72873932D-02  0.35155002D-01
  0.27085033D-01  0.11891789D-01 -0.50822900D-02 -0.39156304D-02 -0.17191727D-02
 -0.91925272D-02  0.21452246D-02  0.12972201D-02 -0.19117048D-03  0.16942969D-02
 -0.16234129D-02 -0.14078950D-02 -0.11917731D-02  0.16041010D-03  0.67352293D-04
 -0.30502888D-02 -0.51738671D-02 -0.58902649D-02  0.11376331D-03 -0.13481756D-03
 -0.10387214D-02  0.27595825D-02 -0.30542310D-02 -0.51805538D-02 -0.58978774D-02
  0.11032848D-03 -0.16065620D-03 -0.17777855D-02 -0.23551002D-02
MO    5     MO 0.0        OCC NO =    2.0000000  ORB. ENERGY =   -0.546626
  0.21547062D-04  0.39658096D-04  0.64174285D-04  0.84358893D-04  0.72354133D-04
  0.24739107D-04  0.53253375D-04  0.23761552D-04 -0.70168182D-04 -0.66791029D-03
 -0.51458887D-03 -0.22593223D-03  0.16168095D-02  0.12456645D-02  0.54691383D-03
  0.12908251D-01  0.99451116D-02  0.43664396D-02 -0.19957753D-05 -0.44543656D-04
  0.19468229D-03  0.14086415D-02  0.67645193D-05  0.40438843D-04 -0.69670437D-04
 -0.18434909D-03 -0.11164780D-02  0.41076516D-03 -0.24203196D-04 -0.41053201D-04
 -0.46737618D-04 -0.29573447D-05  0.85389641D-06  0.62880144D-05 -0.26761688D-04
  0.19874253D-04  0.33710494D-04  0.38378206D-04 -0.34594214D-05 -0.69723119D-05
  0.29457048D-03  0.20779790D-02 -0.62067989D-05 -0.11423823D-04 -0.18485903D-04
 -0.24300236D-04 -0.20842172D-04 -0.71262924D-05 -0.21938324D-05 -0.97888377D-06
  0.28906569D-05  0.57583548D-02  0.44365020D-02  0.19478633D-02  0.23040178D+00
  0.17751215D+00  0.77937394D-01  0.16000331D+01  0.12327392D+01  0.54123892D+00
  0.15940436D-04  0.25592270D-03  0.10045390D-01  0.69759206D-01 -0.19939896D-04
 -0.78001631D-02  0.78020056D-02 -0.95796110D-03 -0.52740424D-02 -0.53002162D-01
  0.52007073D-01  0.88213839D-01  0.10042834D+00  0.26405517D-01  0.38005348D-02
  0.23600859D-01 -0.13853627D-01 -0.52013212D-01 -0.88224252D-01 -0.10044019D+00
 -0.26412202D-01 -0.38787856D-02 -0.26543131D-01 -0.66024840D-02
MO    6     MO 0.0        OCC NO =    2.0000000  ORB. ENERGY =   -0.490060
  0.54927068D-03  0.10109513D-02  0.16359100D-02  0.21504494D-02  0.18444280D-02
  0.63064125D-03 -0.53959661D-04 -0.24076696D-04  0.71098805D-04  0.14444141D+01
  0.11128432D+01  0.48859811D+00  0.56931420D+00  0.43862590D+00  0.19258040D+00
 -0.69545848D-01 -0.53581327D-01 -0.23525088D-01 -0.18817559D-02  0.63089845D-01
  0.24734502D-01 -0.30242397D-02 -0.17277872D-01  0.18425933D-01  0.85195953D-03
  0.38359806D-01 -0.54537670D-02 -0.46723728D-02  0.51211364D-01  0.86864166D-01
  0.98891782D-01  0.28486674D-01  0.61429489D-03 -0.25968044D-01  0.35626895D-02
 -0.50741932D-01 -0.86067921D-01 -0.97985286D-01 -0.28487604D-01 -0.18518893D-01
  0.19783355D-01 -0.28195928D-02 -0.17675768D-02 -0.32532849D-02 -0.52644290D-02
 -0.69202393D-02 -0.59354490D-02 -0.20294308D-02 -0.54524681D-02 -0.24328806D-02
  0.71843291D-02 -0.29915231D+00 -0.23048073D+00 -0.10119345D+00 -0.12122869D+00
 -0.93400168D-01 -0.41007705D-01  0.19221652D-01  0.14809246D-01  0.65020568D-02
  0.11874058D-03 -0.18754609D-01 -0.56999330D-02  0.91966774D-03 -0.49832928D-02
  0.39344384D-02  0.16043283D-02  0.96529001D-02 -0.13559376D-02 -0.74698443D-03
  0.43063746D-02  0.73044263D-02  0.83158312D-02  0.79450175D-03 -0.48421795D-02
 -0.33206526D-03 -0.29463496D-02  0.42642896D-02  0.72330423D-02  0.82345630D-02
  0.76338156D-03 -0.48140213D-02  0.49353143D-03  0.29463103D-02
MO    7     MO 0.0        OCC NO =    2.0000000  ORB. ENERGY =   -0.406587
  0.14176387D-01  0.26092119D-01  0.42221974D-01  0.55501966D-01  0.47603714D-01
  0.16276518D-01  0.15452279D-01  0.68947769D-02 -0.20360368D-01  0.11308866D+00
  0.87128719D-01  0.38254201D-01  0.24196479D+00  0.18642083D+00  0.81848786D-01
 -0.32523602D-01 -0.25057682D-01 -0.11001672D-01 -0.30048524D-01  0.10224687D-01
  0.12963003D-01 -0.17105912D-02  0.26314359D-02  0.12372937D-01  0.53536669D-02
  0.21913119D-02 -0.33213021D-03 -0.19343191D-02  0.90297671D-02  0.15316194D-01
  0.17436946D-01  0.50398269D-02 -0.13423281D-02 -0.63254460D-04 -0.26674190D-05
  0.50522363D-03  0.85695490D-03  0.97561287D-03  0.12666280D-01 -0.26245472D-02
  0.63294363D-02 -0.86047983D-03 -0.68542313D-01 -0.12615445D+00 -0.20414171D+00
 -0.26834999D+00 -0.23016222D+00 -0.78696373D-01 -0.10476979D+00 -0.46748077D-01
  0.13804770D+00  0.35247480D+00  0.27156283D+00  0.11923071D+00  0.16557910D+01
  0.12756977D+01  0.56009999D+00 -0.23968711D+00 -0.18466599D+00 -0.81078318D-01
  0.10163779D+00  0.18019341D-01  0.96400491D-01 -0.13949052D-01  0.14081373D-02
 -0.44031235D-01 -0.24319526D-02 -0.11747514D-01  0.16673642D-02  0.12278186D-01
 -0.30114018D-01 -0.51079074D-01 -0.58151720D-01 -0.20444923D-01  0.46519285D-02
  0.16836500D-01  0.15499962D-01 -0.30113443D-01 -0.51078099D-01 -0.58150610D-01
 -0.20446438D-01  0.45272788D-02  0.11778302D-01 -0.19652001D-01
MO    8     MO 0.0        OCC NO =    2.0000000  ORB. ENERGY =   -0.350987
  0.65345394D-01  0.12027041D+00  0.19462022D+00  0.25583373D+00  0.21942711D+00
  0.75025854D-01  0.95340473D-01  0.42540733D-01 -0.12562336D+00 -0.36963940D+00
 -0.28478723D+00 -0.12503693D+00  0.13643036D+01  0.10511224D+01  0.46149933D+00
 -0.18813650D+00 -0.14494903D+00 -0.63640432D-01 -0.10228969D+00 -0.22998530D-01
  0.78991064D-01 -0.10879263D-01  0.10217145D-01  0.38490313D-01  0.37514219D-02
 -0.20660303D-01  0.28712876D-02 -0.97916876D-02  0.30791073D-01  0.52227487D-01
  0.59459148D-01  0.21342323D-01 -0.16806092D-01  0.59849392D-02 -0.90695126D-03
  0.23278249D-01  0.39484316D-01  0.44951498D-01  0.20851259D-01  0.36562517D-02
  0.17420492D-01 -0.23288352D-02  0.14303077D-01  0.26325297D-01  0.42599299D-01
  0.55997971D-01  0.48029135D-01  0.16421977D-01  0.24454111D-01  0.10911377D-01
 -0.32221442D-01  0.93138467D+00  0.71758168D+00  0.31505701D+00 -0.41589317D+00
 -0.32042327D+00 -0.14068307D+00  0.56388898D-01  0.43444606D-01  0.19074522D-01
 -0.17899547D-01  0.60991614D-01 -0.25664432D-01  0.34805480D-02 -0.31437039D-03
  0.93086048D-02 -0.10911313D-02 -0.21877902D-01  0.31562222D-02 -0.29732781D-02
  0.44192401D-02  0.74958676D-02  0.85337804D-02  0.13482458D-02  0.15764632D-01
 -0.61445936D-02 -0.10108632D-02  0.44362406D-02  0.75247036D-02  0.85666091D-02
  0.13675705D-02  0.15781617D-01 -0.56145488D-02  0.25999697D-02
MO    9     MO 0.0        OCC NO =    2.0000000  ORB. ENERGY =   -0.320194
 -0.26099156D-01 -0.48036379D-01 -0.77731928D-01 -0.10218080D+00 -0.87639875D-01
 -0.29965562D-01 -0.39177176D-01 -0.17480779D-01  0.51620976D-01  0.68736097D+00
  0.52957457D+00  0.23251176D+00 -0.77359038D+00 -0.59600968D+00 -0.26168035D+00
  0.11333943D+00  0.87321918D-01  0.38339025D-01  0.33130656D-01  0.42737274D-01
 -0.50868709D-01  0.74822404D-02 -0.53474843D-02 -0.18450334D-01  0.17021010D-02
  0.25765781D-01 -0.37124706D-02  0.58781356D-02 -0.72652557D-02 -0.12323249D-01
 -0.14029583D-01 -0.52131478D-02  0.13773697D-01 -0.91638619D-02  0.13797727D-02
 -0.20290773D-01 -0.34416992D-01 -0.39182529D-01  0.32428366D-02 -0.14502337D-01
 -0.79750508D-02  0.11157228D-02 -0.14647594D-02 -0.26959392D-02 -0.43625386D-02
 -0.57346790D-02 -0.49186009D-02 -0.16817532D-02 -0.36393031D-02 -0.16238499D-02
  0.47952506D-02  0.16925917D+01  0.13040507D+01  0.57254849D+00 -0.24151690D+00
 -0.18607575D+00 -0.81697279D-01  0.28899229D-01  0.22265298D-01  0.97756651D-02
  0.28302147D-02  0.11170931D+00 -0.18083005D-01  0.22024962D-02 -0.48911815D-02
  0.76878787D-02  0.13894771D-02 -0.44195931D-01  0.63896782D-02 -0.16862409D-02
 -0.46020335D-03 -0.78059199D-03 -0.88867639D-03 -0.21560306D-02  0.28266623D-01
 -0.43355549D-02  0.17782872D-02 -0.47198903D-03 -0.80058273D-03 -0.91143514D-03
 -0.21638767D-02  0.28265225D-01 -0.47005331D-02 -0.68432960D-03
MO   10     MO 0.0        OCC NO =    2.0000000  ORB. ENERGY =   -0.265670
 -0.67957396D-05 -0.12507789D-04 -0.20239963D-04 -0.26605998D-04 -0.22819810D-04
 -0.78024806D-05  0.74083558D-04  0.33055939D-04 -0.97614631D-04 -0.12684378D-01
 -0.97726296D-02 -0.42907108D-02  0.27122997D+00  0.20896807D+00  0.91748237D-01
  0.19744535D+01  0.15212100D+01  0.66789312D+00  0.14024839D-03 -0.94977574D-03
  0.18864834D-01  0.13723922D+00  0.85322544D-04  0.66663880D-02 -0.69017067D-02
 -0.29662127D-02 -0.19006395D-01  0.48146496D-01 -0.29942001D-05 -0.50787300D-05
 -0.57819546D-05  0.21116346D-04 -0.21434318D-03  0.45395413D-02  0.33211011D-01
  0.16253040D-04  0.27568232D-04  0.31385458D-04 -0.15140634D-03 -0.21376774D-03
  0.43670589D-02  0.31690141D-01  0.30885638D-04  0.56846062D-04  0.91987659D-04
  0.12092035D-03  0.10371268D-03  0.35461128D-04  0.10107340D-03  0.45098756D-04
 -0.13317723D-03 -0.41781292D-02 -0.32190233D-02 -0.14133246D-02 -0.51226425D-02
 -0.39467199D-02 -0.17328226D-02 -0.43722933D-01 -0.33686163D-01 -0.14790040D-01
 -0.68815588D-04 -0.18372849D-03 -0.26540135D-03 -0.25322997D-02  0.42472921D-04
  0.61779276D-04 -0.21121093D-03  0.49932805D-03  0.30510324D-02  0.97669155D-03
 -0.17494146D-02 -0.29673382D-02 -0.33782097D-02  0.36984202D-02  0.49558105D-03
 -0.39994673D-03 -0.49932332D-03  0.17201587D-02  0.29177148D-02  0.33217151D-02
 -0.35293075D-02 -0.65007283D-03  0.31305836D-03 -0.56046582D-03
END DATA
 THE  HF ENERGY =   -152.851501406370 THE VIRIAL(-V/T)=   2.00800799
