 Entering Gaussian System, Link 0=/g100_work/pMI24_ChiCa/g09d1/g09d01/d01/build-node-6-2-59348/src/main/g09
 Input=geom.com
 Output=geom.log
 Initial command:
 /g100_work/pMI24_ChiCa/g09d1/g09d01/d01/build-node-6-2-59348/src/main/l1.exe "/g100_scratch/userexternal/ecabiati/g16_14420034/Gau-11127.inp" -scrdir="/g100_scratch/userexternal/ecabiati/g16_14420034/"
 Entering Link 1 = /g100_work/pMI24_ChiCa/g09d1/g09d01/d01/build-node-6-2-59348/src/main/l1.exe PID=     11128.
  
 Copyright (c) 1988,1990,1992,1993,1995,1998,2003,2009,2013,
            Gaussian, Inc.  All Rights Reserved.
  
 This is part of the Gaussian(R) 09 program.  It is based on
 the Gaussian(R) 03 system (copyright 2003, Gaussian, Inc.),
 the Gaussian(R) 98 system (copyright 1998, Gaussian, Inc.),
 the Gaussian(R) 94 system (copyright 1995, Gaussian, Inc.),
 the Gaussian 92(TM) system (copyright 1992, Gaussian, Inc.),
 the Gaussian 90(TM) system (copyright 1990, Gaussian, Inc.),
 the Gaussian 88(TM) system (copyright 1988, Gaussian, Inc.),
 the Gaussian 86(TM) system (copyright 1986, Carnegie Mellon
 University), and the Gaussian 82(TM) system (copyright 1983,
 Carnegie Mellon University). Gaussian is a federally registered
 trademark of Gaussian, Inc.
  
 This software contains proprietary and confidential information,
 including trade secrets, belonging to Gaussian, Inc.
  
 This software is provided under written license and may be
 used, copied, transmitted, or stored only in accord with that
 written license.
  
 The following legend is applicable only to US Government
 contracts under FAR:
  
                    RESTRICTED RIGHTS LEGEND
  
 Use, reproduction and disclosure by the US Government is
 subject to restrictions as set forth in subparagraphs (a)
 and (c) of the Commercial Computer Software - Restricted
 Rights clause in FAR 52.227-19.
  
 Gaussian, Inc.
 340 Quinnipiac St., Bldg. 40, Wallingford CT 06492
  
  
 ---------------------------------------------------------------
 Warning -- This program may not be used in any manner that
 competes with the business of Gaussian, Inc. or will provide
 assistance to any competitor of Gaussian, Inc.  The licensee
 of this program is prohibited from giving any competitor of
 Gaussian, Inc. access to this program.  By using this program,
 the user acknowledges that Gaussian, Inc. is engaged in the
 business of creating and licensing software in the field of
 computational chemistry and represents and warrants to the
 licensee that it is not a competitor of Gaussian, Inc. and that
 it will not use this program in any manner prohibited above.
 ---------------------------------------------------------------
  

 Cite this work as:
 Gaussian 09, Revision D.01,
 M. J. Frisch, G. W. Trucks, H. B. Schlegel, G. E. Scuseria, 
 M. A. Robb, J. R. Cheeseman, G. Scalmani, V. Barone, B. Mennucci, 
 G. A. Petersson, H. Nakatsuji, M. Caricato, X. Li, H. P. Hratchian, 
 A. F. Izmaylov, J. Bloino, G. Zheng, J. L. Sonnenberg, M. Hada, 
 M. Ehara, K. Toyota, R. Fukuda, J. Hasegawa, M. Ishida, T. Nakajima, 
 Y. Honda, O. Kitao, H. Nakai, T. Vreven, J. A. Montgomery, Jr., 
 J. E. Peralta, F. Ogliaro, M. Bearpark, J. J. Heyd, E. Brothers, 
 K. N. Kudin, V. N. Staroverov, T. Keith, R. Kobayashi, J. Normand, 
 K. Raghavachari, A. Rendell, J. C. Burant, S. S. Iyengar, J. Tomasi, 
 M. Cossi, N. Rega, J. M. Millam, M. Klene, J. E. Knox, J. B. Cross, 
 V. Bakken, C. Adamo, J. Jaramillo, R. Gomperts, R. E. Stratmann, 
 O. Yazyev, A. J. Austin, R. Cammi, C. Pomelli, J. W. Ochterski, 
 R. L. Martin, K. Morokuma, V. G. Zakrzewski, G. A. Voth, 
 P. Salvador, J. J. Dannenberg, S. Dapprich, A. D. Daniels, 
 O. Farkas, J. B. Foresman, J. V. Ortiz, J. Cioslowski, 
 and D. J. Fox, Gaussian, Inc., Wallingford CT, 2013.
 
 ******************************************
 Gaussian 09:  EM64L-G09RevD.01 24-Apr-2013
                17-Sep-2024 
 ******************************************
 %nproc=24
 Will use up to   24 processors via shared memory.
 %mem=2Gb
 -----------------------------
 #p B3LYP/6-31+g(d,p) opt freq
 -----------------------------
 1/14=-1,18=20,19=15,26=3,38=1/1,3;
 2/9=110,12=2,17=6,18=5,40=1/2;
 3/5=1,6=6,7=111,11=2,16=1,25=1,30=1,71=1,74=-5/1,2,3;
 4//1;
 5/5=2,38=5/2;
 6/7=2,8=2,9=2,10=2,28=1/1;
 7//1,2,3,16;
 1/14=-1,18=20,19=15,26=3/3(2);
 2/9=110/2;
 99//99;
 2/9=110/2;
 3/5=1,6=6,7=111,11=2,16=1,25=1,30=1,71=1,74=-5/1,2,3;
 4/5=5,16=3,69=1/1;
 5/5=2,38=5/2;
 7//1,2,3,16;
 1/14=-1,18=20,19=15,26=3/3(-5);
 2/9=110/2;
 6/7=2,8=2,9=2,10=2,19=2,28=1/1;
 99/9=1/99;
 Leave Link    1 at Tue Sep 17 19:25:38 2024, MaxMem=   268435456 cpu:         0.1
 (Enter /g100_work/pMI24_ChiCa/g09d1/g09d01/d01/build-node-6-2-59348/src/main/l101.exe)
 ---------
 h2o4s gas
 ---------
 Symbolic Z-matrix:
 Charge =  0 Multiplicity = 1
 s
 o                    1    os2
 o                    1    os3      2    oso3
 o                    1    os4      2    oso4     3    dih4     0
 o                    1    os5      3    oso5     2    dih5     0
 h                    2    ho6      1    hos6     5    dih6     0
 h                    3    ho7      1    hos7     4    dih7     0
       Variables:
  os2                   1.66                     
  os3                   1.66                     
  oso3                109.471                    
  os4                   1.51                     
  oso4                110.                       
  dih4                120.                       
  os5                   1.51                     
  oso5                110.                       
  dih5                120.                       
  ho6                   0.95                     
  hos6                109.471                    
  dih6                180.                       
  ho7                   0.95                     
  hos7                109.471                    
  dih7                180.                       
 
     3 tetrahedral angles replaced.
 NAtoms=      7 NQM=        7 NQMF=       0 NMMI=      0 NMMIF=      0
                NMic=       0 NMicF=      0.
                    Isotopes and Nuclear Properties:
 (Nuclear quadrupole moments (NQMom) in fm**2, nuclear magnetic moments (NMagM)
  in nuclear magnetons)

  Atom         1           2           3           4           5           6           7
 IAtWgt=          32          16          16          16          16           1           1
 AtmWgt=  31.9720718  15.9949146  15.9949146  15.9949146  15.9949146   1.0078250   1.0078250
 NucSpn=           0           0           0           0           0           1           1
 AtZEff=   0.0000000   0.0000000   0.0000000   0.0000000   0.0000000   0.0000000   0.0000000
 NQMom=    0.0000000   0.0000000   0.0000000   0.0000000   0.0000000   0.0000000   0.0000000
 NMagM=    0.0000000   0.0000000   0.0000000   0.0000000   0.0000000   2.7928460   2.7928460
 AtZNuc=  16.0000000   8.0000000   8.0000000   8.0000000   8.0000000   1.0000000   1.0000000
 Leave Link  101 at Tue Sep 17 19:25:38 2024, MaxMem=   268435456 cpu:         0.2
 (Enter /g100_work/pMI24_ChiCa/g09d1/g09d01/d01/build-node-6-2-59348/src/main/l103.exe)

 GradGradGradGradGradGradGradGradGradGradGradGradGradGradGradGradGradGrad
 Berny optimization.
 Initialization pass.
                           ----------------------------
                           !    Initial Parameters    !
                           ! (Angstroms and Degrees)  !
 --------------------------                            --------------------------
 ! Name  Definition              Value          Derivative Info.                !
 --------------------------------------------------------------------------------
 ! R1    R(1,2)                  1.66           estimate D2E/DX2                !
 ! R2    R(1,3)                  1.66           estimate D2E/DX2                !
 ! R3    R(1,4)                  1.51           estimate D2E/DX2                !
 ! R4    R(1,5)                  1.51           estimate D2E/DX2                !
 ! R5    R(2,6)                  0.95           estimate D2E/DX2                !
 ! R6    R(3,7)                  0.95           estimate D2E/DX2                !
 ! A1    A(2,1,3)              109.4712         estimate D2E/DX2                !
 ! A2    A(2,1,4)              110.0            estimate D2E/DX2                !
 ! A3    A(2,1,5)              109.2062         estimate D2E/DX2                !
 ! A4    A(3,1,4)              109.2062         estimate D2E/DX2                !
 ! A5    A(3,1,5)              110.0            estimate D2E/DX2                !
 ! A6    A(4,1,5)              108.945          estimate D2E/DX2                !
 ! A7    A(1,2,6)              109.4712         estimate D2E/DX2                !
 ! A8    A(1,3,7)              109.4712         estimate D2E/DX2                !
 ! D1    D(3,1,2,6)            -59.5151         estimate D2E/DX2                !
 ! D2    D(4,1,2,6)             60.4849         estimate D2E/DX2                !
 ! D3    D(5,1,2,6)            180.0            estimate D2E/DX2                !
 ! D4    D(2,1,3,7)            -59.5151         estimate D2E/DX2                !
 ! D5    D(4,1,3,7)            180.0            estimate D2E/DX2                !
 ! D6    D(5,1,3,7)             60.4849         estimate D2E/DX2                !
 --------------------------------------------------------------------------------
 Trust Radius=3.00D-01 FncErr=1.00D-07 GrdErr=1.00D-06
 Number of steps in this run=     30 maximum allowed number of steps=    100.
 GradGradGradGradGradGradGradGradGradGradGradGradGradGradGradGradGradGrad

 Leave Link  103 at Tue Sep 17 19:25:38 2024, MaxMem=   268435456 cpu:         0.1
 (Enter /g100_work/pMI24_ChiCa/g09d1/g09d01/d01/build-node-6-2-59348/src/main/l202.exe)
                          Input orientation:                          
 ---------------------------------------------------------------------
 Center     Atomic      Atomic             Coordinates (Angstroms)
 Number     Number       Type             X           Y           Z
 ---------------------------------------------------------------------
      1         16           0        0.000000    0.000000    0.000000
      2          8           0        0.000000    0.000000    1.660000
      3          8           0        1.565063    0.000000   -0.553333
      4          8           0       -0.709468   -1.228834   -0.516450
      5          8           0       -0.723403    1.228834   -0.496743
      6          1           0        0.454383   -0.771854    1.976667
      7          1           0        2.015080    0.771854   -0.230492
 ---------------------------------------------------------------------
                    Distance matrix (angstroms):
                    1          2          3          4          5
     1  S    0.000000
     2  O    1.660000   0.000000
     3  O    1.660000   2.710769   0.000000
     4  O    1.510000   2.598137   2.585515   0.000000
     5  O    1.510000   2.585515   2.598137   2.457788   0.000000
     6  H    2.170123   0.950000   2.868844   2.789088   3.392298
     7  H    2.170123   2.868844   0.950000   3.392298   2.789088
                    6          7
     6  H    0.000000
     7  H    3.112934   0.000000
 Stoichiometry    H2O4S
 Framework group  C2[C2(S),X(H2O4)]
 Deg. of freedom     8
 Full point group                 C2      NOp   2
 Largest Abelian subgroup         C2      NOp   2
 Largest concise Abelian subgroup C2      NOp   2
                         Standard orientation:                         
 ---------------------------------------------------------------------
 Center     Atomic      Atomic             Coordinates (Angstroms)
 Number     Number       Type             X           Y           Z
 ---------------------------------------------------------------------
      1         16           0       -0.000000   -0.000000    0.086393
      2          8           0        0.000000    1.355384   -0.872008
      3          8           0       -0.000000   -1.355384   -0.872008
      4          8           0        1.228834   -0.012068    0.963844
      5          8           0       -1.228834    0.012068    0.963844
      6          1           0        0.771854    1.351603   -1.425838
      7          1           0       -0.771854   -1.351603   -1.425838
 ---------------------------------------------------------------------
 Rotational constants (GHZ):      4.6966868      4.5138868      4.1782607
 Leave Link  202 at Tue Sep 17 19:25:38 2024, MaxMem=   268435456 cpu:         0.1
 (Enter /g100_work/pMI24_ChiCa/g09d1/g09d01/d01/build-node-6-2-59348/src/main/l301.exe)
 Standard basis: 6-31+G(d,p) (6D, 7F)
 Ernie: Thresh=  0.10000D-02 Tol=  0.10000D-05 Strict=F.
 There are    56 symmetry adapted cartesian basis functions of A   symmetry.
 There are    53 symmetry adapted cartesian basis functions of B   symmetry.
 There are    56 symmetry adapted basis functions of A   symmetry.
 There are    53 symmetry adapted basis functions of B   symmetry.
   109 basis functions,   198 primitive gaussians,   109 cartesian basis functions
    25 alpha electrons       25 beta electrons
       nuclear repulsion energy       275.2327868720 Hartrees.
 IExCor=  402 DFT=T Ex+Corr=B3LYP ExCW=0 ScaHFX=  0.200000
 ScaDFX=  0.800000  0.720000  1.000000  0.810000 ScalE2=  1.000000  1.000000
 IRadAn=      0 IRanWt=     -1 IRanGd=            0 ICorTp=0 IEmpDi=  4
 NAtoms=    7 NActive=    7 NUniq=    4 SFac= 3.06D+00 NAtFMM=   60 NAOKFM=F Big=F
 Integral buffers will be    131072 words long.
 Raffenetti 2 integral format.
 Two-electron integral symmetry is turned on.
 Leave Link  301 at Tue Sep 17 19:25:38 2024, MaxMem=   268435456 cpu:         0.1
 (Enter /g100_work/pMI24_ChiCa/g09d1/g09d01/d01/build-node-6-2-59348/src/main/l302.exe)
 NPDir=0 NMtPBC=     1 NCelOv=     1 NCel=       1 NClECP=     1 NCelD=      1
         NCelK=      1 NCelE2=     1 NClLst=     1 CellRange=     0.0.
 One-electron integrals computed using PRISM.
 One-electron integral symmetry used in STVInt
 NBasis=   109 RedAO= T EigKep=  2.24D-03  NBF=    56    53
 NBsUse=   109 1.00D-06 EigRej= -1.00D+00 NBFU=    56    53
 Precomputing XC quadrature grid using
 IXCGrd= 4 IRadAn=           0 IRanWt=          -1 IRanGd=           0 AccXCQ= 0.00D+00.
 Generated NRdTot=       0 NPtTot=           0 NUsed=           0 NTot=          32
 NSgBfM=   109   109   109   109   109 MxSgAt=     7 MxSgA2=     7.
 Leave Link  302 at Tue Sep 17 19:25:39 2024, MaxMem=   268435456 cpu:         1.4
 (Enter /g100_work/pMI24_ChiCa/g09d1/g09d01/d01/build-node-6-2-59348/src/main/l303.exe)
 DipDrv:  MaxL=1.
 Leave Link  303 at Tue Sep 17 19:25:39 2024, MaxMem=   268435456 cpu:         0.2
 (Enter /g100_work/pMI24_ChiCa/g09d1/g09d01/d01/build-node-6-2-59348/src/main/l401.exe)
 ExpMin= 4.05D-02 ExpMax= 2.19D+04 ExpMxC= 3.30D+03 IAcc=2 IRadAn=         4 AccDes= 0.00D+00
 Harris functional with IExCor=  402 and IRadAn=       4 diagonalized for initial guess.
 HarFok:  IExCor=  402 AccDes= 0.00D+00 IRadAn=         4 IDoV= 1 UseB2=F ITyADJ=14
 ICtDFT=  3500011 ScaDFX=  1.000000  1.000000  1.000000  1.000000
 FoFCou: FMM=F IPFlag=           0 FMFlag=      100000 FMFlg1=           0
         NFxFlg=           0 DoJE=T BraDBF=F KetDBF=T FulRan=T
         wScrn=  0.000000 ICntrl=     500 IOpCl=  0 I1Cent=   200000004 NGrid=           0
         NMat0=    1 NMatS0=      1 NMatT0=    0 NMatD0=    1 NMtDS0=    0 NMtDT0=    0
 Petite list used in FoFCou.
 Harris En= -700.306968813887    
 JPrj=0 DoOrth=F DoCkMO=F.
 Initial guess orbital symmetries:
       Occupied  (A) (B) (A) (A) (B) (A) (B) (A) (B) (A) (B) (A)
                 (B) (A) (B) (A) (B) (A) (B) (A) (B) (A) (B) (A)
                 (B)
       Virtual   (A) (A) (B) (A) (B) (B) (B) (A) (B) (A) (A) (B)
                 (A) (A) (B) (A) (B) (B) (A) (B) (A) (B) (A) (B)
                 (A) (B) (A) (B) (B) (A) (A) (A) (B) (A) (B) (A)
                 (B) (A) (B) (A) (B) (A) (B) (A) (B) (A) (B) (A)
                 (B) (B) (B) (A) (B) (A) (A) (B) (A) (B) (A) (A)
                 (B) (B) (A) (B) (A) (B) (A) (A) (B) (A) (B) (A)
                 (B) (B) (A) (A) (B) (B) (A) (B) (A) (B) (A) (A)
 The electronic state of the initial guess is 1-A.
 Leave Link  401 at Tue Sep 17 19:25:39 2024, MaxMem=   268435456 cpu:         1.5
 (Enter /g100_work/pMI24_ChiCa/g09d1/g09d01/d01/build-node-6-2-59348/src/main/l502.exe)
 Closed shell SCF:
 Using DIIS extrapolation, IDIIS=  1040.
 Integral symmetry usage will be decided dynamically.
 Keep R1 ints in memory in symmetry-blocked form, NReq=27032647.
 IVT=       57763 IEndB=       57763 NGot=   268435456 MDV=   259375929
 LenX=   259375929 LenY=   259363607
 Requested convergence on RMS density matrix=1.00D-08 within 128 cycles.
 Requested convergence on MAX density matrix=1.00D-06.
 Requested convergence on             energy=1.00D-06.
 No special actions if energy rises.
 FoFCou: FMM=F IPFlag=           0 FMFlag=           0 FMFlg1=           0
         NFxFlg=           0 DoJE=F BraDBF=F KetDBF=F FulRan=T
         wScrn=  0.000000 ICntrl=     600 IOpCl=  0 I1Cent=           0 NGrid=           0
         NMat0=    1 NMatS0=   5995 NMatT0=    0 NMatD0=    1 NMtDS0=    0 NMtDT0=    0
 Petite list used in FoFCou.

 Cycle   1  Pass 1  IDiag  1:
 E= -699.838042322138    
 DIIS: error= 3.57D-02 at cycle   1 NSaved=   1.
 NSaved= 1 IEnMin= 1 EnMin= -699.838042322138     IErMin= 1 ErrMin= 3.57D-02
 ErrMax= 3.57D-02  0.00D+00 EMaxC= 1.00D-01 BMatC= 4.73D-01 BMatP= 4.73D-01
 IDIUse=3 WtCom= 6.43D-01 WtEn= 3.57D-01
 Coeff-Com:  0.100D+01
 Coeff-En:   0.100D+01
 Coeff:      0.100D+01
 Gap=     0.046 Goal=   None    Shift=    0.000
 GapD=    0.046 DampG=0.250 DampE=0.500 DampFc=0.2500 IDamp=-1.
 Damping current iteration by 2.50D-01
 RMSDP=2.27D-02 MaxDP=7.62D-01              OVMax= 3.59D-01

 Cycle   2  Pass 1  IDiag  1:
 E= -699.955274460474     Delta-E=       -0.117232138335 Rises=F Damp=T
 DIIS: error= 1.78D-02 at cycle   2 NSaved=   2.
 NSaved= 2 IEnMin= 2 EnMin= -699.955274460474     IErMin= 2 ErrMin= 1.78D-02
 ErrMax= 1.78D-02  0.00D+00 EMaxC= 1.00D-01 BMatC= 4.55D-02 BMatP= 4.73D-01
 IDIUse=3 WtCom= 8.22D-01 WtEn= 1.78D-01
 Coeff-Com: -0.298D+00 0.130D+01
 Coeff-En:   0.119D+00 0.881D+00
 Coeff:     -0.224D+00 0.122D+01
 Gap=     0.234 Goal=   None    Shift=    0.000
 RMSDP=3.49D-03 MaxDP=6.20D-02 DE=-1.17D-01 OVMax= 2.58D-01

 Cycle   3  Pass 1  IDiag  1:
 E= -700.148018426860     Delta-E=       -0.192743966386 Rises=F Damp=F
 DIIS: error= 1.97D-02 at cycle   3 NSaved=   3.
 NSaved= 3 IEnMin= 3 EnMin= -700.148018426860     IErMin= 2 ErrMin= 1.78D-02
 ErrMax= 1.97D-02  0.00D+00 EMaxC= 1.00D-01 BMatC= 7.26D-02 BMatP= 4.55D-02
 IDIUse=2 WtCom= 0.00D+00 WtEn= 1.00D+00
 Coeff-En:   0.000D+00 0.000D+00 0.100D+01
 Coeff:      0.000D+00 0.000D+00 0.100D+01
 Gap=     0.219 Goal=   None    Shift=    0.000
 RMSDP=7.50D-03 MaxDP=1.07D-01 DE=-1.93D-01 OVMax= 2.14D-01

 Cycle   4  Pass 1  IDiag  1:
 E= -699.920416493218     Delta-E=        0.227601933642 Rises=F Damp=F
 DIIS: error= 3.87D-02 at cycle   4 NSaved=   4.
 NSaved= 4 IEnMin= 3 EnMin= -700.148018426860     IErMin= 2 ErrMin= 1.78D-02
 ErrMax= 3.87D-02  0.00D+00 EMaxC= 1.00D-01 BMatC= 3.70D-01 BMatP= 4.55D-02
 IDIUse=2 WtCom= 0.00D+00 WtEn= 1.00D+00
 Coeff-En:   0.000D+00 0.000D+00 0.780D+00 0.220D+00
 Coeff:      0.000D+00 0.000D+00 0.780D+00 0.220D+00
 Gap=     0.208 Goal=   None    Shift=    0.000
 RMSDP=4.45D-03 MaxDP=7.34D-02 DE= 2.28D-01 OVMax= 1.38D-01

 Cycle   5  Pass 1  IDiag  1:
 E= -700.184909019567     Delta-E=       -0.264492526350 Rises=F Damp=F
 DIIS: error= 1.30D-02 at cycle   5 NSaved=   5.
 NSaved= 5 IEnMin= 5 EnMin= -700.184909019567     IErMin= 5 ErrMin= 1.30D-02
 ErrMax= 1.30D-02  0.00D+00 EMaxC= 1.00D-01 BMatC= 2.67D-02 BMatP= 4.55D-02
 IDIUse=3 WtCom= 8.70D-01 WtEn= 1.30D-01
 Coeff-Com: -0.833D-01 0.122D+00 0.279D+00-0.101D+00 0.784D+00
 Coeff-En:   0.000D+00 0.000D+00 0.307D+00 0.000D+00 0.693D+00
 Coeff:     -0.725D-01 0.106D+00 0.283D+00-0.883D-01 0.772D+00
 Gap=     0.236 Goal=   None    Shift=    0.000
 RMSDP=1.28D-03 MaxDP=2.45D-02 DE=-2.64D-01 OVMax= 3.77D-02

 Cycle   6  Pass 1  IDiag  1:
 E= -700.204926281180     Delta-E=       -0.020017261613 Rises=F Damp=F
 DIIS: error= 6.36D-04 at cycle   6 NSaved=   6.
 NSaved= 6 IEnMin= 6 EnMin= -700.204926281180     IErMin= 6 ErrMin= 6.36D-04
 ErrMax= 6.36D-04  0.00D+00 EMaxC= 1.00D-01 BMatC= 8.07D-05 BMatP= 2.67D-02
 IDIUse=3 WtCom= 9.94D-01 WtEn= 6.36D-03
 Coeff-Com: -0.892D-02 0.913D-02 0.420D-02-0.856D-02 0.855D-01 0.919D+00
 Coeff-En:   0.000D+00 0.000D+00 0.000D+00 0.000D+00 0.000D+00 0.100D+01
 Coeff:     -0.886D-02 0.907D-02 0.418D-02-0.850D-02 0.849D-01 0.919D+00
 Gap=     0.235 Goal=   None    Shift=    0.000
 RMSDP=6.55D-05 MaxDP=1.12D-03 DE=-2.00D-02 OVMax= 1.75D-03

 Cycle   7  Pass 1  IDiag  1:
 E= -700.204987182667     Delta-E=       -0.000060901486 Rises=F Damp=F
 DIIS: error= 5.79D-05 at cycle   7 NSaved=   7.
 NSaved= 7 IEnMin= 7 EnMin= -700.204987182667     IErMin= 7 ErrMin= 5.79D-05
 ErrMax= 5.79D-05  0.00D+00 EMaxC= 1.00D-01 BMatC= 7.65D-07 BMatP= 8.07D-05
 IDIUse=1 WtCom= 1.00D+00 WtEn= 0.00D+00
 Coeff-Com: -0.138D-02 0.107D-02-0.716D-02 0.352D-03 0.221D-02 0.258D+00
 Coeff-Com:  0.747D+00
 Coeff:     -0.138D-02 0.107D-02-0.716D-02 0.352D-03 0.221D-02 0.258D+00
 Coeff:      0.747D+00
 Gap=     0.235 Goal=   None    Shift=    0.000
 RMSDP=8.51D-06 MaxDP=9.98D-05 DE=-6.09D-05 OVMax= 1.50D-04

 Cycle   8  Pass 1  IDiag  1:
 E= -700.204987768914     Delta-E=       -0.000000586248 Rises=F Damp=F
 DIIS: error= 1.61D-05 at cycle   8 NSaved=   8.
 NSaved= 8 IEnMin= 8 EnMin= -700.204987768914     IErMin= 8 ErrMin= 1.61D-05
 ErrMax= 1.61D-05  0.00D+00 EMaxC= 1.00D-01 BMatC= 5.62D-08 BMatP= 7.65D-07
 IDIUse=1 WtCom= 1.00D+00 WtEn= 0.00D+00
 Coeff-Com: -0.104D-03 0.297D-04-0.270D-02 0.602D-03-0.445D-02 0.211D-01
 Coeff-Com:  0.185D+00 0.801D+00
 Coeff:     -0.104D-03 0.297D-04-0.270D-02 0.602D-03-0.445D-02 0.211D-01
 Coeff:      0.185D+00 0.801D+00
 Gap=     0.235 Goal=   None    Shift=    0.000
 RMSDP=2.32D-06 MaxDP=9.92D-05 DE=-5.86D-07 OVMax= 5.02D-05

 Cycle   9  Pass 1  IDiag  1:
 E= -700.204987814985     Delta-E=       -0.000000046071 Rises=F Damp=F
 DIIS: error= 3.36D-06 at cycle   9 NSaved=   9.
 NSaved= 9 IEnMin= 9 EnMin= -700.204987814985     IErMin= 9 ErrMin= 3.36D-06
 ErrMax= 3.36D-06  0.00D+00 EMaxC= 1.00D-01 BMatC= 2.67D-09 BMatP= 5.62D-08
 IDIUse=1 WtCom= 1.00D+00 WtEn= 0.00D+00
 Coeff-Com: -0.614D-04 0.115D-03-0.313D-03 0.102D-03-0.103D-02-0.930D-02
 Coeff-Com:  0.132D-01 0.316D+00 0.681D+00
 Coeff:     -0.614D-04 0.115D-03-0.313D-03 0.102D-03-0.103D-02-0.930D-02
 Coeff:      0.132D-01 0.316D+00 0.681D+00
 Gap=     0.235 Goal=   None    Shift=    0.000
 RMSDP=5.50D-07 MaxDP=8.74D-06 DE=-4.61D-08 OVMax= 1.28D-05

 Cycle  10  Pass 1  IDiag  1:
 E= -700.204987817278     Delta-E=       -0.000000002293 Rises=F Damp=F
 DIIS: error= 4.73D-07 at cycle  10 NSaved=  10.
 NSaved=10 IEnMin=10 EnMin= -700.204987817278     IErMin=10 ErrMin= 4.73D-07
 ErrMax= 4.73D-07  0.00D+00 EMaxC= 1.00D-01 BMatC= 6.59D-11 BMatP= 2.67D-09
 IDIUse=1 WtCom= 1.00D+00 WtEn= 0.00D+00
 Coeff-Com:  0.102D-04-0.102D-04 0.278D-05 0.169D-04-0.187D-03-0.319D-02
 Coeff-Com: -0.713D-02 0.184D-01 0.117D+00 0.876D+00
 Coeff:      0.102D-04-0.102D-04 0.278D-05 0.169D-04-0.187D-03-0.319D-02
 Coeff:     -0.713D-02 0.184D-01 0.117D+00 0.876D+00
 Gap=     0.235 Goal=   None    Shift=    0.000
 RMSDP=1.18D-07 MaxDP=3.92D-06 DE=-2.29D-09 OVMax= 2.68D-06

 Cycle  11  Pass 1  IDiag  1:
 E= -700.204987817329     Delta-E=       -0.000000000051 Rises=F Damp=F
 DIIS: error= 1.30D-07 at cycle  11 NSaved=  11.
 NSaved=11 IEnMin=11 EnMin= -700.204987817329     IErMin=11 ErrMin= 1.30D-07
 ErrMax= 1.30D-07  0.00D+00 EMaxC= 1.00D-01 BMatC= 4.41D-12 BMatP= 6.59D-11
 IDIUse=1 WtCom= 1.00D+00 WtEn= 0.00D+00
 Coeff-Com:  0.157D-05-0.176D-05 0.146D-04-0.347D-05 0.245D-04-0.555D-04
 Coeff-Com: -0.140D-02-0.502D-02-0.330D-02 0.187D+00 0.823D+00
 Coeff:      0.157D-05-0.176D-05 0.146D-04-0.347D-05 0.245D-04-0.555D-04
 Coeff:     -0.140D-02-0.502D-02-0.330D-02 0.187D+00 0.823D+00
 Gap=     0.235 Goal=   None    Shift=    0.000
 RMSDP=2.69D-08 MaxDP=6.09D-07 DE=-5.09D-11 OVMax= 5.69D-07

 Cycle  12  Pass 1  IDiag  1:
 E= -700.204987817349     Delta-E=       -0.000000000019 Rises=F Damp=F
 DIIS: error= 1.10D-08 at cycle  12 NSaved=  12.
 NSaved=12 IEnMin=12 EnMin= -700.204987817349     IErMin=12 ErrMin= 1.10D-08
 ErrMax= 1.10D-08  0.00D+00 EMaxC= 1.00D-01 BMatC= 3.24D-14 BMatP= 4.41D-12
 IDIUse=1 WtCom= 1.00D+00 WtEn= 0.00D+00
 Coeff-Com:  0.402D-06-0.566D-06 0.157D-05-0.493D-06 0.419D-05 0.333D-04
 Coeff-Com: -0.285D-04-0.716D-03-0.318D-02-0.247D-02 0.494D-01 0.957D+00
 Coeff:      0.402D-06-0.566D-06 0.157D-05-0.493D-06 0.419D-05 0.333D-04
 Coeff:     -0.285D-04-0.716D-03-0.318D-02-0.247D-02 0.494D-01 0.957D+00
 Gap=     0.235 Goal=   None    Shift=    0.000
 RMSDP=2.28D-09 MaxDP=3.10D-08 DE=-1.94D-11 OVMax= 6.70D-08

 SCF Done:  E(RB3LYP) =  -700.204987817     A.U. after   12 cycles
            NFock= 12  Conv=0.23D-08     -V/T= 2.0066
 KE= 6.956440840781D+02 PE=-2.205464675805D+03 EE= 5.343828170378D+02
 Leave Link  502 at Tue Sep 17 19:25:39 2024, MaxMem=   268435456 cpu:        11.2
 (Enter /g100_work/pMI24_ChiCa/g09d1/g09d01/d01/build-node-6-2-59348/src/main/l601.exe)
 Copying SCF densities to generalized density rwf, IOpCl= 0 IROHF=0.

 **********************************************************************

            Population analysis using the SCF density.

 **********************************************************************

 Orbital symmetries:
       Occupied  (A) (B) (A) (B) (A) (A) (B) (A) (B) (A) (B) (A)
                 (B) (A) (B) (A) (B) (A) (B) (A) (B) (A) (B) (A)
                 (B)
       Virtual   (A) (A) (B) (B) (A) (B) (B) (A) (B) (A) (A) (B)
                 (A) (A) (B) (A) (B) (A) (B) (B) (A) (B) (A) (B)
                 (A) (B) (A) (B) (B) (A) (A) (A) (B) (B) (A) (A)
                 (B) (B) (A) (B) (A) (A) (B) (A) (A) (B) (B) (A)
                 (B) (B) (A) (B) (B) (A) (A) (B) (A) (B) (A) (A)
                 (B) (B) (A) (B) (A) (B) (A) (A) (B) (A) (B) (A)
                 (B) (B) (A) (A) (B) (B) (A) (A) (B) (A) (B) (A)
 The electronic state is 1-A.
 Alpha  occ. eigenvalues --  -89.20596 -19.27258 -19.27258 -19.19091 -19.19090
 Alpha  occ. eigenvalues --   -8.22286  -6.18915  -6.18771  -6.18555  -1.19307
 Alpha  occ. eigenvalues --   -1.11442  -1.07187  -1.01478  -0.73682  -0.65941
 Alpha  occ. eigenvalues --   -0.53772  -0.52678  -0.52377  -0.45118  -0.43739
 Alpha  occ. eigenvalues --   -0.41804  -0.38132  -0.36673  -0.33572  -0.31705
 Alpha virt. eigenvalues --   -0.08247  -0.01799  -0.00508   0.02159   0.04335
 Alpha virt. eigenvalues --    0.04737   0.05846   0.09476   0.11836   0.12983
 Alpha virt. eigenvalues --    0.13459   0.15195   0.16058   0.18313   0.19856
 Alpha virt. eigenvalues --    0.21000   0.23167   0.24283   0.25000   0.25908
 Alpha virt. eigenvalues --    0.27172   0.28504   0.29042   0.30108   0.31531
 Alpha virt. eigenvalues --    0.38640   0.50323   0.50452   0.54224   0.56949
 Alpha virt. eigenvalues --    0.58835   0.71168   0.89846   0.93244   0.93708
 Alpha virt. eigenvalues --    0.97248   1.03794   1.09914   1.10603   1.13100
 Alpha virt. eigenvalues --    1.14013   1.17128   1.19139   1.20479   1.21449
 Alpha virt. eigenvalues --    1.22248   1.27821   1.29207   1.32423   1.41543
 Alpha virt. eigenvalues --    1.47503   1.48729   1.50726   1.50912   1.58491
 Alpha virt. eigenvalues --    1.66301   1.68953   1.71145   1.78171   1.79339
 Alpha virt. eigenvalues --    1.81291   1.82258   1.93849   1.97443   2.03192
 Alpha virt. eigenvalues --    2.12320   2.15131   2.26854   2.28807   2.41500
 Alpha virt. eigenvalues --    2.50536   2.56313   2.57913   2.62221   2.65167
 Alpha virt. eigenvalues --    2.71428   2.81451   3.37130   3.37816   3.96239
 Alpha virt. eigenvalues --    3.99161   4.02866   4.06463   4.17848
          Condensed to atoms (all electrons):
               1          2          3          4          5          6
     1  S   14.015685  -0.078000  -0.078000   0.282088   0.282088   0.048625
     2  O   -0.078000   8.561885  -0.005790  -0.079439  -0.038380   0.201671
     3  O   -0.078000  -0.005790   8.561885  -0.038380  -0.079439  -0.009533
     4  O    0.282088  -0.079439  -0.038380   8.567020  -0.156440  -0.006882
     5  O    0.282088  -0.038380  -0.079439  -0.156440   8.567020   0.007741
     6  H    0.048625   0.201671  -0.009533  -0.006882   0.007741   0.369378
     7  H    0.048625  -0.009533   0.201671   0.007741  -0.006882   0.000324
               7
     1  S    0.048625
     2  O   -0.009533
     3  O    0.201671
     4  O    0.007741
     5  O   -0.006882
     6  H    0.000324
     7  H    0.369378
 Mulliken charges:
               1
     1  S    1.478888
     2  O   -0.552413
     3  O   -0.552413
     4  O   -0.575708
     5  O   -0.575708
     6  H    0.388677
     7  H    0.388677
 Sum of Mulliken charges =  -0.00000
 Mulliken charges with hydrogens summed into heavy atoms:
               1
     1  S    1.478888
     2  O   -0.163737
     3  O   -0.163737
     4  O   -0.575708
     5  O   -0.575708
 Electronic spatial extent (au):  <R**2>=            399.2955
 Charge=              0.0000 electrons
 Dipole moment (field-independent basis, Debye):
    X=              0.0000    Y=              0.0000    Z=             -5.2289  Tot=              5.2289
 Quadrupole moment (field-independent basis, Debye-Ang):
   XX=            -38.5783   YY=            -35.0627   ZZ=            -32.9769
   XY=              4.5185   XZ=              0.0000   YZ=              0.0000
 Traceless Quadrupole moment (field-independent basis, Debye-Ang):
   XX=             -3.0390   YY=              0.4766   ZZ=              2.5624
   XY=              4.5185   XZ=              0.0000   YZ=              0.0000
 Octapole moment (field-independent basis, Debye-Ang**2):
  XXX=              0.0000  YYY=              0.0000  ZZZ=            -14.2261  XYY=              0.0000
  XXY=              0.0000  XXZ=            -10.0195  XZZ=              0.0000  YZZ=              0.0000
  YYZ=             -4.9590  XYZ=             -7.1202
 Hexadecapole moment (field-independent basis, Debye-Ang**3):
 XXXX=           -150.5239 YYYY=           -167.0906 ZZZZ=           -146.1102 XXXY=              1.4452
 XXXZ=              0.0000 YYYX=              6.9434 YYYZ=              0.0000 ZZZX=             -0.0000
 ZZZY=             -0.0000 XXYY=            -47.0414 XXZZ=            -47.4410 YYZZ=            -43.6560
 XXYZ=              0.0000 YYXZ=             -0.0000 ZZXY=             10.3223
 N-N= 2.752327868720D+02 E-N=-2.205464675058D+03  KE= 6.956440840781D+02
 Symmetry A    KE= 4.697571970089D+02
 Symmetry B    KE= 2.258868870692D+02
 No NMR shielding tensors so no spin-rotation constants.
 Leave Link  601 at Tue Sep 17 19:25:40 2024, MaxMem=   268435456 cpu:         1.6
 (Enter /g100_work/pMI24_ChiCa/g09d1/g09d01/d01/build-node-6-2-59348/src/main/l701.exe)
 Compute integral first derivatives.
 ... and contract with generalized density number  0.
 Leave Link  701 at Tue Sep 17 19:25:40 2024, MaxMem=   268435456 cpu:         1.6
 (Enter /g100_work/pMI24_ChiCa/g09d1/g09d01/d01/build-node-6-2-59348/src/main/l702.exe)
 L702 exits ... SP integral derivatives will be done elsewhere.
 Leave Link  702 at Tue Sep 17 19:25:40 2024, MaxMem=   268435456 cpu:         0.1
 (Enter /g100_work/pMI24_ChiCa/g09d1/g09d01/d01/build-node-6-2-59348/src/main/l703.exe)
 Compute integral first derivatives, UseDBF=F ICtDFT=           0.
 Integral derivatives from FoFJK, PRISM(SPDF).
 Calling FoFJK, ICntrl=      2127 FMM=F ISym2X=1 I1Cent= 0 IOpClX= 0 NMat=1 NMatS=1 NMatT=0.
 FoFJK:  IHMeth= 1 ICntrl=    2127 DoSepK=F KAlg= 0 I1Cent=   0 FoldK=F
 IRaf=         0 NMat=   1 IRICut=       1 DoRegI=T DoRafI=F ISym2E= 1.
 FoFCou: FMM=F IPFlag=           0 FMFlag=      100000 FMFlg1=         800
         NFxFlg=           0 DoJE=F BraDBF=F KetDBF=F FulRan=T
         wScrn=  0.000000 ICntrl=    2127 IOpCl=  0 I1Cent=           0 NGrid=           0
         NMat0=    1 NMatS0=      1 NMatT0=    0 NMatD0=    1 NMtDS0=    0 NMtDT0=    0
 Petite list used in FoFCou.
 Leave Link  703 at Tue Sep 17 19:25:40 2024, MaxMem=   268435456 cpu:         5.0
 (Enter /g100_work/pMI24_ChiCa/g09d1/g09d01/d01/build-node-6-2-59348/src/main/l716.exe)
 Dipole        =-2.22044605D-16 1.77635684D-15-2.05721403D+00
 ***** Axes restored to original set *****
 -------------------------------------------------------------------
 Center     Atomic                   Forces (Hartrees/Bohr)
 Number     Number              X              Y              Z
 -------------------------------------------------------------------
      1       16          -0.098511215    0.000000000   -0.069657948
      2        8           0.003430833    0.027460773   -0.026209275
      3        8          -0.023566731   -0.027460773    0.011971046
      4        8           0.050709204    0.026461260    0.030291087
      5        8           0.045461779   -0.026461260    0.037712067
      6        1           0.010564328   -0.023844290    0.008899320
      7        1           0.011911802    0.023844290    0.006993704
 -------------------------------------------------------------------
 Cartesian Forces:  Max     0.098511215 RMS     0.036094664
 Leave Link  716 at Tue Sep 17 19:25:40 2024, MaxMem=   268435456 cpu:         0.1
 (Enter /g100_work/pMI24_ChiCa/g09d1/g09d01/d01/build-node-6-2-59348/src/main/l103.exe)

 GradGradGradGradGradGradGradGradGradGradGradGradGradGradGradGradGradGrad
 Berny optimization.
 FormGI is forming the generalized inverse of G from B-inverse, IUseBI=4.
 Internal  Forces:  Max     0.055719807 RMS     0.026338140
 Search for a local minimum.
 Step number   1 out of a maximum of   30
 All quantities printed in internal units (Hartrees-Bohrs-Radians)
 RMS Force = .26338D-01 SwitMx=.10000D-02 MixMth= 1
 Mixed Optimization -- RFO/linear search
 Second derivative matrix not updated -- first step.
 The second derivative matrix:
                          R1        R2        R3        R4        R5
           R1           0.41169
           R2           0.00000   0.41169
           R3           0.00000   0.00000   0.73458
           R4           0.00000   0.00000   0.00000   0.73458
           R5           0.00000   0.00000   0.00000   0.00000   0.57681
           R6           0.00000   0.00000   0.00000   0.00000   0.00000
           A1           0.00000   0.00000   0.00000   0.00000   0.00000
           A2           0.00000   0.00000   0.00000   0.00000   0.00000
           A3           0.00000   0.00000   0.00000   0.00000   0.00000
           A4           0.00000   0.00000   0.00000   0.00000   0.00000
           A5           0.00000   0.00000   0.00000   0.00000   0.00000
           A6           0.00000   0.00000   0.00000   0.00000   0.00000
           A7           0.00000   0.00000   0.00000   0.00000   0.00000
           A8           0.00000   0.00000   0.00000   0.00000   0.00000
           D1           0.00000   0.00000   0.00000   0.00000   0.00000
           D2           0.00000   0.00000   0.00000   0.00000   0.00000
           D3           0.00000   0.00000   0.00000   0.00000   0.00000
           D4           0.00000   0.00000   0.00000   0.00000   0.00000
           D5           0.00000   0.00000   0.00000   0.00000   0.00000
           D6           0.00000   0.00000   0.00000   0.00000   0.00000
                          R6        A1        A2        A3        A4
           R6           0.57681
           A1           0.00000   0.25000
           A2           0.00000   0.00000   0.25000
           A3           0.00000   0.00000   0.00000   0.25000
           A4           0.00000   0.00000   0.00000   0.00000   0.25000
           A5           0.00000   0.00000   0.00000   0.00000   0.00000
           A6           0.00000   0.00000   0.00000   0.00000   0.00000
           A7           0.00000   0.00000   0.00000   0.00000   0.00000
           A8           0.00000   0.00000   0.00000   0.00000   0.00000
           D1           0.00000   0.00000   0.00000   0.00000   0.00000
           D2           0.00000   0.00000   0.00000   0.00000   0.00000
           D3           0.00000   0.00000   0.00000   0.00000   0.00000
           D4           0.00000   0.00000   0.00000   0.00000   0.00000
           D5           0.00000   0.00000   0.00000   0.00000   0.00000
           D6           0.00000   0.00000   0.00000   0.00000   0.00000
                          A5        A6        A7        A8        D1
           A5           0.25000
           A6           0.00000   0.25000
           A7           0.00000   0.00000   0.16000
           A8           0.00000   0.00000   0.00000   0.16000
           D1           0.00000   0.00000   0.00000   0.00000   0.01825
           D2           0.00000   0.00000   0.00000   0.00000   0.00000
           D3           0.00000   0.00000   0.00000   0.00000   0.00000
           D4           0.00000   0.00000   0.00000   0.00000   0.00000
           D5           0.00000   0.00000   0.00000   0.00000   0.00000
           D6           0.00000   0.00000   0.00000   0.00000   0.00000
                          D2        D3        D4        D5        D6
           D2           0.01825
           D3           0.00000   0.01825
           D4           0.00000   0.00000   0.01825
           D5           0.00000   0.00000   0.00000   0.01825
           D6           0.00000   0.00000   0.00000   0.00000   0.01825
 ITU=  0
     Eigenvalues ---    0.01825   0.01825   0.12684   0.14154   0.16000
     Eigenvalues ---    0.16000   0.18702   0.22436   0.25000   0.41169
     Eigenvalues ---    0.41169   0.57681   0.57681   0.73458   0.73458
 RFO step:  Lambda=-4.18211119D-02 EMin= 1.82525757D-02
 Linear search not attempted -- first point.
 Maximum step size (   0.300) exceeded in Quadratic search.
    -- Step size scaled by   0.927
 Iteration  1 RMS(Cart)=  0.10263416 RMS(Int)=  0.00760912
 Iteration  2 RMS(Cart)=  0.00810140 RMS(Int)=  0.00380805
 Iteration  3 RMS(Cart)=  0.00003330 RMS(Int)=  0.00380795
 Iteration  4 RMS(Cart)=  0.00000025 RMS(Int)=  0.00380795
 ITry= 1 IFail=0 DXMaxC= 1.64D-01 DCOld= 1.00D+10 DXMaxT= 3.00D-01 DXLimC= 3.00D+00 Rises=F
 ClnCor:  largest displacement from symmetrization is 3.60D-13 for atom     5.
 Variable       Old X    -DE/DX   Delta X   Delta X   Delta X     New X
                                 (Linear)    (Quad)   (Total)
    R1        3.13695  -0.01731   0.00000  -0.03537  -0.03537   3.10158
    R2        3.13695  -0.01731   0.00000  -0.03537  -0.03537   3.10158
    R3        2.85349  -0.05572   0.00000  -0.06651  -0.06651   2.78698
    R4        2.85349  -0.05572   0.00000  -0.06651  -0.06651   2.78698
    R5        1.79524   0.02739   0.00000   0.04103   0.04103   1.83627
    R6        1.79524   0.02739   0.00000   0.04103   0.04103   1.83627
    A1        1.91063  -0.03054   0.00000  -0.14052  -0.14775   1.76289
    A2        1.91986   0.00291   0.00000   0.00035  -0.00690   1.91296
    A3        1.90601  -0.00939   0.00000  -0.04239  -0.04834   1.85767
    A4        1.90601  -0.00939   0.00000  -0.04239  -0.04834   1.85767
    A5        1.91986   0.00291   0.00000   0.00035  -0.00690   1.91296
    A6        1.90145   0.04389   0.00000   0.22641   0.22467   2.12612
    A7        1.91063  -0.00044   0.00000  -0.00201  -0.00201   1.90863
    A8        1.91063  -0.00044   0.00000  -0.00201  -0.00201   1.90863
    D1       -1.03873   0.00095   0.00000  -0.01671  -0.01490  -1.05363
    D2        1.05566  -0.02788   0.00000  -0.15642  -0.15381   0.90185
    D3        3.14159   0.02186   0.00000   0.09501   0.09059  -3.05100
    D4       -1.03873   0.00095   0.00000  -0.01671  -0.01490  -1.05363
    D5        3.14159   0.02186   0.00000   0.09501   0.09059  -3.05100
    D6        1.05566  -0.02788   0.00000  -0.15642  -0.15381   0.90185
         Item               Value     Threshold  Converged?
 Maximum Force            0.055720     0.000450     NO 
 RMS     Force            0.026338     0.000300     NO 
 Maximum Displacement     0.164239     0.001800     NO 
 RMS     Displacement     0.107601     0.001200     NO 
 Predicted change in Energy=-2.367903D-02
 Lowest energy point so far.  Saving SCF results.
 GradGradGradGradGradGradGradGradGradGradGradGradGradGradGradGradGradGrad

 Leave Link  103 at Tue Sep 17 19:25:40 2024, MaxMem=   268435456 cpu:         1.4
 (Enter /g100_work/pMI24_ChiCa/g09d1/g09d01/d01/build-node-6-2-59348/src/main/l202.exe)
                          Input orientation:                          
 ---------------------------------------------------------------------
 Center     Atomic      Atomic             Coordinates (Angstroms)
 Number     Number       Type             X           Y           Z
 ---------------------------------------------------------------------
      1         16           0       -0.077504   -0.000000   -0.054803
      2          8           0        0.043998    0.039938    1.581490
      3          8           0        1.505709   -0.039938   -0.485682
      4          8           0       -0.657425   -1.288720   -0.476638
      5          8           0       -0.668520    1.288720   -0.460947
      6          1           0        0.505289   -0.757814    1.889755
      7          1           0        1.950108    0.757814   -0.153527
 ---------------------------------------------------------------------
                    Distance matrix (angstroms):
                    1          2          3          4          5
     1  S    0.000000
     2  O    1.641284   0.000000
     3  O    1.641284   2.533017   0.000000
     4  O    1.474806   2.548179   2.497736   0.000000
     5  O    1.474806   2.497736   2.548179   2.577513   0.000000
     6  H    2.166850   0.971712   2.675609   2.689532   3.330455
     7  H    2.166850   2.675609   0.971712   3.330455   2.689532
                    6          7
     6  H    0.000000
     7  H    2.925685   0.000000
 Stoichiometry    H2O4S
 Framework group  C2[C2(S),X(H2O4)]
 Deg. of freedom     8
 Full point group                 C2      NOp   2
 RotChk:  IX=0 Diff= 4.46D-02
 Largest Abelian subgroup         C2      NOp   2
 Largest concise Abelian subgroup C2      NOp   2
                         Standard orientation:                         
 ---------------------------------------------------------------------
 Center     Atomic      Atomic             Coordinates (Angstroms)
 Number     Number       Type             X           Y           Z
 ---------------------------------------------------------------------
      1         16           0       -0.000000   -0.000000    0.168540
      2          8           0       -0.000000    1.266509   -0.875380
      3          8           0        0.000000   -1.266509   -0.875380
      4          8           0        1.287777   -0.050242    0.885590
      5          8           0       -1.287777    0.050242    0.885590
      6          1           0        0.796894    1.226731   -1.430000
      7          1           0       -0.796894   -1.226731   -1.430000
 ---------------------------------------------------------------------
 Rotational constants (GHZ):      4.6468184      4.6442207      4.6348210
 Leave Link  202 at Tue Sep 17 19:25:40 2024, MaxMem=   268435456 cpu:         0.1
 (Enter /g100_work/pMI24_ChiCa/g09d1/g09d01/d01/build-node-6-2-59348/src/main/l301.exe)
 Standard basis: 6-31+G(d,p) (6D, 7F)
 Ernie: Thresh=  0.10000D-02 Tol=  0.10000D-05 Strict=F.
 There are    56 symmetry adapted cartesian basis functions of A   symmetry.
 There are    53 symmetry adapted cartesian basis functions of B   symmetry.
 There are    56 symmetry adapted basis functions of A   symmetry.
 There are    53 symmetry adapted basis functions of B   symmetry.
   109 basis functions,   198 primitive gaussians,   109 cartesian basis functions
    25 alpha electrons       25 beta electrons
       nuclear repulsion energy       280.1681305749 Hartrees.
 IExCor=  402 DFT=T Ex+Corr=B3LYP ExCW=0 ScaHFX=  0.200000
 ScaDFX=  0.800000  0.720000  1.000000  0.810000 ScalE2=  1.000000  1.000000
 IRadAn=      0 IRanWt=     -1 IRanGd=            0 ICorTp=0 IEmpDi=  4
 NAtoms=    7 NActive=    7 NUniq=    4 SFac= 3.06D+00 NAtFMM=   60 NAOKFM=F Big=F
 Integral buffers will be    131072 words long.
 Raffenetti 2 integral format.
 Two-electron integral symmetry is turned on.
 Leave Link  301 at Tue Sep 17 19:25:40 2024, MaxMem=   268435456 cpu:         0.1
 (Enter /g100_work/pMI24_ChiCa/g09d1/g09d01/d01/build-node-6-2-59348/src/main/l302.exe)
 NPDir=0 NMtPBC=     1 NCelOv=     1 NCel=       1 NClECP=     1 NCelD=      1
         NCelK=      1 NCelE2=     1 NClLst=     1 CellRange=     0.0.
 One-electron integrals computed using PRISM.
 One-electron integral symmetry used in STVInt
 NBasis=   109 RedAO= T EigKep=  2.07D-03  NBF=    56    53
 NBsUse=   109 1.00D-06 EigRej= -1.00D+00 NBFU=    56    53
 Precomputing XC quadrature grid using
 IXCGrd= 4 IRadAn=           0 IRanWt=          -1 IRanGd=           0 AccXCQ= 0.00D+00.
 Generated NRdTot=       0 NPtTot=           0 NUsed=           0 NTot=          32
 NSgBfM=   109   109   109   109   109 MxSgAt=     7 MxSgA2=     7.
 Leave Link  302 at Tue Sep 17 19:25:41 2024, MaxMem=   268435456 cpu:         1.4
 (Enter /g100_work/pMI24_ChiCa/g09d1/g09d01/d01/build-node-6-2-59348/src/main/l303.exe)
 DipDrv:  MaxL=1.
 Leave Link  303 at Tue Sep 17 19:25:41 2024, MaxMem=   268435456 cpu:         0.2
 (Enter /g100_work/pMI24_ChiCa/g09d1/g09d01/d01/build-node-6-2-59348/src/main/l401.exe)
 Initial guess from the checkpoint file:  "/g100_scratch/userexternal/ecabiati/g16_14420034/Gau-11128.chk"
 B after Tr=    -0.000000    0.000000    0.000000
         Rot=    0.999962   -0.000000    0.000000    0.008715 Ang=   1.00 deg.
 Guess basis will be translated and rotated to current coordinates.
 JPrj=2 DoOrth=T DoCkMO=T.
 Initial guess orbital symmetries:
       Occupied  (A) (B) (A) (B) (A) (A) (B) (A) (B) (A) (B) (A)
                 (B) (A) (B) (A) (B) (A) (B) (A) (B) (A) (B) (A)
                 (B)
       Virtual   (A) (A) (A) (A) (A) (A) (A) (A) (A) (A) (A) (A)
                 (A) (A) (A) (A) (A) (A) (A) (A) (A) (A) (A) (A)
                 (A) (A) (A) (A) (A) (A) (A) (A) (A) (A) (A) (A)
                 (A) (A) (A) (A) (A) (A) (A) (B) (B) (B) (B) (B)
                 (B) (B) (B) (B) (B) (B) (B) (B) (B) (B) (B) (B)
                 (B) (B) (B) (B) (B) (B) (B) (B) (B) (B) (B) (B)
                 (B) (B) (B) (B) (B) (B) (B) (B) (B) (B) (B) (B)
 The electronic state of the initial guess is 1-A.
 Generating alternative initial guess.
 ExpMin= 4.05D-02 ExpMax= 2.19D+04 ExpMxC= 3.30D+03 IAcc=2 IRadAn=         4 AccDes= 0.00D+00
 Harris functional with IExCor=  402 and IRadAn=       4 diagonalized for initial guess.
 HarFok:  IExCor=  402 AccDes= 0.00D+00 IRadAn=         4 IDoV= 1 UseB2=F ITyADJ=14
 ICtDFT=  3500011 ScaDFX=  1.000000  1.000000  1.000000  1.000000
 FoFCou: FMM=F IPFlag=           0 FMFlag=      100000 FMFlg1=           0
         NFxFlg=           0 DoJE=T BraDBF=F KetDBF=T FulRan=T
         wScrn=  0.000000 ICntrl=     500 IOpCl=  0 I1Cent=   200000004 NGrid=           0
         NMat0=    1 NMatS0=      1 NMatT0=    0 NMatD0=    1 NMtDS0=    0 NMtDT0=    0
 Petite list used in FoFCou.
 Harris En= -700.310673272968    
 Leave Link  401 at Tue Sep 17 19:25:41 2024, MaxMem=   268435456 cpu:         1.8
 (Enter /g100_work/pMI24_ChiCa/g09d1/g09d01/d01/build-node-6-2-59348/src/main/l502.exe)
 Closed shell SCF:
 Using DIIS extrapolation, IDIIS=  1040.
 Integral symmetry usage will be decided dynamically.
 Keep R1 ints in memory in symmetry-blocked form, NReq=27032647.
 IVT=       57763 IEndB=       57763 NGot=   268435456 MDV=   259375929
 LenX=   259375929 LenY=   259363607
 Requested convergence on RMS density matrix=1.00D-08 within 128 cycles.
 Requested convergence on MAX density matrix=1.00D-06.
 Requested convergence on             energy=1.00D-06.
 No special actions if energy rises.
 FoFCou: FMM=F IPFlag=           0 FMFlag=           0 FMFlg1=           0
         NFxFlg=           0 DoJE=F BraDBF=F KetDBF=F FulRan=T
         wScrn=  0.000000 ICntrl=     600 IOpCl=  0 I1Cent=           0 NGrid=           0
         NMat0=    1 NMatS0=   5995 NMatT0=    0 NMatD0=    1 NMtDS0=    0 NMtDT0=    0
 Petite list used in FoFCou.

 Cycle   1  Pass 1  IDiag  1:
 E= -700.201464664819    
 DIIS: error= 8.28D-03 at cycle   1 NSaved=   1.
 NSaved= 1 IEnMin= 1 EnMin= -700.201464664819     IErMin= 1 ErrMin= 8.28D-03
 ErrMax= 8.28D-03  0.00D+00 EMaxC= 1.00D-01 BMatC= 1.46D-02 BMatP= 1.46D-02
 IDIUse=3 WtCom= 9.17D-01 WtEn= 8.28D-02
 Coeff-Com:  0.100D+01
 Coeff-En:   0.100D+01
 Coeff:      0.100D+01
 Gap=     0.585 Goal=   None    Shift=    0.000
 GapD=    0.585 DampG=2.000 DampE=1.000 DampFc=2.0000 IDamp=-1.
 RMSDP=2.94D-03 MaxDP=3.68D-02              OVMax= 8.54D-02

 Cycle   2  Pass 1  IDiag  1:
 E= -700.226478977801     Delta-E=       -0.025014312982 Rises=F Damp=F
 DIIS: error= 4.12D-03 at cycle   2 NSaved=   2.
 NSaved= 2 IEnMin= 2 EnMin= -700.226478977801     IErMin= 2 ErrMin= 4.12D-03
 ErrMax= 4.12D-03  0.00D+00 EMaxC= 1.00D-01 BMatC= 3.20D-03 BMatP= 1.46D-02
 IDIUse=3 WtCom= 9.59D-01 WtEn= 4.12D-02
 Coeff-Com:  0.190D+00 0.810D+00
 Coeff-En:   0.000D+00 0.100D+01
 Coeff:      0.182D+00 0.818D+00
 Gap=     0.280 Goal=   None    Shift=    0.000
 RMSDP=1.08D-03 MaxDP=1.61D-02 DE=-2.50D-02 OVMax= 2.92D-02

 Cycle   3  Pass 1  IDiag  1:
 E= -700.223910225687     Delta-E=        0.002568752114 Rises=F Damp=F
 DIIS: error= 5.79D-03 at cycle   3 NSaved=   3.
 NSaved= 3 IEnMin= 2 EnMin= -700.226478977801     IErMin= 2 ErrMin= 4.12D-03
 ErrMax= 5.79D-03  0.00D+00 EMaxC= 1.00D-01 BMatC= 6.76D-03 BMatP= 3.20D-03
 IDIUse=3 WtCom= 1.16D-01 WtEn= 8.84D-01
 Coeff-Com: -0.398D-01 0.614D+00 0.426D+00
 Coeff-En:   0.000D+00 0.637D+00 0.363D+00
 Coeff:     -0.463D-02 0.635D+00 0.370D+00
 Gap=     0.287 Goal=   None    Shift=    0.000
 RMSDP=6.72D-04 MaxDP=9.64D-03 DE= 2.57D-03 OVMax= 1.70D-02

 Cycle   4  Pass 1  IDiag  1:
 E= -700.228954250535     Delta-E=       -0.005044024848 Rises=F Damp=F
 DIIS: error= 5.44D-04 at cycle   4 NSaved=   4.
 NSaved= 4 IEnMin= 4 EnMin= -700.228954250535     IErMin= 4 ErrMin= 5.44D-04
 ErrMax= 5.44D-04  0.00D+00 EMaxC= 1.00D-01 BMatC= 8.37D-05 BMatP= 3.20D-03
 IDIUse=3 WtCom= 9.95D-01 WtEn= 5.44D-03
 Coeff-Com: -0.250D-01 0.241D+00 0.115D+00 0.669D+00
 Coeff-En:   0.000D+00 0.000D+00 0.000D+00 0.100D+01
 Coeff:     -0.248D-01 0.239D+00 0.114D+00 0.671D+00
 Gap=     0.288 Goal=   None    Shift=    0.000
 RMSDP=1.11D-04 MaxDP=3.96D-03 DE=-5.04D-03 OVMax= 2.51D-03

 Cycle   5  Pass 1  IDiag  1:
 E= -700.229013435426     Delta-E=       -0.000059184891 Rises=F Damp=F
 DIIS: error= 2.56D-04 at cycle   5 NSaved=   5.
 NSaved= 5 IEnMin= 5 EnMin= -700.229013435426     IErMin= 5 ErrMin= 2.56D-04
 ErrMax= 2.56D-04  0.00D+00 EMaxC= 1.00D-01 BMatC= 1.36D-05 BMatP= 8.37D-05
 IDIUse=3 WtCom= 9.97D-01 WtEn= 2.56D-03
 Coeff-Com: -0.705D-02 0.564D-01 0.109D-01 0.378D+00 0.562D+00
 Coeff-En:   0.000D+00 0.000D+00 0.000D+00 0.492D-01 0.951D+00
 Coeff:     -0.703D-02 0.562D-01 0.109D-01 0.377D+00 0.563D+00
 Gap=     0.288 Goal=   None    Shift=    0.000
 RMSDP=3.50D-05 MaxDP=1.40D-03 DE=-5.92D-05 OVMax= 6.21D-04

 Cycle   6  Pass 1  IDiag  1:
 E= -700.229023400933     Delta-E=       -0.000009965507 Rises=F Damp=F
 DIIS: error= 7.01D-05 at cycle   6 NSaved=   6.
 NSaved= 6 IEnMin= 6 EnMin= -700.229023400933     IErMin= 6 ErrMin= 7.01D-05
 ErrMax= 7.01D-05  0.00D+00 EMaxC= 1.00D-01 BMatC= 5.96D-07 BMatP= 1.36D-05
 IDIUse=1 WtCom= 1.00D+00 WtEn= 0.00D+00
 Coeff-Com: -0.943D-03 0.287D-02-0.652D-02 0.114D+00 0.246D+00 0.644D+00
 Coeff:     -0.943D-03 0.287D-02-0.652D-02 0.114D+00 0.246D+00 0.644D+00
 Gap=     0.288 Goal=   None    Shift=    0.000
 RMSDP=7.76D-06 MaxDP=1.10D-04 DE=-9.97D-06 OVMax= 1.45D-04

 Cycle   7  Pass 1  IDiag  1:
 E= -700.229023835388     Delta-E=       -0.000000434455 Rises=F Damp=F
 DIIS: error= 1.09D-05 at cycle   7 NSaved=   7.
 NSaved= 7 IEnMin= 7 EnMin= -700.229023835388     IErMin= 7 ErrMin= 1.09D-05
 ErrMax= 1.09D-05  0.00D+00 EMaxC= 1.00D-01 BMatC= 2.67D-08 BMatP= 5.96D-07
 IDIUse=1 WtCom= 1.00D+00 WtEn= 0.00D+00
 Coeff-Com:  0.173D-03-0.435D-02-0.382D-02 0.990D-02 0.438D-01 0.232D+00
 Coeff-Com:  0.723D+00
 Coeff:      0.173D-03-0.435D-02-0.382D-02 0.990D-02 0.438D-01 0.232D+00
 Coeff:      0.723D+00
 Gap=     0.288 Goal=   None    Shift=    0.000
 RMSDP=2.08D-06 MaxDP=4.55D-05 DE=-4.34D-07 OVMax= 4.03D-05

 Cycle   8  Pass 1  IDiag  1:
 E= -700.229023858281     Delta-E=       -0.000000022893 Rises=F Damp=F
 DIIS: error= 9.12D-07 at cycle   8 NSaved=   8.
 NSaved= 8 IEnMin= 8 EnMin= -700.229023858281     IErMin= 8 ErrMin= 9.12D-07
 ErrMax= 9.12D-07  0.00D+00 EMaxC= 1.00D-01 BMatC= 1.32D-10 BMatP= 2.67D-08
 IDIUse=1 WtCom= 1.00D+00 WtEn= 0.00D+00
 Coeff-Com:  0.434D-04-0.676D-03-0.451D-03-0.322D-03 0.204D-02 0.251D-01
 Coeff-Com:  0.111D+00 0.863D+00
 Coeff:      0.434D-04-0.676D-03-0.451D-03-0.322D-03 0.204D-02 0.251D-01
 Coeff:      0.111D+00 0.863D+00
 Gap=     0.288 Goal=   None    Shift=    0.000
 RMSDP=2.46D-07 MaxDP=2.50D-06 DE=-2.29D-08 OVMax= 3.54D-06

 Cycle   9  Pass 1  IDiag  1:
 E= -700.229023858433     Delta-E=       -0.000000000152 Rises=F Damp=F
 DIIS: error= 2.08D-07 at cycle   9 NSaved=   9.
 NSaved= 9 IEnMin= 9 EnMin= -700.229023858433     IErMin= 9 ErrMin= 2.08D-07
 ErrMax= 2.08D-07  0.00D+00 EMaxC= 1.00D-01 BMatC= 9.70D-12 BMatP= 1.32D-10
 IDIUse=1 WtCom= 1.00D+00 WtEn= 0.00D+00
 Coeff-Com:  0.345D-05-0.323D-05 0.238D-04-0.479D-03-0.125D-02-0.259D-02
 Coeff-Com: -0.278D-03 0.211D+00 0.793D+00
 Coeff:      0.345D-05-0.323D-05 0.238D-04-0.479D-03-0.125D-02-0.259D-02
 Coeff:     -0.278D-03 0.211D+00 0.793D+00
 Gap=     0.288 Goal=   None    Shift=    0.000
 RMSDP=5.61D-08 MaxDP=9.17D-07 DE=-1.52D-10 OVMax= 1.11D-06

 Cycle  10  Pass 1  IDiag  1:
 E= -700.229023858421     Delta-E=        0.000000000011 Rises=F Damp=F
 DIIS: error= 2.69D-08 at cycle  10 NSaved=  10.
 NSaved=10 IEnMin= 9 EnMin= -700.229023858433     IErMin=10 ErrMin= 2.69D-08
 ErrMax= 2.69D-08  0.00D+00 EMaxC= 1.00D-01 BMatC= 1.78D-13 BMatP= 9.70D-12
 IDIUse=1 WtCom= 1.00D+00 WtEn= 0.00D+00
 Coeff-Com: -0.410D-06 0.172D-04 0.140D-04-0.810D-04-0.296D-03-0.113D-02
 Coeff-Com: -0.296D-02 0.144D-01 0.134D+00 0.856D+00
 Coeff:     -0.410D-06 0.172D-04 0.140D-04-0.810D-04-0.296D-03-0.113D-02
 Coeff:     -0.296D-02 0.144D-01 0.134D+00 0.856D+00
 Gap=     0.288 Goal=   None    Shift=    0.000
 RMSDP=6.13D-09 MaxDP=1.58D-07 DE= 1.11D-11 OVMax= 1.21D-07

 SCF Done:  E(RB3LYP) =  -700.229023858     A.U. after   10 cycles
            NFock= 10  Conv=0.61D-08     -V/T= 2.0064
 KE= 6.957670723024D+02 PE=-2.215395470776D+03 EE= 5.392312440403D+02
 Leave Link  502 at Tue Sep 17 19:25:41 2024, MaxMem=   268435456 cpu:         9.8
 (Enter /g100_work/pMI24_ChiCa/g09d1/g09d01/d01/build-node-6-2-59348/src/main/l701.exe)
 Compute integral first derivatives.
 ... and contract with generalized density number  0.
 Leave Link  701 at Tue Sep 17 19:25:42 2024, MaxMem=   268435456 cpu:         1.6
 (Enter /g100_work/pMI24_ChiCa/g09d1/g09d01/d01/build-node-6-2-59348/src/main/l702.exe)
 L702 exits ... SP integral derivatives will be done elsewhere.
 Leave Link  702 at Tue Sep 17 19:25:42 2024, MaxMem=   268435456 cpu:         0.1
 (Enter /g100_work/pMI24_ChiCa/g09d1/g09d01/d01/build-node-6-2-59348/src/main/l703.exe)
 Compute integral first derivatives, UseDBF=F ICtDFT=           0.
 Integral derivatives from FoFJK, PRISM(SPDF).
 Calling FoFJK, ICntrl=      2127 FMM=F ISym2X=1 I1Cent= 0 IOpClX= 0 NMat=1 NMatS=1 NMatT=0.
 FoFJK:  IHMeth= 1 ICntrl=    2127 DoSepK=F KAlg= 0 I1Cent=   0 FoldK=F
 IRaf=         0 NMat=   1 IRICut=       1 DoRegI=T DoRafI=F ISym2E= 1.
 FoFCou: FMM=F IPFlag=           0 FMFlag=      100000 FMFlg1=         800
         NFxFlg=           0 DoJE=F BraDBF=F KetDBF=F FulRan=T
         wScrn=  0.000000 ICntrl=    2127 IOpCl=  0 I1Cent=           0 NGrid=           0
         NMat0=    1 NMatS0=      1 NMatT0=    0 NMatD0=    1 NMtDS0=    0 NMtDT0=    0
 Petite list used in FoFCou.
 Leave Link  703 at Tue Sep 17 19:25:42 2024, MaxMem=   268435456 cpu:         5.1
 (Enter /g100_work/pMI24_ChiCa/g09d1/g09d01/d01/build-node-6-2-59348/src/main/l716.exe)
 Dipole        =-6.66133815D-16-4.44089210D-16-1.67095196D+00
 ***** Axes restored to original set *****
 -------------------------------------------------------------------
 Center     Atomic                   Forces (Hartrees/Bohr)
 Number     Number              X              Y              Z
 -------------------------------------------------------------------
      1       16          -0.027019713   -0.000000000   -0.019105822
      2        8           0.001305270    0.006278233   -0.005796593
      3        8          -0.005029990   -0.006278233    0.003162818
      4        8           0.017821742    0.026089348    0.009118534
      5        8           0.014537616   -0.026089348    0.013762988
      6        1          -0.001338841   -0.003945018    0.000180522
      7        1          -0.000276083    0.003945018   -0.001322445
 -------------------------------------------------------------------
 Cartesian Forces:  Max     0.027019713 RMS     0.012802803
 Leave Link  716 at Tue Sep 17 19:25:42 2024, MaxMem=   268435456 cpu:         0.1
 (Enter /g100_work/pMI24_ChiCa/g09d1/g09d01/d01/build-node-6-2-59348/src/main/l103.exe)

 GradGradGradGradGradGradGradGradGradGradGradGradGradGradGradGradGradGrad
 Berny optimization.
 Using GEDIIS/GDIIS optimizer.
 FormGI is forming the generalized inverse of G from B-inverse, IUseBI=4.
 Internal  Forces:  Max     0.032413475 RMS     0.010799045
 Search for a local minimum.
 Step number   2 out of a maximum of   30
 All quantities printed in internal units (Hartrees-Bohrs-Radians)
 RMS Force = .10799D-01 SwitMx=.10000D-02 MixMth= 1
 Mixed Optimization -- RFO/linear search
 Update second derivatives using D2CorX and points    1    2
 DE= -2.40D-02 DEPred=-2.37D-02 R= 1.02D+00
 TightC=F SS=  1.41D+00  RLast= 3.95D-01 DXNew= 5.0454D-01 1.1848D+00
 Trust test= 1.02D+00 RLast= 3.95D-01 DXMaxT set to 5.05D-01
 The second derivative matrix:
                          R1        R2        R3        R4        R5
           R1           0.40919
           R2          -0.00251   0.40919
           R3          -0.01471  -0.01471   0.67277
           R4          -0.01471  -0.01471  -0.06181   0.67277
           R5           0.00189   0.00189   0.01958   0.01958   0.57833
           R6           0.00189   0.00189   0.01958   0.01958   0.00151
           A1          -0.00612  -0.00612  -0.03682  -0.03682   0.00428
           A2          -0.00139  -0.00139  -0.00390  -0.00390   0.00251
           A3          -0.00419  -0.00419  -0.01639  -0.01639   0.00601
           A4          -0.00419  -0.00419  -0.01639  -0.01639   0.00601
           A5          -0.00139  -0.00139  -0.00390  -0.00390   0.00251
           A6           0.01267   0.01267   0.06267   0.06267  -0.01360
           A7          -0.00067  -0.00067  -0.00154  -0.00154   0.00133
           A8          -0.00067  -0.00067  -0.00154  -0.00154   0.00133
           D1          -0.00054  -0.00054  -0.00125  -0.00125   0.00107
           D2           0.00744   0.00744   0.01287   0.01287  -0.01630
           D3          -0.00770  -0.00770  -0.01414  -0.01414   0.01656
           D4          -0.00054  -0.00054  -0.00125  -0.00125   0.00107
           D5          -0.00770  -0.00770  -0.01414  -0.01414   0.01656
           D6           0.00744   0.00744   0.01287   0.01287  -0.01630
                          R6        A1        A2        A3        A4
           R6           0.57833
           A1           0.00428   0.23513
           A2           0.00251  -0.00355   0.24997
           A3           0.00601  -0.01055  -0.00090   0.24574
           A4           0.00601  -0.01055  -0.00090  -0.00426   0.24574
           A5           0.00251  -0.00355  -0.00003  -0.00090  -0.00090
           A6          -0.01360   0.03135   0.00499   0.01728   0.01728
           A7           0.00133  -0.00172   0.00004  -0.00032  -0.00032
           A8           0.00133  -0.00172   0.00004  -0.00032  -0.00032
           D1           0.00107  -0.00139   0.00003  -0.00026  -0.00026
           D2          -0.01630   0.01936  -0.00121   0.00212   0.00212
           D3           0.01656  -0.01998   0.00111  -0.00247  -0.00247
           D4           0.00107  -0.00139   0.00003  -0.00026  -0.00026
           D5           0.01656  -0.01998   0.00111  -0.00247  -0.00247
           D6          -0.01630   0.01936  -0.00121   0.00212   0.00212
                          A5        A6        A7        A8        D1
           A5           0.24997
           A6           0.00499   0.19153
           A7           0.00004   0.00224   0.16005
           A8           0.00004   0.00224   0.00005   0.16005
           D1           0.00003   0.00182   0.00004   0.00004   0.01829
           D2          -0.00121  -0.02295  -0.00101  -0.00101  -0.00081
           D3           0.00111   0.02413   0.00097   0.00097   0.00077
           D4           0.00003   0.00182   0.00004   0.00004   0.00003
           D5           0.00111   0.02413   0.00097   0.00097   0.00077
           D6          -0.00121  -0.02295  -0.00101  -0.00101  -0.00081
                          D2        D3        D4        D5        D6
           D2           0.03494
           D3          -0.01620   0.03394
           D4          -0.00081   0.00077   0.01829
           D5          -0.01620   0.01569   0.00077   0.03394
           D6           0.01669  -0.01620  -0.00081  -0.01620   0.03494
 ITU=  1  0
 Use linear search instead of GDIIS.
     Eigenvalues ---    0.01814   0.01825   0.15363   0.15873   0.16000
     Eigenvalues ---    0.16553   0.17861   0.21154   0.25582   0.40266
     Eigenvalues ---    0.41169   0.55703   0.57681   0.64653   0.73458
 RFO step:  Lambda=-3.68813250D-03 EMin= 1.81351780D-02
 Quartic linear search produced a step of  0.24712.
 Iteration  1 RMS(Cart)=  0.04724705 RMS(Int)=  0.00212192
 Iteration  2 RMS(Cart)=  0.00144937 RMS(Int)=  0.00105242
 Iteration  3 RMS(Cart)=  0.00000307 RMS(Int)=  0.00105242
 Iteration  4 RMS(Cart)=  0.00000000 RMS(Int)=  0.00105242
 ITry= 1 IFail=0 DXMaxC= 1.03D-01 DCOld= 1.00D+10 DXMaxT= 5.05D-01 DXLimC= 3.00D+00 Rises=F
 ClnCor:  largest displacement from symmetrization is 1.51D-09 for atom     5.
 Variable       Old X    -DE/DX   Delta X   Delta X   Delta X     New X
                                 (Linear)    (Quad)   (Total)
    R1        3.10158  -0.00555  -0.00874  -0.00939  -0.01813   3.08344
    R2        3.10158  -0.00555  -0.00874  -0.00939  -0.01813   3.08344
    R3        2.78698  -0.03241  -0.01643  -0.04233  -0.05877   2.72821
    R4        2.78698  -0.03241  -0.01643  -0.04233  -0.05877   2.72821
    R5        1.83627   0.00266   0.01014  -0.00225   0.00789   1.84416
    R6        1.83627   0.00266   0.01014  -0.00225   0.00789   1.84416
    A1        1.76289  -0.00006  -0.03651   0.02967  -0.00875   1.75414
    A2        1.91296   0.00151  -0.00170   0.01104   0.00734   1.92030
    A3        1.85767  -0.00505  -0.01195  -0.01619  -0.02969   1.82798
    A4        1.85767  -0.00505  -0.01195  -0.01619  -0.02969   1.82798
    A5        1.91296   0.00151  -0.00170   0.01104   0.00734   1.92030
    A6        2.12612   0.00621   0.05552  -0.01079   0.04441   2.17054
    A7        1.90863  -0.00175  -0.00050  -0.01282  -0.01332   1.89531
    A8        1.90863  -0.00175  -0.00050  -0.01282  -0.01332   1.89531
    D1       -1.05363  -0.00010  -0.00368  -0.07023  -0.07330  -1.12693
    D2        0.90185  -0.00525  -0.03801  -0.07070  -0.10795   0.79390
    D3       -3.05100   0.00003   0.02239  -0.08896  -0.06795  -3.11895
    D4       -1.05363  -0.00010  -0.00368  -0.07023  -0.07330  -1.12693
    D5       -3.05100   0.00003   0.02239  -0.08896  -0.06795  -3.11895
    D6        0.90185  -0.00525  -0.03801  -0.07070  -0.10795   0.79390
         Item               Value     Threshold  Converged?
 Maximum Force            0.032413     0.000450     NO 
 RMS     Force            0.010799     0.000300     NO 
 Maximum Displacement     0.102999     0.001800     NO 
 RMS     Displacement     0.047493     0.001200     NO 
 Predicted change in Energy=-3.159707D-03
 Lowest energy point so far.  Saving SCF results.
 GradGradGradGradGradGradGradGradGradGradGradGradGradGradGradGradGradGrad

 Leave Link  103 at Tue Sep 17 19:25:42 2024, MaxMem=   268435456 cpu:         1.3
 (Enter /g100_work/pMI24_ChiCa/g09d1/g09d01/d01/build-node-6-2-59348/src/main/l202.exe)
                          Input orientation:                          
 ---------------------------------------------------------------------
 Center     Atomic      Atomic             Coordinates (Angstroms)
 Number     Number       Type             X           Y           Z
 ---------------------------------------------------------------------
      1         16           0       -0.075599   -0.000000   -0.053456
      2          8           0        0.052719    0.057856    1.572149
      3          8           0        1.499809   -0.057856   -0.474346
      4          8           0       -0.611943   -1.276633   -0.461907
      5          8           0       -0.639471    1.276633   -0.422977
      6          1           0        0.450784   -0.777254    1.882772
      7          1           0        1.925356    0.777254   -0.202587
 ---------------------------------------------------------------------
                    Distance matrix (angstroms):
                    1          2          3          4          5
     1  S    0.000000
     2  O    1.631688   0.000000
     3  O    1.631688   2.509103   0.000000
     4  O    1.443707   2.521908   2.438252   0.000000
     5  O    1.443707   2.438252   2.521908   2.553712   0.000000
     6  H    2.151786   0.975885   2.678431   2.622268   3.274689
     7  H    2.151786   2.678431   0.975885   3.274689   2.622268
                    6          7
     6  H    0.000000
     7  H    2.989913   0.000000
 Stoichiometry    H2O4S
 Framework group  C2[C2(S),X(H2O4)]
 Deg. of freedom     8
 Full point group                 C2      NOp   2
 RotChk:  IX=0 Diff= 2.06D-02
 Largest Abelian subgroup         C2      NOp   2
 Largest concise Abelian subgroup C2      NOp   2
                         Standard orientation:                         
 ---------------------------------------------------------------------
 Center     Atomic      Atomic             Coordinates (Angstroms)
 Number     Number       Type             X           Y           Z
 ---------------------------------------------------------------------
      1         16           0       -0.000000   -0.000000    0.180170
      2          8           0       -0.000000    1.254551   -0.863144
      3          8           0       -0.000000   -1.254551   -0.863144
      4          8           0        1.274176   -0.082688    0.853912
      5          8           0       -1.274176    0.082688    0.853912
      6          1           0        0.835319    1.239814   -1.367502
      7          1           0       -0.835319   -1.239814   -1.367502
 ---------------------------------------------------------------------
 Rotational constants (GHZ):      4.8546319      4.7369539      4.7227929
 Leave Link  202 at Tue Sep 17 19:25:42 2024, MaxMem=   268435456 cpu:         0.1
 (Enter /g100_work/pMI24_ChiCa/g09d1/g09d01/d01/build-node-6-2-59348/src/main/l301.exe)
 Standard basis: 6-31+G(d,p) (6D, 7F)
 Ernie: Thresh=  0.10000D-02 Tol=  0.10000D-05 Strict=F.
 There are    56 symmetry adapted cartesian basis functions of A   symmetry.
 There are    53 symmetry adapted cartesian basis functions of B   symmetry.
 There are    56 symmetry adapted basis functions of A   symmetry.
 There are    53 symmetry adapted basis functions of B   symmetry.
   109 basis functions,   198 primitive gaussians,   109 cartesian basis functions
    25 alpha electrons       25 beta electrons
       nuclear repulsion energy       283.9549185745 Hartrees.
 IExCor=  402 DFT=T Ex+Corr=B3LYP ExCW=0 ScaHFX=  0.200000
 ScaDFX=  0.800000  0.720000  1.000000  0.810000 ScalE2=  1.000000  1.000000
 IRadAn=      0 IRanWt=     -1 IRanGd=            0 ICorTp=0 IEmpDi=  4
 NAtoms=    7 NActive=    7 NUniq=    4 SFac= 3.06D+00 NAtFMM=   60 NAOKFM=F Big=F
 Integral buffers will be    131072 words long.
 Raffenetti 2 integral format.
 Two-electron integral symmetry is turned on.
 Leave Link  301 at Tue Sep 17 19:25:42 2024, MaxMem=   268435456 cpu:         0.1
 (Enter /g100_work/pMI24_ChiCa/g09d1/g09d01/d01/build-node-6-2-59348/src/main/l302.exe)
 NPDir=0 NMtPBC=     1 NCelOv=     1 NCel=       1 NClECP=     1 NCelD=      1
         NCelK=      1 NCelE2=     1 NClLst=     1 CellRange=     0.0.
 One-electron integrals computed using PRISM.
 One-electron integral symmetry used in STVInt
 NBasis=   109 RedAO= T EigKep=  1.86D-03  NBF=    56    53
 NBsUse=   109 1.00D-06 EigRej= -1.00D+00 NBFU=    56    53
 Precomputing XC quadrature grid using
 IXCGrd= 4 IRadAn=           0 IRanWt=          -1 IRanGd=           0 AccXCQ= 0.00D+00.
 Generated NRdTot=       0 NPtTot=           0 NUsed=           0 NTot=          32
 NSgBfM=   109   109   109   109   109 MxSgAt=     7 MxSgA2=     7.
 Leave Link  302 at Tue Sep 17 19:25:42 2024, MaxMem=   268435456 cpu:         1.3
 (Enter /g100_work/pMI24_ChiCa/g09d1/g09d01/d01/build-node-6-2-59348/src/main/l303.exe)
 DipDrv:  MaxL=1.
 Leave Link  303 at Tue Sep 17 19:25:42 2024, MaxMem=   268435456 cpu:         0.2
 (Enter /g100_work/pMI24_ChiCa/g09d1/g09d01/d01/build-node-6-2-59348/src/main/l401.exe)
 Initial guess from the checkpoint file:  "/g100_scratch/userexternal/ecabiati/g16_14420034/Gau-11128.chk"
 B after Tr=     0.000000    0.000000   -0.000000
         Rot=    0.999978    0.000000   -0.000000    0.006708 Ang=   0.77 deg.
 Guess basis will be translated and rotated to current coordinates.
 JPrj=2 DoOrth=T DoCkMO=T.
 Initial guess orbital symmetries:
       Occupied  (A) (B) (A) (B) (A) (A) (B) (A) (B) (A) (B) (A)
                 (B) (A) (B) (A) (B) (A) (B) (A) (B) (A) (B) (A)
                 (B)
       Virtual   (A) (A) (A) (A) (A) (A) (A) (A) (A) (A) (A) (A)
                 (A) (A) (A) (A) (A) (A) (A) (A) (A) (A) (A) (A)
                 (A) (A) (A) (A) (A) (A) (A) (A) (A) (A) (A) (A)
                 (A) (A) (A) (A) (A) (A) (A) (B) (B) (B) (B) (B)
                 (B) (B) (B) (B) (B) (B) (B) (B) (B) (B) (B) (B)
                 (B) (B) (B) (B) (B) (B) (B) (B) (B) (B) (B) (B)
                 (B) (B) (B) (B) (B) (B) (B) (B) (B) (B) (B) (B)
 The electronic state of the initial guess is 1-A.
 Generating alternative initial guess.
 ExpMin= 4.05D-02 ExpMax= 2.19D+04 ExpMxC= 3.30D+03 IAcc=2 IRadAn=         4 AccDes= 0.00D+00
 Harris functional with IExCor=  402 and IRadAn=       4 diagonalized for initial guess.
 HarFok:  IExCor=  402 AccDes= 0.00D+00 IRadAn=         4 IDoV= 1 UseB2=F ITyADJ=14
 ICtDFT=  3500011 ScaDFX=  1.000000  1.000000  1.000000  1.000000
 FoFCou: FMM=F IPFlag=           0 FMFlag=      100000 FMFlg1=           0
         NFxFlg=           0 DoJE=T BraDBF=F KetDBF=T FulRan=T
         wScrn=  0.000000 ICntrl=     500 IOpCl=  0 I1Cent=   200000004 NGrid=           0
         NMat0=    1 NMatS0=      1 NMatT0=    0 NMatD0=    1 NMtDS0=    0 NMtDT0=    0
 Petite list used in FoFCou.
 Harris En= -700.306268935405    
 Leave Link  401 at Tue Sep 17 19:25:43 2024, MaxMem=   268435456 cpu:         1.9
 (Enter /g100_work/pMI24_ChiCa/g09d1/g09d01/d01/build-node-6-2-59348/src/main/l502.exe)
 Closed shell SCF:
 Using DIIS extrapolation, IDIIS=  1040.
 Integral symmetry usage will be decided dynamically.
 Keep R1 ints in memory in symmetry-blocked form, NReq=27032647.
 IVT=       57763 IEndB=       57763 NGot=   268435456 MDV=   259375929
 LenX=   259375929 LenY=   259363607
 Requested convergence on RMS density matrix=1.00D-08 within 128 cycles.
 Requested convergence on MAX density matrix=1.00D-06.
 Requested convergence on             energy=1.00D-06.
 No special actions if energy rises.
 FoFCou: FMM=F IPFlag=           0 FMFlag=           0 FMFlg1=           0
         NFxFlg=           0 DoJE=F BraDBF=F KetDBF=F FulRan=T
         wScrn=  0.000000 ICntrl=     600 IOpCl=  0 I1Cent=           0 NGrid=           0
         NMat0=    1 NMatS0=   5995 NMatT0=    0 NMatD0=    1 NMtDS0=    0 NMtDT0=    0
 Petite list used in FoFCou.

 Cycle   1  Pass 1  IDiag  1:
 E= -700.228297883117    
 DIIS: error= 3.44D-03 at cycle   1 NSaved=   1.
 NSaved= 1 IEnMin= 1 EnMin= -700.228297883117     IErMin= 1 ErrMin= 3.44D-03
 ErrMax= 3.44D-03  0.00D+00 EMaxC= 1.00D-01 BMatC= 2.62D-03 BMatP= 2.62D-03
 IDIUse=3 WtCom= 9.66D-01 WtEn= 3.44D-02
 Coeff-Com:  0.100D+01
 Coeff-En:   0.100D+01
 Coeff:      0.100D+01
 Gap=     0.580 Goal=   None    Shift=    0.000
 GapD=    0.580 DampG=2.000 DampE=1.000 DampFc=2.0000 IDamp=-1.
 RMSDP=1.12D-03 MaxDP=1.57D-02              OVMax= 2.33D-02

 Cycle   2  Pass 1  IDiag  1:
 E= -700.231652797846     Delta-E=       -0.003354914729 Rises=F Damp=F
 DIIS: error= 1.81D-03 at cycle   2 NSaved=   2.
 NSaved= 2 IEnMin= 2 EnMin= -700.231652797846     IErMin= 2 ErrMin= 1.81D-03
 ErrMax= 1.81D-03  0.00D+00 EMaxC= 1.00D-01 BMatC= 5.29D-04 BMatP= 2.62D-03
 IDIUse=3 WtCom= 9.82D-01 WtEn= 1.81D-02
 Coeff-Com:  0.199D+00 0.801D+00
 Coeff-En:   0.000D+00 0.100D+01
 Coeff:      0.195D+00 0.805D+00
 Gap=     0.297 Goal=   None    Shift=    0.000
 RMSDP=4.49D-04 MaxDP=7.26D-03 DE=-3.35D-03 OVMax= 1.05D-02

 Cycle   3  Pass 1  IDiag  1:
 E= -700.231384676538     Delta-E=        0.000268121308 Rises=F Damp=F
 DIIS: error= 2.27D-03 at cycle   3 NSaved=   3.
 NSaved= 3 IEnMin= 2 EnMin= -700.231652797846     IErMin= 2 ErrMin= 1.81D-03
 ErrMax= 2.27D-03  0.00D+00 EMaxC= 1.00D-01 BMatC= 9.07D-04 BMatP= 5.29D-04
 IDIUse=3 WtCom= 1.73D-01 WtEn= 8.27D-01
 Coeff-Com: -0.155D-01 0.575D+00 0.440D+00
 Coeff-En:   0.000D+00 0.601D+00 0.399D+00
 Coeff:     -0.268D-02 0.597D+00 0.406D+00
 Gap=     0.301 Goal=   None    Shift=    0.000
 RMSDP=2.57D-04 MaxDP=3.74D-03 DE= 2.68D-04 OVMax= 6.08D-03

 Cycle   4  Pass 1  IDiag  1:
 E= -700.232051775651     Delta-E=       -0.000667099113 Rises=F Damp=F
 DIIS: error= 1.92D-04 at cycle   4 NSaved=   4.
 NSaved= 4 IEnMin= 4 EnMin= -700.232051775651     IErMin= 4 ErrMin= 1.92D-04
 ErrMax= 1.92D-04  0.00D+00 EMaxC= 1.00D-01 BMatC= 1.12D-05 BMatP= 5.29D-04
 IDIUse=3 WtCom= 9.98D-01 WtEn= 1.92D-03
 Coeff-Com: -0.187D-01 0.237D+00 0.170D+00 0.611D+00
 Coeff-En:   0.000D+00 0.000D+00 0.000D+00 0.100D+01
 Coeff:     -0.186D-01 0.237D+00 0.170D+00 0.612D+00
 Gap=     0.301 Goal=   None    Shift=    0.000
 RMSDP=4.35D-05 MaxDP=1.77D-03 DE=-6.67D-04 OVMax= 7.39D-04

 Cycle   5  Pass 1  IDiag  1:
 E= -700.232061635149     Delta-E=       -0.000009859498 Rises=F Damp=F
 DIIS: error= 5.35D-05 at cycle   5 NSaved=   5.
 NSaved= 5 IEnMin= 5 EnMin= -700.232061635149     IErMin= 5 ErrMin= 5.35D-05
 ErrMax= 5.35D-05  0.00D+00 EMaxC= 1.00D-01 BMatC= 5.00D-07 BMatP= 1.12D-05
 IDIUse=1 WtCom= 1.00D+00 WtEn= 0.00D+00
 Coeff-Com: -0.425D-02 0.445D-01 0.309D-01 0.214D+00 0.715D+00
 Coeff:     -0.425D-02 0.445D-01 0.309D-01 0.214D+00 0.715D+00
 Gap=     0.301 Goal=   None    Shift=    0.000
 RMSDP=1.07D-05 MaxDP=4.42D-04 DE=-9.86D-06 OVMax= 1.90D-04

 Cycle   6  Pass 1  IDiag  1:
 E= -700.232062013248     Delta-E=       -0.000000378100 Rises=F Damp=F
 DIIS: error= 2.82D-05 at cycle   6 NSaved=   6.
 NSaved= 6 IEnMin= 6 EnMin= -700.232062013248     IErMin= 6 ErrMin= 2.82D-05
 ErrMax= 2.82D-05  0.00D+00 EMaxC= 1.00D-01 BMatC= 1.15D-07 BMatP= 5.00D-07
 IDIUse=1 WtCom= 1.00D+00 WtEn= 0.00D+00
 Coeff-Com: -0.109D-02 0.649D-02 0.368D-02 0.752D-01 0.389D+00 0.527D+00
 Coeff:     -0.109D-02 0.649D-02 0.368D-02 0.752D-01 0.389D+00 0.527D+00
 Gap=     0.301 Goal=   None    Shift=    0.000
 RMSDP=2.89D-06 MaxDP=7.85D-05 DE=-3.78D-07 OVMax= 5.36D-05

 Cycle   7  Pass 1  IDiag  1:
 E= -700.232062091389     Delta-E=       -0.000000078141 Rises=F Damp=F
 DIIS: error= 4.90D-06 at cycle   7 NSaved=   7.
 NSaved= 7 IEnMin= 7 EnMin= -700.232062091389     IErMin= 7 ErrMin= 4.90D-06
 ErrMax= 4.90D-06  0.00D+00 EMaxC= 1.00D-01 BMatC= 5.90D-09 BMatP= 1.15D-07
 IDIUse=1 WtCom= 1.00D+00 WtEn= 0.00D+00
 Coeff-Com:  0.118D-03-0.373D-02-0.333D-02 0.280D-02 0.718D-01 0.225D+00
 Coeff-Com:  0.708D+00
 Coeff:      0.118D-03-0.373D-02-0.333D-02 0.280D-02 0.718D-01 0.225D+00
 Coeff:      0.708D+00
 Gap=     0.301 Goal=   None    Shift=    0.000
 RMSDP=7.94D-07 MaxDP=1.08D-05 DE=-7.81D-08 OVMax= 1.25D-05

 Cycle   8  Pass 1  IDiag  1:
 E= -700.232062095834     Delta-E=       -0.000000004445 Rises=F Damp=F
 DIIS: error= 2.02D-07 at cycle   8 NSaved=   8.
 NSaved= 8 IEnMin= 8 EnMin= -700.232062095834     IErMin= 8 ErrMin= 2.02D-07
 ErrMax= 2.02D-07  0.00D+00 EMaxC= 1.00D-01 BMatC= 1.02D-11 BMatP= 5.90D-09
 IDIUse=1 WtCom= 1.00D+00 WtEn= 0.00D+00
 Coeff-Com:  0.315D-04-0.537D-03-0.456D-03-0.101D-02 0.572D-03 0.154D-01
 Coeff-Com:  0.643D-01 0.922D+00
 Coeff:      0.315D-04-0.537D-03-0.456D-03-0.101D-02 0.572D-03 0.154D-01
 Coeff:      0.643D-01 0.922D+00
 Gap=     0.301 Goal=   None    Shift=    0.000
 RMSDP=7.92D-08 MaxDP=9.66D-07 DE=-4.45D-09 OVMax= 1.42D-06

 Cycle   9  Pass 1  IDiag  1:
 E= -700.232062095900     Delta-E=       -0.000000000066 Rises=F Damp=F
 DIIS: error= 3.88D-08 at cycle   9 NSaved=   9.
 NSaved= 9 IEnMin= 9 EnMin= -700.232062095900     IErMin= 9 ErrMin= 3.88D-08
 ErrMax= 3.88D-08  0.00D+00 EMaxC= 1.00D-01 BMatC= 4.49D-13 BMatP= 1.02D-11
 IDIUse=1 WtCom= 1.00D+00 WtEn= 0.00D+00
 Coeff-Com:  0.155D-05 0.274D-04 0.186D-04-0.206D-03-0.187D-02-0.368D-02
 Coeff-Com: -0.100D-01 0.133D+00 0.883D+00
 Coeff:      0.155D-05 0.274D-04 0.186D-04-0.206D-03-0.187D-02-0.368D-02
 Coeff:     -0.100D-01 0.133D+00 0.883D+00
 Gap=     0.301 Goal=   None    Shift=    0.000
 RMSDP=1.25D-08 MaxDP=2.62D-07 DE=-6.64D-11 OVMax= 2.15D-07

 Cycle  10  Pass 1  IDiag  1:
 E= -700.232062095858     Delta-E=        0.000000000043 Rises=F Damp=F
 DIIS: error= 5.73D-09 at cycle  10 NSaved=  10.
 NSaved=10 IEnMin= 9 EnMin= -700.232062095900     IErMin=10 ErrMin= 5.73D-09
 ErrMax= 5.73D-09  0.00D+00 EMaxC= 1.00D-01 BMatC= 6.98D-15 BMatP= 4.49D-13
 IDIUse=1 WtCom= 1.00D+00 WtEn= 0.00D+00
 Coeff-Com: -0.321D-06 0.129D-04 0.967D-05-0.826D-05-0.268D-03-0.786D-03
 Coeff-Com: -0.242D-02 0.186D-02 0.126D+00 0.875D+00
 Coeff:     -0.321D-06 0.129D-04 0.967D-05-0.826D-05-0.268D-03-0.786D-03
 Coeff:     -0.242D-02 0.186D-02 0.126D+00 0.875D+00
 Gap=     0.301 Goal=   None    Shift=    0.000
 RMSDP=1.42D-09 MaxDP=2.26D-08 DE= 4.27D-11 OVMax= 2.59D-08

 SCF Done:  E(RB3LYP) =  -700.232062096     A.U. after   10 cycles
            NFock= 10  Conv=0.14D-08     -V/T= 2.0061
 KE= 6.959767243439D+02 PE=-2.223141396814D+03 EE= 5.429776917995D+02
 Leave Link  502 at Tue Sep 17 19:25:43 2024, MaxMem=   268435456 cpu:         9.6
 (Enter /g100_work/pMI24_ChiCa/g09d1/g09d01/d01/build-node-6-2-59348/src/main/l701.exe)
 Compute integral first derivatives.
 ... and contract with generalized density number  0.
 Leave Link  701 at Tue Sep 17 19:25:43 2024, MaxMem=   268435456 cpu:         1.5
 (Enter /g100_work/pMI24_ChiCa/g09d1/g09d01/d01/build-node-6-2-59348/src/main/l702.exe)
 L702 exits ... SP integral derivatives will be done elsewhere.
 Leave Link  702 at Tue Sep 17 19:25:43 2024, MaxMem=   268435456 cpu:         0.1
 (Enter /g100_work/pMI24_ChiCa/g09d1/g09d01/d01/build-node-6-2-59348/src/main/l703.exe)
 Compute integral first derivatives, UseDBF=F ICtDFT=           0.
 Integral derivatives from FoFJK, PRISM(SPDF).
 Calling FoFJK, ICntrl=      2127 FMM=F ISym2X=1 I1Cent= 0 IOpClX= 0 NMat=1 NMatS=1 NMatT=0.
[...]
     20 -0.419652D-02  0.256370D-02 -0.296829D-03  0.231057D-02 -0.933236D-04
     21  0.722425D-02  0.102761D-01  0.275530D-02  0.112868D-03 -0.210771D-02
                6             7             8             9            10 
      6  0.329904D+00
      7  0.111702D-01  0.318679D+00
      8  0.374856D-02  0.148475D+00  0.527417D+00
      9 -0.139380D-01 -0.626225D-01  0.116755D-01  0.654587D-01
     10 -0.378391D-02 -0.136028D-01 -0.407421D-01 -0.516732D-02  0.147272D+00
     11 -0.388587D-02 -0.540558D-02 -0.430509D-02 -0.245283D-02  0.195758D+00
     12 -0.167272D-01  0.676791D-02  0.375368D-02  0.982887D-02  0.629962D-01
     13 -0.773808D-03 -0.195251D-01  0.322133D-01 -0.412988D-02  0.165942D-01
     14  0.427882D-02  0.496656D-02  0.544407D-02  0.238993D-02  0.138520D-01
     15 -0.115023D-01  0.706177D-02 -0.341826D-02  0.139490D-01  0.222649D-03
     16 -0.221388D-01 -0.339318D-02  0.109356D-02  0.123620D-02 -0.178831D-02
     17  0.158098D+00  0.181923D-02 -0.933236D-04 -0.309393D-02 -0.141759D-02
     18 -0.808603D-01 -0.191091D-03 -0.323009D-02 -0.188260D-03  0.247996D-02
     19 -0.131442D-02 -0.858285D-01 -0.125656D+00  0.808652D-02 -0.653649D-02
     20 -0.274650D-02 -0.169030D+00 -0.443486D+00 -0.379541D-02  0.401357D-02
     21 -0.336552D-02  0.399694D-02 -0.139961D-01 -0.693710D-02  0.107141D-03
               11            12            13            14            15 
     11  0.514671D+00
     12  0.146940D+00  0.109338D+00
     13 -0.144313D-01  0.383386D-05  0.153149D+00
     14 -0.152277D-01  0.104093D-01 -0.203789D+00  0.514671D+00
     15 -0.959007D-02  0.165141D-01  0.609186D-01 -0.135582D+00  0.103462D+00
     16 -0.177510D-02  0.208011D-02  0.166582D-02  0.820750D-03 -0.279281D-02
     17 -0.352287D-02 -0.382343D-02 -0.195883D-02  0.455944D-02 -0.356449D-02
     18 -0.285682D-02  0.598447D-02 -0.156637D-02 -0.630371D-03 -0.602057D-02
     19  0.320736D-03  0.133358D-02  0.655392D-02  0.328513D-02 -0.469465D-03
     20  0.455944D-02  0.658636D-03  0.407730D-02 -0.352287D-02  0.620433D-04
     21 -0.983934D-03  0.218173D-02 -0.869316D-03  0.721305D-03 -0.235775D-02
               16            17            18            19            20 
     16  0.119243D-01
     17 -0.599399D-01  0.440395D+00
     18  0.233556D-01 -0.151578D+00  0.103135D+00
     19  0.297500D-03 -0.103181D-03 -0.601718D-04  0.107680D+00
     20 -0.640292D-04 -0.416356D-03  0.132078D-03  0.162889D+00  0.440395D+00
     21 -0.725548D-04  0.104393D-03  0.344426D-03 -0.104993D-01  0.598598D-02
               21 
     21  0.737892D-02
 FormGI is forming the generalized inverse of G from B-inverse, IUseBI=4.
 Force constants in internal coordinates: 
                1             2             3             4             5 
      1  0.271382D+00
      2  0.131064D-01  0.271382D+00
      3  0.100126D-01  0.872896D-02  0.646853D+00
      4  0.872896D-02  0.100126D-01  0.129807D-02  0.646853D+00
      5  0.142654D-02 -0.281314D-02 -0.419447D-02 -0.472588D-02  0.506654D+00
      6 -0.281314D-02  0.142654D-02 -0.472588D-02 -0.419447D-02  0.435985D-03
      7  0.199705D-01  0.199705D-01 -0.112293D-01 -0.112293D-01 -0.406639D-02
      8  0.372771D-02 -0.134696D-01  0.147347D-01 -0.942987D-02 -0.697043D-02
      9  0.180455D-01 -0.144229D-01 -0.921130D-02  0.108168D-01  0.353236D-02
     10 -0.144229D-01  0.180455D-01  0.108168D-01 -0.921130D-02  0.232617D-02
     11 -0.134696D-01  0.372771D-02 -0.942987D-02  0.147347D-01  0.186544D-02
     12 -0.773639D-02 -0.773639D-02  0.135764D-02  0.135764D-02  0.188996D-02
     13  0.416954D-01  0.100989D-02  0.293439D-02  0.647640D-02  0.182416D-01
     14  0.100989D-02  0.416954D-01  0.647640D-02  0.293439D-02 -0.923305D-04
     15  0.190503D-02 -0.752740D-02 -0.876330D-02  0.120938D-01  0.766336D-03
     16 -0.400714D-02  0.166672D-01  0.346340D-02 -0.642083D-02 -0.883132D-03
     17  0.264846D-02 -0.144154D-01  0.907637D-02 -0.335369D-02 -0.903477D-03
     18 -0.752740D-02  0.190503D-02  0.120938D-01 -0.876330D-02 -0.373343D-02
     19 -0.144154D-01  0.264846D-02 -0.335369D-02  0.907637D-02  0.466587D-02
     20  0.166672D-01 -0.400714D-02 -0.642083D-02  0.346340D-02 -0.948423D-03
                6             7             8             9            10 
      6  0.506654D+00
      7 -0.406639D-02  0.218558D+00
      8  0.186544D-02 -0.336353D-01  0.131737D+00
      9  0.232617D-02 -0.461033D-01 -0.139248D-01  0.134902D+00
     10  0.353236D-02 -0.461033D-01 -0.451249D-01 -0.155425D-01  0.134902D+00
     11 -0.697043D-02 -0.336353D-01 -0.191649D-01 -0.451249D-01 -0.139248D-01
     12  0.188996D-02 -0.434059D-02 -0.227227D-01 -0.232003D-01 -0.232003D-01
     13 -0.923307D-04  0.960070D-03 -0.201620D-01  0.227944D-01 -0.518094D-02
     14  0.182416D-01  0.960070D-03  0.374478D-03 -0.518094D-02  0.227944D-01
     15 -0.373343D-02 -0.670533D-03 -0.851834D-02  0.970927D-02 -0.496371D-01
     16 -0.948423D-03  0.329047D-01 -0.274933D-01 -0.328436D-01  0.642808D-01
     17  0.466587D-02 -0.331302D-01  0.302982D-01  0.305917D-01 -0.111380D-01
     18  0.766336D-03 -0.670532D-03  0.490606D-01 -0.496371D-01  0.970927D-02
     19 -0.903477D-03 -0.331302D-01 -0.662828D-01 -0.111380D-01  0.305917D-01
     20 -0.883132D-03  0.329047D-01  0.119868D-01  0.642808D-01 -0.328436D-01
               11            12            13            14            15 
     11  0.131737D+00
     12 -0.227227D-01  0.812400D-01
     13  0.374479D-03  0.949052D-03  0.153212D+00
     14 -0.201620D-01  0.949052D-03 -0.537644D-03  0.153212D+00
     15  0.490606D-01  0.529845D-03  0.621581D-02 -0.161074D-01  0.390438D-01
     16  0.119868D-01 -0.351557D-01 -0.618059D-02  0.981012D-02 -0.194622D-01
     17 -0.662828D-01  0.350210D-01 -0.240141D-02  0.732976D-02 -0.176385D-01
     18 -0.851834D-02  0.529845D-03 -0.161074D-01  0.621581D-02 -0.193638D-01
     19  0.302982D-01  0.350210D-01  0.732976D-02 -0.240141D-02  0.726499D-02
     20 -0.274933D-01 -0.351557D-01  0.981012D-02 -0.618059D-02  0.831310D-02
               16            17            18            19            20 
     16  0.569870D-01
     17 -0.340770D-01  0.571647D-01
     18  0.831310D-02  0.726499D-02  0.390438D-01
     19  0.345481D-02 -0.911893D-02 -0.176385D-01  0.571647D-01
     20 -0.948472D-02  0.345481D-02 -0.194622D-01 -0.340770D-01  0.569870D-01
 Leave Link  716 at Tue Sep 17 19:25:56 2024, MaxMem=   268435456 cpu:         0.2
 (Enter /g100_work/pMI24_ChiCa/g09d1/g09d01/d01/build-node-6-2-59348/src/main/l103.exe)

 GradGradGradGradGradGradGradGradGradGradGradGradGradGradGradGradGradGrad
 Berny optimization.
 Red2BG is reusing G-inverse.
 Internal  Forces:  Max     0.000035956 RMS     0.000023785
 Search for a local minimum.
 Step number   1 out of a maximum of    2
 All quantities printed in internal units (Hartrees-Bohrs-Radians)
 Second derivative matrix not updated -- analytic derivatives used.
 The second derivative matrix:
                          R1        R2        R3        R4        R5
           R1           0.27138
           R2           0.01311   0.27138
           R3           0.01001   0.00873   0.64685
           R4           0.00873   0.01001   0.00130   0.64685
           R5           0.00143  -0.00281  -0.00419  -0.00473   0.50665
           R6          -0.00281   0.00143  -0.00473  -0.00419   0.00044
           A1           0.01997   0.01997  -0.01123  -0.01123  -0.00407
           A2           0.00373  -0.01347   0.01473  -0.00943  -0.00697
           A3           0.01805  -0.01442  -0.00921   0.01082   0.00353
           A4          -0.01442   0.01805   0.01082  -0.00921   0.00233
           A5          -0.01347   0.00373  -0.00943   0.01473   0.00187
           A6          -0.00774  -0.00774   0.00136   0.00136   0.00189
           A7           0.04170   0.00101   0.00293   0.00648   0.01824
           A8           0.00101   0.04170   0.00648   0.00293  -0.00009
           D1           0.00191  -0.00753  -0.00876   0.01209   0.00077
           D2          -0.00401   0.01667   0.00346  -0.00642  -0.00088
           D3           0.00265  -0.01442   0.00908  -0.00335  -0.00090
           D4          -0.00753   0.00191   0.01209  -0.00876  -0.00373
           D5          -0.01442   0.00265  -0.00335   0.00908   0.00467
           D6           0.01667  -0.00401  -0.00642   0.00346  -0.00095
                          R6        A1        A2        A3        A4
           R6           0.50665
           A1          -0.00407   0.21856
           A2           0.00187  -0.03364   0.13174
           A3           0.00233  -0.04610  -0.01392   0.13490
           A4           0.00353  -0.04610  -0.04512  -0.01554   0.13490
           A5          -0.00697  -0.03364  -0.01916  -0.04512  -0.01392
           A6           0.00189  -0.00434  -0.02272  -0.02320  -0.02320
           A7          -0.00009   0.00096  -0.02016   0.02279  -0.00518
           A8           0.01824   0.00096   0.00037  -0.00518   0.02279
           D1          -0.00373  -0.00067  -0.00852   0.00971  -0.04964
           D2          -0.00095   0.03290  -0.02749  -0.03284   0.06428
           D3           0.00467  -0.03313   0.03030   0.03059  -0.01114
           D4           0.00077  -0.00067   0.04906  -0.04964   0.00971
           D5          -0.00090  -0.03313  -0.06628  -0.01114   0.03059
           D6          -0.00088   0.03290   0.01199   0.06428  -0.03284
                          A5        A6        A7        A8        D1
           A5           0.13174
           A6          -0.02272   0.08124
           A7           0.00037   0.00095   0.15321
           A8          -0.02016   0.00095  -0.00054   0.15321
           D1           0.04906   0.00053   0.00622  -0.01611   0.03904
           D2           0.01199  -0.03516  -0.00618   0.00981  -0.01946
           D3          -0.06628   0.03502  -0.00240   0.00733  -0.01764
           D4          -0.00852   0.00053  -0.01611   0.00622  -0.01936
           D5           0.03030   0.03502   0.00733  -0.00240   0.00726
           D6          -0.02749  -0.03516   0.00981  -0.00618   0.00831
                          D2        D3        D4        D5        D6
           D2           0.05699
           D3          -0.03408   0.05716
           D4           0.00831   0.00726   0.03904
           D5           0.00345  -0.00912  -0.01764   0.05716
           D6          -0.00948   0.00345  -0.01946  -0.03408   0.05699
 ITU=  0
     Eigenvalues ---    0.00310   0.00344   0.12053   0.13050   0.16607
     Eigenvalues ---    0.20264   0.20534   0.24583   0.25671   0.31894
     Eigenvalues ---    0.32653   0.50792   0.50814   0.64942   0.65056
 Angle between quadratic step and forces=  66.48 degrees.
 Linear search not attempted -- first point.
 Iteration  1 RMS(Cart)=  0.00032485 RMS(Int)=  0.00000013
 Iteration  2 RMS(Cart)=  0.00000010 RMS(Int)=  0.00000000
 ITry= 1 IFail=0 DXMaxC= 6.29D-04 DCOld= 1.00D+10 DXMaxT= 3.00D-01 DXLimC= 3.00D+00 Rises=F
 ClnCor:  largest displacement from symmetrization is 3.06D-12 for atom     7.
 Variable       Old X    -DE/DX   Delta X   Delta X   Delta X     New X
                                 (Linear)    (Quad)   (Total)
    R1        3.07771   0.00004   0.00000   0.00015   0.00015   3.07786
    R2        3.07771   0.00004   0.00000   0.00015   0.00015   3.07786
    R3        2.73552  -0.00001   0.00000  -0.00001  -0.00001   2.73552
    R4        2.73552  -0.00001   0.00000  -0.00001  -0.00001   2.73552
    R5        1.84011   0.00003   0.00000   0.00007   0.00007   1.84017
    R6        1.84011   0.00003   0.00000   0.00007   0.00007   1.84017
    A1        1.77395  -0.00003   0.00000  -0.00013  -0.00013   1.77382
    A2        1.89837  -0.00001   0.00000  -0.00007  -0.00007   1.89830
    A3        1.83940   0.00004   0.00000   0.00022   0.00022   1.83962
    A4        1.83940   0.00004   0.00000   0.00022   0.00022   1.83962
    A5        1.89837  -0.00001   0.00000  -0.00007  -0.00007   1.89830
    A6        2.17505  -0.00003   0.00000  -0.00018  -0.00018   2.17487
    A7        1.89879  -0.00003   0.00000  -0.00027  -0.00027   1.89852
    A8        1.89879  -0.00003   0.00000  -0.00027  -0.00027   1.89852
    D1       -1.44017  -0.00001   0.00000  -0.00063  -0.00063  -1.44080
    D2        0.49479   0.00001   0.00000  -0.00047  -0.00047   0.49433
    D3        2.86351  -0.00001   0.00000  -0.00058  -0.00058   2.86293
    D4       -1.44017  -0.00001   0.00000  -0.00063  -0.00063  -1.44080
    D5        2.86351  -0.00001   0.00000  -0.00058  -0.00058   2.86293
    D6        0.49479   0.00001   0.00000  -0.00047  -0.00047   0.49433
         Item               Value     Threshold  Converged?
 Maximum Force            0.000036     0.000450     YES
 RMS     Force            0.000024     0.000300     YES
 Maximum Displacement     0.000629     0.001800     YES
 RMS     Displacement     0.000325     0.001200     YES
 Predicted change in Energy=-3.193366D-08
 Optimization completed.
    -- Stationary point found.
                           ----------------------------
                           !   Optimized Parameters   !
                           ! (Angstroms and Degrees)  !
 --------------------------                            --------------------------
 ! Name  Definition              Value          Derivative Info.                !
 --------------------------------------------------------------------------------
 ! R1    R(1,2)                  1.6287         -DE/DX =    0.0                 !
 ! R2    R(1,3)                  1.6287         -DE/DX =    0.0                 !
 ! R3    R(1,4)                  1.4476         -DE/DX =    0.0                 !
 ! R4    R(1,5)                  1.4476         -DE/DX =    0.0                 !
 ! R5    R(2,6)                  0.9737         -DE/DX =    0.0                 !
 ! R6    R(3,7)                  0.9737         -DE/DX =    0.0                 !
 ! A1    A(2,1,3)              101.64           -DE/DX =    0.0                 !
 ! A2    A(2,1,4)              108.7686         -DE/DX =    0.0                 !
 ! A3    A(2,1,5)              105.3897         -DE/DX =    0.0                 !
 ! A4    A(3,1,4)              105.3897         -DE/DX =    0.0                 !
 ! A5    A(3,1,5)              108.7686         -DE/DX =    0.0                 !
 ! A6    A(4,1,5)              124.6211         -DE/DX =    0.0                 !
 ! A7    A(1,2,6)              108.7926         -DE/DX =    0.0                 !
 ! A8    A(1,3,7)              108.7926         -DE/DX =    0.0                 !
 ! D1    D(3,1,2,6)            -82.5159         -DE/DX =    0.0                 !
 ! D2    D(4,1,2,6)             28.3495         -DE/DX =    0.0                 !
 ! D3    D(5,1,2,6)            164.067          -DE/DX =    0.0                 !
 ! D4    D(2,1,3,7)            -82.5159         -DE/DX =    0.0                 !
 ! D5    D(4,1,3,7)            164.067          -DE/DX =    0.0                 !
 ! D6    D(5,1,3,7)             28.3495         -DE/DX =    0.0                 !
 --------------------------------------------------------------------------------
 GradGradGradGradGradGradGradGradGradGradGradGradGradGradGradGradGradGrad

 Leave Link  103 at Tue Sep 17 19:25:56 2024, MaxMem=   268435456 cpu:         1.2
 (Enter /g100_work/pMI24_ChiCa/g09d1/g09d01/d01/build-node-6-2-59348/src/main/l9999.exe)
 1\1\GINC-R500N002\Freq\RB3LYP\6-31+G(d,p)\H2O4S1\ECABIATI\17-Sep-2024\
 0\\#P Geom=AllCheck Guess=TCheck SCRF=Check GenChk RB3LYP/6-31+G(d,p) 
 Freq\\h2o4s gas\\0,1\S,-0.0194187614,0.,-0.0137311379\O,0.0920971431,0
 .0362346079,1.610698328\O,1.5492799946,-0.0362346079,-0.4500694235\O,-
 0.559491729,-1.2817013296,-0.4150320924\O,-0.5777932523,1.2817013296,-
 0.38914983\H,0.2182021478,-0.872566677,1.9368136463\H,1.8987794669,0.8
 72566677,-0.4398815909\\Version=EM64L-G09RevD.01\State=1-A\HF=-700.233
 2201\RMSD=1.103e-09\RMSF=2.156e-05\ZeroPoint=0.0381785\Thermal=0.04348
 8\Dipole=1.0143221,0.,0.717234\DipoleDeriv=2.4590459,0.0799717,-0.0452
 736,0.0515836,2.4067378,-0.0729503,-0.0452736,-0.113097,2.4910592,-0.5
 516705,-0.0315983,-0.0953229,-0.0183709,-0.4738244,0.1705982,-0.014960
 2,0.0857035,-1.3435994,-1.290266,-0.0702693,0.2461727,-0.1547179,-0.47
 38244,0.0741863,0.16581,0.058359,-0.6050039,-0.6193123,-0.1216051,-0.0
 760212,-0.2215926,-0.9816815,-0.1743462,-0.0633038,-0.063405,-0.653771
 ,-0.6937279,0.1003139,-0.0369939,0.2382394,-0.9816815,0.1508041,-0.049
 7113,0.0935154,-0.5793554,0.3524633,0.0198383,0.0058486,0.0115995,0.25
 2137,-0.1030171,-0.0015903,-0.0317791,0.3408374,0.3434674,0.0233489,0.
 0015902,0.0932589,0.252137,-0.0452751,0.0090291,-0.0292967,0.3498333\P
 olar=33.5324461,0.6768681,37.4575607,0.1456863,-0.9572359,33.4294304\P
 G=C02 [C2(S1),X(H2O4)]\NImag=0\\0.59485775,0.00625584,1.19605651,0.088
 20439,-0.00884710,0.53248783,-0.06075652,0.00062542,-0.01283911,0.0542
 3356,0.00289079,-0.09897327,0.01257644,-0.06049959,0.52741660,-0.01403
 221,-0.02340048,-0.20351079,0.03087304,-0.13609204,0.32990404,-0.19609
 404,0.02185371,0.03381683,-0.00023522,-0.00267964,0.01117016,0.3186789
 0,-0.01282078,-0.09897327,0.00146668,-0.00256361,0.01399666,0.00374856
 ,0.14847533,0.52741660,0.03500993,-0.00838981,-0.06817327,0.02758706,0
 .00366651,-0.01393797,-0.06262251,0.01167555,0.06545869,-0.15308978,-0
 .16394862,-0.05685474,0.01115109,-0.00751500,-0.00378391,-0.01360283,-
 0.04074206,-0.00516732,0.14727215,-0.17055769,-0.50161868,-0.12717008,
 -0.00390876,0.00544407,-0.00388587,-0.00540558,-0.00430509,-0.00245283
 ,0.19575768,0.51467078,-0.05820609,-0.12642733,-0.12712014,-0.01497556
 ,-0.03151041,-0.01672717,0.00676791,0.00375368,0.00982887,0.06299622,0
 .14693960,0.10933815,-0.16616579,0.17384637,-0.05358302,0.00772836,0.0
 1004168,-0.00077381,-0.01952512,0.03221330,-0.00412988,0.01659417,-0.0
 1443128,0.00000383,0.15314864,0.17674966,-0.50161868,0.11841331,0.0041
 1441,-0.00430509,0.00427882,0.00496656,0.00544407,0.00238993,0.0138520
 3,-0.01522766,0.01040925,-0.20378854,0.51467078,-0.05223167,0.11242980
 ,-0.11404414,-0.01270903,0.03966321,-0.01150232,0.00706177,-0.00341826
 ,0.01394904,0.00022265,-0.00959007,0.01651409,0.06091856,-0.13558224,0
 .10346166,0.00319923,0.00478379,-0.00166765,-0.01190535,0.05508091,-0.
 02213885,-0.00339318,0.00109356,0.00123620,-0.00178831,-0.00177510,0.0
 0208011,0.00166582,0.00082075,-0.00279281,0.01192429,0.00167869,0.0025
 6370,0.00385757,0.05992156,-0.44348565,0.15809751,0.00181923,-0.000093
 32,-0.00309393,-0.00141759,-0.00352287,-0.00382343,-0.00195883,0.00455
 944,-0.00356449,-0.05993988,0.44039506,-0.00596861,0.04435884,-0.02239
 479,-0.01804927,0.11380399,-0.08086027,-0.00019109,-0.00323009,-0.0001
 8826,0.00247996,-0.00285682,0.00598447,-0.00156637,-0.00063037,-0.0060
 2057,0.02335556,-0.15157763,0.10313500,-0.02195086,-0.04341651,0.00292
 329,-0.00021592,0.00268084,-0.00131442,-0.08582852,-0.12565573,0.00808
 652,-0.00653649,0.00032074,0.00133358,0.00655392,0.00328513,-0.0004694
 7,0.00029750,-0.00010318,-0.00006017,0.10768037,-0.00419652,0.00256370
 ,-0.00029683,0.00231057,-0.00009332,-0.00274650,-0.16902962,-0.4434856
 5,-0.00379541,0.00401357,0.00455944,0.00065864,0.00407730,-0.00352287,
 0.00006204,-0.00006403,-0.00041636,0.00013208,0.16288872,0.44039506,0.
 00722425,0.01027608,0.00275530,0.00011287,-0.00210771,-0.00336552,0.00
 399694,-0.01399612,-0.00693710,0.00010714,-0.00098393,0.00218173,-0.00
 086932,0.00072130,-0.00235775,-0.00007255,0.00010439,0.00034443,-0.010
 49933,0.00598598,0.00737892\\0.00002116,0.,0.00001496,-0.00001158,-0.0
 0003373,-0.00003876,-0.00004041,0.00003373,0.00000200,0.00002659,-0.00
 001703,-0.00000584,0.00000335,0.00001703,0.00002702,0.00000035,0.00002
 720,0.00000044,0.00000054,-0.00002720,0.00000019\\\@


 COMMON SENSE IS NOT SO COMMON.   -- VOLTAIRE
 Job cpu time:       0 days  0 hours  1 minutes 10.7 seconds.
 File lengths (MBytes):  RWF=     12 Int=      0 D2E=      0 Chk=      2 Scr=      1
 Normal termination of Gaussian 09 at Tue Sep 17 19:25:56 2024.
